 Entering Gaussian System, Link 0=/home/puck/opt/gaussian_09/g09
 Input=dsC7O2H10nsd_4145.com
 Output=dsC7O2H10nsd_4145.log
 Initial command:
 /home/puck/opt/gaussian_09/l1.exe "/scratch/puck/g09_55e11f64-029e-4836-b0a7-d405dbfe3f75/Gau-46319.inp" -scrdir="/scratch/puck/g09_55e11f64-029e-4836-b0a7-d405dbfe3f75/"
 Entering Link 1 = /home/puck/opt/gaussian_09/l1.exe PID=     46339.
  
 Copyright (c) 1988,1990,1992,1993,1995,1998,2003,2009,2013,
            Gaussian, Inc.  All Rights Reserved.
  
 This is part of the Gaussian(R) 09 program.  It is based on
 the Gaussian(R) 03 system (copyright 2003, Gaussian, Inc.),
 the Gaussian(R) 98 system (copyright 1998, Gaussian, Inc.),
 the Gaussian(R) 94 system (copyright 1995, Gaussian, Inc.),
 the Gaussian 92(TM) system (copyright 1992, Gaussian, Inc.),
 the Gaussian 90(TM) system (copyright 1990, Gaussian, Inc.),
 the Gaussian 88(TM) system (copyright 1988, Gaussian, Inc.),
 the Gaussian 86(TM) system (copyright 1986, Carnegie Mellon
 University), and the Gaussian 82(TM) system (copyright 1983,
 Carnegie Mellon University). Gaussian is a federally registered
 trademark of Gaussian, Inc.
  
 This software contains proprietary and confidential information,
 including trade secrets, belonging to Gaussian, Inc.
  
 This software is provided under written license and may be
 used, copied, transmitted, or stored only in accord with that
 written license.
  
 The following legend is applicable only to US Government
 contracts under FAR:
  
                    RESTRICTED RIGHTS LEGEND
  
 Use, reproduction and disclosure by the US Government is
 subject to restrictions as set forth in subparagraphs (a)
 and (c) of the Commercial Computer Software - Restricted
 Rights clause in FAR 52.227-19.
  
 Gaussian, Inc.
 340 Quinnipiac St., Bldg. 40, Wallingford CT 06492
  
  
 ---------------------------------------------------------------
 Warning -- This program may not be used in any manner that
 competes with the business of Gaussian, Inc. or will provide
 assistance to any competitor of Gaussian, Inc.  The licensee
 of this program is prohibited from giving any competitor of
 Gaussian, Inc. access to this program.  By using this program,
 the user acknowledges that Gaussian, Inc. is engaged in the
 business of creating and licensing software in the field of
 computational chemistry and represents and warrants to the
 licensee that it is not a competitor of Gaussian, Inc. and that
 it will not use this program in any manner prohibited above.
 ---------------------------------------------------------------
  

 Cite this work as:
 Gaussian 09, Revision D.01,
 M. J. Frisch, G. W. Trucks, H. B. Schlegel, G. E. Scuseria, 
 M. A. Robb, J. R. Cheeseman, G. Scalmani, V. Barone, B. Mennucci, 
 G. A. Petersson, H. Nakatsuji, M. Caricato, X. Li, H. P. Hratchian, 
 A. F. Izmaylov, J. Bloino, G. Zheng, J. L. Sonnenberg, M. Hada, 
 M. Ehara, K. Toyota, R. Fukuda, J. Hasegawa, M. Ishida, T. Nakajima, 
 Y. Honda, O. Kitao, H. Nakai, T. Vreven, J. A. Montgomery, Jr., 
 J. E. Peralta, F. Ogliaro, M. Bearpark, J. J. Heyd, E. Brothers, 
 K. N. Kudin, V. N. Staroverov, T. Keith, R. Kobayashi, J. Normand, 
 K. Raghavachari, A. Rendell, J. C. Burant, S. S. Iyengar, J. Tomasi, 
 M. Cossi, N. Rega, J. M. Millam, M. Klene, J. E. Knox, J. B. Cross, 
 V. Bakken, C. Adamo, J. Jaramillo, R. Gomperts, R. E. Stratmann, 
 O. Yazyev, A. J. Austin, R. Cammi, C. Pomelli, J. W. Ochterski, 
 R. L. Martin, K. Morokuma, V. G. Zakrzewski, G. A. Voth, 
 P. Salvador, J. J. Dannenberg, S. Dapprich, A. D. Daniels, 
 O. Farkas, J. B. Foresman, J. V. Ortiz, J. Cioslowski, 
 and D. J. Fox, Gaussian, Inc., Wallingford CT, 2013.
 
 ******************************************
 Gaussian 09:  ES64L-G09RevD.01 24-Apr-2013
                28-Jan-2020 
 ******************************************
 -----------------------------
 # b3lyp 6-31G(2df,p) opt Freq
 -----------------------------
 1/14=-1,18=20,19=15,26=3,38=1/1,3;
 2/9=110,12=2,17=6,18=5,40=1/2;
 3/5=1,6=6,7=104,11=2,16=1,25=1,30=1,71=1,74=-5/1,2,3;
 4//1;
 5/5=2,38=5/2;
 6/7=2,8=2,9=2,10=2,28=1/1;
 7//1,2,3,16;
 1/14=-1,18=20,19=15,26=3/3(2);
 2/9=110/2;
 99//99;
 2/9=110/2;
 3/5=1,6=6,7=104,11=2,16=1,25=1,30=1,71=1,74=-5/1,2,3;
 4/5=5,16=3,69=1/1;
 5/5=2,38=5/2;
 7//1,2,3,16;
 1/14=-1,18=20,19=15,26=3/3(-5);
 2/9=110/2;
 6/7=2,8=2,9=2,10=2,19=2,28=1/1;
 99/9=1/99;
 -----
 titel
 -----
 Symbolic Z-matrix:
 Charge =  0 Multiplicity = 1
 C                     2.74992   0.2192   -1.47384 
 C                     1.73986   0.52788  -0.37541 
 C                     2.19551   1.65294   0.62645 
 C                     2.1212    0.62968   1.76177 
 O                     0.80075   0.11456   1.79799 
 C                     1.6995   -0.44972   0.82144 
 C                     1.9513   -1.91565   0.88157 
 C                     1.66167  -2.60376   2.19999 
 O                     2.35827  -2.512    -0.09322 
 H                     2.46002  -0.66724  -2.04044 
 H                     2.82624   1.0699   -2.15973 
 H                     3.74536   0.03084  -1.05818 
 H                     0.74351   0.68684  -0.79744 
 H                     3.21461   1.98995   0.42134 
 H                     1.53878   2.51748   0.74747 
 H                     2.70386   0.56784   2.67509 
 H                     2.11196  -2.06662   3.04022 
 H                     0.5816   -2.61219   2.37954 
 H                     2.03756  -3.62665   2.15894 
 

 GradGradGradGradGradGradGradGradGradGradGradGradGradGradGradGradGradGrad
 Berny optimization.
 Initialization pass.
                           ----------------------------
                           !    Initial Parameters    !
                           ! (Angstroms and Degrees)  !
 --------------------------                            --------------------------
 ! Name  Definition              Value          Derivative Info.                !
 --------------------------------------------------------------------------------
 ! R1    R(1,2)                  1.5238         estimate D2E/DX2                !
 ! R2    R(1,10)                 1.0913         estimate D2E/DX2                !
 ! R3    R(1,11)                 1.0954         estimate D2E/DX2                !
 ! R4    R(1,12)                 1.0951         estimate D2E/DX2                !
 ! R5    R(2,3)                  1.5739         estimate D2E/DX2                !
 ! R6    R(2,6)                  1.5459         estimate D2E/DX2                !
 ! R7    R(2,13)                 1.0937         estimate D2E/DX2                !
 ! R8    R(3,4)                  1.5302         estimate D2E/DX2                !
 ! R9    R(3,14)                 1.0928         estimate D2E/DX2                !
 ! R10   R(3,15)                 1.0924         estimate D2E/DX2                !
 ! R11   R(4,5)                  1.4178         estimate D2E/DX2                !
 ! R12   R(4,6)                  1.4924         estimate D2E/DX2                !
 ! R13   R(4,16)                 1.0851         estimate D2E/DX2                !
 ! R14   R(5,6)                  1.4422         estimate D2E/DX2                !
 ! R15   R(6,7)                  1.4886         estimate D2E/DX2                !
 ! R16   R(7,8)                  1.5151         estimate D2E/DX2                !
 ! R17   R(7,9)                  1.213          estimate D2E/DX2                !
 ! R18   R(8,17)                 1.0942         estimate D2E/DX2                !
 ! R19   R(8,18)                 1.0949         estimate D2E/DX2                !
 ! R20   R(8,19)                 1.0905         estimate D2E/DX2                !
 ! A1    A(2,1,10)             111.2677         estimate D2E/DX2                !
 ! A2    A(2,1,11)             109.8897         estimate D2E/DX2                !
 ! A3    A(2,1,12)             111.3324         estimate D2E/DX2                !
 ! A4    A(10,1,11)            108.9193         estimate D2E/DX2                !
 ! A5    A(10,1,12)            107.3883         estimate D2E/DX2                !
 ! A6    A(11,1,12)            107.934          estimate D2E/DX2                !
 ! A7    A(1,2,3)              114.3148         estimate D2E/DX2                !
 ! A8    A(1,2,6)              116.5697         estimate D2E/DX2                !
 ! A9    A(1,2,13)             110.802          estimate D2E/DX2                !
 ! A10   A(3,2,6)               88.0962         estimate D2E/DX2                !
 ! A11   A(3,2,13)             113.922          estimate D2E/DX2                !
 ! A12   A(6,2,13)             111.5245         estimate D2E/DX2                !
 ! A13   A(2,3,4)               88.8659         estimate D2E/DX2                !
 ! A14   A(2,3,14)             111.7748         estimate D2E/DX2                !
 ! A15   A(2,3,15)             117.5287         estimate D2E/DX2                !
 ! A16   A(4,3,14)             113.0029         estimate D2E/DX2                !
 ! A17   A(4,3,15)             114.6973         estimate D2E/DX2                !
 ! A18   A(14,3,15)            109.7159         estimate D2E/DX2                !
 ! A19   A(3,4,5)              107.8867         estimate D2E/DX2                !
 ! A20   A(3,4,6)               91.7133         estimate D2E/DX2                !
 ! A21   A(3,4,16)             129.5319         estimate D2E/DX2                !
 ! A22   A(5,4,16)             117.2498         estimate D2E/DX2                !
 ! A23   A(6,4,16)             129.8549         estimate D2E/DX2                !
 ! A24   A(2,6,4)               91.3212         estimate D2E/DX2                !
 ! A25   A(2,6,5)              107.0429         estimate D2E/DX2                !
 ! A26   A(2,6,7)              130.5116         estimate D2E/DX2                !
 ! A27   A(4,6,7)              129.7185         estimate D2E/DX2                !
 ! A28   A(5,6,7)              117.6053         estimate D2E/DX2                !
 ! A29   A(6,7,8)              116.7471         estimate D2E/DX2                !
 ! A30   A(6,7,9)              120.5585         estimate D2E/DX2                !
 ! A31   A(8,7,9)              122.6918         estimate D2E/DX2                !
 ! A32   A(7,8,17)             111.5057         estimate D2E/DX2                !
 ! A33   A(7,8,18)             109.5577         estimate D2E/DX2                !
 ! A34   A(7,8,19)             109.1078         estimate D2E/DX2                !
 ! A35   A(17,8,18)            106.4865         estimate D2E/DX2                !
 ! A36   A(17,8,19)            110.3348         estimate D2E/DX2                !
 ! A37   A(18,8,19)            109.8133         estimate D2E/DX2                !
 ! D1    D(10,1,2,3)           170.9787         estimate D2E/DX2                !
 ! D2    D(10,1,2,6)            70.3058         estimate D2E/DX2                !
 ! D3    D(10,1,2,13)          -58.6572         estimate D2E/DX2                !
 ! D4    D(11,1,2,3)           -68.3026         estimate D2E/DX2                !
 ! D5    D(11,1,2,6)          -168.9754         estimate D2E/DX2                !
 ! D6    D(11,1,2,13)           62.0616         estimate D2E/DX2                !
 ! D7    D(12,1,2,3)            51.2243         estimate D2E/DX2                !
 ! D8    D(12,1,2,6)           -49.4486         estimate D2E/DX2                !
 ! D9    D(12,1,2,13)         -178.4116         estimate D2E/DX2                !
 ! D10   D(1,2,3,4)           -118.8549         estimate D2E/DX2                !
 ! D11   D(1,2,3,14)            -4.4629         estimate D2E/DX2                !
 ! D12   D(1,2,3,15)           123.6971         estimate D2E/DX2                !
 ! D13   D(6,2,3,4)             -0.4254         estimate D2E/DX2                !
 ! D14   D(6,2,3,14)           113.9666         estimate D2E/DX2                !
 ! D15   D(6,2,3,15)          -117.8734         estimate D2E/DX2                !
 ! D16   D(13,2,3,4)           112.3335         estimate D2E/DX2                !
 ! D17   D(13,2,3,14)         -133.2745         estimate D2E/DX2                !
 ! D18   D(13,2,3,15)           -5.1145         estimate D2E/DX2                !
 ! D19   D(1,2,6,4)            116.7956         estimate D2E/DX2                !
 ! D20   D(1,2,6,5)            173.3494         estimate D2E/DX2                !
 ! D21   D(1,2,6,7)            -32.5701         estimate D2E/DX2                !
 ! D22   D(3,2,6,4)              0.4362         estimate D2E/DX2                !
 ! D23   D(3,2,6,5)             56.99           estimate D2E/DX2                !
 ! D24   D(3,2,6,7)           -148.9295         estimate D2E/DX2                !
 ! D25   D(13,2,6,4)          -114.5894         estimate D2E/DX2                !
 ! D26   D(13,2,6,5)           -58.0356         estimate D2E/DX2                !
 ! D27   D(13,2,6,7)            96.0449         estimate D2E/DX2                !
 ! D28   D(2,3,4,5)            -57.8019         estimate D2E/DX2                !
 ! D29   D(2,3,4,6)              0.4406         estimate D2E/DX2                !
 ! D30   D(2,3,4,16)           149.3057         estimate D2E/DX2                !
 ! D31   D(14,3,4,5)          -171.0479         estimate D2E/DX2                !
 ! D32   D(14,3,4,6)          -112.8054         estimate D2E/DX2                !
 ! D33   D(14,3,4,16)           36.0598         estimate D2E/DX2                !
 ! D34   D(15,3,4,5)            62.1797         estimate D2E/DX2                !
 ! D35   D(15,3,4,6)           120.4223         estimate D2E/DX2                !
 ! D36   D(15,3,4,16)          -90.7126         estimate D2E/DX2                !
 ! D37   D(3,4,6,2)             -0.4486         estimate D2E/DX2                !
 ! D38   D(3,4,6,7)            149.3098         estimate D2E/DX2                !
 ! D39   D(16,4,6,2)          -149.1513         estimate D2E/DX2                !
 ! D40   D(16,4,6,7)             0.6071         estimate D2E/DX2                !
 ! D41   D(2,6,7,8)           -172.7771         estimate D2E/DX2                !
 ! D42   D(2,6,7,9)              6.6404         estimate D2E/DX2                !
 ! D43   D(4,6,7,8)             48.6969         estimate D2E/DX2                !
 ! D44   D(4,6,7,9)           -131.8856         estimate D2E/DX2                !
 ! D45   D(5,6,7,8)            -20.9153         estimate D2E/DX2                !
 ! D46   D(5,6,7,9)            158.5022         estimate D2E/DX2                !
 ! D47   D(6,7,8,17)           -48.7524         estimate D2E/DX2                !
 ! D48   D(6,7,8,18)            68.8724         estimate D2E/DX2                !
 ! D49   D(6,7,8,19)          -170.8789         estimate D2E/DX2                !
 ! D50   D(9,7,8,17)           131.8437         estimate D2E/DX2                !
 ! D51   D(9,7,8,18)          -110.5316         estimate D2E/DX2                !
 ! D52   D(9,7,8,19)             9.7171         estimate D2E/DX2                !
 --------------------------------------------------------------------------------
 Trust Radius=3.00D-01 FncErr=1.00D-07 GrdErr=1.00D-06
 Number of steps in this run=    114 maximum allowed number of steps=    114.
 GradGradGradGradGradGradGradGradGradGradGradGradGradGradGradGradGradGrad

                          Input orientation:                          
 ---------------------------------------------------------------------
 Center     Atomic      Atomic             Coordinates (Angstroms)
 Number     Number       Type             X           Y           Z
 ---------------------------------------------------------------------
      1          6           0        2.749922    0.219199   -1.473837
      2          6           0        1.739859    0.527876   -0.375405
      3          6           0        2.195513    1.652936    0.626451
      4          6           0        2.121196    0.629678    1.761765
      5          8           0        0.800750    0.114561    1.797985
      6          6           0        1.699500   -0.449717    0.821443
      7          6           0        1.951297   -1.915645    0.881565
      8          6           0        1.661671   -2.603760    2.199988
      9          8           0        2.358272   -2.511995   -0.093223
     10          1           0        2.460020   -0.667238   -2.040437
     11          1           0        2.826238    1.069898   -2.159727
     12          1           0        3.745357    0.030837   -1.058182
     13          1           0        0.743514    0.686838   -0.797444
     14          1           0        3.214611    1.989954    0.421338
     15          1           0        1.538780    2.517477    0.747474
     16          1           0        2.703859    0.567836    2.675089
     17          1           0        2.111956   -2.066623    3.040223
     18          1           0        0.581604   -2.612187    2.379544
     19          1           0        2.037558   -3.626652    2.158940
 ---------------------------------------------------------------------
                    Distance matrix (angstroms):
                    1          2          3          4          5
     1  C    0.000000
     2  C    1.523831   0.000000
     3  C    2.602726   1.573879   0.000000
     4  C    3.321582   2.173311   1.530203   0.000000
     5  O    3.809860   2.403410   2.384209   1.417827   0.000000
     6  C    2.611349   1.545886   2.169148   1.492356   1.442150
     7  C    3.277695   2.755990   3.586015   2.698571   2.507054
     8  C    4.759242   4.055356   4.569515   3.295197   2.879594
     9  O    3.085273   3.114945   4.229784   3.656131   3.591844
    10  H    1.091261   2.172386   3.544780   4.031567   4.254159
    11  H    1.095426   2.158196   2.915567   4.008613   4.547389
    12  H    1.095053   2.176064   2.805568   3.308868   4.103097
    13  H    2.168379   1.093658   2.251472   2.907031   2.658388
    14  H    2.634995   2.224267   1.092800   2.200603   3.352458
    15  H    3.418065   2.293426   1.092418   2.220762   2.724384
    16  H    4.163803   3.199439   2.373347   1.085118   2.143966
    17  H    5.099874   4.305392   4.434907   2.984054   2.831957
    18  H    5.250418   4.334893   4.885623   3.641659   2.796675
    19  H    5.338080   4.875616   5.499775   4.275638   3.956850
                    6          7          8          9         10
     6  C    0.000000
     7  C    1.488610   0.000000
     8  C    2.557679   1.515132   0.000000
     9  O    2.350230   1.213043   2.398435   0.000000
    10  H    2.969185   3.217984   4.729555   2.684237   0.000000
    11  H    3.530742   4.350684   5.818857   4.161658   1.779322
    12  H    2.819477   3.281778   4.679585   3.053055   1.761881
    13  H    2.196921   3.324264   4.544848   3.651836   2.514945
    14  H    2.899593   4.130554   5.165019   4.611468   3.700056
    15  H    2.972465   4.454293   5.324657   5.164682   4.331691
    16  H    2.340973   3.154482   3.372076   4.155519   4.880682
    17  H    2.776237   2.169887   1.094197   3.174509   5.281338
    18  H    2.890267   2.145965   1.094922   3.046499   5.181457
    19  H    3.463538   2.136977   1.090543   2.533289   5.154743
                   11         12         13         14         15
    11  H    0.000000
    12  H    1.771393   0.000000
    13  H    2.517993   3.083729   0.000000
    14  H    2.767532   2.511735   3.047927   0.000000
    15  H    3.493544   3.783221   2.523977   1.786913   0.000000
    16  H    4.862354   3.912850   3.989436   2.713426   2.978962
    17  H    6.114527   4.885105   4.917506   4.952799   5.157442
    18  H    6.261079   5.367761   4.582906   5.652167   5.467476
    19  H    6.428879   5.161751   5.387110   5.995913   6.323871
                   16         17         18         19
    16  H    0.000000
    17  H    2.724710   0.000000
    18  H    3.834561   1.753885   0.000000
    19  H    4.278328   1.793289   1.788185   0.000000
 Stoichiometry    C7H10O2
 Framework group  C1[X(C7H10O2)]
 Deg. of freedom    51
 Full point group                 C1      NOp   1
 Largest Abelian subgroup         C1      NOp   1
 Largest concise Abelian subgroup C1      NOp   1
                         Standard orientation:                         
 ---------------------------------------------------------------------
 Center     Atomic      Atomic             Coordinates (Angstroms)
 Number     Number       Type             X           Y           Z
 ---------------------------------------------------------------------
      1          6           0       -1.672887    1.716241    0.090291
      2          6           0       -1.342135    0.346208   -0.489081
      3          6           0       -1.946845   -0.861971    0.318214
      4          6           0       -0.523941   -1.362148    0.576450
      5          8           0        0.100520   -1.566566   -0.679932
      6          6           0        0.063755   -0.215588   -0.176638
      7          6           0        1.363416    0.483832    0.017408
      8          6           0        2.594924   -0.389216    0.147025
      9          8           0        1.412122    1.695288    0.055835
     10          1           0       -1.105086    2.504079   -0.407467
     11          1           0       -2.742565    1.921705   -0.026035
     12          1           0       -1.434227    1.765458    1.157887
     13          1           0       -1.557429    0.315489   -1.560899
     14          1           0       -2.453967   -0.528915    1.227122
     15          1           0       -2.585519   -1.562661   -0.224470
     16          1           0       -0.128715   -1.913617    1.423303
     17          1           0        2.440860   -1.195210    0.870837
     18          1           0        2.805859   -0.870391   -0.813616
     19          1           0        3.441937    0.230141    0.444097
 ---------------------------------------------------------------------
 Rotational constants (GHZ):      2.4666370      1.5921865      1.0717922
 Standard basis: 6-31G(2df,p) (6D, 7F)
 There are   329 symmetry adapted cartesian basis functions of A   symmetry.
 There are   302 symmetry adapted basis functions of A   symmetry.
   302 basis functions,   466 primitive gaussians,   329 cartesian basis functions
    34 alpha electrons       34 beta electrons
       nuclear repulsion energy       461.9609388694 Hartrees.
 NAtoms=   19 NActive=   19 NUniq=   19 SFac= 1.00D+00 NAtFMM=   60 NAOKFM=F Big=F
 Integral buffers will be    131072 words long.
 Raffenetti 2 integral format.
 Two-electron integral symmetry is turned on.
 One-electron integrals computed using PRISM.
 NBasis=   302 RedAO= T EigKep=  3.15D-04  NBF=   302
 NBsUse=   302 1.00D-06 EigRej= -1.00D+00 NBFU=   302
 ExpMin= 1.61D-01 ExpMax= 5.48D+03 ExpMxC= 8.25D+02 IAcc=1 IRadAn=         1 AccDes= 0.00D+00
 Harris functional with IExCor=  402 and IRadAn=       1 diagonalized for initial guess.
 HarFok:  IExCor=  402 AccDes= 0.00D+00 IRadAn=         1 IDoV= 1 UseB2=F ITyADJ=14
 ICtDFT=  3500011 ScaDFX=  1.000000  1.000000  1.000000  1.000000
 FoFCou: FMM=F IPFlag=           0 FMFlag=      100000 FMFlg1=           0
         NFxFlg=           0 DoJE=T BraDBF=F KetDBF=T FulRan=T
         wScrn=  0.000000 ICntrl=     500 IOpCl=  0 I1Cent=   200000004 NGrid=           0
         NMat0=    1 NMatS0=      1 NMatT0=    0 NMatD0=    1 NMtDS0=    0 NMtDT0=    0
 Petite list used in FoFCou.
 Requested convergence on RMS density matrix=1.00D-08 within 128 cycles.
 Requested convergence on MAX density matrix=1.00D-06.
 Requested convergence on             energy=1.00D-06.
 No special actions if energy rises.
 Integral accuracy reduced to 1.0D-05 until final iterations.
 Initial convergence to 1.0D-05 achieved.  Increase integral accuracy.
 SCF Done:  E(RB3LYP) =  -423.172568193     A.U. after   14 cycles
            NFock= 14  Conv=0.62D-08     -V/T= 2.0075

 **********************************************************************

            Population analysis using the SCF density.

 **********************************************************************

 Orbital symmetries:
       Occupied  (A) (A) (A) (A) (A) (A) (A) (A) (A) (A) (A) (A)
                 (A) (A) (A) (A) (A) (A) (A) (A) (A) (A) (A) (A)
                 (A) (A) (A) (A) (A) (A) (A) (A) (A) (A)
       Virtual   (A) (A) (A) (A) (A) (A) (A) (A) (A) (A) (A) (A)
                 (A) (A) (A) (A) (A) (A) (A) (A) (A) (A) (A) (A)
                 (A) (A) (A) (A) (A) (A) (A) (A) (A) (A) (A) (A)
                 (A) (A) (A) (A) (A) (A) (A) (A) (A) (A) (A) (A)
                 (A) (A) (A) (A) (A) (A) (A) (A) (A) (A) (A) (A)
                 (A) (A) (A) (A) (A) (A) (A) (A) (A) (A) (A) (A)
                 (A) (A) (A) (A) (A) (A) (A) (A) (A) (A) (A) (A)
                 (A) (A) (A) (A) (A) (A) (A) (A) (A) (A) (A) (A)
                 (A) (A) (A) (A) (A) (A) (A) (A) (A) (A) (A) (A)
                 (A) (A) (A) (A) (A) (A) (A) (A) (A) (A) (A) (A)
                 (A) (A) (A) (A) (A) (A) (A) (A) (A) (A) (A) (A)
                 (A) (A) (A) (A) (A) (A) (A) (A) (A) (A) (A) (A)
                 (A) (A) (A) (A) (A) (A) (A) (A) (A) (A) (A) (A)
                 (A) (A) (A) (A) (A) (A) (A) (A) (A) (A) (A) (A)
                 (A) (A) (A) (A) (A) (A) (A) (A) (A) (A) (A) (A)
                 (A) (A) (A) (A) (A) (A) (A) (A) (A) (A) (A) (A)
                 (A) (A) (A) (A) (A) (A) (A) (A) (A) (A) (A) (A)
                 (A) (A) (A) (A) (A) (A) (A) (A) (A) (A) (A) (A)
                 (A) (A) (A) (A) (A) (A) (A) (A) (A) (A) (A) (A)
                 (A) (A) (A) (A) (A) (A) (A) (A) (A) (A) (A) (A)
                 (A) (A) (A) (A) (A) (A) (A) (A) (A) (A) (A) (A)
                 (A) (A) (A) (A) (A) (A) (A) (A) (A) (A) (A) (A)
                 (A) (A) (A) (A)
 The electronic state is 1-A.
 Alpha  occ. eigenvalues --  -19.16792 -19.13107 -10.27522 -10.25488 -10.24715
 Alpha  occ. eigenvalues --  -10.20235 -10.19610 -10.18757 -10.17523  -1.09527
 Alpha  occ. eigenvalues --   -1.04055  -0.82076  -0.75367  -0.71723  -0.67562
 Alpha  occ. eigenvalues --   -0.62901  -0.58924  -0.53257  -0.49044  -0.47209
 Alpha  occ. eigenvalues --   -0.46484  -0.44696  -0.42723  -0.42358  -0.40959
 Alpha  occ. eigenvalues --   -0.39324  -0.38816  -0.36601  -0.35144  -0.34591
 Alpha  occ. eigenvalues --   -0.33505  -0.30160  -0.26737  -0.24693
 Alpha virt. eigenvalues --   -0.02792   0.09142   0.09831   0.10303   0.12249
 Alpha virt. eigenvalues --    0.12614   0.13263   0.14664   0.15668   0.17176
 Alpha virt. eigenvalues --    0.17709   0.17830   0.18674   0.19217   0.21162
 Alpha virt. eigenvalues --    0.21580   0.25636   0.27055   0.31336   0.31875
 Alpha virt. eigenvalues --    0.38469   0.42375   0.43393   0.45915   0.47186
 Alpha virt. eigenvalues --    0.47580   0.48650   0.50353   0.50979   0.52533
 Alpha virt. eigenvalues --    0.53050   0.55906   0.56540   0.58786   0.59654
 Alpha virt. eigenvalues --    0.61485   0.63495   0.65398   0.66304   0.70004
 Alpha virt. eigenvalues --    0.70274   0.71203   0.71472   0.72947   0.74934
 Alpha virt. eigenvalues --    0.75388   0.75448   0.75716   0.76312   0.77867
 Alpha virt. eigenvalues --    0.78587   0.81534   0.81804   0.83820   0.87664
 Alpha virt. eigenvalues --    0.88676   0.91210   0.92433   0.95035   0.97153
 Alpha virt. eigenvalues --    0.97859   1.00476   1.02643   1.04922   1.08511
 Alpha virt. eigenvalues --    1.09007   1.11794   1.15303   1.17356   1.18517
 Alpha virt. eigenvalues --    1.20918   1.22419   1.26342   1.28588   1.30606
 Alpha virt. eigenvalues --    1.34034   1.36177   1.36454   1.37588   1.39268
 Alpha virt. eigenvalues --    1.41227   1.41435   1.44314   1.48017   1.48617
 Alpha virt. eigenvalues --    1.50012   1.51432   1.53701   1.54386   1.57270
 Alpha virt. eigenvalues --    1.58843   1.62412   1.63027   1.65358   1.67710
 Alpha virt. eigenvalues --    1.70014   1.73245   1.75512   1.77304   1.79376
 Alpha virt. eigenvalues --    1.79755   1.82533   1.83737   1.87981   1.90010
 Alpha virt. eigenvalues --    1.92254   1.94850   1.96556   1.99937   2.03573
 Alpha virt. eigenvalues --    2.06214   2.11132   2.19070   2.20309   2.21792
 Alpha virt. eigenvalues --    2.27387   2.30870   2.34548   2.35113   2.38713
 Alpha virt. eigenvalues --    2.41654   2.43257   2.47194   2.50054   2.52531
 Alpha virt. eigenvalues --    2.55474   2.60989   2.65795   2.69997   2.72042
 Alpha virt. eigenvalues --    2.73827   2.75765   2.79224   2.82432   2.83891
 Alpha virt. eigenvalues --    2.84522   2.85229   2.86622   2.88381   2.90832
 Alpha virt. eigenvalues --    2.92862   2.93396   2.97697   3.00575   3.01562
 Alpha virt. eigenvalues --    3.02786   3.05934   3.07861   3.08556   3.11379
 Alpha virt. eigenvalues --    3.13980   3.16086   3.17953   3.22339   3.23900
 Alpha virt. eigenvalues --    3.27880   3.28136   3.30252   3.31834   3.34091
 Alpha virt. eigenvalues --    3.36514   3.40562   3.41133   3.44724   3.50291
 Alpha virt. eigenvalues --    3.51363   3.53679   3.56450   3.59954   3.63165
 Alpha virt. eigenvalues --    3.64993   3.65718   3.69042   3.72497   3.77164
 Alpha virt. eigenvalues --    3.78310   3.82396   3.85611   3.90459   3.92950
 Alpha virt. eigenvalues --    3.94582   3.96493   4.02707   4.06495   4.10739
 Alpha virt. eigenvalues --    4.14141   4.15948   4.16366   4.23871   4.26296
 Alpha virt. eigenvalues --    4.26699   4.29298   4.30635   4.31976   4.34792
 Alpha virt. eigenvalues --    4.37454   4.40672   4.41999   4.43117   4.45502
 Alpha virt. eigenvalues --    4.48315   4.49351   4.51191   4.53317   4.54168
 Alpha virt. eigenvalues --    4.55258   4.58395   4.60183   4.61867   4.62542
 Alpha virt. eigenvalues --    4.63798   4.66056   4.68708   4.71480   4.73236
 Alpha virt. eigenvalues --    4.74615   4.77690   4.79047   4.80093   4.81094
 Alpha virt. eigenvalues --    4.81867   4.86729   4.89044   4.90286   4.92233
 Alpha virt. eigenvalues --    4.95009   4.99855   5.01320   5.07665   5.08404
 Alpha virt. eigenvalues --    5.09851   5.12678   5.13854   5.15502   5.26316
 Alpha virt. eigenvalues --    5.27362   5.30789   5.37449   5.39945   5.44303
 Alpha virt. eigenvalues --    5.47934   5.52129   5.53282   5.56355   5.64737
 Alpha virt. eigenvalues --    5.71714   5.77890   5.87187   5.92686   6.00955
 Alpha virt. eigenvalues --    6.01878   6.08804   6.10909   6.18250   6.42359
 Alpha virt. eigenvalues --    6.57000   6.81447   6.97274   7.03513  10.58375
 Alpha virt. eigenvalues --   11.09505  11.52595  11.73943  12.02704  12.14592
 Alpha virt. eigenvalues --   12.89678  13.13211  13.35416
          Condensed to atoms (all electrons):
               1          2          3          4          5          6
     1  C    5.018351   0.370188  -0.026687   0.001420   0.002754  -0.018924
     2  C    0.370188   4.812576   0.340991  -0.054718  -0.032040   0.410319
     3  C   -0.026687   0.340991   5.118415   0.309986  -0.031419  -0.034755
     4  C    0.001420  -0.054718   0.309986   4.874509   0.308454   0.252390
     5  O    0.002754  -0.032040  -0.031419   0.308454   7.845457   0.220229
     6  C   -0.018924   0.410319  -0.034755   0.252390   0.220229   4.806350
     7  C   -0.000411  -0.053755   0.003544  -0.012320  -0.019231   0.289928
     8  C    0.000089   0.004882   0.000091  -0.002192   0.006235  -0.107554
     9  O    0.000608  -0.006247   0.000068   0.000981   0.001114  -0.088048
    10  H    0.375368  -0.017954   0.003831   0.000099   0.000008  -0.006610
    11  H    0.359349  -0.018479  -0.004633   0.000271  -0.000058   0.002325
    12  H    0.370965  -0.021308  -0.007471   0.001955   0.000022  -0.006340
    13  H   -0.048023   0.350910  -0.034013   0.002329   0.000923  -0.029298
    14  H   -0.009152  -0.022047   0.344548  -0.009766   0.002313  -0.002008
    15  H    0.003359  -0.011928   0.338777  -0.007038  -0.001930  -0.001886
    16  H    0.000221   0.008924  -0.061795   0.371194  -0.028261  -0.020533
    17  H   -0.000013   0.000118   0.000022   0.002121  -0.000112   0.001522
    18  H    0.000002  -0.000122  -0.000010   0.000098   0.001624   0.001154
    19  H   -0.000005  -0.000080   0.000013  -0.000226   0.000392   0.002857
               7          8          9         10         11         12
     1  C   -0.000411   0.000089   0.000608   0.375368   0.359349   0.370965
     2  C   -0.053755   0.004882  -0.006247  -0.017954  -0.018479  -0.021308
     3  C    0.003544   0.000091   0.000068   0.003831  -0.004633  -0.007471
     4  C   -0.012320  -0.002192   0.000981   0.000099   0.000271   0.001955
     5  O   -0.019231   0.006235   0.001114   0.000008  -0.000058   0.000022
     6  C    0.289928  -0.107554  -0.088048  -0.006610   0.002325  -0.006340
     7  C    4.433306   0.307808   0.804210   0.002585   0.000141   0.001476
     8  C    0.307808   5.278443  -0.070244   0.000091   0.000006  -0.000016
     9  O    0.804210  -0.070244   7.652506   0.006299   0.000276   0.000094
    10  H    0.002585   0.000091   0.006299   0.555817  -0.029217  -0.030566
    11  H    0.000141   0.000006   0.000276  -0.029217   0.613760  -0.033202
    12  H    0.001476  -0.000016   0.000094  -0.030566  -0.033202   0.598790
    13  H    0.002837  -0.000096  -0.000117  -0.002544  -0.002737   0.006035
    14  H    0.000331  -0.000006  -0.000017   0.000064   0.001483   0.004774
    15  H   -0.000225   0.000007   0.000001  -0.000126   0.000260   0.000047
    16  H   -0.000403   0.000278   0.000021   0.000018   0.000010  -0.000217
    17  H   -0.011764   0.354119   0.001661  -0.000001   0.000000  -0.000004
    18  H   -0.009199   0.358007   0.000378  -0.000004   0.000000   0.000001
    19  H   -0.009661   0.352652   0.002636   0.000000   0.000000   0.000000
              13         14         15         16         17         18
     1  C   -0.048023  -0.009152   0.003359   0.000221  -0.000013   0.000002
     2  C    0.350910  -0.022047  -0.011928   0.008924   0.000118  -0.000122
     3  C   -0.034013   0.344548   0.338777  -0.061795   0.000022  -0.000010
     4  C    0.002329  -0.009766  -0.007038   0.371194   0.002121   0.000098
     5  O    0.000923   0.002313  -0.001930  -0.028261  -0.000112   0.001624
     6  C   -0.029298  -0.002008  -0.001886  -0.020533   0.001522   0.001154
     7  C    0.002837   0.000331  -0.000225  -0.000403  -0.011764  -0.009199
     8  C   -0.000096  -0.000006   0.000007   0.000278   0.354119   0.358007
     9  O   -0.000117  -0.000017   0.000001   0.000021   0.001661   0.000378
    10  H   -0.002544   0.000064  -0.000126   0.000018  -0.000001  -0.000004
    11  H   -0.002737   0.001483   0.000260   0.000010   0.000000   0.000000
    12  H    0.006035   0.004774   0.000047  -0.000217  -0.000004   0.000001
    13  H    0.666208   0.004437  -0.003291  -0.000508  -0.000002   0.000016
    14  H    0.004437   0.610816  -0.037245  -0.000048   0.000000   0.000000
    15  H   -0.003291  -0.037245   0.604198   0.002195   0.000001   0.000001
    16  H   -0.000508  -0.000048   0.002195   0.616984   0.001747  -0.000036
    17  H   -0.000002   0.000000   0.000001   0.001747   0.566636  -0.026592
    18  H    0.000016   0.000000   0.000001  -0.000036  -0.026592   0.541987
    19  H    0.000001   0.000000   0.000000  -0.000083  -0.026369  -0.024159
              19
     1  C   -0.000005
     2  C   -0.000080
     3  C    0.000013
     4  C   -0.000226
     5  O    0.000392
     6  C    0.002857
     7  C   -0.009661
     8  C    0.352652
     9  O    0.002636
    10  H    0.000000
    11  H    0.000000
    12  H    0.000000
    13  H    0.000001
    14  H    0.000000
    15  H    0.000000
    16  H   -0.000083
    17  H   -0.026369
    18  H   -0.024159
    19  H    0.563311
 Mulliken charges:
               1
     1  C   -0.399458
     2  C   -0.060230
     3  C   -0.259503
     4  C   -0.039549
     5  O   -0.276473
     6  C    0.328884
     7  C    0.270803
     8  C   -0.482601
     9  O   -0.306178
    10  H    0.142840
    11  H    0.110443
    12  H    0.114966
    13  H    0.086934
    14  H    0.111524
    15  H    0.114824
    16  H    0.110292
    17  H    0.136910
    18  H    0.156852
    19  H    0.138720
 Sum of Mulliken charges =   0.00000
 Mulliken charges with hydrogens summed into heavy atoms:
               1
     1  C   -0.031209
     2  C    0.026704
     3  C   -0.033156
     4  C    0.070743
     5  O   -0.276473
     6  C    0.328884
     7  C    0.270803
     8  C   -0.050118
     9  O   -0.306178
 Electronic spatial extent (au):  <R**2>=           1153.3103
 Charge=              0.0000 electrons
 Dipole moment (field-independent basis, Debye):
    X=             -0.9501    Y=             -1.5775    Z=              1.0914  Tot=              2.1406
 Quadrupole moment (field-independent basis, Debye-Ang):
   XX=            -50.0038   YY=            -58.8443   ZZ=            -51.8629
   XY=             -3.0897   XZ=             -0.0902   YZ=             -3.1673
 Traceless Quadrupole moment (field-independent basis, Debye-Ang):
   XX=              3.5665   YY=             -5.2740   ZZ=              1.7075
   XY=             -3.0897   XZ=             -0.0902   YZ=             -3.1673
 Octapole moment (field-independent basis, Debye-Ang**2):
  XXX=              9.6691  YYY=             -7.2091  ZZZ=             -1.4318  XYY=             -6.5497
  XXY=             -6.4470  XXZ=             -1.7897  XZZ=              2.5661  YZZ=              0.0252
  YYZ=              3.3923  XYZ=             -0.3763
 Hexadecapole moment (field-independent basis, Debye-Ang**3):
 XXXX=           -842.7170 YYYY=           -519.2252 ZZZZ=           -122.4336 XXXY=              4.6072
 XXXZ=              0.7138 YYYX=             -1.8920 YYYZ=             -8.1154 ZZZX=             -1.5000
 ZZZY=              1.1207 XXYY=           -237.1835 XXZZ=           -161.2061 YYZZ=           -102.5015
 XXYZ=              3.6117 YYXZ=              2.0654 ZZXY=              1.5283
 N-N= 4.619609388694D+02 E-N=-1.910385747782D+03  KE= 4.200230346764D+02
 Calling FoFJK, ICntrl=      2127 FMM=F ISym2X=0 I1Cent= 0 IOpClX= 0 NMat=1 NMatS=1 NMatT=0.
 ***** Axes restored to original set *****
 -------------------------------------------------------------------
 Center     Atomic                   Forces (Hartrees/Bohr)
 Number     Number              X              Y              Z
 -------------------------------------------------------------------
      1        6          -0.000005014   -0.000002516   -0.000001157
      2        6           0.000019494   -0.000001058   -0.000009383
      3        6          -0.000005393    0.000010065   -0.000000449
      4        6          -0.000053173   -0.000041612    0.000003746
      5        8           0.000009675    0.000022429    0.000018731
      6        6           0.000021314   -0.000008225   -0.000029214
      7        6          -0.000005370    0.000009549    0.000013155
      8        6           0.000004632   -0.000005253    0.000017863
      9        8           0.000003889   -0.000005035   -0.000000757
     10        1          -0.000000570   -0.000004054    0.000001855
     11        1          -0.000001020   -0.000005247   -0.000004884
     12        1          -0.000001144   -0.000000735   -0.000001829
     13        1          -0.000002907   -0.000002282    0.000004150
     14        1           0.000001572   -0.000003237   -0.000004896
     15        1          -0.000000250    0.000000310   -0.000007844
     16        1           0.000014113    0.000021231   -0.000003546
     17        1          -0.000001341    0.000006380    0.000000345
     18        1           0.000000492    0.000004008    0.000002238
     19        1           0.000001002    0.000005282    0.000001878
 -------------------------------------------------------------------
 Cartesian Forces:  Max     0.000053173 RMS     0.000012702

 GradGradGradGradGradGradGradGradGradGradGradGradGradGradGradGradGradGrad
 Berny optimization.
 FormGI is forming the generalized inverse of G from B-inverse, IUseBI=4.
 Internal  Forces:  Max     0.000015327 RMS     0.000004250
 Search for a local minimum.
 Step number   1 out of a maximum of  114
 All quantities printed in internal units (Hartrees-Bohrs-Radians)
 Mixed Optimization -- En-DIIS/RFO-DIIS
 Second derivative matrix not updated -- first step.
 ITU=  0
     Eigenvalues ---    0.00451   0.00566   0.00601   0.00737   0.00917
     Eigenvalues ---    0.01709   0.01823   0.02872   0.04019   0.04143
     Eigenvalues ---    0.04781   0.05554   0.05667   0.05736   0.06403
     Eigenvalues ---    0.06633   0.07188   0.07422   0.09270   0.11321
     Eigenvalues ---    0.14608   0.16000   0.16000   0.16000   0.16000
     Eigenvalues ---    0.16000   0.16000   0.18983   0.20102   0.22446
     Eigenvalues ---    0.24999   0.25000   0.25035   0.26387   0.27291
     Eigenvalues ---    0.28880   0.30001   0.30840   0.33602   0.34193
     Eigenvalues ---    0.34235   0.34250   0.34332   0.34393   0.34491
     Eigenvalues ---    0.34535   0.34667   0.34750   0.35383   0.38947
     Eigenvalues ---    0.98533
 RFO step:  Lambda=-1.82901078D-08 EMin= 4.50710300D-03
 Linear search not attempted -- first point.
 Iteration  1 RMS(Cart)=  0.00012062 RMS(Int)=  0.00000001
 Iteration  2 RMS(Cart)=  0.00000001 RMS(Int)=  0.00000000
 Variable       Old X    -DE/DX   Delta X   Delta X   Delta X     New X
                                 (Linear)    (Quad)   (Total)
    R1        2.87962   0.00000   0.00000  -0.00001  -0.00001   2.87961
    R2        2.06218   0.00000   0.00000   0.00000   0.00000   2.06218
    R3        2.07006   0.00000   0.00000   0.00000   0.00000   2.07006
    R4        2.06935   0.00000   0.00000   0.00000   0.00000   2.06935
    R5        2.97420   0.00000   0.00000  -0.00001  -0.00001   2.97419
    R6        2.92130   0.00001   0.00000   0.00001   0.00001   2.92131
    R7        2.06671   0.00000   0.00000   0.00000   0.00000   2.06671
    R8        2.89166   0.00001   0.00000   0.00002   0.00002   2.89169
    R9        2.06509   0.00000   0.00000   0.00000   0.00000   2.06510
   R10        2.06437   0.00000   0.00000   0.00000   0.00000   2.06437
   R11        2.67931  -0.00002   0.00000  -0.00007  -0.00007   2.67923
   R12        2.82015  -0.00001   0.00000  -0.00002  -0.00002   2.82013
   R13        2.05058   0.00001   0.00000   0.00002   0.00002   2.05059
   R14        2.72527   0.00002   0.00000   0.00008   0.00008   2.72535
   R15        2.81307   0.00000   0.00000  -0.00001  -0.00001   2.81306
   R16        2.86318   0.00000   0.00000   0.00002   0.00002   2.86320
   R17        2.29232   0.00001   0.00000   0.00001   0.00001   2.29233
   R18        2.06773   0.00000   0.00000  -0.00001  -0.00001   2.06773
   R19        2.06910   0.00000   0.00000   0.00000   0.00000   2.06910
   R20        2.06083   0.00000   0.00000  -0.00001  -0.00001   2.06082
    A1        1.94199   0.00000   0.00000  -0.00001  -0.00001   1.94197
    A2        1.91794   0.00000   0.00000   0.00001   0.00001   1.91795
    A3        1.94312   0.00000   0.00000   0.00001   0.00001   1.94312
    A4        1.90100   0.00000   0.00000  -0.00001  -0.00001   1.90099
    A5        1.87428   0.00000   0.00000   0.00001   0.00001   1.87429
    A6        1.88380   0.00000   0.00000   0.00000   0.00000   1.88380
    A7        1.99517   0.00000   0.00000   0.00005   0.00005   1.99522
    A8        2.03453   0.00000   0.00000   0.00006   0.00006   2.03459
    A9        1.93386   0.00000   0.00000   0.00000   0.00000   1.93386
   A10        1.53757   0.00000   0.00000  -0.00001  -0.00001   1.53756
   A11        1.98831   0.00000   0.00000  -0.00005  -0.00005   1.98827
   A12        1.94647   0.00000   0.00000  -0.00006  -0.00006   1.94641
   A13        1.55100   0.00000   0.00000   0.00000   0.00000   1.55101
   A14        1.95084   0.00000   0.00000  -0.00003  -0.00003   1.95081
   A15        2.05126   0.00000   0.00000   0.00000   0.00000   2.05127
   A16        1.97227   0.00000   0.00000  -0.00003  -0.00003   1.97225
   A17        2.00185   0.00000   0.00000   0.00003   0.00003   2.00188
   A18        1.91490   0.00000   0.00000   0.00001   0.00001   1.91491
   A19        1.88298   0.00000   0.00000   0.00005   0.00005   1.88303
   A20        1.60070   0.00000   0.00000  -0.00001  -0.00001   1.60069
   A21        2.26076  -0.00001   0.00000  -0.00014  -0.00014   2.26062
   A22        2.04639   0.00000   0.00000   0.00009   0.00009   2.04648
   A23        2.26640   0.00001   0.00000   0.00007   0.00007   2.26646
   A24        1.59386   0.00000   0.00000   0.00001   0.00001   1.59387
   A25        1.86825   0.00000   0.00000  -0.00002  -0.00002   1.86823
   A26        2.27786   0.00000   0.00000   0.00005   0.00005   2.27791
   A27        2.26402   0.00000   0.00000  -0.00001  -0.00001   2.26401
   A28        2.05260   0.00000   0.00000  -0.00004  -0.00004   2.05257
   A29        2.03762   0.00000   0.00000   0.00001   0.00001   2.03763
   A30        2.10414   0.00000   0.00000   0.00000   0.00000   2.10414
   A31        2.14138   0.00000   0.00000  -0.00001  -0.00001   2.14137
   A32        1.94614   0.00000   0.00000   0.00000   0.00000   1.94614
   A33        1.91214   0.00000   0.00000  -0.00003  -0.00003   1.91212
   A34        1.90429   0.00000   0.00000  -0.00003  -0.00003   1.90426
   A35        1.85854   0.00000   0.00000   0.00001   0.00001   1.85855
   A36        1.92571   0.00000   0.00000   0.00004   0.00004   1.92575
   A37        1.91660   0.00000   0.00000   0.00001   0.00001   1.91661
    D1        2.98414   0.00000   0.00000  -0.00010  -0.00010   2.98404
    D2        1.22707   0.00000   0.00000  -0.00016  -0.00016   1.22691
    D3       -1.02376   0.00000   0.00000  -0.00013  -0.00013  -1.02389
    D4       -1.19210   0.00000   0.00000  -0.00011  -0.00011  -1.19222
    D5       -2.94918   0.00000   0.00000  -0.00017  -0.00017  -2.94935
    D6        1.08318   0.00000   0.00000  -0.00014  -0.00014   1.08304
    D7        0.89403   0.00000   0.00000  -0.00011  -0.00011   0.89393
    D8       -0.86304   0.00000   0.00000  -0.00016  -0.00016  -0.86320
    D9       -3.11387   0.00000   0.00000  -0.00013  -0.00013  -3.11400
   D10       -2.07441   0.00000   0.00000  -0.00015  -0.00015  -2.07456
   D11       -0.07789   0.00000   0.00000  -0.00018  -0.00018  -0.07807
   D12        2.15892   0.00000   0.00000  -0.00019  -0.00019   2.15873
   D13       -0.00742   0.00000   0.00000  -0.00007  -0.00007  -0.00750
   D14        1.98909   0.00000   0.00000  -0.00010  -0.00010   1.98899
   D15       -2.05728   0.00000   0.00000  -0.00011  -0.00011  -2.05739
   D16        1.96059   0.00000   0.00000  -0.00015  -0.00015   1.96044
   D17       -2.32608   0.00000   0.00000  -0.00018  -0.00018  -2.32626
   D18       -0.08927   0.00000   0.00000  -0.00019  -0.00019  -0.08946
   D19        2.03847   0.00001   0.00000   0.00014   0.00014   2.03861
   D20        3.02552   0.00000   0.00000   0.00010   0.00010   3.02562
   D21       -0.56846   0.00000   0.00000   0.00007   0.00007  -0.56839
   D22        0.00761   0.00000   0.00000   0.00008   0.00008   0.00769
   D23        0.99466  -0.00001   0.00000   0.00004   0.00004   0.99470
   D24       -2.59931   0.00000   0.00000   0.00000   0.00000  -2.59931
   D25       -1.99996   0.00001   0.00000   0.00014   0.00014  -1.99982
   D26       -1.01291   0.00000   0.00000   0.00010   0.00010  -1.01281
   D27        1.67630   0.00000   0.00000   0.00007   0.00007   1.67637
   D28       -1.00883  -0.00001   0.00000   0.00003   0.00003  -1.00880
   D29        0.00769   0.00000   0.00000   0.00008   0.00008   0.00777
   D30        2.60588   0.00000   0.00000   0.00000   0.00000   2.60587
   D31       -2.98535  -0.00001   0.00000   0.00006   0.00006  -2.98529
   D32       -1.96883   0.00000   0.00000   0.00011   0.00011  -1.96872
   D33        0.62936   0.00000   0.00000   0.00003   0.00003   0.62939
   D34        1.08524  -0.00001   0.00000   0.00004   0.00004   1.08529
   D35        2.10177   0.00000   0.00000   0.00009   0.00009   2.10185
   D36       -1.58323   0.00000   0.00000   0.00001   0.00001  -1.58322
   D37       -0.00783   0.00000   0.00000  -0.00008  -0.00008  -0.00791
   D38        2.60595   0.00000   0.00000   0.00002   0.00002   2.60597
   D39       -2.60318   0.00001   0.00000   0.00010   0.00010  -2.60308
   D40        0.01060   0.00001   0.00000   0.00020   0.00020   0.01080
   D41       -3.01553   0.00000   0.00000   0.00015   0.00015  -3.01538
   D42        0.11590   0.00000   0.00000   0.00013   0.00013   0.11602
   D43        0.84992   0.00000   0.00000   0.00004   0.00004   0.84996
   D44       -2.30184   0.00000   0.00000   0.00001   0.00001  -2.30182
   D45       -0.36504   0.00001   0.00000   0.00012   0.00012  -0.36492
   D46        2.76639   0.00001   0.00000   0.00010   0.00010   2.76648
   D47       -0.85089   0.00000   0.00000   0.00005   0.00005  -0.85084
   D48        1.20205   0.00000   0.00000   0.00004   0.00004   1.20209
   D49       -2.98240   0.00000   0.00000   0.00002   0.00002  -2.98238
   D50        2.30111   0.00000   0.00000   0.00008   0.00008   2.30118
   D51       -1.92914   0.00000   0.00000   0.00007   0.00007  -1.92907
   D52        0.16960   0.00000   0.00000   0.00005   0.00005   0.16964
         Item               Value     Threshold  Converged?
 Maximum Force            0.000015     0.000450     YES
 RMS     Force            0.000004     0.000300     YES
 Maximum Displacement     0.000467     0.001800     YES
 RMS     Displacement     0.000121     0.001200     YES
 Predicted change in Energy=-9.145324D-09
 Optimization completed.
    -- Stationary point found.
                           ----------------------------
                           !   Optimized Parameters   !
                           ! (Angstroms and Degrees)  !
 --------------------------                            --------------------------
 ! Name  Definition              Value          Derivative Info.                !
 --------------------------------------------------------------------------------
 ! R1    R(1,2)                  1.5238         -DE/DX =    0.0                 !
 ! R2    R(1,10)                 1.0913         -DE/DX =    0.0                 !
 ! R3    R(1,11)                 1.0954         -DE/DX =    0.0                 !
 ! R4    R(1,12)                 1.0951         -DE/DX =    0.0                 !
 ! R5    R(2,3)                  1.5739         -DE/DX =    0.0                 !
 ! R6    R(2,6)                  1.5459         -DE/DX =    0.0                 !
 ! R7    R(2,13)                 1.0937         -DE/DX =    0.0                 !
 ! R8    R(3,4)                  1.5302         -DE/DX =    0.0                 !
 ! R9    R(3,14)                 1.0928         -DE/DX =    0.0                 !
 ! R10   R(3,15)                 1.0924         -DE/DX =    0.0                 !
 ! R11   R(4,5)                  1.4178         -DE/DX =    0.0                 !
 ! R12   R(4,6)                  1.4924         -DE/DX =    0.0                 !
 ! R13   R(4,16)                 1.0851         -DE/DX =    0.0                 !
 ! R14   R(5,6)                  1.4422         -DE/DX =    0.0                 !
 ! R15   R(6,7)                  1.4886         -DE/DX =    0.0                 !
 ! R16   R(7,8)                  1.5151         -DE/DX =    0.0                 !
 ! R17   R(7,9)                  1.213          -DE/DX =    0.0                 !
 ! R18   R(8,17)                 1.0942         -DE/DX =    0.0                 !
 ! R19   R(8,18)                 1.0949         -DE/DX =    0.0                 !
 ! R20   R(8,19)                 1.0905         -DE/DX =    0.0                 !
 ! A1    A(2,1,10)             111.2677         -DE/DX =    0.0                 !
 ! A2    A(2,1,11)             109.8897         -DE/DX =    0.0                 !
 ! A3    A(2,1,12)             111.3324         -DE/DX =    0.0                 !
 ! A4    A(10,1,11)            108.9193         -DE/DX =    0.0                 !
 ! A5    A(10,1,12)            107.3883         -DE/DX =    0.0                 !
 ! A6    A(11,1,12)            107.934          -DE/DX =    0.0                 !
 ! A7    A(1,2,3)              114.3148         -DE/DX =    0.0                 !
 ! A8    A(1,2,6)              116.5697         -DE/DX =    0.0                 !
 ! A9    A(1,2,13)             110.802          -DE/DX =    0.0                 !
 ! A10   A(3,2,6)               88.0962         -DE/DX =    0.0                 !
 ! A11   A(3,2,13)             113.922          -DE/DX =    0.0                 !
 ! A12   A(6,2,13)             111.5245         -DE/DX =    0.0                 !
 ! A13   A(2,3,4)               88.8659         -DE/DX =    0.0                 !
 ! A14   A(2,3,14)             111.7748         -DE/DX =    0.0                 !
 ! A15   A(2,3,15)             117.5287         -DE/DX =    0.0                 !
 ! A16   A(4,3,14)             113.0029         -DE/DX =    0.0                 !
 ! A17   A(4,3,15)             114.6973         -DE/DX =    0.0                 !
 ! A18   A(14,3,15)            109.7159         -DE/DX =    0.0                 !
 ! A19   A(3,4,5)              107.8867         -DE/DX =    0.0                 !
 ! A20   A(3,4,6)               91.7133         -DE/DX =    0.0                 !
 ! A21   A(3,4,16)             129.5319         -DE/DX =    0.0                 !
 ! A22   A(5,4,16)             117.2498         -DE/DX =    0.0                 !
 ! A23   A(6,4,16)             129.8549         -DE/DX =    0.0                 !
 ! A24   A(2,6,4)               91.3212         -DE/DX =    0.0                 !
 ! A25   A(2,6,5)              107.0429         -DE/DX =    0.0                 !
 ! A26   A(2,6,7)              130.5116         -DE/DX =    0.0                 !
 ! A27   A(4,6,7)              129.7185         -DE/DX =    0.0                 !
 ! A28   A(5,6,7)              117.6053         -DE/DX =    0.0                 !
 ! A29   A(6,7,8)              116.7471         -DE/DX =    0.0                 !
 ! A30   A(6,7,9)              120.5585         -DE/DX =    0.0                 !
 ! A31   A(8,7,9)              122.6918         -DE/DX =    0.0                 !
 ! A32   A(7,8,17)             111.5057         -DE/DX =    0.0                 !
 ! A33   A(7,8,18)             109.5577         -DE/DX =    0.0                 !
 ! A34   A(7,8,19)             109.1078         -DE/DX =    0.0                 !
 ! A35   A(17,8,18)            106.4865         -DE/DX =    0.0                 !
 ! A36   A(17,8,19)            110.3348         -DE/DX =    0.0                 !
 ! A37   A(18,8,19)            109.8133         -DE/DX =    0.0                 !
 ! D1    D(10,1,2,3)           170.9787         -DE/DX =    0.0                 !
 ! D2    D(10,1,2,6)            70.3058         -DE/DX =    0.0                 !
 ! D3    D(10,1,2,13)          -58.6572         -DE/DX =    0.0                 !
 ! D4    D(11,1,2,3)           -68.3026         -DE/DX =    0.0                 !
 ! D5    D(11,1,2,6)          -168.9754         -DE/DX =    0.0                 !
 ! D6    D(11,1,2,13)           62.0616         -DE/DX =    0.0                 !
 ! D7    D(12,1,2,3)            51.2243         -DE/DX =    0.0                 !
 ! D8    D(12,1,2,6)           -49.4486         -DE/DX =    0.0                 !
 ! D9    D(12,1,2,13)         -178.4116         -DE/DX =    0.0                 !
 ! D10   D(1,2,3,4)           -118.8549         -DE/DX =    0.0                 !
 ! D11   D(1,2,3,14)            -4.4629         -DE/DX =    0.0                 !
 ! D12   D(1,2,3,15)           123.6971         -DE/DX =    0.0                 !
 ! D13   D(6,2,3,4)             -0.4254         -DE/DX =    0.0                 !
 ! D14   D(6,2,3,14)           113.9666         -DE/DX =    0.0                 !
 ! D15   D(6,2,3,15)          -117.8734         -DE/DX =    0.0                 !
 ! D16   D(13,2,3,4)           112.3335         -DE/DX =    0.0                 !
 ! D17   D(13,2,3,14)         -133.2745         -DE/DX =    0.0                 !
 ! D18   D(13,2,3,15)           -5.1145         -DE/DX =    0.0                 !
 ! D19   D(1,2,6,4)            116.7956         -DE/DX =    0.0                 !
 ! D20   D(1,2,6,5)            173.3494         -DE/DX =    0.0                 !
 ! D21   D(1,2,6,7)            -32.5701         -DE/DX =    0.0                 !
 ! D22   D(3,2,6,4)              0.4362         -DE/DX =    0.0                 !
 ! D23   D(3,2,6,5)             56.99           -DE/DX =    0.0                 !
 ! D24   D(3,2,6,7)           -148.9295         -DE/DX =    0.0                 !
 ! D25   D(13,2,6,4)          -114.5894         -DE/DX =    0.0                 !
 ! D26   D(13,2,6,5)           -58.0356         -DE/DX =    0.0                 !
 ! D27   D(13,2,6,7)            96.0449         -DE/DX =    0.0                 !
 ! D28   D(2,3,4,5)            -57.8019         -DE/DX =    0.0                 !
 ! D29   D(2,3,4,6)              0.4406         -DE/DX =    0.0                 !
 ! D30   D(2,3,4,16)           149.3057         -DE/DX =    0.0                 !
 ! D31   D(14,3,4,5)          -171.0479         -DE/DX =    0.0                 !
 ! D32   D(14,3,4,6)          -112.8054         -DE/DX =    0.0                 !
 ! D33   D(14,3,4,16)           36.0598         -DE/DX =    0.0                 !
 ! D34   D(15,3,4,5)            62.1797         -DE/DX =    0.0                 !
 ! D35   D(15,3,4,6)           120.4223         -DE/DX =    0.0                 !
 ! D36   D(15,3,4,16)          -90.7126         -DE/DX =    0.0                 !
 ! D37   D(3,4,6,2)             -0.4486         -DE/DX =    0.0                 !
 ! D38   D(3,4,6,7)            149.3098         -DE/DX =    0.0                 !
 ! D39   D(16,4,6,2)          -149.1513         -DE/DX =    0.0                 !
 ! D40   D(16,4,6,7)             0.6071         -DE/DX =    0.0                 !
 ! D41   D(2,6,7,8)           -172.7771         -DE/DX =    0.0                 !
 ! D42   D(2,6,7,9)              6.6404         -DE/DX =    0.0                 !
 ! D43   D(4,6,7,8)             48.6969         -DE/DX =    0.0                 !
 ! D44   D(4,6,7,9)           -131.8856         -DE/DX =    0.0                 !
 ! D45   D(5,6,7,8)            -20.9153         -DE/DX =    0.0                 !
 ! D46   D(5,6,7,9)            158.5022         -DE/DX =    0.0                 !
 ! D47   D(6,7,8,17)           -48.7524         -DE/DX =    0.0                 !
 ! D48   D(6,7,8,18)            68.8724         -DE/DX =    0.0                 !
 ! D49   D(6,7,8,19)          -170.8789         -DE/DX =    0.0                 !
 ! D50   D(9,7,8,17)           131.8437         -DE/DX =    0.0                 !
 ! D51   D(9,7,8,18)          -110.5316         -DE/DX =    0.0                 !
 ! D52   D(9,7,8,19)             9.7171         -DE/DX =    0.0                 !
 --------------------------------------------------------------------------------
 GradGradGradGradGradGradGradGradGradGradGradGradGradGradGradGradGradGrad

                          Input orientation:                          
 ---------------------------------------------------------------------
 Center     Atomic      Atomic             Coordinates (Angstroms)
 Number     Number       Type             X           Y           Z
 ---------------------------------------------------------------------
      1          6           0        2.749922    0.219199   -1.473837
      2          6           0        1.739859    0.527876   -0.375405
      3          6           0        2.195513    1.652936    0.626451
      4          6           0        2.121196    0.629678    1.761765
      5          8           0        0.800750    0.114561    1.797985
      6          6           0        1.699500   -0.449717    0.821443
      7          6           0        1.951297   -1.915645    0.881565
      8          6           0        1.661671   -2.603760    2.199988
      9          8           0        2.358272   -2.511995   -0.093223
     10          1           0        2.460020   -0.667238   -2.040437
     11          1           0        2.826238    1.069898   -2.159727
     12          1           0        3.745357    0.030837   -1.058182
     13          1           0        0.743514    0.686838   -0.797444
     14          1           0        3.214611    1.989954    0.421338
     15          1           0        1.538780    2.517477    0.747474
     16          1           0        2.703859    0.567836    2.675089
     17          1           0        2.111956   -2.066623    3.040223
     18          1           0        0.581604   -2.612187    2.379544
     19          1           0        2.037558   -3.626652    2.158940
 ---------------------------------------------------------------------
                    Distance matrix (angstroms):
                    1          2          3          4          5
     1  C    0.000000
     2  C    1.523831   0.000000
     3  C    2.602726   1.573879   0.000000
     4  C    3.321582   2.173311   1.530203   0.000000
     5  O    3.809860   2.403410   2.384209   1.417827   0.000000
     6  C    2.611349   1.545886   2.169148   1.492356   1.442150
     7  C    3.277695   2.755990   3.586015   2.698571   2.507054
     8  C    4.759242   4.055356   4.569515   3.295197   2.879594
     9  O    3.085273   3.114945   4.229784   3.656131   3.591844
    10  H    1.091261   2.172386   3.544780   4.031567   4.254159
    11  H    1.095426   2.158196   2.915567   4.008613   4.547389
    12  H    1.095053   2.176064   2.805568   3.308868   4.103097
    13  H    2.168379   1.093658   2.251472   2.907031   2.658388
    14  H    2.634995   2.224267   1.092800   2.200603   3.352458
    15  H    3.418065   2.293426   1.092418   2.220762   2.724384
    16  H    4.163803   3.199439   2.373347   1.085118   2.143966
    17  H    5.099874   4.305392   4.434907   2.984054   2.831957
    18  H    5.250418   4.334893   4.885623   3.641659   2.796675
    19  H    5.338080   4.875616   5.499775   4.275638   3.956850
                    6          7          8          9         10
     6  C    0.000000
     7  C    1.488610   0.000000
     8  C    2.557679   1.515132   0.000000
     9  O    2.350230   1.213043   2.398435   0.000000
    10  H    2.969185   3.217984   4.729555   2.684237   0.000000
    11  H    3.530742   4.350684   5.818857   4.161658   1.779322
    12  H    2.819477   3.281778   4.679585   3.053055   1.761881
    13  H    2.196921   3.324264   4.544848   3.651836   2.514945
    14  H    2.899593   4.130554   5.165019   4.611468   3.700056
    15  H    2.972465   4.454293   5.324657   5.164682   4.331691
    16  H    2.340973   3.154482   3.372076   4.155519   4.880682
    17  H    2.776237   2.169887   1.094197   3.174509   5.281338
    18  H    2.890267   2.145965   1.094922   3.046499   5.181457
    19  H    3.463538   2.136977   1.090543   2.533289   5.154743
                   11         12         13         14         15
    11  H    0.000000
    12  H    1.771393   0.000000
    13  H    2.517993   3.083729   0.000000
    14  H    2.767532   2.511735   3.047927   0.000000
    15  H    3.493544   3.783221   2.523977   1.786913   0.000000
    16  H    4.862354   3.912850   3.989436   2.713426   2.978962
    17  H    6.114527   4.885105   4.917506   4.952799   5.157442
    18  H    6.261079   5.367761   4.582906   5.652167   5.467476
    19  H    6.428879   5.161751   5.387110   5.995913   6.323871
                   16         17         18         19
    16  H    0.000000
    17  H    2.724710   0.000000
    18  H    3.834561   1.753885   0.000000
    19  H    4.278328   1.793289   1.788185   0.000000
 Stoichiometry    C7H10O2
 Framework group  C1[X(C7H10O2)]
 Deg. of freedom    51
 Full point group                 C1      NOp   1
 Largest Abelian subgroup         C1      NOp   1
 Largest concise Abelian subgroup C1      NOp   1
                         Standard orientation:                         
 ---------------------------------------------------------------------
 Center     Atomic      Atomic             Coordinates (Angstroms)
 Number     Number       Type             X           Y           Z
 ---------------------------------------------------------------------
      1          6           0       -1.672887    1.716241    0.090291
      2          6           0       -1.342135    0.346208   -0.489081
      3          6           0       -1.946845   -0.861971    0.318214
      4          6           0       -0.523941   -1.362148    0.576450
      5          8           0        0.100520   -1.566566   -0.679932
      6          6           0        0.063755   -0.215588   -0.176638
      7          6           0        1.363416    0.483832    0.017408
      8          6           0        2.594924   -0.389216    0.147025
      9          8           0        1.412122    1.695288    0.055835
     10          1           0       -1.105086    2.504079   -0.407467
     11          1           0       -2.742565    1.921705   -0.026035
     12          1           0       -1.434227    1.765458    1.157887
     13          1           0       -1.557429    0.315489   -1.560899
     14          1           0       -2.453967   -0.528915    1.227122
     15          1           0       -2.585519   -1.562661   -0.224470
     16          1           0       -0.128715   -1.913617    1.423303
     17          1           0        2.440860   -1.195210    0.870837
     18          1           0        2.805859   -0.870391   -0.813616
     19          1           0        3.441937    0.230141    0.444097
 ---------------------------------------------------------------------
 Rotational constants (GHZ):      2.4666370      1.5921865      1.0717922
 1\1\GINC-ALCHEMY-KR\FOpt\RB3LYP\6-31G(2df,p)\C7H10O2\PUCK\28-Jan-2020\
 0\\# b3lyp 6-31G(2df,p) opt Freq\\titel\\0,1\C,2.7499215781,0.21919918
 88,-1.4738367717\C,1.739858777,0.5278764228,-0.3754051085\C,2.19551307
 18,1.6529363902,0.6264511047\C,2.1211961509,0.6296775619,1.7617653489\
 O,0.8007502465,0.1145614909,1.7979851752\C,1.6995002409,-0.4497173935,
 0.8214425826\C,1.9512965253,-1.9156453246,0.8815654651\C,1.6616710353,
 -2.6037600266,2.1999884425\O,2.3582719008,-2.5119953063,-0.093222557\H
 ,2.4600198321,-0.6672379645,-2.040437056\H,2.8262375168,1.0698983565,-
 2.1597266603\H,3.7453571277,0.0308365895,-1.0581815716\H,0.7435138145,
 0.6868380272,-0.7974436668\H,3.2146109397,1.9899537981,0.4213384569\H,
 1.5387795709,2.5174774737,0.7474743342\H,2.7038587613,0.5678356095,2.6
 750894036\H,2.1119563734,-2.0666232532,3.0402229053\H,0.5816043907,-2.
 6121869393,2.3795436021\H,2.0375582763,-3.6266520211,2.1589397607\\Ver
 sion=ES64L-G09RevD.01\State=1-A\HF=-423.1725682\RMSD=6.226e-09\RMSF=1.
 270e-05\Dipole=0.2551562,0.6346373,0.491335\Quadrupole=-0.4160509,-0.4
 990577,0.9151086,2.434348,2.3211667,-3.3001922\PG=C01 [X(C7H10O2)]\\@


 LORD, MAN... WERE YE BUT WHYLES WHERE I AM, 
 THE GENTILES YE WAD NE'ER ENVY 'EM.        
 IT'S TRUE, THEY NEEDNA STARVE OR SWEAT,     
 THRO' WINTER'S CAULD OR SIMMER'S HEAT...  
 THEY'VE NAE SAIR WARK TO CRAZE THEIR BANES, 
 AND FILL AULD AGE WITH GRIPS AN' GRANES...  
                                             
 BUT HUMAN BODIES ARE SIC FOOLS              
 FOR A' THEIR COLLEGES AND SCHOOLS,           
 THAT WHEN NAE REAL ILLS PERPLEX THEM,       
 THEY MAK ENOW THEMSELVES TO VEX THEM,       
 AN' AYE THE LESS THEY HAE TO STURT THEM,    
 IN LIKE PROPORTION LESS WILL HURT THEM....  
                                             
                (ROBERT BURNS 'THE TWA DOGS')
 Job cpu time:       0 days  0 hours 18 minutes 23.0 seconds.
 File lengths (MBytes):  RWF=     52 Int=      0 D2E=      0 Chk=      7 Scr=      1
 Normal termination of Gaussian 09 at Tue Jan 28 03:16:36 2020.
 Link1:  Proceeding to internal job step number  2.
 ----------------------------------------------------------------------
 #N Geom=AllCheck Guess=TCheck SCRF=Check GenChk RB3LYP/6-31G(2df,p) Fr
 eq
 ----------------------------------------------------------------------
 1/10=4,29=7,30=1,38=1,40=1/1,3;
 2/12=2,40=1/2;
 3/5=1,6=6,7=104,11=2,14=-4,16=1,25=1,30=1,70=2,71=2,74=-5,116=1,140=1/1,2,3;
 4/5=101/1;
 5/5=2,98=1/2;
 8/6=4,10=90,11=11/1;
 11/6=1,8=1,9=11,15=111,16=1/1,2,10;
 10/6=1/2;
 6/7=2,8=2,9=2,10=2,18=1,28=1/1;
 7/8=1,10=1,25=1/1,2,3,16;
 1/10=4,30=1/3;
 99//99;
 Structure from the checkpoint file:  "/scratch/puck/g09_55e11f64-029e-4836-b0a7-d405dbfe3f75/Gau-46339.chk"
 -----
 titel
 -----
 Charge =  0 Multiplicity = 1
 Redundant internal coordinates found in file.
 C,0,2.7499215781,0.2191991888,-1.4738367717
 C,0,1.739858777,0.5278764228,-0.3754051085
 C,0,2.1955130718,1.6529363902,0.6264511047
 C,0,2.1211961509,0.6296775619,1.7617653489
 O,0,0.8007502465,0.1145614909,1.7979851752
 C,0,1.6995002409,-0.4497173935,0.8214425826
 C,0,1.9512965253,-1.9156453246,0.8815654651
 C,0,1.6616710353,-2.6037600266,2.1999884425
 O,0,2.3582719008,-2.5119953063,-0.093222557
 H,0,2.4600198321,-0.6672379645,-2.040437056
 H,0,2.8262375168,1.0698983565,-2.1597266603
 H,0,3.7453571277,0.0308365895,-1.0581815716
 H,0,0.7435138145,0.6868380272,-0.7974436668
 H,0,3.2146109397,1.9899537981,0.4213384569
 H,0,1.5387795709,2.5174774737,0.7474743342
 H,0,2.7038587613,0.5678356095,2.6750894036
 H,0,2.1119563734,-2.0666232532,3.0402229053
 H,0,0.5816043907,-2.6121869393,2.3795436021
 H,0,2.0375582763,-3.6266520211,2.1589397607
 Recover connectivity data from disk.

 GradGradGradGradGradGradGradGradGradGradGradGradGradGradGradGradGradGrad
 Berny optimization.
 Initialization pass.
                           ----------------------------
                           !    Initial Parameters    !
                           ! (Angstroms and Degrees)  !
 --------------------------                            --------------------------
 ! Name  Definition              Value          Derivative Info.                !
 --------------------------------------------------------------------------------
 ! R1    R(1,2)                  1.5238         calculate D2E/DX2 analytically  !
 ! R2    R(1,10)                 1.0913         calculate D2E/DX2 analytically  !
 ! R3    R(1,11)                 1.0954         calculate D2E/DX2 analytically  !
 ! R4    R(1,12)                 1.0951         calculate D2E/DX2 analytically  !
 ! R5    R(2,3)                  1.5739         calculate D2E/DX2 analytically  !
 ! R6    R(2,6)                  1.5459         calculate D2E/DX2 analytically  !
 ! R7    R(2,13)                 1.0937         calculate D2E/DX2 analytically  !
 ! R8    R(3,4)                  1.5302         calculate D2E/DX2 analytically  !
 ! R9    R(3,14)                 1.0928         calculate D2E/DX2 analytically  !
 ! R10   R(3,15)                 1.0924         calculate D2E/DX2 analytically  !
 ! R11   R(4,5)                  1.4178         calculate D2E/DX2 analytically  !
 ! R12   R(4,6)                  1.4924         calculate D2E/DX2 analytically  !
 ! R13   R(4,16)                 1.0851         calculate D2E/DX2 analytically  !
 ! R14   R(5,6)                  1.4422         calculate D2E/DX2 analytically  !
 ! R15   R(6,7)                  1.4886         calculate D2E/DX2 analytically  !
 ! R16   R(7,8)                  1.5151         calculate D2E/DX2 analytically  !
 ! R17   R(7,9)                  1.213          calculate D2E/DX2 analytically  !
 ! R18   R(8,17)                 1.0942         calculate D2E/DX2 analytically  !
 ! R19   R(8,18)                 1.0949         calculate D2E/DX2 analytically  !
 ! R20   R(8,19)                 1.0905         calculate D2E/DX2 analytically  !
 ! A1    A(2,1,10)             111.2677         calculate D2E/DX2 analytically  !
 ! A2    A(2,1,11)             109.8897         calculate D2E/DX2 analytically  !
 ! A3    A(2,1,12)             111.3324         calculate D2E/DX2 analytically  !
 ! A4    A(10,1,11)            108.9193         calculate D2E/DX2 analytically  !
 ! A5    A(10,1,12)            107.3883         calculate D2E/DX2 analytically  !
 ! A6    A(11,1,12)            107.934          calculate D2E/DX2 analytically  !
 ! A7    A(1,2,3)              114.3148         calculate D2E/DX2 analytically  !
 ! A8    A(1,2,6)              116.5697         calculate D2E/DX2 analytically  !
 ! A9    A(1,2,13)             110.802          calculate D2E/DX2 analytically  !
 ! A10   A(3,2,6)               88.0962         calculate D2E/DX2 analytically  !
 ! A11   A(3,2,13)             113.922          calculate D2E/DX2 analytically  !
 ! A12   A(6,2,13)             111.5245         calculate D2E/DX2 analytically  !
 ! A13   A(2,3,4)               88.8659         calculate D2E/DX2 analytically  !
 ! A14   A(2,3,14)             111.7748         calculate D2E/DX2 analytically  !
 ! A15   A(2,3,15)             117.5287         calculate D2E/DX2 analytically  !
 ! A16   A(4,3,14)             113.0029         calculate D2E/DX2 analytically  !
 ! A17   A(4,3,15)             114.6973         calculate D2E/DX2 analytically  !
 ! A18   A(14,3,15)            109.7159         calculate D2E/DX2 analytically  !
 ! A19   A(3,4,5)              107.8867         calculate D2E/DX2 analytically  !
 ! A20   A(3,4,6)               91.7133         calculate D2E/DX2 analytically  !
 ! A21   A(3,4,16)             129.5319         calculate D2E/DX2 analytically  !
 ! A22   A(5,4,16)             117.2498         calculate D2E/DX2 analytically  !
 ! A23   A(6,4,16)             129.8549         calculate D2E/DX2 analytically  !
 ! A24   A(2,6,4)               91.3212         calculate D2E/DX2 analytically  !
 ! A25   A(2,6,5)              107.0429         calculate D2E/DX2 analytically  !
 ! A26   A(2,6,7)              130.5116         calculate D2E/DX2 analytically  !
 ! A27   A(4,6,7)              129.7185         calculate D2E/DX2 analytically  !
 ! A28   A(5,6,7)              117.6053         calculate D2E/DX2 analytically  !
 ! A29   A(6,7,8)              116.7471         calculate D2E/DX2 analytically  !
 ! A30   A(6,7,9)              120.5585         calculate D2E/DX2 analytically  !
 ! A31   A(8,7,9)              122.6918         calculate D2E/DX2 analytically  !
 ! A32   A(7,8,17)             111.5057         calculate D2E/DX2 analytically  !
 ! A33   A(7,8,18)             109.5577         calculate D2E/DX2 analytically  !
 ! A34   A(7,8,19)             109.1078         calculate D2E/DX2 analytically  !
 ! A35   A(17,8,18)            106.4865         calculate D2E/DX2 analytically  !
 ! A36   A(17,8,19)            110.3348         calculate D2E/DX2 analytically  !
 ! A37   A(18,8,19)            109.8133         calculate D2E/DX2 analytically  !
 ! D1    D(10,1,2,3)           170.9787         calculate D2E/DX2 analytically  !
 ! D2    D(10,1,2,6)            70.3058         calculate D2E/DX2 analytically  !
 ! D3    D(10,1,2,13)          -58.6572         calculate D2E/DX2 analytically  !
 ! D4    D(11,1,2,3)           -68.3026         calculate D2E/DX2 analytically  !
 ! D5    D(11,1,2,6)          -168.9754         calculate D2E/DX2 analytically  !
 ! D6    D(11,1,2,13)           62.0616         calculate D2E/DX2 analytically  !
 ! D7    D(12,1,2,3)            51.2243         calculate D2E/DX2 analytically  !
 ! D8    D(12,1,2,6)           -49.4486         calculate D2E/DX2 analytically  !
 ! D9    D(12,1,2,13)         -178.4116         calculate D2E/DX2 analytically  !
 ! D10   D(1,2,3,4)           -118.8549         calculate D2E/DX2 analytically  !
 ! D11   D(1,2,3,14)            -4.4629         calculate D2E/DX2 analytically  !
 ! D12   D(1,2,3,15)           123.6971         calculate D2E/DX2 analytically  !
 ! D13   D(6,2,3,4)             -0.4254         calculate D2E/DX2 analytically  !
 ! D14   D(6,2,3,14)           113.9666         calculate D2E/DX2 analytically  !
 ! D15   D(6,2,3,15)          -117.8734         calculate D2E/DX2 analytically  !
 ! D16   D(13,2,3,4)           112.3335         calculate D2E/DX2 analytically  !
 ! D17   D(13,2,3,14)         -133.2745         calculate D2E/DX2 analytically  !
 ! D18   D(13,2,3,15)           -5.1145         calculate D2E/DX2 analytically  !
 ! D19   D(1,2,6,4)            116.7956         calculate D2E/DX2 analytically  !
 ! D20   D(1,2,6,5)            173.3494         calculate D2E/DX2 analytically  !
 ! D21   D(1,2,6,7)            -32.5701         calculate D2E/DX2 analytically  !
 ! D22   D(3,2,6,4)              0.4362         calculate D2E/DX2 analytically  !
 ! D23   D(3,2,6,5)             56.99           calculate D2E/DX2 analytically  !
 ! D24   D(3,2,6,7)           -148.9295         calculate D2E/DX2 analytically  !
 ! D25   D(13,2,6,4)          -114.5894         calculate D2E/DX2 analytically  !
 ! D26   D(13,2,6,5)           -58.0356         calculate D2E/DX2 analytically  !
 ! D27   D(13,2,6,7)            96.0449         calculate D2E/DX2 analytically  !
 ! D28   D(2,3,4,5)            -57.8019         calculate D2E/DX2 analytically  !
 ! D29   D(2,3,4,6)              0.4406         calculate D2E/DX2 analytically  !
 ! D30   D(2,3,4,16)           149.3057         calculate D2E/DX2 analytically  !
 ! D31   D(14,3,4,5)          -171.0479         calculate D2E/DX2 analytically  !
 ! D32   D(14,3,4,6)          -112.8054         calculate D2E/DX2 analytically  !
 ! D33   D(14,3,4,16)           36.0598         calculate D2E/DX2 analytically  !
 ! D34   D(15,3,4,5)            62.1797         calculate D2E/DX2 analytically  !
 ! D35   D(15,3,4,6)           120.4223         calculate D2E/DX2 analytically  !
 ! D36   D(15,3,4,16)          -90.7126         calculate D2E/DX2 analytically  !
 ! D37   D(3,4,6,2)             -0.4486         calculate D2E/DX2 analytically  !
 ! D38   D(3,4,6,7)            149.3098         calculate D2E/DX2 analytically  !
 ! D39   D(16,4,6,2)          -149.1513         calculate D2E/DX2 analytically  !
 ! D40   D(16,4,6,7)             0.6071         calculate D2E/DX2 analytically  !
 ! D41   D(2,6,7,8)           -172.7771         calculate D2E/DX2 analytically  !
 ! D42   D(2,6,7,9)              6.6404         calculate D2E/DX2 analytically  !
 ! D43   D(4,6,7,8)             48.6969         calculate D2E/DX2 analytically  !
 ! D44   D(4,6,7,9)           -131.8856         calculate D2E/DX2 analytically  !
 ! D45   D(5,6,7,8)            -20.9153         calculate D2E/DX2 analytically  !
 ! D46   D(5,6,7,9)            158.5022         calculate D2E/DX2 analytically  !
 ! D47   D(6,7,8,17)           -48.7524         calculate D2E/DX2 analytically  !
 ! D48   D(6,7,8,18)            68.8724         calculate D2E/DX2 analytically  !
 ! D49   D(6,7,8,19)          -170.8789         calculate D2E/DX2 analytically  !
 ! D50   D(9,7,8,17)           131.8437         calculate D2E/DX2 analytically  !
 ! D51   D(9,7,8,18)          -110.5316         calculate D2E/DX2 analytically  !
 ! D52   D(9,7,8,19)             9.7171         calculate D2E/DX2 analytically  !
 --------------------------------------------------------------------------------
 Trust Radius=3.00D-01 FncErr=1.00D-07 GrdErr=1.00D-07
 Number of steps in this run=      2 maximum allowed number of steps=      2.
 GradGradGradGradGradGradGradGradGradGradGradGradGradGradGradGradGradGrad

                          Input orientation:                          
 ---------------------------------------------------------------------
 Center     Atomic      Atomic             Coordinates (Angstroms)
 Number     Number       Type             X           Y           Z
 ---------------------------------------------------------------------
      1          6           0        2.749922    0.219199   -1.473837
      2          6           0        1.739859    0.527876   -0.375405
      3          6           0        2.195513    1.652936    0.626451
      4          6           0        2.121196    0.629678    1.761765
[...]
 334,-0.00111478,0.00079650,-0.00059907,-0.00535727,0.01351781,-0.10804
 755,0.07396034,0.09297286,0.38349950,-0.00089797,-0.00228301,0.0004523
 9,-0.03033726,0.00102099,-0.07555092,-0.00617310,0.06507023,-0.1206418
 4,0.20892048,-0.01759358,0.60269034,0.00114427,-0.00121224,-0.00101515
 ,-0.00139471,-0.00400909,0.00150508,-0.01533707,-0.01005374,0.01082967
 ,-0.21896522,-0.08185814,-0.02038324,0.35647723,-0.00007062,-0.0006642
 9,0.00068327,-0.00891667,0.00387545,-0.00307203,-0.04532735,-0.0066378
 2,0.01003828,-0.03778682,-0.05767438,0.01578765,0.02680796,0.14487705,
 -0.00153173,0.00994131,-0.00315811,0.03900861,-0.01190384,-0.02679509,
 0.01879862,-0.00235435,-0.00236968,0.01188816,0.02544015,-0.04893303,-
 0.10119697,0.01561075,0.18348232,-0.00154381,-0.01686059,0.01458618,-0
 .06836749,0.01776252,-0.00281825,0.00133891,-0.02151839,-0.00201410,-0
 .01168936,-0.02362957,-0.03169482,-0.09971700,0.04185222,0.05572801,0.
 22765609,-0.00169068,0.00827419,-0.00354433,0.01642643,-0.10182518,0.0
 4793658,0.00294927,-0.08063174,0.00319872,-0.07832412,-0.12369988,-0.0
 8577525,0.08184822,-0.06546083,-0.02007519,-0.04614499,0.60568348,0.00
 590060,0.01056696,-0.01668220,-0.00545727,0.06463202,-0.10801466,-0.00
 248665,0.00520502,-0.00092034,-0.08481369,-0.11129172,-0.09558276,0.09
 739162,-0.01358411,-0.10800452,-0.02230806,0.01959391,0.44900401,0.001
 11110,0.00017952,-0.00040179,0.00011926,-0.00343071,-0.00131713,0.0029
 5854,-0.00465024,-0.00029153,0.00203824,-0.01318189,0.01024664,-0.0097
 5385,0.03290819,0.00660360,-0.07442619,0.00413236,-0.01500236,0.312415
 86,-0.00101570,0.00146442,0.00096381,-0.00367704,-0.00607778,-0.000693
 85,-0.00102555,-0.00084489,0.00188404,0.01388848,-0.02012814,-0.008457
 10,-0.01185734,-0.00416601,-0.00544001,0.02330861,-0.18572335,0.044228
 23,-0.11764183,0.59545712,-0.00074676,0.00038661,0.00216788,-0.0076546
 7,0.01839149,0.00863778,0.00089217,0.00263367,-0.00258450,0.00886764,-
 0.01339252,-0.00390795,0.00471466,-0.02362048,-0.00958205,-0.00853270,
 0.05414814,-0.09014166,-0.19312714,0.15399465,0.76785204,-0.00003434,-
 0.00023906,0.00044512,0.00154471,0.00206564,0.00083031,-0.00044470,0.0
 0088397,-0.00015604,-0.00137600,0.00166958,-0.00044399,0.00047868,-0.0
 0201687,-0.00213611,0.01485554,0.00235248,0.00001739,-0.08560027,-0.00
 572414,0.00371198,0.52286864,0.00026614,-0.00009267,-0.00031181,0.0013
 3830,-0.00212112,-0.00317848,-0.00044243,-0.00078804,0.00062448,-0.000
 30372,-0.00076097,0.00080389,-0.00057684,-0.00109407,0.00096663,-0.002
 30319,-0.01537559,0.03113266,-0.00969539,-0.12534274,0.05035790,-0.032
 37211,0.57141271,0.00005899,-0.00010063,-0.00048001,0.00083218,-0.0014
 2334,0.00030444,-0.00078564,0.00049311,0.00034530,0.00040365,0.0004507
 1,-0.00191311,-0.00134063,0.00008498,-0.00006425,0.00465423,0.00673568
 ,0.00405457,0.00588722,0.04592241,-0.13892196,0.00888356,0.04933951,0.
 48207872,-0.00106399,-0.00038805,0.00007611,-0.00161033,-0.00087790,-0
 .00005065,-0.00094959,0.00048656,0.00028634,-0.00075457,0.00059445,-0.
 00210039,0.00130209,-0.00136947,0.00035724,0.01493057,0.02281576,0.017
 99848,-0.14443384,0.10740991,0.17924862,0.01599244,0.00825018,0.023816
 04,0.11643039,0.00012930,-0.00209084,0.00206007,-0.00047531,0.00330190
 ,0.00029918,0.00059923,0.00024428,-0.00065714,0.00155698,0.00272320,0.
 00125846,0.00438622,-0.01041553,-0.00251375,0.01906473,-0.03383959,-0.
 04852244,0.11186268,-0.25355152,-0.24910862,0.00051226,0.02068492,0.00
 335005,-0.13408335,0.27347034,0.00020917,0.00033372,-0.00288764,0.0018
 1769,-0.00241731,-0.00122885,0.00050287,-0.00063278,0.00027346,-0.0007
 3781,0.00638590,0.00318647,0.00191641,-0.00196338,0.00345131,0.0104472
 6,-0.03733029,-0.00821483,0.17815869,-0.23678170,-0.50900374,0.0264994
 4,-0.01939769,-0.05009030,-0.21855376,0.28880866,0.56649676,-0.0682580
 4,-0.06166436,-0.03924878,0.00648510,0.02014659,0.01248247,-0.00316898
 ,0.00008547,0.00290642,0.00039080,0.00070972,0.00028283,0.00008758,0.0
 0007259,-0.00039122,0.00061870,-0.00076437,-0.00045584,-0.00003402,-0.
 00022910,0.00021185,0.00011023,0.00000681,0.00015159,-0.00050941,-0.00
 041191,0.00026810,0.07217328,-0.06127381,-0.22635831,-0.11538312,-0.00
 124687,-0.00455132,-0.00250608,0.00079057,0.00141496,0.00005459,-0.000
 11433,-0.00031827,-0.00029622,0.00011849,0.00005122,-0.00008141,0.0001
 5753,0.00032708,-0.00033056,-0.00010288,0.00037469,0.00012970,0.000063
 53,-0.00000265,0.00000841,-0.00004349,-0.00184669,0.00098267,0.0660077
 9,0.24391254,-0.03796022,-0.11230247,-0.11751646,-0.00755657,-0.018909
 79,-0.01335541,0.00390528,-0.00111414,-0.00194076,-0.00020219,-0.00120
 912,0.00020672,-0.00011377,0.00040238,0.00001625,-0.00049519,0.0006944
 7,0.00096082,0.00109935,-0.00224833,-0.00270806,-0.00033631,0.00027254
 ,0.00035193,-0.00051285,0.00074010,0.00262383,0.03924274,0.12592093,0.
 12652023,-0.04768828,-0.01221040,0.00838872,-0.00219257,-0.01942031,0.
 01630327,0.00065573,0.00014368,-0.00068526,-0.00042833,0.00002769,-0.0
 0015667,-0.00003872,-0.00002024,0.00221704,-0.00244977,0.00150796,0.00
 007358,-0.00031008,0.00083943,0.00057896,-0.00014150,-0.00020877,-0.00
 005234,0.00072394,-0.00026819,-0.00024017,-0.00151843,-0.00672997,0.00
 616991,0.04981986,-0.01283527,-0.20689316,0.12587078,0.00036304,0.0056
 7618,-0.00573831,-0.00038603,0.00125822,0.00058105,0.00027548,0.000266
 83,0.00032170,0.00035212,0.00010116,-0.00101824,0.00096059,0.00065218,
 -0.00180806,0.00040948,-0.00094823,-0.00120729,-0.00005249,0.00010994,
 0.00024175,-0.00051789,-0.00056077,0.00161212,-0.00029041,-0.01841195,
 0.01702057,0.01284934,0.22245509,0.00835942,0.12555792,-0.14640121,0.0
 0151477,0.01917211,-0.01833683,-0.00037102,0.00040795,0.00144135,0.000
 49749,0.00062827,0.00095465,0.00022870,0.00020284,-0.00255826,0.003578
 48,-0.00224033,0.00049606,-0.00003451,-0.00094273,-0.00037998,-0.00004
 675,0.00015944,0.00003593,0.00005122,0.00024730,0.00071574,-0.00065248
 ,-0.01269810,0.01175557,-0.01361100,-0.13880664,0.15979110,-0.25903171
 ,0.04029189,-0.09215867,-0.02210322,0.00361672,-0.00842868,0.00034294,
 -0.00121871,-0.00086741,-0.00002246,0.00020293,0.00085253,0.00058194,-
 0.00007493,0.00016686,0.00030127,-0.00027982,-0.00119363,-0.00065932,0
 .00060493,0.00126598,-0.00005017,-0.00019323,-0.00015214,0.00104103,0.
 00007803,-0.00064180,-0.00788967,0.00190925,-0.00345730,0.00281087,-0.
 00056794,0.00113748,0.28510157,0.04020489,-0.05400562,0.01756637,0.005
 49414,-0.00253656,0.00223850,0.00111615,0.00036708,0.00083816,0.000000
 14,0.00054541,-0.00021024,-0.00001128,-0.00028414,0.00006548,-0.000597
 62,0.00045378,-0.00021709,-0.00043075,0.00018980,0.00036492,-0.0000168
 3,-0.00001331,-0.00009787,0.00051829,-0.00013417,-0.00028526,-0.024107
 80,0.00500453,-0.00995635,0.02336828,-0.00420617,0.00936599,-0.0458206
 3,0.05444841,-0.09396296,0.01743174,-0.08811518,0.02389272,-0.00494569
 ,0.00983435,0.00061562,0.00037472,0.00121532,-0.00002688,-0.00022972,-
 0.00006026,-0.00058790,0.00019613,0.00019283,0.00000332,0.00032576,0.0
 0125873,0.00009479,0.00045929,-0.00016053,-0.00004726,0.00000844,-0.00
 000994,0.00040927,0.00010166,-0.00010686,-0.01461762,0.00403426,-0.006
 92696,-0.01804318,0.00194641,-0.00815976,0.09908347,-0.01848681,0.0940
 6068,-0.01999974,0.00350383,-0.00763371,-0.26562291,0.03277921,-0.0926
 5227,-0.00580566,0.00173694,0.00002317,-0.00010948,0.00078905,0.000323
 51,0.00207517,-0.00055270,-0.00133027,0.00247196,0.00010184,0.00083034
 ,-0.00030211,-0.00036156,0.00000406,-0.00006663,-0.00001366,-0.0000590
 7,0.00021227,0.00023572,-0.00003646,0.00092314,0.00028455,0.00003142,0
 .00062545,-0.00061194,-0.00008208,-0.00161104,0.00075922,0.00371816,0.
 28595710,0.00649580,-0.00076419,0.00181001,0.03321603,-0.05517319,0.01
 609825,-0.02242114,0.00367060,-0.00676285,0.00010324,-0.00219261,0.001
 33274,-0.00106134,0.00128059,-0.00353473,0.02229440,-0.00406979,0.0090
 0452,0.00032602,0.00135849,0.00232670,-0.00026796,-0.00061301,-0.00013
 261,-0.00000574,-0.00029810,-0.00065470,0.00002368,0.00014907,0.000459
 53,-0.00034074,0.00028813,-0.00039170,0.00078257,0.00081576,-0.0012481
 1,-0.03831235,0.05519713,0.02445791,-0.00443468,0.00926140,-0.09281981
 ,0.01365499,-0.08325273,-0.01257126,0.00274118,-0.00484670,-0.00287539
 ,0.00088485,-0.00387933,0.00161922,-0.00005655,0.00374660,-0.01839202,
 0.00601185,-0.01246356,0.00017269,-0.00232212,-0.00164843,0.00017654,0
 .00031284,0.00005927,-0.00055614,0.00057721,0.00087537,-0.00092557,0.0
 0018742,0.00098010,-0.00090483,0.00037136,0.00100787,0.00404285,-0.001
 08664,-0.00334162,0.09767693,-0.01602785,0.09570796,0.00083886,0.00154
 896,0.00171376,-0.00772065,-0.00146887,0.00100502,-0.28122025,-0.07387
 209,0.04953428,0.00072129,0.00139513,-0.00079487,0.00230214,-0.0001480
 3,-0.00028169,-0.00108662,-0.00085181,-0.00026126,-0.00022418,0.000421
 39,0.00026725,0.00003177,-0.00010142,-0.00001696,0.00012184,-0.0001648
 1,-0.00020321,0.00024543,0.00020054,0.00033122,0.00014321,-0.00009210,
 -0.00053085,0.00088797,-0.00026551,-0.00044721,0.00009674,-0.00142655,
 -0.00021697,0.30085105,-0.00151620,0.00192087,0.00030328,-0.01520373,-
 0.00770154,0.00264424,-0.07240785,-0.07114238,0.01836605,-0.01628206,-
 0.00233210,0.00078614,-0.00014352,-0.00446940,0.00164084,-0.00088461,0
 .00020199,-0.00216937,-0.00015132,0.00021375,0.00092650,0.00004484,-0.
 00028742,-0.00009907,0.00008849,-0.00009562,-0.00025235,0.00019677,0.0
 0010012,0.00030150,0.00027766,0.00012302,-0.00041500,0.00051890,-0.000
 52822,0.00001002,-0.00050088,-0.00166778,-0.00028295,0.08213924,0.0757
 8828,-0.00065202,0.00074368,0.00172364,-0.02279266,-0.00747971,0.00333
 768,0.04785278,0.01725339,-0.05455089,0.02598483,0.00226654,-0.0017473
 2,0.00253936,0.00811606,-0.00317064,0.00029026,-0.00163245,-0.00278330
 ,0.00018811,-0.00043632,0.00066413,0.00005765,-0.00016050,-0.00004509,
 -0.00004931,0.00036150,0.00021371,-0.00004669,0.00018991,0.00024818,-0
 .00014180,0.00032692,-0.00033722,0.00036014,-0.00014055,0.00020511,-0.
 00085425,-0.00318261,-0.00167339,-0.05412219,-0.01637580,0.05775495,-0
 .00049234,-0.00062346,0.00020383,0.00630581,-0.00862769,-0.00043920,-0
 .14832121,0.12956749,0.01846496,0.00016797,-0.00252726,0.00087682,0.00
 215132,0.00064360,-0.00023363,-0.00036242,-0.00258627,-0.00155034,-0.0
 0066823,-0.00088394,0.00032866,0.00017946,-0.00009412,0.00004193,0.000
 11877,0.00018328,-0.00003317,0.00040617,-0.00005538,-0.00016707,-0.000
 02712,0.00017148,0.00001498,0.00034602,-0.00022942,-0.00009708,0.00080
 891,0.00077899,0.00015228,-0.01602678,0.02342113,0.00250222,0.15547434
 ,-0.00117029,-0.00166031,-0.00015944,0.01051828,-0.00844774,0.00129594
 ,0.12864440,-0.20933812,-0.02636280,0.00891504,-0.01531549,-0.00073814
 ,-0.00080391,0.00368862,-0.00020527,0.00087765,-0.00593542,0.00078591,
 -0.00198346,0.00075080,0.00031593,0.00032295,-0.00020644,0.00021192,0.
 00035806,-0.00030568,-0.00027833,0.00051806,0.00003567,-0.00039552,0.0
 0009836,0.00014675,-0.00007827,0.00010169,-0.00003105,0.00005174,-0.00
 007160,0.00113935,-0.00007481,-0.00674149,0.00919116,0.00087689,-0.139
 64147,0.22727763,-0.00160132,-0.00328704,-0.00103374,0.01648828,-0.010
 59428,-0.00067281,0.01925427,-0.02489063,-0.05207655,-0.01773630,0.019
 59306,0.00380367,-0.00098085,-0.00507940,0.00193812,0.00014420,0.00343
 412,-0.00128834,0.00096100,-0.00156963,0.00084107,-0.00004370,-0.00020
 121,-0.00024723,-0.00055983,0.00063328,0.00049122,0.00058323,-0.000097
 44,-0.00126999,0.00003930,0.00019751,-0.00003910,-0.00019482,0.0000964
 6,0.00012675,-0.00010952,0.00124284,0.00110516,0.00360855,-0.00555007,
 -0.00037535,-0.02014577,0.02464234,0.04921901,0.00020433,0.00013259,-0
 .00001719,0.00187455,-0.00046432,0.00196757,0.00412553,0.00021370,0.00
 422103,-0.11449737,0.01032463,-0.12784622,-0.02231315,-0.00624817,-0.0
 2726159,-0.00230321,-0.00210258,0.00805864,0.00052524,-0.00030528,-0.0
 0063549,-0.00015843,0.00002442,0.00001138,-0.00024839,-0.00029383,0.00
 009867,-0.00004269,0.00002853,0.00001255,0.00001664,-0.00002763,-0.000
 05681,-0.00003522,0.00001730,0.00000998,0.00036221,-0.00006676,0.00090
 608,0.00003723,0.00035200,-0.00101743,-0.00004739,0.00003858,0.0002930
 8,0.13228528,0.00058312,0.00109099,0.00039436,-0.00203437,-0.00173346,
 0.00145705,0.01125551,0.00526875,0.00825141,0.00815889,-0.05220932,0.0
 2694061,-0.00344282,-0.00264057,-0.00666229,-0.01345551,0.00333997,-0.
 00933882,0.00022784,0.00381811,-0.00073641,-0.00041787,0.00000846,-0.0
 0033216,0.00027247,-0.00102486,-0.00045611,-0.00028176,0.00009528,0.00
 035320,0.00009885,-0.00002632,-0.00017818,0.00003742,-0.00011675,-0.00
 002237,0.00024490,0.00107364,-0.00059855,-0.00057097,0.00068042,-0.000
 64317,0.00052740,-0.00086039,0.00132250,-0.00141280,0.04322784,-0.0006
 6461,-0.00013972,-0.00004440,-0.00271546,0.00210704,-0.00366298,-0.005
 58874,-0.00591916,-0.00427893,-0.13407220,0.02062480,-0.25841386,0.006
 00932,-0.00316829,0.01044026,-0.00528450,0.00665664,-0.00598112,0.0000
 5437,0.00139654,0.00041095,-0.00001349,-0.00041755,-0.00016714,0.00007
 587,-0.00024035,0.00008258,0.00017354,-0.00006678,-0.00011531,0.000041
 72,0.00001480,0.00002164,0.00019778,-0.00000822,-0.00000020,0.00015260
 ,-0.00046109,-0.00156741,0.00041765,0.00011100,0.00051991,0.00000018,0
 .00002832,-0.00068671,0.14118335,-0.02046979,0.26286426,0.00003337,-0.
 00003870,0.00000877,-0.00019811,0.00004598,0.00009150,0.00001007,-0.00
 001989,-0.00001133,0.00098382,0.00013814,-0.00012332,-0.00056615,-0.00
 074352,0.00083241,-0.00015869,0.00029331,-0.00088768,0.00176261,0.0043
 7723,0.00697853,-0.08408439,-0.05311303,-0.08663473,-0.00129567,-0.001
 31008,0.00216790,-0.00001305,0.00001062,0.00001064,-0.00000937,0.00000
 563,0.00001447,-0.00000695,-0.00000661,0.00000350,0.00000660,0.0000031
 2,-0.00002420,-0.00001652,-0.00001473,0.00003739,-0.00000342,0.0000060
 1,0.00001727,0.00007094,0.00000933,-0.00001332,0.09267183,-0.00005006,
 0.00004591,-0.00001094,-0.00012931,0.00008549,-0.00000774,0.00015850,-
 0.00031410,-0.00015618,0.00015404,-0.00060549,0.00157536,0.00052357,-0
 .00014510,0.00008317,-0.00167372,-0.00109886,-0.00169856,0.01098144,0.
 01061639,0.00797675,-0.05336679,-0.11325081,-0.09779751,-0.00338735,-0
 .00037133,0.00287901,-0.00000821,0.00001023,-0.00005199,0.00003610,-0.
 00003139,-0.00001730,0.00003772,0.00001894,0.00000209,-0.00001037,0.00
 003468,-0.00004049,0.00001396,0.00004321,0.00000489,-0.00002229,-0.000
 05349,0.00006093,-0.00027294,-0.00017366,-0.00004795,0.06103740,0.1177
 4845,-0.00000150,-0.00007052,-0.00006823,0.00029039,-0.00005486,-0.000
 05852,0.00010080,0.00016671,0.00005623,0.00011361,0.00041577,-0.000432
 29,-0.00042234,-0.00039954,0.00070294,0.00210046,0.00073648,0.00085993
 ,-0.01316207,-0.01962056,-0.01856176,-0.08879035,-0.09922737,-0.201305
 35,0.00360685,0.00454260,-0.00506633,0.00004119,0.00000062,0.00013072,
 -0.00003588,0.00007114,0.00002446,-0.00004273,-0.00003558,-0.00001857,
 0.00000255,-0.00009766,0.00007014,-0.00001685,-0.00000646,-0.00003417,
 0.00004268,0.00003333,0.00006669,0.00006152,0.00048093,0.00035545,0.09
 316387,0.10988647,0.21856835,-0.00001905,0.00006769,-0.00001735,0.0001
 3401,-0.00009856,-0.00005666,0.00017892,0.00011777,0.00000399,-0.00033
 703,0.00019272,-0.00019582,0.00100742,0.00072033,-0.00085229,-0.000537
 92,0.00028986,0.00148529,-0.00580537,0.00033042,0.00233941,-0.30364122
 ,-0.00086902,0.04198543,0.00068820,-0.00142310,-0.00003679,-0.00000743
 ,-0.00000819,-0.00001852,0.00001507,-0.00001580,-0.00001453,0.00001130
 ,0.00000609,0.00000145,-0.00001202,-0.00002899,0.00001042,0.00001664,0
 .00004784,-0.00006344,-0.00000676,-0.00000346,-0.00000217,0.00004533,0
 .00006728,0.00004501,-0.01380657,0.00010951,0.00240449,0.33047437,-0.0
 0001033,0.00003373,0.00002400,0.00045028,0.00001708,0.00010655,0.00026
 734,-0.00002168,-0.00010840,-0.00117564,0.00027949,0.00049134,0.001366
 57,-0.00043321,-0.00046728,0.00076671,-0.00100001,0.00095494,-0.015658
 86,0.00049136,-0.00218922,-0.00268748,-0.04429449,0.00367793,0.0007560
 4,0.00022767,0.00165996,0.00000525,0.00000442,-0.00005143,-0.00000573,
 -0.00001746,-0.00001518,0.00001029,0.00001369,-0.00000864,0.00000408,-
 0.00010746,0.00009725,0.00001370,0.00003802,-0.00007045,0.00000673,-0.
 00001870,0.00005894,0.00003226,0.00009980,0.00005142,-0.01559560,-0.00
 103371,0.00231239,0.00191201,0.04305062,-0.00001879,0.00004390,-0.0000
 9781,-0.00027393,-0.00011219,-0.00016690,0.00002501,-0.00022932,-0.000
 05474,0.00011721,-0.00071299,0.00040487,-0.00061319,0.00110929,0.00013
 780,-0.00203425,-0.00011729,-0.00133360,0.03151144,-0.00232396,-0.0035
 6842,0.04757830,0.00341564,-0.04616621,-0.00343565,0.00160786,-0.00540
 000,-0.00000413,-0.00003404,0.00010574,0.00003010,0.00003110,-0.000001
 60,-0.00000862,-0.00000918,0.00000771,-0.00000447,0.00010333,-0.000066
 36,-0.00000987,-0.00002119,0.00001648,-0.00001274,-0.00006384,0.000049
 33,-0.00005119,0.00010790,0.00009393,-0.02570176,-0.00094414,0.0044208
 9,-0.04766383,-0.00187307,0.05283518,0.00003022,0.00001351,-0.00005844
 ,0.00034530,-0.00031928,-0.00012486,0.00013305,0.00014328,0.00012618,-
 0.00022368,0.00031005,-0.00035515,0.00047804,0.00027051,-0.00038505,0.
 00046944,0.00002714,0.00266084,0.00128659,-0.00845889,0.00128698,-0.08
 046384,0.09040106,0.00231531,-0.00069577,-0.00017784,-0.00160302,0.000
 00131,0.00000354,0.00001689,-0.00000660,0.00001036,0.00000301,-0.00001
 515,0.00000196,-0.00000220,-0.00000997,-0.00009228,0.00007127,0.000000
 82,0.00001802,-0.00007295,-0.00000309,0.00001658,-0.00001489,0.0000985
 8,0.00013310,0.00000093,0.00461965,-0.01413119,0.00054331,-0.00839788,
 0.02954238,0.00057037,0.08235297,0.00006897,-0.00000143,-0.00007385,0.
 00022280,-0.00033571,-0.00060153,-0.00007123,-0.00012615,0.00017497,0.
 00017784,0.00025219,-0.00003558,-0.00037290,0.00021125,0.00050804,0.00
 002324,-0.00027243,0.00285656,0.00589980,-0.01795226,-0.00169843,0.089
 24636,-0.28797271,-0.01053326,-0.00087697,0.00388238,-0.00221215,-0.00
 001481,0.00000940,0.00007392,-0.00004299,0.00001794,0.00004161,-0.0000
 3708,-0.00000140,-0.00000092,-0.00000429,-0.00012132,0.00008569,-0.000
 02929,-0.00007637,-0.00001824,-0.00000878,-0.00005715,-0.00001228,0.00
 003028,0.00008208,-0.00005165,0.00491541,-0.01152535,0.00086612,-0.001
 41440,0.00267082,0.00002220,-0.09771198,0.31131621,-0.00008132,-0.0000
 1237,0.00016608,-0.00022779,0.00080901,0.00085177,0.00008323,0.0003957
 4,-0.00007009,0.00028033,0.00025130,-0.00063643,-0.00009998,-0.0012878
 4,0.00052718,0.00204150,0.00124279,-0.00522322,-0.01164138,0.03198735,
 0.00059518,0.00381371,-0.01449936,-0.04781955,-0.00010748,-0.00354563,
 0.00358811,-0.00000165,-0.00001475,-0.00006714,0.00002853,-0.00002867,
 -0.00003042,0.00003870,-0.00000208,-0.00000161,-0.00000064,0.00011598,
 -0.00007435,0.00002423,0.00008269,0.00003356,0.00005046,0.00011410,0.0
 0004880,0.00006207,0.00012989,0.00012906,0.01007008,-0.02169587,0.0002
 8942,0.00064593,-0.00465107,-0.00121631,-0.00497853,0.01060879,0.04890
 995\\0.00000501,0.00000255,0.00000118,-0.00001953,0.00000104,0.0000094
 0,0.00000541,-0.00001000,0.00000030,0.00005336,0.00004173,-0.00000372,
 -0.00000992,-0.00002253,-0.00001870,-0.00002125,0.00000806,0.00002913,
 0.00000543,-0.00000961,-0.00001328,-0.00000466,0.00000525,-0.00001797,
 -0.00000397,0.00000515,0.00000094,0.00000057,0.00000405,-0.00000186,0.
 00000102,0.00000523,0.00000490,0.00000114,0.00000074,0.00000182,0.0000
 0293,0.00000228,-0.00000414,-0.00000158,0.00000323,0.00000492,0.000000
 24,-0.00000030,0.00000786,-0.00001407,-0.00002123,0.00000363,0.0000013
 5,-0.00000637,-0.00000031,-0.00000047,-0.00000401,-0.00000223,-0.00000
 101,-0.00000526,-0.00000186\\\@


 MARY HAD A LITTLE LAMB
      HIS FEET WERE BLACK AS SOOT,
           AND EVERYWHERE THAT MARY WENT
                HIS SOOTY FOOT HE PUT.

                    -- NONAME
 Job cpu time:       0 days  1 hours 52 minutes 45.9 seconds.
 File lengths (MBytes):  RWF=    152 Int=      0 D2E=      0 Chk=      8 Scr=      1
 Normal termination of Gaussian 09 at Tue Jan 28 05:09:51 2020.
