 Entering Gaussian System, Link 0=/home/puck/opt/gaussian_09/g09
 Input=dsC7O2H10nsd_6062.com
 Output=dsC7O2H10nsd_6062.log
 Initial command:
 /home/puck/opt/gaussian_09/l1.exe "/scratch/puck/g09_e3ec555a-78c5-4815-99b2-e9ce66fad9b3/Gau-122006.inp" -scrdir="/scratch/puck/g09_e3ec555a-78c5-4815-99b2-e9ce66fad9b3/"
 Entering Link 1 = /home/puck/opt/gaussian_09/l1.exe PID=    122013.
  
 Copyright (c) 1988,1990,1992,1993,1995,1998,2003,2009,2013,
            Gaussian, Inc.  All Rights Reserved.
  
 This is part of the Gaussian(R) 09 program.  It is based on
 the Gaussian(R) 03 system (copyright 2003, Gaussian, Inc.),
 the Gaussian(R) 98 system (copyright 1998, Gaussian, Inc.),
 the Gaussian(R) 94 system (copyright 1995, Gaussian, Inc.),
 the Gaussian 92(TM) system (copyright 1992, Gaussian, Inc.),
 the Gaussian 90(TM) system (copyright 1990, Gaussian, Inc.),
 the Gaussian 88(TM) system (copyright 1988, Gaussian, Inc.),
 the Gaussian 86(TM) system (copyright 1986, Carnegie Mellon
 University), and the Gaussian 82(TM) system (copyright 1983,
 Carnegie Mellon University). Gaussian is a federally registered
 trademark of Gaussian, Inc.
  
 This software contains proprietary and confidential information,
 including trade secrets, belonging to Gaussian, Inc.
  
 This software is provided under written license and may be
 used, copied, transmitted, or stored only in accord with that
 written license.
  
 The following legend is applicable only to US Government
 contracts under FAR:
  
                    RESTRICTED RIGHTS LEGEND
  
 Use, reproduction and disclosure by the US Government is
 subject to restrictions as set forth in subparagraphs (a)
 and (c) of the Commercial Computer Software - Restricted
 Rights clause in FAR 52.227-19.
  
 Gaussian, Inc.
 340 Quinnipiac St., Bldg. 40, Wallingford CT 06492
  
  
 ---------------------------------------------------------------
 Warning -- This program may not be used in any manner that
 competes with the business of Gaussian, Inc. or will provide
 assistance to any competitor of Gaussian, Inc.  The licensee
 of this program is prohibited from giving any competitor of
 Gaussian, Inc. access to this program.  By using this program,
 the user acknowledges that Gaussian, Inc. is engaged in the
 business of creating and licensing software in the field of
 computational chemistry and represents and warrants to the
 licensee that it is not a competitor of Gaussian, Inc. and that
 it will not use this program in any manner prohibited above.
 ---------------------------------------------------------------
  

 Cite this work as:
 Gaussian 09, Revision D.01,
 M. J. Frisch, G. W. Trucks, H. B. Schlegel, G. E. Scuseria, 
 M. A. Robb, J. R. Cheeseman, G. Scalmani, V. Barone, B. Mennucci, 
 G. A. Petersson, H. Nakatsuji, M. Caricato, X. Li, H. P. Hratchian, 
 A. F. Izmaylov, J. Bloino, G. Zheng, J. L. Sonnenberg, M. Hada, 
 M. Ehara, K. Toyota, R. Fukuda, J. Hasegawa, M. Ishida, T. Nakajima, 
 Y. Honda, O. Kitao, H. Nakai, T. Vreven, J. A. Montgomery, Jr., 
 J. E. Peralta, F. Ogliaro, M. Bearpark, J. J. Heyd, E. Brothers, 
 K. N. Kudin, V. N. Staroverov, T. Keith, R. Kobayashi, J. Normand, 
 K. Raghavachari, A. Rendell, J. C. Burant, S. S. Iyengar, J. Tomasi, 
 M. Cossi, N. Rega, J. M. Millam, M. Klene, J. E. Knox, J. B. Cross, 
 V. Bakken, C. Adamo, J. Jaramillo, R. Gomperts, R. E. Stratmann, 
 O. Yazyev, A. J. Austin, R. Cammi, C. Pomelli, J. W. Ochterski, 
 R. L. Martin, K. Morokuma, V. G. Zakrzewski, G. A. Voth, 
 P. Salvador, J. J. Dannenberg, S. Dapprich, A. D. Daniels, 
 O. Farkas, J. B. Foresman, J. V. Ortiz, J. Cioslowski, 
 and D. J. Fox, Gaussian, Inc., Wallingford CT, 2013.
 
 ******************************************
 Gaussian 09:  ES64L-G09RevD.01 24-Apr-2013
                28-Jan-2020 
 ******************************************
 -----------------------------
 # b3lyp 6-31G(2df,p) opt Freq
 -----------------------------
 1/14=-1,18=20,19=15,26=3,38=1/1,3;
 2/9=110,12=2,17=6,18=5,40=1/2;
 3/5=1,6=6,7=104,11=2,16=1,25=1,30=1,71=1,74=-5/1,2,3;
 4//1;
 5/5=2,38=5/2;
 6/7=2,8=2,9=2,10=2,28=1/1;
 7//1,2,3,16;
 1/14=-1,18=20,19=15,26=3/3(2);
 2/9=110/2;
 99//99;
 2/9=110/2;
 3/5=1,6=6,7=104,11=2,16=1,25=1,30=1,71=1,74=-5/1,2,3;
 4/5=5,16=3,69=1/1;
 5/5=2,38=5/2;
 7//1,2,3,16;
 1/14=-1,18=20,19=15,26=3/3(-5);
 2/9=110/2;
 6/7=2,8=2,9=2,10=2,19=2,28=1/1;
 99/9=1/99;
 -----
 titel
 -----
 Symbolic Z-matrix:
 Charge =  0 Multiplicity = 1
 C                    -6.6906   -0.43939   0.88262 
 O                    -5.51378  -0.76264   1.58484 
 C                    -4.34352  -0.39836   0.89186 
 C                    -3.14863  -0.79567   1.76622 
 C                    -1.87154  -0.4651    1.14958 
 C                    -0.82765  -0.17446   0.62279 
 C                     0.41517   0.14674  -0.02364 
 C                     1.58197   0.64404   0.73283 
 O                     0.8094    1.53022  -0.06498 
 H                    -6.76986   0.64301   0.69512 
 H                    -6.74388  -0.9596   -0.08682 
 H                    -7.5359   -0.75413   1.49916 
 H                    -4.28551  -0.91009  -0.08257 
 H                    -4.32205   0.68548   0.69403 
 H                    -3.24412  -0.29404   2.73665 
 H                    -3.20591  -1.87238   1.96705 
 H                     0.61236  -0.38765  -0.95257 
 H                     1.49082   0.77838   1.80894 
 H                     2.58423   0.42591   0.36552 
 

 GradGradGradGradGradGradGradGradGradGradGradGradGradGradGradGradGradGrad
 Berny optimization.
 Initialization pass.
                           ----------------------------
                           !    Initial Parameters    !
                           ! (Angstroms and Degrees)  !
 --------------------------                            --------------------------
 ! Name  Definition              Value          Derivative Info.                !
 --------------------------------------------------------------------------------
 ! R1    R(1,2)                  1.408          estimate D2E/DX2                !
 ! R2    R(1,10)                 1.1014         estimate D2E/DX2                !
 ! R3    R(1,11)                 1.1015         estimate D2E/DX2                !
 ! R4    R(1,12)                 1.0926         estimate D2E/DX2                !
 ! R5    R(2,3)                  1.408          estimate D2E/DX2                !
 ! R6    R(3,4)                  1.533          estimate D2E/DX2                !
 ! R7    R(3,13)                 1.1022         estimate D2E/DX2                !
 ! R8    R(3,14)                 1.102          estimate D2E/DX2                !
 ! R9    R(4,5)                  1.4562         estimate D2E/DX2                !
 ! R10   R(4,15)                 1.0966         estimate D2E/DX2                !
 ! R11   R(4,16)                 1.0968         estimate D2E/DX2                !
 ! R12   R(5,6)                  1.2049         estimate D2E/DX2                !
 ! R13   R(6,7)                  1.4372         estimate D2E/DX2                !
 ! R14   R(7,8)                  1.4768         estimate D2E/DX2                !
 ! R15   R(7,9)                  1.4391         estimate D2E/DX2                !
 ! R16   R(7,17)                 1.0897         estimate D2E/DX2                !
 ! R17   R(8,9)                  1.4208         estimate D2E/DX2                !
 ! R18   R(8,18)                 1.0883         estimate D2E/DX2                !
 ! R19   R(8,19)                 1.0895         estimate D2E/DX2                !
 ! A1    A(2,1,10)             111.757          estimate D2E/DX2                !
 ! A2    A(2,1,11)             111.7738         estimate D2E/DX2                !
 ! A3    A(2,1,12)             107.4019         estimate D2E/DX2                !
 ! A4    A(10,1,11)            108.1093         estimate D2E/DX2                !
 ! A5    A(10,1,12)            108.8746         estimate D2E/DX2                !
 ! A6    A(11,1,12)            108.8556         estimate D2E/DX2                !
 ! A7    A(1,2,3)              112.9434         estimate D2E/DX2                !
 ! A8    A(2,3,4)              107.4615         estimate D2E/DX2                !
 ! A9    A(2,3,13)             111.0242         estimate D2E/DX2                !
 ! A10   A(2,3,14)             111.0396         estimate D2E/DX2                !
 ! A11   A(4,3,13)             110.0541         estimate D2E/DX2                !
 ! A12   A(4,3,14)             110.0061         estimate D2E/DX2                !
 ! A13   A(13,3,14)            107.2729         estimate D2E/DX2                !
 ! A14   A(3,4,5)              112.5327         estimate D2E/DX2                !
 ! A15   A(3,4,15)             108.5609         estimate D2E/DX2                !
 ! A16   A(3,4,16)             108.5512         estimate D2E/DX2                !
 ! A17   A(5,4,15)             110.3206         estimate D2E/DX2                !
 ! A18   A(5,4,16)             110.2554         estimate D2E/DX2                !
 ! A19   A(15,4,16)            106.4093         estimate D2E/DX2                !
 ! A20   A(6,7,8)              121.8749         estimate D2E/DX2                !
 ! A21   A(6,7,9)              117.6869         estimate D2E/DX2                !
 ! A22   A(6,7,17)             115.4875         estimate D2E/DX2                !
 ! A23   A(8,7,17)             117.3124         estimate D2E/DX2                !
 ! A24   A(9,7,17)             113.4152         estimate D2E/DX2                !
 ! A25   A(7,8,18)             118.8094         estimate D2E/DX2                !
 ! A26   A(7,8,19)             119.124          estimate D2E/DX2                !
 ! A27   A(9,8,18)             115.6395         estimate D2E/DX2                !
 ! A28   A(9,8,19)             115.8345         estimate D2E/DX2                !
 ! A29   A(18,8,19)            115.7931         estimate D2E/DX2                !
 ! A30   L(4,5,6,14,-1)        178.7213         estimate D2E/DX2                !
 ! A31   L(5,6,7,18,-1)        180.9339         estimate D2E/DX2                !
 ! A32   L(4,5,6,14,-2)        180.1713         estimate D2E/DX2                !
 ! A33   L(5,6,7,18,-2)        178.9489         estimate D2E/DX2                !
 ! D1    D(10,1,2,3)           -60.3793         estimate D2E/DX2                !
 ! D2    D(11,1,2,3)            60.9396         estimate D2E/DX2                !
 ! D3    D(12,1,2,3)          -179.7265         estimate D2E/DX2                !
 ! D4    D(1,2,3,4)            179.6337         estimate D2E/DX2                !
 ! D5    D(1,2,3,13)           -59.968          estimate D2E/DX2                !
 ! D6    D(1,2,3,14)            59.2849         estimate D2E/DX2                !
 ! D7    D(2,3,4,5)           -179.9644         estimate D2E/DX2                !
 ! D8    D(2,3,4,15)           -57.5587         estimate D2E/DX2                !
 ! D9    D(2,3,4,16)            57.7195         estimate D2E/DX2                !
 ! D10   D(13,3,4,5)            59.0252         estimate D2E/DX2                !
 ! D11   D(13,3,4,15)         -178.5691         estimate D2E/DX2                !
 ! D12   D(13,3,4,16)          -63.2909         estimate D2E/DX2                !
 ! D13   D(14,3,4,5)           -58.9633         estimate D2E/DX2                !
 ! D14   D(14,3,4,15)           63.4423         estimate D2E/DX2                !
 ! D15   D(14,3,4,16)          178.7205         estimate D2E/DX2                !
 ! D16   D(3,4,7,8)            142.6055         estimate D2E/DX2                !
 ! D17   D(3,4,7,9)             73.9757         estimate D2E/DX2                !
 ! D18   D(3,4,7,17)           -63.8741         estimate D2E/DX2                !
 ! D19   D(15,4,7,8)            21.3741         estimate D2E/DX2                !
 ! D20   D(15,4,7,9)           -47.2557         estimate D2E/DX2                !
 ! D21   D(15,4,7,17)          174.8945         estimate D2E/DX2                !
 ! D22   D(16,4,7,8)           -96.4252         estimate D2E/DX2                !
 ! D23   D(16,4,7,9)          -165.055          estimate D2E/DX2                !
 ! D24   D(16,4,7,17)           57.0952         estimate D2E/DX2                !
 ! D25   D(6,7,8,18)            -0.576          estimate D2E/DX2                !
 ! D26   D(6,7,8,19)           150.4534         estimate D2E/DX2                !
 ! D27   D(17,7,8,18)         -153.6297         estimate D2E/DX2                !
 ! D28   D(17,7,8,19)           -2.6003         estimate D2E/DX2                !
 --------------------------------------------------------------------------------
 Trust Radius=3.00D-01 FncErr=1.00D-07 GrdErr=1.00D-06
 Number of steps in this run=     90 maximum allowed number of steps=    114.
 GradGradGradGradGradGradGradGradGradGradGradGradGradGradGradGradGradGrad

                          Input orientation:                          
 ---------------------------------------------------------------------
 Center     Atomic      Atomic             Coordinates (Angstroms)
 Number     Number       Type             X           Y           Z
 ---------------------------------------------------------------------
      1          6           0       -6.690605   -0.439391    0.882623
      2          8           0       -5.513783   -0.762635    1.584844
      3          6           0       -4.343516   -0.398362    0.891856
      4          6           0       -3.148626   -0.795674    1.766225
      5          6           0       -1.871544   -0.465103    1.149581
      6          6           0       -0.827649   -0.174457    0.622794
      7          6           0        0.415168    0.146741   -0.023641
      8          6           0        1.581965    0.644041    0.732833
      9          8           0        0.809401    1.530222   -0.064982
     10          1           0       -6.769865    0.643010    0.695122
     11          1           0       -6.743880   -0.959604   -0.086818
     12          1           0       -7.535899   -0.754127    1.499162
     13          1           0       -4.285512   -0.910094   -0.082571
     14          1           0       -4.322051    0.685478    0.694028
     15          1           0       -3.244116   -0.294043    2.736646
     16          1           0       -3.205913   -1.872377    1.967046
     17          1           0        0.612359   -0.387654   -0.952567
     18          1           0        1.490816    0.778379    1.808944
     19          1           0        2.584229    0.425913    0.365523
 ---------------------------------------------------------------------
                    Distance matrix (angstroms):
                    1          2          3          4          5
     1  C    0.000000
     2  O    1.408017   0.000000
     3  C    2.347465   1.407995   0.000000
     4  C    3.667874   2.372331   1.533016   0.000000
     5  C    4.826517   3.680201   2.486267   1.456182   0.000000
     6  C    5.874688   4.819891   3.533250   2.660880   1.204864
     7  C    7.187271   6.210205   4.876510   4.097853   2.641942
     8  C    8.344560   7.283838   6.018573   5.051651   3.651111
     9  O    7.812005   6.925444   5.584580   4.942580   3.555834
    10  H    1.101377   2.084511   2.647702   4.041094   5.042617
    11  H    1.101488   2.084800   2.652271   4.048023   5.051026
    12  H    1.092567   2.023949   3.269052   4.395590   5.682487
    13  H    2.633938   2.076214   1.102153   2.173395   2.746535
    14  H    2.628868   2.076249   1.101956   2.172635   2.745241
    15  H    3.916224   2.587975   2.150073   1.096571   2.105229
    16  H    3.920777   2.589183   2.150092   1.096768   2.104569
    17  H    7.530197   6.641436   5.287978   4.658682   3.254966
    18  H    8.323262   7.175608   6.022060   4.899377   3.645062
    19  H    9.329452   8.275094   6.996435   6.026597   4.611136
                    6          7          8          9         10
     6  C    0.000000
     7  C    1.437233   0.000000
     8  C    2.547212   1.476813   0.000000
     9  O    2.461483   1.439148   1.420803   0.000000
    10  H    5.998618   7.237928   8.351915   7.668779   0.000000
    11  H    6.010141   7.244305   8.518404   7.953098   1.783390
    12  H    6.790042   8.145549   9.256219   8.792544   1.784736
    13  H    3.604930   4.818378   6.124338   5.649211   3.031328
    14  H    3.599362   4.821465   5.904289   5.255615   2.448183
    15  H    3.212784   4.604762   5.309079   5.254337   4.180526
    16  H    3.216534   4.599120   5.547921   5.641770   4.543866
    17  H    2.144956   1.089663   2.201160   2.122470   7.633765
    18  H    2.773108   2.216834   1.088287   2.131007   8.336533
    19  H    3.473836   2.221308   1.089508   2.134208   9.362416
                   11         12         13         14         15
    11  H    0.000000
    12  H    1.784615   0.000000
    13  H    2.458870   3.618180   0.000000
    14  H    3.030062   3.612413   1.774906   0.000000
    15  H    4.545687   4.490262   3.067899   2.508723   0.000000
    16  H    4.191506   4.496463   2.508476   3.067403   1.756383
    17  H    7.429058   8.517006   5.001897   5.311430   5.337738
    18  H    8.626977   9.161121   6.308307   5.919551   4.942702
    19  H    9.441286  10.251567   7.012777   6.918958   6.333258
                   16         17         18         19
    16  H    0.000000
    17  H    5.030681   0.000000
    18  H    5.395440   3.123662   0.000000
    19  H    6.432166   2.507493   1.844789   0.000000
 Stoichiometry    C7H10O2
 Framework group  C1[X(C7H10O2)]
 Deg. of freedom    51
 Full point group                 C1      NOp   1
 Largest Abelian subgroup         C1      NOp   1
 Largest concise Abelian subgroup C1      NOp   1
                         Standard orientation:                         
 ---------------------------------------------------------------------
 Center     Atomic      Atomic             Coordinates (Angstroms)
 Number     Number       Type             X           Y           Z
 ---------------------------------------------------------------------
      1          6           0       -4.324068   -0.676920   -0.023066
      2          8           0       -3.324261    0.305026   -0.159735
      3          6           0       -2.029668   -0.192220    0.083628
      4          6           0       -1.047418    0.969230   -0.107050
      5          6           0        0.335544    0.573311    0.119065
      6          6           0        1.472602    0.219849    0.303079
      7          6           0        2.824147   -0.199984    0.553496
      8          6           0        3.959107    0.309266   -0.242436
      9          8           0        3.469371   -1.008698   -0.446910
     10          1           0       -4.177835   -1.509473   -0.729114
     11          1           0       -4.351220   -1.093272    0.996340
     12          1           0       -5.283179   -0.198353   -0.234684
     13          1           0       -1.946152   -0.593743    1.106636
     14          1           0       -1.783691   -1.011837   -0.610657
     15          1           0       -1.168842    1.365996   -1.122088
     16          1           0       -1.327368    1.778968    0.577677
     17          1           0        3.033476   -0.523314    1.572811
     18          1           0        3.760827    1.015343   -1.046493
     19          1           0        4.941627    0.383877    0.222446
 ---------------------------------------------------------------------
 Rotational constants (GHZ):      7.1887410      0.4561122      0.4422504
 Standard basis: 6-31G(2df,p) (6D, 7F)
 There are   329 symmetry adapted cartesian basis functions of A   symmetry.
 There are   302 symmetry adapted basis functions of A   symmetry.
   302 basis functions,   466 primitive gaussians,   329 cartesian basis functions
    34 alpha electrons       34 beta electrons
       nuclear repulsion energy       397.3259347830 Hartrees.
 NAtoms=   19 NActive=   19 NUniq=   19 SFac= 1.00D+00 NAtFMM=   60 NAOKFM=F Big=F
 Integral buffers will be    131072 words long.
 Raffenetti 2 integral format.
 Two-electron integral symmetry is turned on.
 One-electron integrals computed using PRISM.
 NBasis=   302 RedAO= T EigKep=  5.43D-05  NBF=   302
 NBsUse=   302 1.00D-06 EigRej= -1.00D+00 NBFU=   302
 ExpMin= 1.61D-01 ExpMax= 5.48D+03 ExpMxC= 8.25D+02 IAcc=1 IRadAn=         1 AccDes= 0.00D+00
 Harris functional with IExCor=  402 and IRadAn=       1 diagonalized for initial guess.
 HarFok:  IExCor=  402 AccDes= 0.00D+00 IRadAn=         1 IDoV= 1 UseB2=F ITyADJ=14
 ICtDFT=  3500011 ScaDFX=  1.000000  1.000000  1.000000  1.000000
 FoFCou: FMM=F IPFlag=           0 FMFlag=      100000 FMFlg1=           0
         NFxFlg=           0 DoJE=T BraDBF=F KetDBF=T FulRan=T
         wScrn=  0.000000 ICntrl=     500 IOpCl=  0 I1Cent=   200000004 NGrid=           0
         NMat0=    1 NMatS0=      1 NMatT0=    0 NMatD0=    1 NMtDS0=    0 NMtDT0=    0
 Petite list used in FoFCou.
 Requested convergence on RMS density matrix=1.00D-08 within 128 cycles.
 Requested convergence on MAX density matrix=1.00D-06.
 Requested convergence on             energy=1.00D-06.
 No special actions if energy rises.
 Integral accuracy reduced to 1.0D-05 until final iterations.
 Initial convergence to 1.0D-05 achieved.  Increase integral accuracy.
 SCF Done:  E(RB3LYP) =  -423.115395957     A.U. after   14 cycles
            NFock= 14  Conv=0.46D-08     -V/T= 2.0074

 **********************************************************************

            Population analysis using the SCF density.

 **********************************************************************

 Orbital symmetries:
       Occupied  (A) (A) (A) (A) (A) (A) (A) (A) (A) (A) (A) (A)
                 (A) (A) (A) (A) (A) (A) (A) (A) (A) (A) (A) (A)
                 (A) (A) (A) (A) (A) (A) (A) (A) (A) (A)
       Virtual   (A) (A) (A) (A) (A) (A) (A) (A) (A) (A) (A) (A)
                 (A) (A) (A) (A) (A) (A) (A) (A) (A) (A) (A) (A)
                 (A) (A) (A) (A) (A) (A) (A) (A) (A) (A) (A) (A)
                 (A) (A) (A) (A) (A) (A) (A) (A) (A) (A) (A) (A)
                 (A) (A) (A) (A) (A) (A) (A) (A) (A) (A) (A) (A)
                 (A) (A) (A) (A) (A) (A) (A) (A) (A) (A) (A) (A)
                 (A) (A) (A) (A) (A) (A) (A) (A) (A) (A) (A) (A)
                 (A) (A) (A) (A) (A) (A) (A) (A) (A) (A) (A) (A)
                 (A) (A) (A) (A) (A) (A) (A) (A) (A) (A) (A) (A)
                 (A) (A) (A) (A) (A) (A) (A) (A) (A) (A) (A) (A)
                 (A) (A) (A) (A) (A) (A) (A) (A) (A) (A) (A) (A)
                 (A) (A) (A) (A) (A) (A) (A) (A) (A) (A) (A) (A)
                 (A) (A) (A) (A) (A) (A) (A) (A) (A) (A) (A) (A)
                 (A) (A) (A) (A) (A) (A) (A) (A) (A) (A) (A) (A)
                 (A) (A) (A) (A) (A) (A) (A) (A) (A) (A) (A) (A)
                 (A) (A) (A) (A) (A) (A) (A) (A) (A) (A) (A) (A)
                 (A) (A) (A) (A) (A) (A) (A) (A) (A) (A) (A) (A)
                 (A) (A) (A) (A) (A) (A) (A) (A) (A) (A) (A) (A)
                 (A) (A) (A) (A) (A) (A) (A) (A) (A) (A) (A) (A)
                 (A) (A) (A) (A) (A) (A) (A) (A) (A) (A) (A) (A)
                 (A) (A) (A) (A) (A) (A) (A) (A) (A) (A) (A) (A)
                 (A) (A) (A) (A) (A) (A) (A) (A) (A) (A) (A) (A)
                 (A) (A) (A) (A)
 The electronic state is 1-A.
 Alpha  occ. eigenvalues --  -19.15639 -19.14446 -10.25927 -10.24064 -10.23529
 Alpha  occ. eigenvalues --  -10.22732 -10.20918 -10.18486 -10.17709  -1.07626
 Alpha  occ. eigenvalues --   -1.03848  -0.80263  -0.75076  -0.69828  -0.66924
 Alpha  occ. eigenvalues --   -0.64392  -0.61719  -0.53359  -0.50308  -0.49320
 Alpha  occ. eigenvalues --   -0.49031  -0.46527  -0.43436  -0.43393  -0.41021
 Alpha  occ. eigenvalues --   -0.40279  -0.38224  -0.37281  -0.33989  -0.32348
 Alpha  occ. eigenvalues --   -0.27903  -0.26449  -0.25915  -0.25027
 Alpha virt. eigenvalues --    0.02524   0.04218   0.08837   0.10934   0.11720
 Alpha virt. eigenvalues --    0.13285   0.13941   0.14005   0.14705   0.15617
 Alpha virt. eigenvalues --    0.17020   0.17228   0.17713   0.18446   0.21603
 Alpha virt. eigenvalues --    0.22125   0.23730   0.26879   0.29174   0.31575
 Alpha virt. eigenvalues --    0.37204   0.40196   0.42073   0.44245   0.45933
 Alpha virt. eigenvalues --    0.47063   0.48142   0.50014   0.51443   0.52399
 Alpha virt. eigenvalues --    0.53173   0.54127   0.55631   0.57948   0.61160
 Alpha virt. eigenvalues --    0.65000   0.66244   0.68187   0.68976   0.69544
 Alpha virt. eigenvalues --    0.70430   0.71733   0.72516   0.73131   0.73520
 Alpha virt. eigenvalues --    0.74124   0.75102   0.75591   0.76266   0.78346
 Alpha virt. eigenvalues --    0.78870   0.80262   0.80596   0.81390   0.84131
 Alpha virt. eigenvalues --    0.85499   0.87945   0.88149   0.89487   0.92655
 Alpha virt. eigenvalues --    0.93810   0.96183   0.99468   1.01525   1.03980
 Alpha virt. eigenvalues --    1.05092   1.08860   1.09060   1.10827   1.13314
 Alpha virt. eigenvalues --    1.15972   1.20149   1.22093   1.23742   1.25674
 Alpha virt. eigenvalues --    1.28486   1.30182   1.32335   1.34224   1.35152
 Alpha virt. eigenvalues --    1.35578   1.37632   1.42024   1.43361   1.43605
 Alpha virt. eigenvalues --    1.45288   1.46317   1.48649   1.50726   1.53081
 Alpha virt. eigenvalues --    1.56696   1.57286   1.60456   1.61894   1.67592
 Alpha virt. eigenvalues --    1.69173   1.70468   1.73197   1.73637   1.78165
 Alpha virt. eigenvalues --    1.78485   1.80436   1.82518   1.86796   1.89651
 Alpha virt. eigenvalues --    1.93162   1.94657   1.96590   2.01843   2.04341
 Alpha virt. eigenvalues --    2.13450   2.15115   2.19048   2.26149   2.27222
 Alpha virt. eigenvalues --    2.27685   2.32020   2.34262   2.39134   2.43688
 Alpha virt. eigenvalues --    2.43875   2.49301   2.50801   2.52798   2.53568
 Alpha virt. eigenvalues --    2.63683   2.64940   2.65547   2.66227   2.67298
 Alpha virt. eigenvalues --    2.69642   2.73106   2.74003   2.75060   2.75776
 Alpha virt. eigenvalues --    2.76644   2.81442   2.82664   2.83864   2.85672
 Alpha virt. eigenvalues --    2.87558   2.89305   2.92342   2.93008   2.95242
 Alpha virt. eigenvalues --    2.96510   2.99065   3.00200   3.04090   3.04974
 Alpha virt. eigenvalues --    3.07890   3.09849   3.11497   3.14723   3.15397
 Alpha virt. eigenvalues --    3.16910   3.23785   3.25310   3.26468   3.28890
 Alpha virt. eigenvalues --    3.30319   3.31266   3.36857   3.37264   3.39186
 Alpha virt. eigenvalues --    3.40231   3.43911   3.46511   3.49579   3.49824
 Alpha virt. eigenvalues --    3.52527   3.54201   3.56724   3.60806   3.61629
 Alpha virt. eigenvalues --    3.66749   3.67485   3.68080   3.71904   3.74277
 Alpha virt. eigenvalues --    3.77078   3.87924   3.89972   3.91660   3.93356
 Alpha virt. eigenvalues --    3.99086   4.02954   4.10746   4.13632   4.16687
 Alpha virt. eigenvalues --    4.17478   4.20674   4.23711   4.28010   4.29359
 Alpha virt. eigenvalues --    4.30919   4.32243   4.32821   4.34611   4.37386
 Alpha virt. eigenvalues --    4.37898   4.40266   4.42254   4.42490   4.45362
 Alpha virt. eigenvalues --    4.46006   4.48051   4.48891   4.51023   4.51986
 Alpha virt. eigenvalues --    4.53701   4.55520   4.58561   4.60037   4.63108
 Alpha virt. eigenvalues --    4.66691   4.68049   4.71113   4.71254   4.73037
 Alpha virt. eigenvalues --    4.74495   4.74970   4.78662   4.80149   4.81603
 Alpha virt. eigenvalues --    4.89318   4.93692   4.95687   4.98933   5.02206
 Alpha virt. eigenvalues --    5.03739   5.11454   5.14765   5.21429   5.26606
 Alpha virt. eigenvalues --    5.29256   5.35791   5.38965   5.41242   5.41688
 Alpha virt. eigenvalues --    5.49512   5.50103   5.54987   5.63595   5.77917
 Alpha virt. eigenvalues --    5.85530   5.90554   5.95122   5.97961   5.99940
 Alpha virt. eigenvalues --    6.01884   6.09794   6.10151   6.24174   6.32112
 Alpha virt. eigenvalues --    6.48402   6.84777   6.95654   7.06158   9.80413
 Alpha virt. eigenvalues --   10.63814  11.15845  11.27602  11.57844  11.86450
 Alpha virt. eigenvalues --   12.28212  13.12571  13.37911
          Condensed to atoms (all electrons):
               1          2          3          4          5          6
     1  C    4.817252   0.373529  -0.080119   0.004951  -0.000411  -0.000010
     2  O    0.373529   7.656058   0.359203  -0.025816   0.002731  -0.000077
     3  C   -0.080119   0.359203   4.763052   0.418794  -0.055734   0.000885
     4  C    0.004951  -0.025816   0.418794   5.171299   0.327282  -0.148341
     5  C   -0.000411   0.002731  -0.055734   0.327282   5.186811   0.588681
     6  C   -0.000010  -0.000077   0.000885  -0.148341   0.588681   5.100224
     7  C    0.000000   0.000000   0.000092  -0.003789  -0.086324   0.449921
     8  C    0.000000   0.000000  -0.000003   0.000015   0.003588   0.005027
     9  O    0.000000   0.000000   0.000000  -0.000009  -0.011775  -0.038764
    10  H    0.369178  -0.031981  -0.006381   0.000076   0.000095   0.000005
    11  H    0.368875  -0.032051  -0.006420   0.000065   0.000094   0.000005
    12  H    0.385112  -0.020314   0.005335  -0.000335  -0.000007   0.000000
    13  H   -0.004057  -0.030522   0.350992  -0.043136   0.008923   0.004929
    14  H   -0.004273  -0.030469   0.352793  -0.042547   0.008773   0.004855
    15  H    0.000138   0.003514  -0.029736   0.350730  -0.016153   0.000264
    16  H    0.000129   0.003425  -0.029551   0.348518  -0.014892   0.000861
    17  H    0.000000   0.000000   0.000004  -0.000063  -0.009931  -0.065341
    18  H    0.000000   0.000000   0.000000   0.000008   0.001335  -0.004363
    19  H    0.000000   0.000000   0.000000   0.000000  -0.000366  -0.001041
               7          8          9         10         11         12
     1  C    0.000000   0.000000   0.000000   0.369178   0.368875   0.385112
     2  O    0.000000   0.000000   0.000000  -0.031981  -0.032051  -0.020314
     3  C    0.000092  -0.000003   0.000000  -0.006381  -0.006420   0.005335
     4  C   -0.003789   0.000015  -0.000009   0.000076   0.000065  -0.000335
     5  C   -0.086324   0.003588  -0.011775   0.000095   0.000094  -0.000007
     6  C    0.449921   0.005027  -0.038764   0.000005   0.000005   0.000000
     7  C    4.824038   0.281829   0.254228   0.000000   0.000000   0.000000
     8  C    0.281829   4.896941   0.276669   0.000000   0.000000   0.000000
     9  O    0.254228   0.276669   7.808520   0.000000   0.000000   0.000000
    10  H    0.000000   0.000000   0.000000   0.637241  -0.050881  -0.034818
    11  H    0.000000   0.000000   0.000000  -0.050881   0.639075  -0.035065
    12  H    0.000000   0.000000   0.000000  -0.034818  -0.035065   0.571225
    13  H    0.000060   0.000000   0.000000  -0.002599   0.012933  -0.000093
    14  H    0.000035   0.000001  -0.000001   0.013044  -0.002585  -0.000081
    15  H    0.000091   0.000005   0.000002  -0.000059   0.000044   0.000009
    16  H   -0.000031   0.000004  -0.000001   0.000044  -0.000057   0.000009
    17  H    0.408802  -0.034287  -0.025503   0.000000   0.000000   0.000000
    18  H    0.000907   0.362474  -0.025601   0.000000   0.000000   0.000000
    19  H   -0.013036   0.366843  -0.021873   0.000000   0.000000   0.000000
              13         14         15         16         17         18
     1  C   -0.004057  -0.004273   0.000138   0.000129   0.000000   0.000000
     2  O   -0.030522  -0.030469   0.003514   0.003425   0.000000   0.000000
     3  C    0.350992   0.352793  -0.029736  -0.029551   0.000004   0.000000
     4  C   -0.043136  -0.042547   0.350730   0.348518  -0.000063   0.000008
     5  C    0.008923   0.008773  -0.016153  -0.014892  -0.009931   0.001335
     6  C    0.004929   0.004855   0.000264   0.000861  -0.065341  -0.004363
     7  C    0.000060   0.000035   0.000091  -0.000031   0.408802   0.000907
     8  C    0.000000   0.000001   0.000005   0.000004  -0.034287   0.362474
     9  O    0.000000  -0.000001   0.000002  -0.000001  -0.025503  -0.025601
    10  H   -0.002599   0.013044  -0.000059   0.000044   0.000000   0.000000
    11  H    0.012933  -0.002585   0.000044  -0.000057   0.000000   0.000000
    12  H   -0.000093  -0.000081   0.000009   0.000009   0.000000   0.000000
    13  H    0.666005  -0.059823   0.006383  -0.007194  -0.000004   0.000000
    14  H   -0.059823   0.659796  -0.007116   0.006343   0.000000   0.000000
    15  H    0.006383  -0.007116   0.588090  -0.038360  -0.000004  -0.000003
    16  H   -0.007194   0.006343  -0.038360   0.589742   0.000009   0.000000
    17  H   -0.000004   0.000000  -0.000004   0.000009   0.609849   0.002175
    18  H    0.000000   0.000000  -0.000003   0.000000   0.002175   0.591832
    19  H    0.000000   0.000000   0.000000   0.000000  -0.000793  -0.052511
              19
     1  C    0.000000
     2  O    0.000000
     3  C    0.000000
     4  C    0.000000
     5  C   -0.000366
     6  C   -0.001041
     7  C   -0.013036
     8  C    0.366843
     9  O   -0.021873
    10  H    0.000000
    11  H    0.000000
    12  H    0.000000
    13  H    0.000000
    14  H    0.000000
    15  H    0.000000
    16  H    0.000000
    17  H   -0.000793
    18  H   -0.052511
    19  H    0.604559
 Mulliken charges:
               1
     1  C   -0.230295
     2  O   -0.227231
     3  C   -0.043208
     4  C   -0.357701
     5  C    0.067279
     6  C    0.102280
     7  C   -0.116823
     8  C   -0.159106
     9  O   -0.215892
    10  H    0.107036
    11  H    0.105967
    12  H    0.129023
    13  H    0.097204
    14  H    0.101255
    15  H    0.142160
    16  H    0.141002
    17  H    0.115088
    18  H    0.123745
    19  H    0.118218
 Sum of Mulliken charges =   0.00000
 Mulliken charges with hydrogens summed into heavy atoms:
               1
     1  C    0.111731
     2  O   -0.227231
     3  C    0.155250
     4  C   -0.074540
     5  C    0.067279
     6  C    0.102280
     7  C   -0.001735
     8  C    0.082857
     9  O   -0.215892
 Electronic spatial extent (au):  <R**2>=           2438.9406
 Charge=              0.0000 electrons
 Dipole moment (field-independent basis, Debye):
    X=             -0.5976    Y=              0.5803    Z=              0.9574  Tot=              1.2691
 Quadrupole moment (field-independent basis, Debye-Ang):
   XX=            -46.4778   YY=            -54.6847   ZZ=            -52.3869
   XY=              8.3728   XZ=              2.3357   YZ=             -1.7562
 Traceless Quadrupole moment (field-independent basis, Debye-Ang):
   XX=              4.7053   YY=             -3.5015   ZZ=             -1.2038
   XY=              8.3728   XZ=              2.3357   YZ=             -1.7562
 Octapole moment (field-independent basis, Debye-Ang**2):
  XXX=             -0.0828  YYY=             -0.1106  ZZZ=             -1.7434  XYY=             -8.4595
  XXY=              4.6556  XXZ=             11.1280  XZZ=              1.2996  YZZ=             -0.8513
  YYZ=             -0.7778  XYZ=             -6.5907
 Hexadecapole moment (field-independent basis, Debye-Ang**3):
 XXXX=          -2531.0216 YYYY=           -196.7179 ZZZZ=           -105.4448 XXXY=            112.0128
 XXXZ=             29.2542 YYYX=            -13.2272 YYYZ=              1.2731 ZZZX=             -1.1332
 ZZZY=             -2.5309 XXYY=           -526.3482 XXZZ=           -479.6956 YYZZ=            -48.4774
 XXYZ=            -17.2396 YYXZ=              0.3348 ZZXY=             -5.1297
 N-N= 3.973259347830D+02 E-N=-1.781090092121D+03  KE= 4.199935862772D+02
 Calling FoFJK, ICntrl=      2127 FMM=F ISym2X=0 I1Cent= 0 IOpClX= 0 NMat=1 NMatS=1 NMatT=0.
 ***** Axes restored to original set *****
 -------------------------------------------------------------------
 Center     Atomic                   Forces (Hartrees/Bohr)
 Number     Number              X              Y              Z
 -------------------------------------------------------------------
      1        6           0.000001881    0.000003101    0.000002729
      2        8           0.000000370   -0.000001067   -0.000001878
      3        6          -0.000002362    0.000000385    0.000001385
      4        6           0.000002212   -0.000000668    0.000002852
      5        6           0.000000455    0.000001633   -0.000003738
      6        6          -0.000000800    0.000001683    0.000002864
      7        6          -0.000001069   -0.000000601   -0.000005996
      8        6           0.000002199   -0.000004878    0.000003488
      9        8          -0.000000792   -0.000000411    0.000002324
     10        1           0.000000293    0.000003181    0.000003985
     11        1          -0.000001411    0.000004483    0.000000324
     12        1           0.000000664    0.000001665    0.000001770
     13        1          -0.000000300    0.000002999   -0.000001073
     14        1           0.000000497    0.000000916    0.000002862
     15        1           0.000000064   -0.000004511   -0.000001535
     16        1          -0.000002516   -0.000003774   -0.000005050
     17        1          -0.000000478    0.000000770   -0.000002588
     18        1           0.000002119   -0.000003705    0.000000271
     19        1          -0.000001025   -0.000001198   -0.000002998
 -------------------------------------------------------------------
 Cartesian Forces:  Max     0.000005996 RMS     0.000002441

 GradGradGradGradGradGradGradGradGradGradGradGradGradGradGradGradGradGrad
 Berny optimization.
 FormGI is forming the generalized inverse of G from B-inverse, IUseBI=4.
 Internal  Forces:  Max     0.000005092 RMS     0.000001275
 Search for a local minimum.
 Step number   1 out of a maximum of   90
 All quantities printed in internal units (Hartrees-Bohrs-Radians)
 Mixed Optimization -- En-DIIS/RFO-DIIS
 Second derivative matrix not updated -- first step.
 ITU=  0
     Eigenvalues ---    0.00230   0.00329   0.00955   0.01241   0.01586
     Eigenvalues ---    0.01586   0.02663   0.03054   0.03323   0.03513
     Eigenvalues ---    0.04484   0.04775   0.05339   0.05730   0.05898
     Eigenvalues ---    0.09006   0.10069   0.10518   0.11105   0.12464
     Eigenvalues ---    0.13626   0.14730   0.16000   0.16000   0.16000
     Eigenvalues ---    0.16000   0.16000   0.16141   0.19549   0.21897
     Eigenvalues ---    0.21941   0.25000   0.29147   0.31920   0.33445
     Eigenvalues ---    0.33467   0.33518   0.33530   0.34042   0.34064
     Eigenvalues ---    0.34518   0.34852   0.34870   0.35011   0.36251
     Eigenvalues ---    0.37446   0.39967   0.40232   0.44317   0.44321
     Eigenvalues ---    1.02416
 RFO step:  Lambda= 0.00000000D+00 EMin= 2.30000000D-03
 Linear search not attempted -- first point.
 Iteration  1 RMS(Cart)=  0.00029488 RMS(Int)=  0.00000003
 Iteration  2 RMS(Cart)=  0.00000008 RMS(Int)=  0.00000001
 Variable       Old X    -DE/DX   Delta X   Delta X   Delta X     New X
                                 (Linear)    (Quad)   (Total)
    R1        2.66077   0.00000   0.00000   0.00000   0.00000   2.66076
    R2        2.08130   0.00000   0.00000   0.00000   0.00000   2.08130
    R3        2.08151   0.00000   0.00000   0.00000   0.00000   2.08151
    R4        2.06465   0.00000   0.00000   0.00000   0.00000   2.06465
    R5        2.66073   0.00000   0.00000  -0.00001  -0.00001   2.66072
    R6        2.89698   0.00000   0.00000   0.00000   0.00000   2.89698
    R7        2.08277   0.00000   0.00000   0.00000   0.00000   2.08277
    R8        2.08239   0.00000   0.00000   0.00000   0.00000   2.08239
    R9        2.75178   0.00000   0.00000   0.00000   0.00000   2.75179
   R10        2.07222   0.00000   0.00000   0.00000   0.00000   2.07222
   R11        2.07259   0.00000   0.00000   0.00000   0.00000   2.07259
   R12        2.27686   0.00000   0.00000   0.00000   0.00000   2.27686
   R13        2.71598   0.00000   0.00000   0.00000   0.00000   2.71598
   R14        2.79077   0.00000   0.00000   0.00001   0.00001   2.79078
   R15        2.71960   0.00000   0.00000   0.00000   0.00000   2.71959
   R16        2.05916   0.00000   0.00000   0.00000   0.00000   2.05917
   R17        2.68493   0.00000   0.00000   0.00000   0.00000   2.68493
   R18        2.05656   0.00000   0.00000   0.00000   0.00000   2.05657
   R19        2.05887   0.00000   0.00000   0.00000   0.00000   2.05887
    A1        1.95053   0.00000   0.00000   0.00000   0.00000   1.95053
    A2        1.95082   0.00000   0.00000   0.00000   0.00000   1.95083
    A3        1.87452   0.00000   0.00000  -0.00001  -0.00001   1.87451
    A4        1.88686   0.00000   0.00000   0.00000   0.00000   1.88686
    A5        1.90022   0.00000   0.00000   0.00000   0.00000   1.90022
    A6        1.89989   0.00000   0.00000   0.00000   0.00000   1.89989
    A7        1.97124   0.00000   0.00000   0.00000   0.00000   1.97124
    A8        1.87556   0.00000   0.00000  -0.00001  -0.00001   1.87555
    A9        1.93774   0.00000   0.00000   0.00001   0.00001   1.93774
   A10        1.93801   0.00000   0.00000   0.00000   0.00000   1.93801
   A11        1.92081   0.00000   0.00000   0.00000   0.00000   1.92081
   A12        1.91997   0.00000   0.00000   0.00000   0.00000   1.91997
   A13        1.87227   0.00000   0.00000   0.00000   0.00000   1.87227
   A14        1.96407   0.00000   0.00000  -0.00001  -0.00001   1.96406
   A15        1.89474   0.00000   0.00000   0.00000   0.00000   1.89474
   A16        1.89458   0.00000   0.00000  -0.00002  -0.00002   1.89455
   A17        1.92546   0.00000   0.00000   0.00001   0.00001   1.92547
   A18        1.92432   0.00000   0.00000   0.00001   0.00001   1.92433
   A19        1.85719   0.00000   0.00000   0.00001   0.00001   1.85720
   A20        2.12712   0.00000   0.00000   0.00000   0.00000   2.12712
   A21        2.05402   0.00000   0.00000  -0.00001  -0.00001   2.05401
   A22        2.01564   0.00000   0.00000   0.00000   0.00000   2.01564
   A23        2.04749   0.00000   0.00000  -0.00001  -0.00001   2.04748
   A24        1.97947   0.00000   0.00000   0.00001   0.00001   1.97948
   A25        2.07362   0.00000   0.00000   0.00002   0.00002   2.07364
   A26        2.07911   0.00000   0.00000  -0.00001  -0.00001   2.07910
   A27        2.01829   0.00000   0.00000  -0.00001  -0.00001   2.01828
   A28        2.02169   0.00000   0.00000  -0.00002  -0.00002   2.02168
   A29        2.02097   0.00000   0.00000   0.00000   0.00000   2.02097
   A30        3.11928   0.00000   0.00000   0.00007   0.00007   3.11935
   A31        3.15789   0.00001   0.00000   0.00038   0.00038   3.15828
   A32        3.14458   0.00000   0.00000   0.00009   0.00009   3.14467
   A33        3.12325   0.00000   0.00000  -0.00020  -0.00020   3.12304
    D1       -1.05382   0.00000   0.00000   0.00003   0.00003  -1.05379
    D2        1.06360   0.00000   0.00000   0.00003   0.00003   1.06363
    D3       -3.13682   0.00000   0.00000   0.00003   0.00003  -3.13679
    D4        3.13520   0.00000   0.00000  -0.00005  -0.00005   3.13515
    D5       -1.04664   0.00000   0.00000  -0.00005  -0.00005  -1.04669
    D6        1.03472   0.00000   0.00000  -0.00005  -0.00005   1.03467
    D7       -3.14097   0.00000   0.00000  -0.00002  -0.00002  -3.14099
    D8       -1.00459   0.00000   0.00000  -0.00001  -0.00001  -1.00460
    D9        1.00739   0.00000   0.00000  -0.00001  -0.00001   1.00738
   D10        1.03018   0.00000   0.00000  -0.00003  -0.00003   1.03016
   D11       -3.11662   0.00000   0.00000  -0.00001  -0.00001  -3.11663
   D12       -1.10464   0.00000   0.00000  -0.00002  -0.00002  -1.10465
   D13       -1.02910   0.00000   0.00000  -0.00003  -0.00003  -1.02913
   D14        1.10728   0.00000   0.00000  -0.00001  -0.00001   1.10726
   D15        3.11926   0.00000   0.00000  -0.00002  -0.00002   3.11925
   D16        2.48894   0.00000   0.00000   0.00017   0.00017   2.48911
   D17        1.29112   0.00000   0.00000  -0.00001  -0.00001   1.29111
   D18       -1.11481   0.00000   0.00000   0.00007   0.00007  -1.11474
   D19        0.37305   0.00000   0.00000   0.00008   0.00008   0.37312
   D20       -0.82477   0.00000   0.00000  -0.00011  -0.00011  -0.82488
   D21        3.05248   0.00000   0.00000  -0.00003  -0.00003   3.05246
   D22       -1.68294   0.00000   0.00000   0.00002   0.00002  -1.68292
   D23       -2.88075   0.00000   0.00000  -0.00017  -0.00017  -2.88092
   D24        0.99650   0.00000   0.00000  -0.00008  -0.00008   0.99642
   D25       -0.01005   0.00000   0.00000  -0.00001  -0.00001  -0.01006
   D26        2.62591   0.00000   0.00000   0.00003   0.00003   2.62594
   D27       -2.68134   0.00000   0.00000   0.00000   0.00000  -2.68135
   D28       -0.04538   0.00000   0.00000   0.00004   0.00004  -0.04535
         Item               Value     Threshold  Converged?
 Maximum Force            0.000005     0.000450     YES
 RMS     Force            0.000001     0.000300     YES
 Maximum Displacement     0.000905     0.001800     YES
 RMS     Displacement     0.000295     0.001200     YES
 Predicted change in Energy=-2.239756D-09
 Optimization completed.
    -- Stationary point found.
                           ----------------------------
                           !   Optimized Parameters   !
                           ! (Angstroms and Degrees)  !
 --------------------------                            --------------------------
 ! Name  Definition              Value          Derivative Info.                !
 --------------------------------------------------------------------------------
 ! R1    R(1,2)                  1.408          -DE/DX =    0.0                 !
 ! R2    R(1,10)                 1.1014         -DE/DX =    0.0                 !
 ! R3    R(1,11)                 1.1015         -DE/DX =    0.0                 !
 ! R4    R(1,12)                 1.0926         -DE/DX =    0.0                 !
 ! R5    R(2,3)                  1.408          -DE/DX =    0.0                 !
 ! R6    R(3,4)                  1.533          -DE/DX =    0.0                 !
 ! R7    R(3,13)                 1.1022         -DE/DX =    0.0                 !
 ! R8    R(3,14)                 1.102          -DE/DX =    0.0                 !
 ! R9    R(4,5)                  1.4562         -DE/DX =    0.0                 !
 ! R10   R(4,15)                 1.0966         -DE/DX =    0.0                 !
 ! R11   R(4,16)                 1.0968         -DE/DX =    0.0                 !
 ! R12   R(5,6)                  1.2049         -DE/DX =    0.0                 !
 ! R13   R(6,7)                  1.4372         -DE/DX =    0.0                 !
 ! R14   R(7,8)                  1.4768         -DE/DX =    0.0                 !
 ! R15   R(7,9)                  1.4391         -DE/DX =    0.0                 !
 ! R16   R(7,17)                 1.0897         -DE/DX =    0.0                 !
 ! R17   R(8,9)                  1.4208         -DE/DX =    0.0                 !
 ! R18   R(8,18)                 1.0883         -DE/DX =    0.0                 !
 ! R19   R(8,19)                 1.0895         -DE/DX =    0.0                 !
 ! A1    A(2,1,10)             111.757          -DE/DX =    0.0                 !
 ! A2    A(2,1,11)             111.7738         -DE/DX =    0.0                 !
 ! A3    A(2,1,12)             107.4019         -DE/DX =    0.0                 !
 ! A4    A(10,1,11)            108.1093         -DE/DX =    0.0                 !
 ! A5    A(10,1,12)            108.8746         -DE/DX =    0.0                 !
 ! A6    A(11,1,12)            108.8556         -DE/DX =    0.0                 !
 ! A7    A(1,2,3)              112.9434         -DE/DX =    0.0                 !
 ! A8    A(2,3,4)              107.4615         -DE/DX =    0.0                 !
 ! A9    A(2,3,13)             111.0242         -DE/DX =    0.0                 !
 ! A10   A(2,3,14)             111.0396         -DE/DX =    0.0                 !
 ! A11   A(4,3,13)             110.0541         -DE/DX =    0.0                 !
 ! A12   A(4,3,14)             110.0061         -DE/DX =    0.0                 !
 ! A13   A(13,3,14)            107.2729         -DE/DX =    0.0                 !
 ! A14   A(3,4,5)              112.5327         -DE/DX =    0.0                 !
 ! A15   A(3,4,15)             108.5609         -DE/DX =    0.0                 !
 ! A16   A(3,4,16)             108.5512         -DE/DX =    0.0                 !
 ! A17   A(5,4,15)             110.3206         -DE/DX =    0.0                 !
 ! A18   A(5,4,16)             110.2554         -DE/DX =    0.0                 !
 ! A19   A(15,4,16)            106.4093         -DE/DX =    0.0                 !
 ! A20   A(6,7,8)              121.8749         -DE/DX =    0.0                 !
 ! A21   A(6,7,9)              117.6869         -DE/DX =    0.0                 !
 ! A22   A(6,7,17)             115.4875         -DE/DX =    0.0                 !
 ! A23   A(8,7,17)             117.3124         -DE/DX =    0.0                 !
 ! A24   A(9,7,17)             113.4152         -DE/DX =    0.0                 !
 ! A25   A(7,8,18)             118.8094         -DE/DX =    0.0                 !
 ! A26   A(7,8,19)             119.124          -DE/DX =    0.0                 !
 ! A27   A(9,8,18)             115.6395         -DE/DX =    0.0                 !
 ! A28   A(9,8,19)             115.8345         -DE/DX =    0.0                 !
 ! A29   A(18,8,19)            115.7931         -DE/DX =    0.0                 !
 ! A30   L(4,5,6,14,-1)        178.7213         -DE/DX =    0.0                 !
 ! A31   L(5,6,7,18,-1)        180.9339         -DE/DX =    0.0                 !
 ! A32   L(4,5,6,14,-2)        180.1713         -DE/DX =    0.0                 !
 ! A33   L(5,6,7,18,-2)        178.9489         -DE/DX =    0.0                 !
 ! D1    D(10,1,2,3)           -60.3793         -DE/DX =    0.0                 !
 ! D2    D(11,1,2,3)            60.9396         -DE/DX =    0.0                 !
 ! D3    D(12,1,2,3)          -179.7265         -DE/DX =    0.0                 !
 ! D4    D(1,2,3,4)            179.6337         -DE/DX =    0.0                 !
 ! D5    D(1,2,3,13)           -59.968          -DE/DX =    0.0                 !
 ! D6    D(1,2,3,14)            59.2849         -DE/DX =    0.0                 !
 ! D7    D(2,3,4,5)           -179.9644         -DE/DX =    0.0                 !
 ! D8    D(2,3,4,15)           -57.5587         -DE/DX =    0.0                 !
 ! D9    D(2,3,4,16)            57.7195         -DE/DX =    0.0                 !
 ! D10   D(13,3,4,5)            59.0252         -DE/DX =    0.0                 !
 ! D11   D(13,3,4,15)         -178.5691         -DE/DX =    0.0                 !
 ! D12   D(13,3,4,16)          -63.2909         -DE/DX =    0.0                 !
 ! D13   D(14,3,4,5)           -58.9633         -DE/DX =    0.0                 !
 ! D14   D(14,3,4,15)           63.4423         -DE/DX =    0.0                 !
 ! D15   D(14,3,4,16)          178.7205         -DE/DX =    0.0                 !
 ! D16   D(3,4,7,8)            142.6055         -DE/DX =    0.0                 !
 ! D17   D(3,4,7,9)             73.9757         -DE/DX =    0.0                 !
 ! D18   D(3,4,7,17)           -63.8741         -DE/DX =    0.0                 !
 ! D19   D(15,4,7,8)            21.3741         -DE/DX =    0.0                 !
 ! D20   D(15,4,7,9)           -47.2557         -DE/DX =    0.0                 !
 ! D21   D(15,4,7,17)          174.8945         -DE/DX =    0.0                 !
 ! D22   D(16,4,7,8)           -96.4252         -DE/DX =    0.0                 !
 ! D23   D(16,4,7,9)          -165.055          -DE/DX =    0.0                 !
 ! D24   D(16,4,7,17)           57.0952         -DE/DX =    0.0                 !
 ! D25   D(6,7,8,18)            -0.576          -DE/DX =    0.0                 !
 ! D26   D(6,7,8,19)           150.4534         -DE/DX =    0.0                 !
 ! D27   D(17,7,8,18)         -153.6297         -DE/DX =    0.0                 !
 ! D28   D(17,7,8,19)           -2.6003         -DE/DX =    0.0                 !
 --------------------------------------------------------------------------------
 GradGradGradGradGradGradGradGradGradGradGradGradGradGradGradGradGradGrad

                          Input orientation:                          
 ---------------------------------------------------------------------
 Center     Atomic      Atomic             Coordinates (Angstroms)
 Number     Number       Type             X           Y           Z
 ---------------------------------------------------------------------
      1          6           0       -6.690605   -0.439391    0.882623
      2          8           0       -5.513783   -0.762635    1.584844
      3          6           0       -4.343516   -0.398362    0.891856
      4          6           0       -3.148626   -0.795674    1.766225
      5          6           0       -1.871544   -0.465103    1.149581
      6          6           0       -0.827649   -0.174457    0.622794
      7          6           0        0.415168    0.146741   -0.023641
      8          6           0        1.581965    0.644041    0.732833
      9          8           0        0.809401    1.530222   -0.064982
     10          1           0       -6.769865    0.643010    0.695122
     11          1           0       -6.743880   -0.959604   -0.086818
     12          1           0       -7.535899   -0.754127    1.499162
     13          1           0       -4.285512   -0.910094   -0.082571
     14          1           0       -4.322051    0.685478    0.694028
     15          1           0       -3.244116   -0.294043    2.736646
     16          1           0       -3.205913   -1.872377    1.967046
     17          1           0        0.612359   -0.387654   -0.952567
     18          1           0        1.490816    0.778379    1.808944
     19          1           0        2.584229    0.425913    0.365523
 ---------------------------------------------------------------------
                    Distance matrix (angstroms):
                    1          2          3          4          5
     1  C    0.000000
     2  O    1.408017   0.000000
     3  C    2.347465   1.407995   0.000000
     4  C    3.667874   2.372331   1.533016   0.000000
     5  C    4.826517   3.680201   2.486267   1.456182   0.000000
     6  C    5.874688   4.819891   3.533250   2.660880   1.204864
     7  C    7.187271   6.210205   4.876510   4.097853   2.641942
     8  C    8.344560   7.283838   6.018573   5.051651   3.651111
     9  O    7.812005   6.925444   5.584580   4.942580   3.555834
    10  H    1.101377   2.084511   2.647702   4.041094   5.042617
    11  H    1.101488   2.084800   2.652271   4.048023   5.051026
    12  H    1.092567   2.023949   3.269052   4.395590   5.682487
    13  H    2.633938   2.076214   1.102153   2.173395   2.746535
    14  H    2.628868   2.076249   1.101956   2.172635   2.745241
    15  H    3.916224   2.587975   2.150073   1.096571   2.105229
    16  H    3.920777   2.589183   2.150092   1.096768   2.104569
    17  H    7.530197   6.641436   5.287978   4.658682   3.254966
    18  H    8.323262   7.175608   6.022060   4.899377   3.645062
    19  H    9.329452   8.275094   6.996435   6.026597   4.611136
                    6          7          8          9         10
     6  C    0.000000
     7  C    1.437233   0.000000
     8  C    2.547212   1.476813   0.000000
     9  O    2.461483   1.439148   1.420803   0.000000
    10  H    5.998618   7.237928   8.351915   7.668779   0.000000
    11  H    6.010141   7.244305   8.518404   7.953098   1.783390
    12  H    6.790042   8.145549   9.256219   8.792544   1.784736
    13  H    3.604930   4.818378   6.124338   5.649211   3.031328
    14  H    3.599362   4.821465   5.904289   5.255615   2.448183
    15  H    3.212784   4.604762   5.309079   5.254337   4.180526
    16  H    3.216534   4.599120   5.547921   5.641770   4.543866
    17  H    2.144956   1.089663   2.201160   2.122470   7.633765
    18  H    2.773108   2.216834   1.088287   2.131007   8.336533
    19  H    3.473836   2.221308   1.089508   2.134208   9.362416
                   11         12         13         14         15
    11  H    0.000000
    12  H    1.784615   0.000000
    13  H    2.458870   3.618180   0.000000
    14  H    3.030062   3.612413   1.774906   0.000000
    15  H    4.545687   4.490262   3.067899   2.508723   0.000000
    16  H    4.191506   4.496463   2.508476   3.067403   1.756383
    17  H    7.429058   8.517006   5.001897   5.311430   5.337738
    18  H    8.626977   9.161121   6.308307   5.919551   4.942702
    19  H    9.441286  10.251567   7.012777   6.918958   6.333258
                   16         17         18         19
    16  H    0.000000
    17  H    5.030681   0.000000
    18  H    5.395440   3.123662   0.000000
    19  H    6.432166   2.507493   1.844789   0.000000
 Stoichiometry    C7H10O2
 Framework group  C1[X(C7H10O2)]
 Deg. of freedom    51
 Full point group                 C1      NOp   1
 Largest Abelian subgroup         C1      NOp   1
 Largest concise Abelian subgroup C1      NOp   1
                         Standard orientation:                         
 ---------------------------------------------------------------------
 Center     Atomic      Atomic             Coordinates (Angstroms)
 Number     Number       Type             X           Y           Z
 ---------------------------------------------------------------------
      1          6           0       -4.324068   -0.676920   -0.023066
      2          8           0       -3.324261    0.305026   -0.159735
      3          6           0       -2.029668   -0.192220    0.083628
      4          6           0       -1.047418    0.969230   -0.107050
      5          6           0        0.335544    0.573311    0.119065
      6          6           0        1.472602    0.219849    0.303079
      7          6           0        2.824147   -0.199984    0.553496
      8          6           0        3.959107    0.309266   -0.242436
      9          8           0        3.469371   -1.008698   -0.446910
     10          1           0       -4.177835   -1.509473   -0.729114
     11          1           0       -4.351220   -1.093272    0.996340
     12          1           0       -5.283179   -0.198353   -0.234684
     13          1           0       -1.946152   -0.593743    1.106636
     14          1           0       -1.783691   -1.011837   -0.610657
     15          1           0       -1.168842    1.365996   -1.122088
     16          1           0       -1.327368    1.778968    0.577677
     17          1           0        3.033476   -0.523314    1.572811
     18          1           0        3.760827    1.015343   -1.046493
     19          1           0        4.941627    0.383877    0.222446
 ---------------------------------------------------------------------
 Rotational constants (GHZ):      7.1887410      0.4561122      0.4422504
 1\1\GINC-ALCHEMY-N\FOpt\RB3LYP\6-31G(2df,p)\C7H10O2\PUCK\28-Jan-2020\0
 \\# b3lyp 6-31G(2df,p) opt Freq\\titel\\0,1\C,-6.6906045607,-0.4393912
 545,0.8826230539\O,-5.513782763,-0.7626354154,1.5848441704\C,-4.343516
 2717,-0.3983622361,0.8918564774\C,-3.1486263429,-0.7956744803,1.766224
 8639\C,-1.8715444096,-0.4651033357,1.149581228\C,-0.827648589,-0.17445
 73682,0.6227940443\C,0.4151679491,0.1467413892,-0.0236411611\C,1.58196
 53975,0.6440409905,0.7328331836\O,0.8094011693,1.5302215873,-0.0649817
 989\H,-6.7698646362,0.643010412,0.6951223201\H,-6.7438800177,-0.959604
 13,-0.0868179626\H,-7.5358994305,-0.7541269798,1.4991624994\H,-4.28551
 20279,-0.9100939334,-0.0825705103\H,-4.3220505376,0.6854782435,0.69402
 83461\H,-3.2441155592,-0.2940432097,2.7366458019\H,-3.2059132549,-1.87
 23769348,1.9670464791\H,0.6123588132,-0.3876536916,-0.952566903\H,1.49
 08164015,0.778379168,1.8089438866\H,2.5842286002,0.425913499,0.3655228
 412\\Version=ES64L-G09RevD.01\State=1-A\HF=-423.115396\RMSD=4.597e-09\
 RMSF=2.441e-06\Dipole=-0.1571492,-0.4719955,-0.0427191\Quadrupole=5.97
 69721,-4.5671793,-1.4097928,-3.5188446,2.5997135,2.2254452\PG=C01 [X(C
 7H10O2)]\\@


 IF AT FIRST YOU DON'T SUCCEED, TRY, TRY AGAIN.
 THEN GIVE UP;
 THERE'S NO USE BEING A DAMN FOOL ABOUT IT.

                                 -- W. C. FIELDS
 Job cpu time:       0 days  0 hours  4 minutes 12.6 seconds.
 File lengths (MBytes):  RWF=     52 Int=      0 D2E=      0 Chk=      7 Scr=      1
 Normal termination of Gaussian 09 at Tue Jan 28 14:27:31 2020.
 Link1:  Proceeding to internal job step number  2.
 ----------------------------------------------------------------------
 #N Geom=AllCheck Guess=TCheck SCRF=Check GenChk RB3LYP/6-31G(2df,p) Fr
 eq
 ----------------------------------------------------------------------
 1/10=4,29=7,30=1,38=1,40=1/1,3;
 2/12=2,40=1/2;
 3/5=1,6=6,7=104,11=2,14=-4,16=1,25=1,30=1,70=2,71=2,74=-5,116=1,140=1/1,2,3;
 4/5=101/1;
 5/5=2,98=1/2;
 8/6=4,10=90,11=11/1;
 11/6=1,8=1,9=11,15=111,16=1/1,2,10;
 10/6=1/2;
 6/7=2,8=2,9=2,10=2,18=1,28=1/1;
 7/8=1,10=1,25=1/1,2,3,16;
 1/10=4,30=1/3;
 99//99;
 Structure from the checkpoint file:  "/scratch/puck/g09_e3ec555a-78c5-4815-99b2-e9ce66fad9b3/Gau-122013.chk"
 -----
 titel
 -----
 Charge =  0 Multiplicity = 1
 Redundant internal coordinates found in file.
 C,0,-6.6906045607,-0.4393912545,0.8826230539
 O,0,-5.513782763,-0.7626354154,1.5848441704
 C,0,-4.3435162717,-0.3983622361,0.8918564774
 C,0,-3.1486263429,-0.7956744803,1.7662248639
 C,0,-1.8715444096,-0.4651033357,1.149581228
 C,0,-0.827648589,-0.1744573682,0.6227940443
 C,0,0.4151679491,0.1467413892,-0.0236411611
 C,0,1.5819653975,0.6440409905,0.7328331836
 O,0,0.8094011693,1.5302215873,-0.0649817989
 H,0,-6.7698646362,0.643010412,0.6951223201
 H,0,-6.7438800177,-0.95960413,-0.0868179626
 H,0,-7.5358994305,-0.7541269798,1.4991624994
 H,0,-4.2855120279,-0.9100939334,-0.0825705103
 H,0,-4.3220505376,0.6854782435,0.6940283461
 H,0,-3.2441155592,-0.2940432097,2.7366458019
 H,0,-3.2059132549,-1.8723769348,1.9670464791
 H,0,0.6123588132,-0.3876536916,-0.952566903
 H,0,1.4908164015,0.778379168,1.8089438866
 H,0,2.5842286002,0.425913499,0.3655228412
 Recover connectivity data from disk.

 GradGradGradGradGradGradGradGradGradGradGradGradGradGradGradGradGradGrad
 Berny optimization.
 Initialization pass.
                           ----------------------------
                           !    Initial Parameters    !
                           ! (Angstroms and Degrees)  !
 --------------------------                            --------------------------
 ! Name  Definition              Value          Derivative Info.                !
 --------------------------------------------------------------------------------
 ! R1    R(1,2)                  1.408          calculate D2E/DX2 analytically  !
 ! R2    R(1,10)                 1.1014         calculate D2E/DX2 analytically  !
 ! R3    R(1,11)                 1.1015         calculate D2E/DX2 analytically  !
 ! R4    R(1,12)                 1.0926         calculate D2E/DX2 analytically  !
 ! R5    R(2,3)                  1.408          calculate D2E/DX2 analytically  !
 ! R6    R(3,4)                  1.533          calculate D2E/DX2 analytically  !
 ! R7    R(3,13)                 1.1022         calculate D2E/DX2 analytically  !
 ! R8    R(3,14)                 1.102          calculate D2E/DX2 analytically  !
 ! R9    R(4,5)                  1.4562         calculate D2E/DX2 analytically  !
 ! R10   R(4,15)                 1.0966         calculate D2E/DX2 analytically  !
 ! R11   R(4,16)                 1.0968         calculate D2E/DX2 analytically  !
 ! R12   R(5,6)                  1.2049         calculate D2E/DX2 analytically  !
 ! R13   R(6,7)                  1.4372         calculate D2E/DX2 analytically  !
 ! R14   R(7,8)                  1.4768         calculate D2E/DX2 analytically  !
 ! R15   R(7,9)                  1.4391         calculate D2E/DX2 analytically  !
 ! R16   R(7,17)                 1.0897         calculate D2E/DX2 analytically  !
 ! R17   R(8,9)                  1.4208         calculate D2E/DX2 analytically  !
 ! R18   R(8,18)                 1.0883         calculate D2E/DX2 analytically  !
 ! R19   R(8,19)                 1.0895         calculate D2E/DX2 analytically  !
 ! A1    A(2,1,10)             111.757          calculate D2E/DX2 analytically  !
 ! A2    A(2,1,11)             111.7738         calculate D2E/DX2 analytically  !
 ! A3    A(2,1,12)             107.4019         calculate D2E/DX2 analytically  !
 ! A4    A(10,1,11)            108.1093         calculate D2E/DX2 analytically  !
 ! A5    A(10,1,12)            108.8746         calculate D2E/DX2 analytically  !
 ! A6    A(11,1,12)            108.8556         calculate D2E/DX2 analytically  !
 ! A7    A(1,2,3)              112.9434         calculate D2E/DX2 analytically  !
 ! A8    A(2,3,4)              107.4615         calculate D2E/DX2 analytically  !
 ! A9    A(2,3,13)             111.0242         calculate D2E/DX2 analytically  !
 ! A10   A(2,3,14)             111.0396         calculate D2E/DX2 analytically  !
 ! A11   A(4,3,13)             110.0541         calculate D2E/DX2 analytically  !
 ! A12   A(4,3,14)             110.0061         calculate D2E/DX2 analytically  !
 ! A13   A(13,3,14)            107.2729         calculate D2E/DX2 analytically  !
 ! A14   A(3,4,5)              112.5327         calculate D2E/DX2 analytically  !
 ! A15   A(3,4,15)             108.5609         calculate D2E/DX2 analytically  !
 ! A16   A(3,4,16)             108.5512         calculate D2E/DX2 analytically  !
 ! A17   A(5,4,15)             110.3206         calculate D2E/DX2 analytically  !
 ! A18   A(5,4,16)             110.2554         calculate D2E/DX2 analytically  !
 ! A19   A(15,4,16)            106.4093         calculate D2E/DX2 analytically  !
 ! A20   A(6,7,8)              121.8749         calculate D2E/DX2 analytically  !
 ! A21   A(6,7,9)              117.6869         calculate D2E/DX2 analytically  !
 ! A22   A(6,7,17)             115.4875         calculate D2E/DX2 analytically  !
 ! A23   A(8,7,17)             117.3124         calculate D2E/DX2 analytically  !
 ! A24   A(9,7,17)             113.4152         calculate D2E/DX2 analytically  !
 ! A25   A(7,8,18)             118.8094         calculate D2E/DX2 analytically  !
 ! A26   A(7,8,19)             119.124          calculate D2E/DX2 analytically  !
 ! A27   A(9,8,18)             115.6395         calculate D2E/DX2 analytically  !
 ! A28   A(9,8,19)             115.8345         calculate D2E/DX2 analytically  !
 ! A29   A(18,8,19)            115.7931         calculate D2E/DX2 analytically  !
 ! A30   L(4,5,6,14,-1)        178.7213         calculate D2E/DX2 analytically  !
 ! A31   L(5,6,7,18,-1)        180.9339         calculate D2E/DX2 analytically  !
 ! A32   L(4,5,6,14,-2)        180.1713         calculate D2E/DX2 analytically  !
 ! A33   L(5,6,7,18,-2)        178.9489         calculate D2E/DX2 analytically  !
 ! D1    D(10,1,2,3)           -60.3793         calculate D2E/DX2 analytically  !
 ! D2    D(11,1,2,3)            60.9396         calculate D2E/DX2 analytically  !
 ! D3    D(12,1,2,3)          -179.7265         calculate D2E/DX2 analytically  !
 ! D4    D(1,2,3,4)            179.6337         calculate D2E/DX2 analytically  !
 ! D5    D(1,2,3,13)           -59.968          calculate D2E/DX2 analytically  !
 ! D6    D(1,2,3,14)            59.2849         calculate D2E/DX2 analytically  !
 ! D7    D(2,3,4,5)           -179.9644         calculate D2E/DX2 analytically  !
 ! D8    D(2,3,4,15)           -57.5587         calculate D2E/DX2 analytically  !
 ! D9    D(2,3,4,16)            57.7195         calculate D2E/DX2 analytically  !
 ! D10   D(13,3,4,5)            59.0252         calculate D2E/DX2 analytically  !
 ! D11   D(13,3,4,15)         -178.5691         calculate D2E/DX2 analytically  !
 ! D12   D(13,3,4,16)          -63.2909         calculate D2E/DX2 analytically  !
 ! D13   D(14,3,4,5)           -58.9633         calculate D2E/DX2 analytically  !
 ! D14   D(14,3,4,15)           63.4423         calculate D2E/DX2 analytically  !
 ! D15   D(14,3,4,16)          178.7205         calculate D2E/DX2 analytically  !
 ! D16   D(3,4,7,8)            142.6055         calculate D2E/DX2 analytically  !
 ! D17   D(3,4,7,9)             73.9757         calculate D2E/DX2 analytically  !
 ! D18   D(3,4,7,17)           -63.8741         calculate D2E/DX2 analytically  !
 ! D19   D(15,4,7,8)            21.3741         calculate D2E/DX2 analytically  !
 ! D20   D(15,4,7,9)           -47.2557         calculate D2E/DX2 analytically  !
 ! D21   D(15,4,7,17)          174.8945         calculate D2E/DX2 analytically  !
 ! D22   D(16,4,7,8)           -96.4252         calculate D2E/DX2 analytically  !
 ! D23   D(16,4,7,9)          -165.055          calculate D2E/DX2 analytically  !
 ! D24   D(16,4,7,17)           57.0952         calculate D2E/DX2 analytically  !
 ! D25   D(6,7,8,18)            -0.576          calculate D2E/DX2 analytically  !
 ! D26   D(6,7,8,19)           150.4534         calculate D2E/DX2 analytically  !
 ! D27   D(17,7,8,18)         -153.6297         calculate D2E/DX2 analytically  !
 ! D28   D(17,7,8,19)           -2.6003         calculate D2E/DX2 analytically  !
 --------------------------------------------------------------------------------
 Trust Radius=3.00D-01 FncErr=1.00D-07 GrdErr=1.00D-07
 Number of steps in this run=      2 maximum allowed number of steps=      2.
 GradGradGradGradGradGradGradGradGradGradGradGradGradGradGradGradGradGrad

                          Input orientation:                          
 ---------------------------------------------------------------------
 Center     Atomic      Atomic             Coordinates (Angstroms)
 Number     Number       Type             X           Y           Z
 ---------------------------------------------------------------------
      1          6           0       -6.690605   -0.439391    0.882623
      2          8           0       -5.513783   -0.762635    1.584844
      3          6           0       -4.343516   -0.398362    0.891856
      4          6           0       -3.148626   -0.795674    1.766225
      5          6           0       -1.871544   -0.465103    1.149581
      6          6           0       -0.827649   -0.174457    0.622794
      7          6           0        0.415168    0.146741   -0.023641
      8          6           0        1.581965    0.644041    0.732833
      9          8           0        0.809401    1.530222   -0.064982
     10          1           0       -6.769865    0.643010    0.695122
     11          1           0       -6.743880   -0.959604   -0.086818
     12          1           0       -7.535899   -0.754127    1.499162
     13          1           0       -4.285512   -0.910094   -0.082571
     14          1           0       -4.322051    0.685478    0.694028
     15          1           0       -3.244116   -0.294043    2.736646
     16          1           0       -3.205913   -1.872377    1.967046
     17          1           0        0.612359   -0.387654   -0.952567
     18          1           0        1.490816    0.778379    1.808944
     19          1           0        2.584229    0.425913    0.365523
 ---------------------------------------------------------------------
                    Distance matrix (angstroms):
                    1          2          3          4          5
     1  C    0.000000
     2  O    1.408017   0.000000
     3  C    2.347465   1.407995   0.000000
     4  C    3.667874   2.372331   1.533016   0.000000
     5  C    4.826517   3.680201   2.486267   1.456182   0.000000
     6  C    5.874688   4.819891   3.533250   2.660880   1.204864
     7  C    7.187271   6.210205   4.876510   4.097853   2.641942
     8  C    8.344560   7.283838   6.018573   5.051651   3.651111
     9  O    7.812005   6.925444   5.584580   4.942580   3.555834
    10  H    1.101377   2.084511   2.647702   4.041094   5.042617
    11  H    1.101488   2.084800   2.652271   4.048023   5.051026
    12  H    1.092567   2.023949   3.269052   4.395590   5.682487
    13  H    2.633938   2.076214   1.102153   2.173395   2.746535
    14  H    2.628868   2.076249   1.101956   2.172635   2.745241
    15  H    3.916224   2.587975   2.150073   1.096571   2.105229
    16  H    3.920777   2.589183   2.150092   1.096768   2.104569
    17  H    7.530197   6.641436   5.287978   4.658682   3.254966
    18  H    8.323262   7.175608   6.022060   4.899377   3.645062
    19  H    9.329452   8.275094   6.996435   6.026597   4.611136
                    6          7          8          9         10
     6  C    0.000000
     7  C    1.437233   0.000000
     8  C    2.547212   1.476813   0.000000
     9  O    2.461483   1.439148   1.420803   0.000000
    10  H    5.998618   7.237928   8.351915   7.668779   0.000000
    11  H    6.010141   7.244305   8.518404   7.953098   1.783390
    12  H    6.790042   8.145549   9.256219   8.792544   1.784736
    13  H    3.604930   4.818378   6.124338   5.649211   3.031328
    14  H    3.599362   4.821465   5.904289   5.255615   2.448183
    15  H    3.212784   4.604762   5.309079   5.254337   4.180526
    16  H    3.216534   4.599120   5.547921   5.641770   4.543866
    17  H    2.144956   1.089663   2.201160   2.122470   7.633765
    18  H    2.773108   2.216834   1.088287   2.131007   8.336533
    19  H    3.473836   2.221308   1.089508   2.134208   9.362416
                   11         12         13         14         15
    11  H    0.000000
    12  H    1.784615   0.000000
    13  H    2.458870   3.618180   0.000000
    14  H    3.030062   3.612413   1.774906   0.000000
    15  H    4.545687   4.490262   3.067899   2.508723   0.000000
    16  H    4.191506   4.496463   2.508476   3.067403   1.756383
    17  H    7.429058   8.517006   5.001897   5.311430   5.337738
    18  H    8.626977   9.161121   6.308307   5.919551   4.942702
    19  H    9.441286  10.251567   7.012777   6.918958   6.333258
                   16         17         18         19
    16  H    0.000000
    17  H    5.030681   0.000000
    18  H    5.395440   3.123662   0.000000
    19  H    6.432166   2.507493   1.844789   0.000000
 Stoichiometry    C7H10O2
 Framework group  C1[X(C7H10O2)]
 Deg. of freedom    51
 Full point group                 C1      NOp   1
 Largest Abelian subgroup         C1      NOp   1
 Largest concise Abelian subgroup C1      NOp   1
                         Standard orientation:                         
 ---------------------------------------------------------------------
 Center     Atomic      Atomic             Coordinates (Angstroms)
 Number     Number       Type             X           Y           Z
 ---------------------------------------------------------------------
      1          6           0       -4.324068   -0.676920   -0.023066
      2          8           0       -3.324261    0.305026   -0.159735
      3          6           0       -2.029668   -0.192220    0.083628
      4          6           0       -1.047418    0.969230   -0.107050
      5          6           0        0.335544    0.573311    0.119065
      6          6           0        1.472602    0.219849    0.303079
      7          6           0        2.824147   -0.199984    0.553496
      8          6           0        3.959107    0.309266   -0.242436
      9          8           0        3.469371   -1.008698   -0.446910
     10          1           0       -4.177835   -1.509473   -0.729114
     11          1           0       -4.351220   -1.093272    0.996340
     12          1           0       -5.283179   -0.198353   -0.234684
     13          1           0       -1.946152   -0.593743    1.106636
     14          1           0       -1.783691   -1.011837   -0.610657
     15          1           0       -1.168842    1.365996   -1.122088
     16          1           0       -1.327368    1.778968    0.577677
     17          1           0        3.033476   -0.523314    1.572811
     18          1           0        3.760827    1.015343   -1.046493
     19          1           0        4.941627    0.383877    0.222446
 ---------------------------------------------------------------------
 Rotational constants (GHZ):      7.1887410      0.4561122      0.4422504
 Standard basis: 6-31G(2df,p) (6D, 7F)
 There are   329 symmetry adapted cartesian basis functions of A   symmetry.
 There are   302 symmetry adapted basis functions of A   symmetry.
   302 basis functions,   466 primitive gaussians,   329 cartesian basis functions
    34 alpha electrons       34 beta electrons
       nuclear repulsion energy       397.3259347830 Hartrees.
 NAtoms=   19 NActive=   19 NUniq=   19 SFac= 1.00D+00 NAtFMM=   60 NAOKFM=F Big=F
 Integral buffers will be    131072 words long.
 Raffenetti 2 integral format.
 Two-electron integral symmetry is turned on.
 One-electron integrals computed using PRISM.
 NBasis=   302 RedAO= T EigKep=  5.43D-05  NBF=   302
 NBsUse=   302 1.00D-06 EigRej= -1.00D+00 NBFU=   302
 Initial guess from the checkpoint file:  "/scratch/puck/g09_e3ec555a-78c5-4815-99b2-e9ce66fad9b3/Gau-122013.chk"
 B after Tr=     0.000000    0.000000    0.000000
         Rot=    1.000000    0.000000    0.000000    0.000000 Ang=   0.00 deg.
 Requested convergence on RMS density matrix=1.00D-08 within 128 cycles.
 Requested convergence on MAX density matrix=1.00D-06.
 Requested convergence on             energy=1.00D-06.
 No special actions if energy rises.
 SCF Done:  E(RB3LYP) =  -423.115395957     A.U. after    1 cycles
            NFock=  1  Conv=0.45D-08     -V/T= 2.0074
 DoSCS=F DFT=T ScalE2(SS,OS)=  1.000000  1.000000
 Range of M.O.s used for correlation:     1   302
 NBasis=   302 NAE=    34 NBE=    34 NFC=     0 NFV=     0
 NROrb=    302 NOA=    34 NOB=    34 NVA=   268 NVB=   268

 **** Warning!!: The largest alpha MO coefficient is  0.22973547D+02

 Symmetrizing basis deriv contribution to polar:
 IMax=3 JMax=2 DiffMx= 0.00D+00
 G2DrvN: will do    20 centers at a time, making    1 passes.
 Calling FoFCou, ICntrl=  3107 FMM=F I1Cent=   0 AccDes= 0.00D+00.
 End of G2Drv F.D. properties file   721 does not exist.
 End of G2Drv F.D. properties file   722 does not exist.
 End of G2Drv F.D. properties file   788 does not exist.
          IDoAtm=1111111111111111111
          Differentiating once with respect to electric field.
                with respect to dipole field.
          Differentiating once with respect to nuclear coordinates.
          There are    60 degrees of freedom in the 1st order CPHF.  IDoFFX=6 NUNeed=     3.
     57 vectors produced by pass  0 Test12= 1.52D-14 1.67D-09 XBig12= 1.02D+02 5.79D+00.
 AX will form    57 AO Fock derivatives at one time.
     57 vectors produced by pass  1 Test12= 1.52D-14 1.67D-09 XBig12= 3.44D+01 1.41D+00.
     57 vectors produced by pass  2 Test12= 1.52D-14 1.67D-09 XBig12= 5.35D-01 9.46D-02.
     57 vectors produced by pass  3 Test12= 1.52D-14 1.67D-09 XBig12= 2.07D-03 4.95D-03.
     57 vectors produced by pass  4 Test12= 1.52D-14 1.67D-09 XBig12= 4.83D-06 1.98D-04.
     41 vectors produced by pass  5 Test12= 1.52D-14 1.67D-09 XBig12= 5.58D-09 7.62D-06.
      7 vectors produced by pass  6 Test12= 1.52D-14 1.67D-09 XBig12= 4.36D-12 1.97D-07.
      3 vectors produced by pass  7 Test12= 1.52D-14 1.67D-09 XBig12= 5.04D-15 1.07D-08.
 InvSVY:  IOpt=1 It=  1 EMax= 3.55D-15
 Solved reduced A of dimension   336 with    60 vectors.
 Isotropic polarizability for W=    0.000000       84.28 Bohr**3.
 End of Minotr F.D. properties file   721 does not exist.
 End of Minotr F.D. properties file   722 does not exist.
 End of Minotr F.D. properties file   788 does not exist.

 **********************************************************************

            Population analysis using the SCF density.

 **********************************************************************

 Orbital symmetries:
[...]
 ,-0.00122532,-0.00131880,0.00085407,-0.00965793,0.00431442,-0.00482962
 ,0.02790297,-0.08686337,0.02017163,0.01794163,0.54932486,0.00247315,0.
 00084901,-0.00246664,0.01783997,-0.00412607,0.01137915,-0.05923670,0.0
 1976107,-0.12165365,-0.04133462,0.01788304,0.52077071,-0.00070262,-0.0
 0040613,0.00075038,-0.00659196,0.00155381,-0.00345906,-0.03563812,-0.0
 0688639,0.01201016,-0.22463544,-0.04008277,0.07743414,1.10077453,0.000
 06872,0.00098178,-0.00025217,0.00213211,0.00029456,0.00147515,0.002382
 52,0.00058268,-0.00759427,-0.04246986,-0.07668860,0.01986346,0.2725867
 1,0.16708376,-0.00021866,-0.00028565,0.00138441,-0.00471052,0.00142942
 ,-0.00210643,-0.00647844,-0.00781291,0.01291740,0.07916918,0.01920522,
 -0.10285718,-0.49992949,-0.13517191,0.33951357,0.00057625,-0.00027533,
 0.00055799,-0.00130364,0.00050924,-0.00115821,0.00494449,-0.00141414,0
 .00375785,-0.00218745,-0.00401867,0.00433647,-0.81809278,-0.21516732,0
 .39352742,1.09906310,0.00003649,-0.00013446,0.00006305,-0.00011636,0.0
 0042433,-0.00042785,0.00113965,-0.00052425,0.00177655,-0.00158590,0.00
 458626,0.00142770,-0.21860697,-0.09320039,0.10931839,0.28237286,0.1615
 7481,-0.00026039,0.00015874,-0.00039983,0.00069333,-0.00041707,0.00112
 395,-0.00269872,0.00157141,-0.00348633,0.00330884,0.00203078,0.0020575
 5,0.39524235,0.10806306,-0.23114658,-0.51484722,-0.13436833,0.34794240
 ,-0.00062726,0.00022633,-0.00046459,0.00143428,-0.00009893,0.00032342,
 -0.00156128,0.00028983,-0.00109313,0.00258724,-0.00081971,0.00079470,-
 0.00977941,-0.00307750,0.00765442,-0.22863153,-0.03315364,0.09092774,0
 .52519151,-0.00029814,0.00010102,-0.00017571,0.00047963,-0.00020903,0.
 00004489,-0.00097557,0.00050369,0.00006799,-0.00069014,0.00578941,0.00
 001615,-0.00459763,-0.00055544,0.00321804,-0.02542458,-0.05816934,0.00
 645373,0.10832412,0.36770404,0.00057864,-0.00022815,0.00043926,-0.0011
 3751,0.00001587,-0.00027434,0.00159902,0.00030950,0.00051992,0.0023272
 2,0.00077576,0.00463487,0.00254950,0.00080039,0.00167104,0.10169420,0.
 01635646,-0.12095088,-0.06927224,0.15983093,0.52597763,-0.00005933,0.0
 0000729,-0.00001260,0.00014683,0.00003308,-0.00001902,0.00012262,-0.00
 015475,-0.00001221,-0.00006863,0.00006231,0.00084131,0.00295594,0.0001
 9170,-0.00142506,-0.02938810,0.00005223,-0.01184865,-0.18408981,-0.092
 87908,-0.08174643,0.63206436,-0.00012716,0.00010871,-0.00016984,0.0004
 9698,-0.00009643,0.00015868,-0.00002415,0.00019297,-0.00040046,-0.0003
 0121,0.00021737,0.00107634,0.00306075,0.00177712,-0.00257834,-0.015302
 76,-0.01019748,0.00304384,-0.03778510,-0.01927849,-0.04469303,-0.05086
 173,0.24449138,-0.00015390,0.00006547,-0.00011844,0.00042390,-0.000008
 03,0.00002824,-0.00030340,-0.00001923,-0.00017500,-0.00059041,0.000288
 80,-0.00030114,0.00224528,0.00058009,-0.00190593,0.01228903,-0.0034329
 7,0.01262250,-0.09251082,-0.07739200,-0.10810642,0.00500171,0.05616806
 ,0.63756697,0.00029843,-0.00008865,0.00018208,-0.00063994,-0.00001606,
 -0.00008395,0.00056630,0.00010641,0.00034374,-0.00045698,0.00106312,0.
 00057926,0.00280420,0.00066830,-0.00209540,-0.01236532,-0.03957642,0.0
 1164806,-0.03721514,-0.01619821,0.01088714,-0.09639765,0.06095641,-0.0
 3948459,0.15841747,0.00039197,-0.00026895,0.00034517,-0.00105427,0.000
 23767,-0.00031436,0.00066907,-0.00034067,0.00084316,-0.00038732,-0.000
 12658,-0.00045752,0.00257720,0.00074980,-0.00126608,-0.02221657,-0.014
 57774,0.01202176,-0.04460869,-0.19465421,-0.01942699,0.09922254,-0.115
 88938,0.08530632,-0.03554378,0.35249008,-0.00022155,0.00012476,-0.0002
 3488,0.00063127,-0.00006682,0.00024675,-0.00026433,0.00005922,-0.00059
 722,0.00010360,-0.00037374,0.00064009,0.00035417,0.00007573,0.00024047
 ,-0.00482155,0.01246363,0.00049035,0.02536837,0.01409725,-0.04615409,-
 0.04953106,0.05946350,-0.11580336,0.05584524,-0.08657494,0.15606376,-0
 .05161427,0.00142909,0.00185692,-0.01650518,0.03376010,-0.01236257,0.0
 0592059,0.00537719,-0.00313210,-0.00012562,-0.00017365,0.00006293,-0.0
 0008724,-0.00012425,-0.00011287,-0.00008858,-0.00001705,0.00005361,0.0
 0005269,0.00004146,-0.00003925,0.00000266,0.00001345,0.00001156,-0.000
 02001,-0.00003947,0.00001868,0.05737044,0.00494013,-0.28525102,0.03295
 156,0.01287493,-0.00424673,0.00853555,-0.00299395,0.00127092,0.0010649
 0,0.00016680,0.00057888,-0.00029975,0.00010702,-0.00003752,0.00012944,
 0.00010597,0.00002888,-0.00005904,-0.00009040,-0.00006755,0.00008052,-
 0.00000283,-0.00003533,-0.00002174,0.00003337,0.00009615,-0.00004255,-
 0.01526433,0.31148681,0.00021896,0.03077243,-0.05571797,-0.01164466,0.
 02247563,-0.00516454,0.00286996,-0.00023171,-0.00098499,0.00004290,-0.
 00007662,0.00010941,-0.00001292,-0.00005176,-0.00008121,-0.00009569,-0
 .00000043,0.00004480,0.00007874,0.00003732,-0.00006736,0.00000618,0.00
 002106,0.00002402,-0.00003450,-0.00005095,0.00002671,0.00850894,-0.042
 81074,0.05815877,-0.05141593,0.00054526,0.00539625,-0.01548006,-0.0117
 3602,-0.03465445,0.00596164,-0.00067885,-0.00612469,-0.00013718,0.0000
 4669,0.00016318,-0.00009240,0.00016592,0.00002711,-0.00009206,-0.00002
 397,0.00005501,0.00005888,0.00001630,-0.00005637,0.00000535,0.00001159
 ,0.00001359,-0.00002929,-0.00003894,0.00002357,0.00215892,-0.00144961,
 0.00104732,0.05674275,-0.00027805,-0.11178277,-0.10446264,0.00037467,0
 .00996418,0.01024846,-0.00027526,0.00023511,0.00031477,-0.00014679,0.0
 0010057,0.00029017,-0.00005164,-0.00002253,-0.00006038,0.00000537,0.00
 000762,0.00001687,-0.00000250,-0.00000701,-0.00000457,-0.00000061,-0.0
 0000260,-0.00000621,0.00000072,0.00000755,0.00000683,0.00090481,-0.015
 79361,-0.02809019,-0.00019844,0.11260832,0.00144197,-0.10247010,-0.228
 73260,-0.01723708,-0.00333901,-0.02035050,0.00414290,0.00195786,-0.000
 05706,-0.00013301,0.00005908,0.00057870,-0.00009436,0.00012608,-0.0000
 9582,-0.00014567,-0.00001636,0.00008293,0.00012656,0.00003754,-0.00012
 387,0.00000964,0.00002808,0.00002676,-0.00005953,-0.00007246,0.0000553
 3,0.00171227,0.00191903,0.00466465,0.01156768,0.11281966,0.25710794,-0
 .19392913,-0.05773070,0.11352332,-0.03541732,-0.00704292,0.01306661,-0
 .00152804,0.00244842,-0.00498032,-0.00093594,-0.00061950,0.00121893,-0
 .00040951,0.00020159,-0.00043069,-0.00014078,-0.00001745,0.00009009,0.
 00013934,0.00004633,-0.00012911,0.00001082,0.00005763,0.00004854,-0.00
 006110,-0.00011026,0.00006765,0.00289695,-0.00025556,0.00000441,0.0022
 9217,-0.00004484,0.00072221,0.22716668,-0.06333068,-0.07452718,0.04778
 111,0.00902834,0.00332494,-0.00554583,0.00128162,-0.00010763,0.0005884
 0,0.00038485,0.00059110,-0.00005068,0.00010546,-0.00003896,0.00010960,
 0.00001115,0.00000587,-0.00001306,0.00000119,-0.00000195,-0.00000329,0
 .00000425,-0.00000491,0.00000239,-0.00000563,0.00000641,-0.00000426,-0
 .02350216,-0.00796215,0.01901184,0.01266235,0.00534829,-0.01025046,0.0
 6323753,0.07278527,0.12503814,0.04798457,-0.14428872,-0.01973452,-0.00
 612121,0.01229631,-0.00273278,0.00063781,-0.00119444,-0.00085353,-0.00
 008944,0.00070338,-0.00022352,0.00011459,-0.00023146,-0.00003500,-0.00
 001533,0.00003400,0.00000776,-0.00000244,-0.00000764,-0.00000543,0.000
 01288,0.00000254,0.00000354,-0.00001894,0.00001361,0.00236487,-0.00025
 500,-0.00171089,0.01996147,0.00938556,-0.01447061,-0.12349536,-0.05168
 975,0.14838918,0.00566370,0.00048760,0.00572439,-0.01699741,0.01025788
 ,0.03430766,-0.04957906,0.00219909,0.00070423,-0.00048633,-0.01265337,
 -0.02349565,0.00237956,0.00000769,-0.00083022,-0.00058828,-0.00003582,
 0.00066663,0.00007704,-0.00000378,-0.00007864,0.00001634,-0.00000666,-
 0.00001489,-0.00004839,-0.00003540,0.00004907,-0.00058405,0.00011458,-
 0.00047281,0.00052046,-0.00068450,-0.00198061,-0.00000753,-0.00022682,
 -0.00039291,0.05987948,0.00044081,0.00038194,0.00070209,-0.00146312,0.
 01036348,0.01144103,0.00169898,-0.11376409,-0.10399165,0.00159673,0.00
 441518,0.00891789,-0.00047922,0.00011493,0.00006544,-0.00009689,-0.000
 01484,0.00004349,0.00003829,-0.00002896,-0.00005025,0.00001259,0.00000
 470,0.00000377,-0.00002795,-0.00000813,0.00004250,-0.00033998,-0.00039
 189,-0.00029344,0.00077037,-0.00019327,-0.00028159,0.00014484,0.000049
 14,0.00024050,-0.00289853,0.11365328,-0.00363250,0.00158243,0.00007297
 ,0.01609543,-0.00294398,-0.02050358,0.00186594,-0.10095156,-0.22545121
 ,-0.00193343,-0.00949400,-0.01601484,0.00105198,0.00041055,-0.00009403
 ,-0.00057621,-0.00008557,0.00065900,0.00005443,-0.00003740,-0.00010599
 ,-0.00002009,0.00001666,-0.00001297,-0.00001284,-0.00002203,0.00006438
 ,0.00036303,-0.00044701,0.00018332,0.00184736,-0.00023288,0.00098708,0
 .00024521,0.00024375,0.00042293,-0.01236135,0.10918592,0.25603618,0.00
 575409,-0.00479018,0.00323679,-0.01575904,-0.03405970,0.01255250,-0.04
 978611,0.00603443,-0.00221796,-0.00136483,0.02623892,-0.00457186,0.002
 30506,0.00077780,-0.00048980,-0.00054556,-0.00049543,0.00041688,0.0000
 5461,0.00011909,-0.00000891,-0.00001296,-0.00000081,-0.00001229,-0.000
 01828,-0.00007732,0.00000324,0.00050517,0.00203819,-0.00061375,-0.0005
 9849,0.00027721,-0.00038314,0.00000082,0.00042333,-0.00005279,0.002975
 94,0.00000947,-0.00125387,0.05966562,0.00266947,0.00122631,0.00101393,
 -0.01213672,-0.00629200,0.00895639,0.00529241,-0.28293713,0.03151849,0
 .00082160,-0.00742658,0.00052078,-0.00041972,0.00019928,0.00031043,0.0
 0046024,0.00034218,-0.00036149,-0.00003748,-0.00013814,0.00003115,0.00
 002411,-0.00005261,0.00000464,-0.00001572,0.00015781,-0.00004307,-0.00
 185496,0.00026661,-0.00066187,-0.00009096,-0.00040332,-0.00046001,-0.0
 0028444,0.00052962,-0.00012919,0.00170491,-0.01631125,0.00143792,0.003
 13995,0.30895604,-0.00246240,-0.00018442,-0.00081086,0.01007876,0.0229
 5781,-0.00502753,-0.00106519,0.02848292,-0.05688966,-0.00315514,0.0193
 6379,-0.00319137,0.00107647,0.00008702,-0.00020273,-0.00029361,-0.0002
 7982,0.00026988,0.00001634,0.00002498,-0.00002421,-0.00001516,0.000014
 14,0.00000823,0.00000494,-0.00003489,-0.00000004,0.00052458,-0.0005924
 2,0.00051442,0.00047298,-0.00029634,0.00018170,0.00003129,-0.00011933,
 -0.00005016,0.00028548,-0.02776206,0.00419210,-0.00382891,-0.04325922,
 0.06171278,-0.00015780,-0.00000368,-0.00024900,0.00235225,0.00030871,0
 .00109984,0.00055163,-0.01245853,-0.02543715,-0.04536677,0.01067955,0.
 02055127,-0.00817430,0.01379990,0.02939939,-0.00072419,-0.00114443,-0.
 00019582,0.00048203,-0.00015697,-0.00114718,-0.00005695,-0.00012704,0.
 00032601,-0.00057928,-0.00029327,-0.00002272,0.00005138,-0.00004719,0.
 00001457,0.00008077,0.00010356,0.00032435,0.00000044,0.00003017,0.0001
 1294,-0.00427039,0.00138459,-0.00250188,0.00109454,-0.00017259,0.00107
 537,0.05462489,-0.00015778,0.00000848,0.00020873,-0.00090408,-0.000186
 62,-0.00034894,0.00020597,0.00443205,0.00943670,0.00951334,-0.10365013
 ,-0.10671434,0.00032930,0.00436280,0.00923936,-0.00111214,-0.00011526,
 0.00007117,-0.00021260,-0.00013633,-0.00037906,-0.00024650,0.00004372,
 0.00002552,0.00014744,0.00005004,-0.00001832,0.00003795,-0.00003029,0.
 00004003,0.00003788,-0.00006192,-0.00000737,-0.00005627,-0.00000935,-0
 .00006497,0.00176225,0.00066246,0.00123036,-0.00081949,0.00081078,0.00
 022970,-0.01126316,0.10912669,-0.00014346,0.00013210,0.00018654,0.0013
 4345,0.00020566,0.00209068,-0.00047694,-0.00984881,-0.02122356,0.01704
 600,-0.10662312,-0.24201594,0.00834514,-0.00276802,-0.01322151,-0.0016
 7590,-0.00054186,0.00106164,0.00030493,0.00015458,0.00037326,0.0001107
 7,-0.00004857,-0.00013808,0.00000165,0.00006732,0.00002434,0.00001504,
 -0.00001333,-0.00001536,0.00027358,0.00004251,0.00015772,-0.00003057,0
 .00002609,0.00005368,-0.00316913,0.00168214,-0.00112213,0.00063247,0.0
 0028118,0.00085446,-0.02162500,0.11500923,0.26801699,-0.00016900,0.000
 19154,-0.00014968,0.00239087,-0.00101368,0.00049920,-0.00043367,0.0278
 3726,-0.00598641,-0.04383714,-0.01416140,0.00303801,-0.00645375,-0.031
 97741,0.00690705,-0.00145865,0.00101416,0.00095363,0.00031327,0.001171
 45,-0.00038112,0.00009612,0.00014520,0.00029487,-0.00009307,-0.0002023
 2,0.00013765,0.00009339,-0.00031937,0.00012144,0.00005029,0.00001898,0
 .00004855,0.00000110,-0.00010716,0.00004608,0.00108681,-0.00075765,0.0
 0082642,-0.00424700,0.00087665,-0.00273437,0.00027460,0.00276111,-0.00
 093184,0.05285891,0.00018874,0.00029446,-0.00008798,-0.00044348,0.0011
 1057,-0.00083966,0.00064113,-0.01064627,0.00258150,-0.01049397,-0.2936
 3316,0.04106340,-0.00700614,-0.00506653,0.00349009,0.00204862,0.000541
 16,-0.00088503,-0.00019141,-0.00003227,0.00007851,0.00002558,0.0000300
 2,0.00006628,0.00004353,0.00012981,0.00000612,-0.00023638,0.00007235,-
 0.00007491,-0.00003137,-0.00000748,-0.00002764,0.00005871,0.00000959,0
 .00001181,0.00000335,0.00105952,0.00010949,0.00119888,0.00105953,0.001
 37067,-0.00041232,-0.01526371,0.00217045,0.01470534,0.32037239,0.00002
 942,0.00000565,-0.00010103,0.00165125,-0.00135677,0.00077968,-0.001278
 26,0.02256642,-0.00532853,0.00184587,0.04101312,-0.05230338,0.00386487
 ,0.01484906,-0.00517106,0.00024839,-0.00039250,0.00038495,0.00032937,-
 0.00025278,0.00039203,0.00009782,-0.00020630,-0.00014087,-0.00020934,0
 .00009338,-0.00014730,0.00014458,-0.00013049,0.00000886,-0.00002058,0.
 00002192,-0.00003500,0.00003136,-0.00008338,0.00003579,0.00104684,0.00
 003739,0.00064729,-0.00343321,0.00085395,-0.00152971,-0.00175693,-0.02
 799154,0.00486890,-0.00268911,-0.04902391,0.05753065,0.00016253,-0.000
 04744,0.00016240,-0.00042776,0.00006111,-0.00016655,0.00032135,-0.0002
 7259,0.00038302,-0.00019155,-0.00050035,-0.00047554,-0.00024140,-0.000
 25245,-0.00015213,-0.01059396,0.01029218,0.02649437,-0.05590656,0.0233
 7629,0.04938219,0.00440844,-0.01367632,-0.02134727,-0.00020605,-0.0011
 9734,-0.00281737,-0.00001971,0.00002792,-0.00002227,-0.00001695,-0.000
 00556,-0.00003936,-0.00004302,0.00000296,-0.00000760,-0.00003637,-0.00
 003444,-0.00005383,-0.00003166,0.00002926,-0.00000397,-0.00010692,-0.0
 0000594,-0.00005257,-0.00035197,-0.00007699,0.00000752,0.06415511,0.00
 006910,-0.00001270,0.00004543,-0.00015817,0.00002193,-0.00000652,0.000
 11463,-0.00011655,0.00000110,0.00013637,-0.00019839,0.00008371,-0.0010
 7914,-0.00005228,-0.00008770,-0.00061514,0.00688049,0.00503641,0.02416
 442,-0.09534975,-0.10602341,-0.00176980,-0.00382405,0.00716740,-0.0048
 4584,-0.02690705,-0.02901020,-0.00000817,0.00000947,-0.00001029,-0.000
 00547,0.00000235,-0.00001306,-0.00001543,-0.00000021,0.00000179,-0.000
 00069,0.00000716,0.00000159,-0.00001919,0.00000501,-0.00000346,-0.0001
 8671,-0.00000236,0.00002860,-0.00012073,-0.00001127,-0.00006353,-0.016
 32321,0.11779170,-0.00009990,0.00002405,-0.00009890,0.00027516,-0.0000
 2246,0.00007967,-0.00015600,0.00013825,-0.00016717,0.00009166,0.000036
 57,0.00006986,-0.00072463,-0.00047901,0.00066276,0.00653703,-0.0032675
 0,-0.01057740,0.04693205,-0.11359604,-0.25166516,0.00507236,-0.0086086
 4,-0.01373078,-0.00574568,0.00331152,0.01227723,0.00001092,-0.00001307
 ,0.00001373,0.00000926,0.00000218,0.00002534,0.00002854,-0.00000170,0.
 00000276,0.00000522,0.00001043,0.00002695,0.00001207,-0.00000599,-0.00
 000004,0.00007373,0.00001418,0.00003355,0.00011508,0.00000850,0.000037
 00,-0.05163516,0.12337726,0.26159392,-0.00001210,0.00000007,-0.0000128
 5,0.00001688,-0.00000591,0.00001671,-0.00001894,0.00003379,-0.00000470
 ,-0.00002318,-0.00005331,-0.00003985,-0.00038489,0.00007698,0.00040718
 ,0.00200785,-0.00046724,-0.00008187,0.00012268,-0.00011834,-0.02110635
 ,-0.05597552,0.00807818,0.03820521,-0.00218035,-0.00177247,-0.01662529
 ,0.00000136,-0.00000178,0.00000049,0.00000102,0.00000168,0.00000345,0.
 00000178,-0.00000059,0.00000049,0.00000503,0.00000551,0.00000793,0.000
 00545,-0.00000425,-0.00000398,-0.00001994,0.00000545,-0.00000425,-0.00
 002052,0.00000267,0.00001727,-0.00151267,0.00100692,-0.00094212,0.0575
 3744,-0.00003024,0.00001557,-0.00002661,0.00006930,-0.00001402,0.00002
 325,-0.00005507,0.00002464,-0.00004657,-0.00003673,-0.00006003,-0.0000
 3570,-0.00017077,-0.00012562,0.00043066,0.00185259,0.00079244,0.000612
 27,0.00603694,-0.00689908,-0.02054971,0.00539412,-0.04801385,-0.047352
 34,0.00178962,0.00448974,0.03447119,0.00000279,-0.00000636,0.00000456,
 0.00000292,-0.00000042,0.00000596,0.00000735,0.00000008,0.00000091,0.0
 0000403,0.00000086,0.00000579,0.00000833,-0.00000831,0.00000619,0.0000
 2409,0.00002083,-0.00001786,-0.00000693,-0.00000381,-0.00000776,-0.002
 95547,0.00172602,-0.00144757,-0.01048901,0.04616260,0.00001231,-0.0000
 0757,0.00000546,-0.00004765,-0.00000450,0.00001244,0.00002026,0.000014
 94,0.00001083,-0.00000374,-0.00004379,-0.00006542,-0.00014525,-0.00003
 104,0.00031746,0.00034704,0.00030951,0.00045828,0.00204465,0.00378759,
 -0.00659802,0.03472045,-0.04319581,-0.31586571,-0.01046952,0.00302054,
 -0.01394015,-0.00000028,0.00000099,-0.00000313,-0.00000064,0.00000290,
 -0.00000054,-0.00000573,-0.00000091,0.00000071,0.00000502,0.00000594,0
 .00000857,0.00000634,-0.00000630,-0.00000291,-0.00002360,0.00000710,0.
 00000945,-0.00003537,-0.00000714,0.00001830,0.00018556,0.00027990,0.00
 052526,-0.02564599,0.03857148,0.34080148,0.00012525,-0.00004780,0.0001
 1193,-0.00033874,0.00000966,-0.00005988,0.00021586,-0.00003772,0.00017
 890,0.00005774,0.00003078,-0.00017910,0.00006452,0.00000884,-0.0002184
 6,-0.00039080,0.00033312,-0.00061788,-0.01270258,0.00776777,0.00608520
 ,-0.27378054,0.04539275,0.09555788,-0.01177555,0.00471664,-0.00829865,
 -0.00000891,0.00001611,-0.00001730,-0.00000988,0.00000118,-0.00002680,
 -0.00003772,-0.00000018,-0.00000186,-0.00000655,-0.00000440,-0.0000117
 3,0.00000263,-0.00000176,-0.00000349,-0.00005600,-0.00002273,0.0000366
 3,-0.00010056,-0.00002450,0.00007286,0.00063914,-0.00034373,0.00014039
 ,0.00044862,-0.00144787,-0.00096385,0.29765406,0.00006503,-0.00003752,
 0.00007547,-0.00021289,0.00003111,-0.00005781,0.00011493,-0.00009768,0
 .00014655,0.00013979,0.00004757,-0.00006866,-0.00053374,-0.00035885,0.
 00031688,-0.00172251,0.00174971,-0.00301951,-0.01900317,0.00142936,0.0
 1307937,0.04088549,-0.04947087,-0.02144620,0.03150934,-0.00564234,-0.0
 0467683,-0.00000645,0.00001238,-0.00000996,-0.00000564,0.00000094,-0.0
 0001523,-0.00002502,0.00000203,-0.00000417,0.00000418,-0.00000021,-0.0
 0001003,-0.00000346,0.00001619,-0.00000528,-0.00006469,-0.00006188,0.0
 0006171,-0.00005506,-0.00001488,0.00006807,0.00155836,0.00003050,0.000
 51903,0.00370165,0.00189873,-0.00270384,-0.05634615,0.05046571,0.00001
 494,-0.00001282,0.00001303,-0.00005523,-0.00000121,-0.00000300,0.00002
 816,0.00003432,0.00004660,0.00005821,-0.00015153,-0.00007418,-0.000335
 22,-0.00009700,0.00040681,0.00035364,0.00111323,-0.00067122,-0.0116227
 0,0.00368540,0.00006997,0.09877545,-0.02010225,-0.09398056,-0.02130031
 ,0.00322999,0.00673402,-0.00000086,0.00000315,-0.00000324,-0.00000164,
 0.00000139,-0.00000215,-0.00000636,-0.00000055,-0.00000098,0.00000168,
 0.00000045,0.00000397,0.00000621,-0.00000170,-0.00000435,-0.00001817,0
 .00001246,0.00000538,-0.00008006,-0.00001055,0.00005342,0.00015856,-0.
 00080504,0.00089142,0.02580852,-0.00464815,-0.00569237,-0.09178481,0.0
 1775043,0.09220743\\-0.00000202,-0.00000305,-0.00000289,-0.00000033,0.
 00000097,0.00000208,0.00000244,-0.00000031,-0.00000158,-0.00000211,0.0
 0000065,-0.00000286,-0.00000035,-0.00000160,0.00000367,0.00000076,-0.0
 0000170,-0.00000284,0.00000104,0.00000064,0.00000607,-0.00000229,0.000
 00486,-0.00000348,0.00000082,0.00000037,-0.00000232,-0.00000028,-0.000
 00316,-0.00000397,0.00000142,-0.00000449,-0.00000032,-0.00000069,-0.00
 000168,-0.00000173,0.00000029,-0.00000300,0.00000111,-0.00000051,-0.00
 000092,-0.00000284,-0.00000008,0.00000453,0.00000158,0.00000250,0.0000
 0374,0.00000506,0.00000047,-0.00000076,0.00000259,-0.00000211,0.000003
 70,-0.00000032,0.00000102,0.00000121,0.00000299\\\@


 NO SCIENCE HAS EVER MADE MORE RAPID PROGRESS IN A
 SHORTER TIME THAN CHEMISTRY.
   -- MARTIN HEINRICH KLOPROTH, 1791
 (FIRST PROFESSOR OF CHEMISTRY AT THE UNIVERSITY OF BERLIN)
 Job cpu time:       0 days  0 hours 27 minutes 32.1 seconds.
 File lengths (MBytes):  RWF=    152 Int=      0 D2E=      0 Chk=      8 Scr=      1
 Normal termination of Gaussian 09 at Tue Jan 28 14:55:03 2020.
