 Entering Gaussian System, Link 0=/home/puck/opt/gaussian_09/g09
 Input=dsC7O2H10nsd_1294.com
 Output=dsC7O2H10nsd_1294.log
 Initial command:
 /home/puck/opt/gaussian_09/l1.exe "/scratch/puck/g09_a3743778-b0f1-4e4f-ae26-75ed80f2f6af/Gau-55389.inp" -scrdir="/scratch/puck/g09_a3743778-b0f1-4e4f-ae26-75ed80f2f6af/"
 Entering Link 1 = /home/puck/opt/gaussian_09/l1.exe PID=     55396.
  
 Copyright (c) 1988,1990,1992,1993,1995,1998,2003,2009,2013,
            Gaussian, Inc.  All Rights Reserved.
  
 This is part of the Gaussian(R) 09 program.  It is based on
 the Gaussian(R) 03 system (copyright 2003, Gaussian, Inc.),
 the Gaussian(R) 98 system (copyright 1998, Gaussian, Inc.),
 the Gaussian(R) 94 system (copyright 1995, Gaussian, Inc.),
 the Gaussian 92(TM) system (copyright 1992, Gaussian, Inc.),
 the Gaussian 90(TM) system (copyright 1990, Gaussian, Inc.),
 the Gaussian 88(TM) system (copyright 1988, Gaussian, Inc.),
 the Gaussian 86(TM) system (copyright 1986, Carnegie Mellon
 University), and the Gaussian 82(TM) system (copyright 1983,
 Carnegie Mellon University). Gaussian is a federally registered
 trademark of Gaussian, Inc.
  
 This software contains proprietary and confidential information,
 including trade secrets, belonging to Gaussian, Inc.
  
 This software is provided under written license and may be
 used, copied, transmitted, or stored only in accord with that
 written license.
  
 The following legend is applicable only to US Government
 contracts under FAR:
  
                    RESTRICTED RIGHTS LEGEND
  
 Use, reproduction and disclosure by the US Government is
 subject to restrictions as set forth in subparagraphs (a)
 and (c) of the Commercial Computer Software - Restricted
 Rights clause in FAR 52.227-19.
  
 Gaussian, Inc.
 340 Quinnipiac St., Bldg. 40, Wallingford CT 06492
  
  
 ---------------------------------------------------------------
 Warning -- This program may not be used in any manner that
 competes with the business of Gaussian, Inc. or will provide
 assistance to any competitor of Gaussian, Inc.  The licensee
 of this program is prohibited from giving any competitor of
 Gaussian, Inc. access to this program.  By using this program,
 the user acknowledges that Gaussian, Inc. is engaged in the
 business of creating and licensing software in the field of
 computational chemistry and represents and warrants to the
 licensee that it is not a competitor of Gaussian, Inc. and that
 it will not use this program in any manner prohibited above.
 ---------------------------------------------------------------
  

 Cite this work as:
 Gaussian 09, Revision D.01,
 M. J. Frisch, G. W. Trucks, H. B. Schlegel, G. E. Scuseria, 
 M. A. Robb, J. R. Cheeseman, G. Scalmani, V. Barone, B. Mennucci, 
 G. A. Petersson, H. Nakatsuji, M. Caricato, X. Li, H. P. Hratchian, 
 A. F. Izmaylov, J. Bloino, G. Zheng, J. L. Sonnenberg, M. Hada, 
 M. Ehara, K. Toyota, R. Fukuda, J. Hasegawa, M. Ishida, T. Nakajima, 
 Y. Honda, O. Kitao, H. Nakai, T. Vreven, J. A. Montgomery, Jr., 
 J. E. Peralta, F. Ogliaro, M. Bearpark, J. J. Heyd, E. Brothers, 
 K. N. Kudin, V. N. Staroverov, T. Keith, R. Kobayashi, J. Normand, 
 K. Raghavachari, A. Rendell, J. C. Burant, S. S. Iyengar, J. Tomasi, 
 M. Cossi, N. Rega, J. M. Millam, M. Klene, J. E. Knox, J. B. Cross, 
 V. Bakken, C. Adamo, J. Jaramillo, R. Gomperts, R. E. Stratmann, 
 O. Yazyev, A. J. Austin, R. Cammi, C. Pomelli, J. W. Ochterski, 
 R. L. Martin, K. Morokuma, V. G. Zakrzewski, G. A. Voth, 
 P. Salvador, J. J. Dannenberg, S. Dapprich, A. D. Daniels, 
 O. Farkas, J. B. Foresman, J. V. Ortiz, J. Cioslowski, 
 and D. J. Fox, Gaussian, Inc., Wallingford CT, 2013.
 
 ******************************************
 Gaussian 09:  ES64L-G09RevD.01 24-Apr-2013
                27-Jan-2020 
 ******************************************
 -----------------------------
 # b3lyp 6-31G(2df,p) opt Freq
 -----------------------------
 1/14=-1,18=20,19=15,26=3,38=1/1,3;
 2/9=110,12=2,17=6,18=5,40=1/2;
 3/5=1,6=6,7=104,11=2,16=1,25=1,30=1,71=1,74=-5/1,2,3;
 4//1;
 5/5=2,38=5/2;
 6/7=2,8=2,9=2,10=2,28=1/1;
 7//1,2,3,16;
 1/14=-1,18=20,19=15,26=3/3(2);
 2/9=110/2;
 99//99;
 2/9=110/2;
 3/5=1,6=6,7=104,11=2,16=1,25=1,30=1,71=1,74=-5/1,2,3;
 4/5=5,16=3,69=1/1;
 5/5=2,38=5/2;
 7//1,2,3,16;
 1/14=-1,18=20,19=15,26=3/3(-5);
 2/9=110/2;
 6/7=2,8=2,9=2,10=2,19=2,28=1/1;
 99/9=1/99;
 -----
 titel
 -----
 Symbolic Z-matrix:
 Charge =  0 Multiplicity = 1
 C                    -1.65333  -3.57428   1.63627 
 C                    -0.77056  -2.3676    1.98805 
 C                    -0.5207   -2.27949   3.50097 
 C                    -1.3989   -1.07756   1.47396 
 C                    -1.41735  -0.70807  -0.03704 
 O                    -1.60657   0.71287   0.3568 
 C                    -0.58674   0.24142   1.3303 
 C                     0.09814  -0.37028   0.07341 
 O                     1.12471  -0.41855  -0.51668 
 H                    -2.63972  -3.48851   2.1069 
 H                    -1.80506  -3.66164   0.55563 
 H                    -1.19797  -4.50598   1.98593 
 H                     0.2007   -2.50194   1.4914 
 H                    -0.05193  -3.19574   3.87304 
 H                     0.13719  -1.44158   3.75301 
 H                    -1.46183  -2.14181   4.04609 
 H                    -2.37616  -0.86521   1.92016 
 H                    -2.0272   -1.0898   -0.85309 
 H                    -0.24392   0.9487    2.08249 
 

 GradGradGradGradGradGradGradGradGradGradGradGradGradGradGradGradGradGrad
 Berny optimization.
 Initialization pass.
                           ----------------------------
                           !    Initial Parameters    !
                           ! (Angstroms and Degrees)  !
 --------------------------                            --------------------------
 ! Name  Definition              Value          Derivative Info.                !
 --------------------------------------------------------------------------------
 ! R1    R(1,2)                  1.5359         estimate D2E/DX2                !
 ! R2    R(1,10)                 1.0963         estimate D2E/DX2                !
 ! R3    R(1,11)                 1.0947         estimate D2E/DX2                !
 ! R4    R(1,12)                 1.0944         estimate D2E/DX2                !
 ! R5    R(2,3)                  1.5359         estimate D2E/DX2                !
 ! R6    R(2,4)                  1.5242         estimate D2E/DX2                !
 ! R7    R(2,13)                 1.0991         estimate D2E/DX2                !
 ! R8    R(3,14)                 1.0944         estimate D2E/DX2                !
 ! R9    R(3,15)                 1.0947         estimate D2E/DX2                !
 ! R10   R(3,16)                 1.0963         estimate D2E/DX2                !
 ! R11   R(4,5)                  1.5556         estimate D2E/DX2                !
 ! R12   R(4,7)                  1.5556         estimate D2E/DX2                !
 ! R13   R(4,17)                 1.0951         estimate D2E/DX2                !
 ! R14   R(5,6)                  1.4866         estimate D2E/DX2                !
 ! R15   R(5,8)                  1.5566         estimate D2E/DX2                !
 ! R16   R(5,18)                 1.0879         estimate D2E/DX2                !
 ! R17   R(6,7)                  1.4866         estimate D2E/DX2                !
 ! R18   R(7,8)                  1.5566         estimate D2E/DX2                !
 ! R19   R(7,19)                 1.0879         estimate D2E/DX2                !
 ! R20   R(8,9)                  1.1851         estimate D2E/DX2                !
 ! A1    A(2,1,10)             110.9371         estimate D2E/DX2                !
 ! A2    A(2,1,11)             111.6196         estimate D2E/DX2                !
 ! A3    A(2,1,12)             110.8869         estimate D2E/DX2                !
 ! A4    A(10,1,11)            107.777          estimate D2E/DX2                !
 ! A5    A(10,1,12)            107.6869         estimate D2E/DX2                !
 ! A6    A(11,1,12)            107.7657         estimate D2E/DX2                !
 ! A7    A(1,2,3)              111.356          estimate D2E/DX2                !
 ! A8    A(1,2,4)              110.5323         estimate D2E/DX2                !
 ! A9    A(1,2,13)             107.9606         estimate D2E/DX2                !
 ! A10   A(3,2,4)              110.5323         estimate D2E/DX2                !
 ! A11   A(3,2,13)             107.96           estimate D2E/DX2                !
 ! A12   A(4,2,13)             108.3807         estimate D2E/DX2                !
 ! A13   A(2,3,14)             110.8876         estimate D2E/DX2                !
 ! A14   A(2,3,15)             111.6196         estimate D2E/DX2                !
 ! A15   A(2,3,16)             110.937          estimate D2E/DX2                !
 ! A16   A(14,3,15)            107.7653         estimate D2E/DX2                !
 ! A17   A(14,3,16)            107.6867         estimate D2E/DX2                !
 ! A18   A(15,3,16)            107.7769         estimate D2E/DX2                !
 ! A19   A(2,4,5)              122.2433         estimate D2E/DX2                !
 ! A20   A(2,4,7)              122.2439         estimate D2E/DX2                !
 ! A21   A(2,4,17)             113.2395         estimate D2E/DX2                !
 ! A22   A(5,4,7)               73.4472         estimate D2E/DX2                !
 ! A23   A(5,4,17)             109.8236         estimate D2E/DX2                !
 ! A24   A(7,4,17)             109.8231         estimate D2E/DX2                !
 ! A25   A(4,5,6)               88.3504         estimate D2E/DX2                !
 ! A26   A(4,5,8)               88.3428         estimate D2E/DX2                !
 ! A27   A(4,5,18)             130.684          estimate D2E/DX2                !
 ! A28   A(6,5,8)               84.1284         estimate D2E/DX2                !
 ! A29   A(6,5,18)             117.5649         estimate D2E/DX2                !
 ! A30   A(8,5,18)             132.4639         estimate D2E/DX2                !
 ! A31   A(5,6,7)               77.4697         estimate D2E/DX2                !
 ! A32   A(4,7,6)               88.3502         estimate D2E/DX2                !
 ! A33   A(4,7,8)               88.3428         estimate D2E/DX2                !
 ! A34   A(4,7,19)             130.6842         estimate D2E/DX2                !
 ! A35   A(6,7,8)               84.1282         estimate D2E/DX2                !
 ! A36   A(6,7,19)             117.565          estimate D2E/DX2                !
 ! A37   A(8,7,19)             132.4638         estimate D2E/DX2                !
 ! A38   A(5,8,7)               73.3941         estimate D2E/DX2                !
 ! A39   A(5,8,9)              143.0545         estimate D2E/DX2                !
 ! A40   A(7,8,9)              143.0541         estimate D2E/DX2                !
 ! D1    D(10,1,2,3)            61.7943         estimate D2E/DX2                !
 ! D2    D(10,1,2,4)           -61.4757         estimate D2E/DX2                !
 ! D3    D(10,1,2,13)         -179.8596         estimate D2E/DX2                !
 ! D4    D(11,1,2,3)          -177.9892         estimate D2E/DX2                !
 ! D5    D(11,1,2,4)            58.7409         estimate D2E/DX2                !
 ! D6    D(11,1,2,13)          -59.643          estimate D2E/DX2                !
 ! D7    D(12,1,2,3)           -57.8212         estimate D2E/DX2                !
 ! D8    D(12,1,2,4)           178.9089         estimate D2E/DX2                !
 ! D9    D(12,1,2,13)           60.525          estimate D2E/DX2                !
 ! D10   D(1,2,3,14)            57.811          estimate D2E/DX2                !
 ! D11   D(1,2,3,15)           177.979          estimate D2E/DX2                !
 ! D12   D(1,2,3,16)           -61.8046         estimate D2E/DX2                !
 ! D13   D(4,2,3,14)          -178.919          estimate D2E/DX2                !
 ! D14   D(4,2,3,15)           -58.751          estimate D2E/DX2                !
 ! D15   D(4,2,3,16)            61.4654         estimate D2E/DX2                !
 ! D16   D(13,2,3,14)          -60.5355         estimate D2E/DX2                !
 ! D17   D(13,2,3,15)           59.6325         estimate D2E/DX2                !
 ! D18   D(13,2,3,16)          179.8489         estimate D2E/DX2                !
 ! D19   D(1,2,4,5)            -73.1344         estimate D2E/DX2                !
 ! D20   D(1,2,4,7)           -163.114          estimate D2E/DX2                !
 ! D21   D(1,2,4,17)            61.8758         estimate D2E/DX2                !
 ! D22   D(3,2,4,5)            163.1194         estimate D2E/DX2                !
 ! D23   D(3,2,4,7)             73.1399         estimate D2E/DX2                !
 ! D24   D(3,2,4,17)           -61.8703         estimate D2E/DX2                !
 ! D25   D(13,2,4,5)            44.9929         estimate D2E/DX2                !
 ! D26   D(13,2,4,7)           -44.9867         estimate D2E/DX2                !
 ! D27   D(13,2,4,17)         -179.9969         estimate D2E/DX2                !
 ! D28   D(2,4,5,6)           -158.6534         estimate D2E/DX2                !
 ! D29   D(2,4,5,8)            -74.4819         estimate D2E/DX2                !
 ! D30   D(2,4,5,18)            75.4917         estimate D2E/DX2                !
 ! D31   D(7,4,5,6)            -40.5807         estimate D2E/DX2                !
 ! D32   D(7,4,5,8)             43.5908         estimate D2E/DX2                !
 ! D33   D(7,4,5,18)          -166.4356         estimate D2E/DX2                !
 ! D34   D(17,4,5,6)            65.0194         estimate D2E/DX2                !
 ! D35   D(17,4,5,8)           149.1909         estimate D2E/DX2                !
 ! D36   D(17,4,5,18)          -60.8355         estimate D2E/DX2                !
 ! D37   D(2,4,7,6)            158.6524         estimate D2E/DX2                !
 ! D38   D(2,4,7,8)             74.4811         estimate D2E/DX2                !
 ! D39   D(2,4,7,19)           -75.4928         estimate D2E/DX2                !
 ! D40   D(5,4,7,6)             40.5805         estimate D2E/DX2                !
 ! D41   D(5,4,7,8)            -43.5908         estimate D2E/DX2                !
 ! D42   D(5,4,7,19)           166.4353         estimate D2E/DX2                !
 ! D43   D(17,4,7,6)           -65.0202         estimate D2E/DX2                !
 ! D44   D(17,4,7,8)          -149.1915         estimate D2E/DX2                !
 ! D45   D(17,4,7,19)           60.8346         estimate D2E/DX2                !
 ! D46   D(4,5,6,7)             41.946          estimate D2E/DX2                !
 ! D47   D(8,5,6,7)            -46.5571         estimate D2E/DX2                !
 ! D48   D(18,5,6,7)           178.0525         estimate D2E/DX2                !
 ! D49   D(4,5,8,7)            -43.5719         estimate D2E/DX2                !
 ! D50   D(4,5,8,9)            144.1232         estimate D2E/DX2                !
 ! D51   D(6,5,8,7)             44.9396         estimate D2E/DX2                !
 ! D52   D(6,5,8,9)           -127.3653         estimate D2E/DX2                !
 ! D53   D(18,5,8,7)           167.3842         estimate D2E/DX2                !
 ! D54   D(18,5,8,9)            -4.9207         estimate D2E/DX2                !
 ! D55   D(5,6,7,4)            -41.946          estimate D2E/DX2                !
 ! D56   D(5,6,7,8)             46.5572         estimate D2E/DX2                !
 ! D57   D(5,6,7,19)          -178.0527         estimate D2E/DX2                !
 ! D58   D(4,7,8,5)             43.572          estimate D2E/DX2                !
 ! D59   D(4,7,8,9)           -144.1231         estimate D2E/DX2                !
 ! D60   D(6,7,8,5)            -44.9393         estimate D2E/DX2                !
 ! D61   D(6,7,8,9)            127.3656         estimate D2E/DX2                !
 ! D62   D(19,7,8,5)          -167.3837         estimate D2E/DX2                !
 ! D63   D(19,7,8,9)             4.9212         estimate D2E/DX2                !
 --------------------------------------------------------------------------------
 Trust Radius=3.00D-01 FncErr=1.00D-07 GrdErr=1.00D-06
 Number of steps in this run=    114 maximum allowed number of steps=    114.
 GradGradGradGradGradGradGradGradGradGradGradGradGradGradGradGradGradGrad

                          Input orientation:                          
 ---------------------------------------------------------------------
 Center     Atomic      Atomic             Coordinates (Angstroms)
 Number     Number       Type             X           Y           Z
 ---------------------------------------------------------------------
      1          6           0       -1.653329   -3.574278    1.636268
      2          6           0       -0.770557   -2.367595    1.988052
      3          6           0       -0.520702   -2.279490    3.500974
      4          6           0       -1.398904   -1.077565    1.473959
      5          6           0       -1.417349   -0.708072   -0.037040
      6          8           0       -1.606567    0.712872    0.356800
      7          6           0       -0.586736    0.241421    1.330296
      8          6           0        0.098135   -0.370281    0.073409
      9          8           0        1.124711   -0.418548   -0.516680
     10          1           0       -2.639715   -3.488509    2.106902
     11          1           0       -1.805061   -3.661641    0.555626
     12          1           0       -1.197975   -4.505979    1.985934
     13          1           0        0.200701   -2.501942    1.491403
     14          1           0       -0.051931   -3.195736    3.873041
     15          1           0        0.137194   -1.441580    3.753013
     16          1           0       -1.461826   -2.141814    4.046086
     17          1           0       -2.376156   -0.865209    1.920156
     18          1           0       -2.027197   -1.089801   -0.853089
     19          1           0       -0.243924    0.948704    2.082490
 ---------------------------------------------------------------------
                    Distance matrix (angstroms):
                    1          2          3          4          5
     1  C    0.000000
     2  C    1.535943   0.000000
     3  C    2.537015   1.535944   0.000000
     4  C    2.514886   1.524235   2.514887   0.000000
     5  C    3.327278   2.696916   3.973773   1.555629   0.000000
     6  O    4.474246   3.584574   4.474278   2.120573   1.486605
     7  C    3.973763   2.696924   3.327341   1.555628   1.860393
     8  C    3.971870   2.899957   3.971932   2.168621   1.556597
     9  O    4.723486   3.696554   4.723562   3.281094   2.603065
    10  H    1.096271   2.182733   2.809872   2.784400   3.717728
    11  H    1.094734   2.190114   3.497856   2.772319   3.037292
    12  H    1.094387   2.180682   2.776922   3.472250   4.308672
    13  H    2.146699   1.099115   2.146692   2.141937   2.858705
    14  H    2.776855   2.180694   1.094389   3.472259   4.831312
    15  H    3.497854   2.190115   1.094735   2.772399   4.161628
    16  H    2.809955   2.182735   1.096273   2.784318   4.327761
    17  H    2.818178   2.199937   2.818135   1.095083   2.185090
    18  H    3.536849   3.359164   4.758440   2.410404   1.087918
    19  H    4.758455   3.359182   3.536939   2.410405   2.935003
                    6          7          8          9         10
     6  O    0.000000
     7  C    1.486612   0.000000
     8  C    2.039495   1.556596   0.000000
     9  O    3.082687   2.603061   1.185071   0.000000
    10  H    4.667103   4.327842   4.621067   5.520756   0.000000
    11  H    4.383525   4.161529   3.832459   4.500117   1.770051
    12  H    5.482466   4.831282   4.737262   5.325884   1.768755
    13  H    3.858571   2.858680   2.562266   3.037552   3.069221
    14  H    5.482523   4.308784   4.737396   5.326060   3.146680
    15  H    4.383678   3.037454   3.832584   4.500230   3.822411
    16  H    4.667013   3.717675   4.621036   5.520748   2.638454
    17  H    2.350891   2.185083   3.126907   4.288793   2.643112
    18  H    2.211422   2.935004   2.427579   3.240104   3.858824
    19  H    2.211429   1.087918   2.427578   3.240097   5.042744
                   11         12         13         14         15
    11  H    0.000000
    12  H    1.768401   0.000000
    13  H    2.498732   2.493395   0.000000
    14  H    3.780976   2.567358   2.493466   0.000000
    15  H    4.350209   3.780977   2.498656   1.768400   0.000000
    16  H    3.822433   3.146922   3.069217   1.768757   1.770052
    17  H    3.163563   3.827225   3.082681   3.827158   3.163621
    18  H    2.940779   4.518621   3.529067   5.538316   5.101422
    19  H    5.101347   5.538330   3.529027   4.518773   2.940979
                   16         17         18         19
    16  H    0.000000
    17  H    2.642972   0.000000
    18  H    5.042647   2.804122   0.000000
    19  H    3.858794   2.804112   3.994144   0.000000
 Stoichiometry    C7H10O2
 Framework group  C1[X(C7H10O2)]
 Deg. of freedom    51
 Full point group                 C1      NOp   1
 Largest Abelian subgroup         C1      NOp   1
 Largest concise Abelian subgroup C1      NOp   1
                         Standard orientation:                         
 ---------------------------------------------------------------------
 Center     Atomic      Atomic             Coordinates (Angstroms)
 Number     Number       Type             X           Y           Z
 ---------------------------------------------------------------------
      1          6           0       -2.253564    0.142895    1.268467
      2          6           0       -1.405422    0.317279   -0.000140
      3          6           0       -2.253636    0.141780   -1.268548
      4          6           0       -0.235745   -0.660036    0.000256
      5          6           0        0.997789   -0.477736    0.930386
      6          8           0        1.772523   -1.340983    0.000555
      7          6           0        0.997801   -0.478501   -0.930007
      8          6           0        1.472227    0.676283   -0.000282
      9          8           0        2.009460    1.732584   -0.000718
     10          1           0       -2.679051   -0.866144    1.319597
     11          1           0       -1.660806    0.302010    2.174979
     12          1           0       -3.084290    0.855183    1.283386
     13          1           0       -1.002605    1.339918   -0.000608
     14          1           0       -3.084472    0.853932   -1.283971
     15          1           0       -1.660969    0.300273   -2.175229
     16          1           0       -2.678976   -0.867363   -1.318857
     17          1           0       -0.549343   -1.709257    0.000678
     18          1           0        1.113960   -0.655748    1.997336
     19          1           0        1.113990   -0.657393   -1.996807
 ---------------------------------------------------------------------
 Rotational constants (GHZ):      2.6996633      1.1583467      1.1084944
 Standard basis: 6-31G(2df,p) (6D, 7F)
 There are   329 symmetry adapted cartesian basis functions of A   symmetry.
 There are   302 symmetry adapted basis functions of A   symmetry.
   302 basis functions,   466 primitive gaussians,   329 cartesian basis functions
    34 alpha electrons       34 beta electrons
       nuclear repulsion energy       455.9364095224 Hartrees.
 NAtoms=   19 NActive=   19 NUniq=   19 SFac= 1.00D+00 NAtFMM=   60 NAOKFM=F Big=F
 Integral buffers will be    131072 words long.
 Raffenetti 2 integral format.
 Two-electron integral symmetry is turned on.
 One-electron integrals computed using PRISM.
 NBasis=   302 RedAO= T EigKep=  2.99D-04  NBF=   302
 NBsUse=   302 1.00D-06 EigRej= -1.00D+00 NBFU=   302
 ExpMin= 1.61D-01 ExpMax= 5.48D+03 ExpMxC= 8.25D+02 IAcc=1 IRadAn=         1 AccDes= 0.00D+00
 Harris functional with IExCor=  402 and IRadAn=       1 diagonalized for initial guess.
 HarFok:  IExCor=  402 AccDes= 0.00D+00 IRadAn=         1 IDoV= 1 UseB2=F ITyADJ=14
 ICtDFT=  3500011 ScaDFX=  1.000000  1.000000  1.000000  1.000000
 FoFCou: FMM=F IPFlag=           0 FMFlag=      100000 FMFlg1=           0
         NFxFlg=           0 DoJE=T BraDBF=F KetDBF=T FulRan=T
         wScrn=  0.000000 ICntrl=     500 IOpCl=  0 I1Cent=   200000004 NGrid=           0
         NMat0=    1 NMatS0=      1 NMatT0=    0 NMatD0=    1 NMtDS0=    0 NMtDT0=    0
 Petite list used in FoFCou.
 Requested convergence on RMS density matrix=1.00D-08 within 128 cycles.
 Requested convergence on MAX density matrix=1.00D-06.
 Requested convergence on             energy=1.00D-06.
 No special actions if energy rises.
 Integral accuracy reduced to 1.0D-05 until final iterations.
 Initial convergence to 1.0D-05 achieved.  Increase integral accuracy.
 SCF Done:  E(RB3LYP) =  -423.128759091     A.U. after   14 cycles
            NFock= 14  Conv=0.88D-08     -V/T= 2.0074

 **********************************************************************

            Population analysis using the SCF density.

 **********************************************************************

 Orbital symmetries:
       Occupied  (A) (A) (A) (A) (A) (A) (A) (A) (A) (A) (A) (A)
                 (A) (A) (A) (A) (A) (A) (A) (A) (A) (A) (A) (A)
                 (A) (A) (A) (A) (A) (A) (A) (A) (A) (A)
       Virtual   (A) (A) (A) (A) (A) (A) (A) (A) (A) (A) (A) (A)
                 (A) (A) (A) (A) (A) (A) (A) (A) (A) (A) (A) (A)
                 (A) (A) (A) (A) (A) (A) (A) (A) (A) (A) (A) (A)
                 (A) (A) (A) (A) (A) (A) (A) (A) (A) (A) (A) (A)
                 (A) (A) (A) (A) (A) (A) (A) (A) (A) (A) (A) (A)
                 (A) (A) (A) (A) (A) (A) (A) (A) (A) (A) (A) (A)
                 (A) (A) (A) (A) (A) (A) (A) (A) (A) (A) (A) (A)
                 (A) (A) (A) (A) (A) (A) (A) (A) (A) (A) (A) (A)
                 (A) (A) (A) (A) (A) (A) (A) (A) (A) (A) (A) (A)
                 (A) (A) (A) (A) (A) (A) (A) (A) (A) (A) (A) (A)
                 (A) (A) (A) (A) (A) (A) (A) (A) (A) (A) (A) (A)
                 (A) (A) (A) (A) (A) (A) (A) (A) (A) (A) (A) (A)
                 (A) (A) (A) (A) (A) (A) (A) (A) (A) (A) (A) (A)
                 (A) (A) (A) (A) (A) (A) (A) (A) (A) (A) (A) (A)
                 (A) (A) (A) (A) (A) (A) (A) (A) (A) (A) (A) (A)
                 (A) (A) (A) (A) (A) (A) (A) (A) (A) (A) (A) (A)
                 (A) (A) (A) (A) (A) (A) (A) (A) (A) (A) (A) (A)
                 (A) (A) (A) (A) (A) (A) (A) (A) (A) (A) (A) (A)
                 (A) (A) (A) (A) (A) (A) (A) (A) (A) (A) (A) (A)
                 (A) (A) (A) (A) (A) (A) (A) (A) (A) (A) (A) (A)
                 (A) (A) (A) (A) (A) (A) (A) (A) (A) (A) (A) (A)
                 (A) (A) (A) (A) (A) (A) (A) (A) (A) (A) (A) (A)
                 (A) (A) (A) (A)
 The electronic state is 1-A.
 Alpha  occ. eigenvalues --  -19.16400 -19.15298 -10.28651 -10.25865 -10.25863
 Alpha  occ. eigenvalues --  -10.21376 -10.20437 -10.18578 -10.18577  -1.08623
 Alpha  occ. eigenvalues --   -1.05484  -0.83089  -0.76838  -0.69674  -0.67404
 Alpha  occ. eigenvalues --   -0.65738  -0.59104  -0.53954  -0.50358  -0.46768
 Alpha  occ. eigenvalues --   -0.45888  -0.44459  -0.43409  -0.42747  -0.40106
 Alpha  occ. eigenvalues --   -0.39969  -0.39365  -0.37149  -0.36345  -0.34227
 Alpha  occ. eigenvalues --   -0.33411  -0.32824  -0.26615  -0.25820
 Alpha virt. eigenvalues --   -0.01220   0.07380   0.09228   0.10176   0.11086
 Alpha virt. eigenvalues --    0.11653   0.11818   0.15106   0.15178   0.15711
 Alpha virt. eigenvalues --    0.16282   0.16336   0.17588   0.19029   0.19633
 Alpha virt. eigenvalues --    0.20808   0.22330   0.24274   0.25533   0.26037
 Alpha virt. eigenvalues --    0.36122   0.39793   0.42658   0.44530   0.45239
 Alpha virt. eigenvalues --    0.45823   0.46280   0.48529   0.50733   0.51673
 Alpha virt. eigenvalues --    0.55069   0.55712   0.57785   0.60098   0.61868
 Alpha virt. eigenvalues --    0.62308   0.64504   0.66030   0.68707   0.68809
 Alpha virt. eigenvalues --    0.69388   0.71589   0.72104   0.72758   0.72924
 Alpha virt. eigenvalues --    0.74401   0.74573   0.77245   0.78414   0.79237
 Alpha virt. eigenvalues --    0.81781   0.82381   0.84632   0.85530   0.85762
 Alpha virt. eigenvalues --    0.89188   0.89639   0.89951   0.91295   0.94321
 Alpha virt. eigenvalues --    0.96552   0.99072   1.00756   1.01031   1.02963
 Alpha virt. eigenvalues --    1.07837   1.07968   1.14359   1.14594   1.18680
 Alpha virt. eigenvalues --    1.21525   1.22366   1.23126   1.28955   1.29077
 Alpha virt. eigenvalues --    1.30940   1.34432   1.36009   1.38456   1.39230
 Alpha virt. eigenvalues --    1.40951   1.43512   1.43863   1.46476   1.46682
 Alpha virt. eigenvalues --    1.48849   1.50805   1.51622   1.52224   1.54398
 Alpha virt. eigenvalues --    1.55030   1.56421   1.58358   1.60729   1.65542
 Alpha virt. eigenvalues --    1.70009   1.70708   1.72639   1.74852   1.81312
 Alpha virt. eigenvalues --    1.82634   1.85693   1.86365   1.88598   1.89387
 Alpha virt. eigenvalues --    1.94475   1.95411   1.97064   2.00670   2.01347
 Alpha virt. eigenvalues --    2.13498   2.15198   2.17944   2.22773   2.23339
 Alpha virt. eigenvalues --    2.29037   2.32624   2.34397   2.39345   2.40573
 Alpha virt. eigenvalues --    2.41474   2.49252   2.51170   2.54100   2.56429
 Alpha virt. eigenvalues --    2.57779   2.58447   2.61800   2.70297   2.71501
 Alpha virt. eigenvalues --    2.75053   2.77322   2.78529   2.79804   2.82817
 Alpha virt. eigenvalues --    2.83482   2.84784   2.88065   2.88868   2.92068
 Alpha virt. eigenvalues --    2.92337   2.93996   2.97512   2.98996   2.99715
 Alpha virt. eigenvalues --    3.01831   3.05107   3.05862   3.09266   3.10550
 Alpha virt. eigenvalues --    3.12287   3.13524   3.18353   3.21040   3.25286
 Alpha virt. eigenvalues --    3.28579   3.32113   3.33361   3.36896   3.38128
 Alpha virt. eigenvalues --    3.41328   3.43580   3.47272   3.47398   3.54545
 Alpha virt. eigenvalues --    3.54673   3.57087   3.60888   3.63114   3.66313
 Alpha virt. eigenvalues --    3.66966   3.67459   3.70947   3.72133   3.80209
 Alpha virt. eigenvalues --    3.80783   3.85207   3.87347   3.87845   3.91627
 Alpha virt. eigenvalues --    3.94638   3.96170   3.99784   4.02853   4.07418
 Alpha virt. eigenvalues --    4.12151   4.15432   4.18115   4.20755   4.23718
 Alpha virt. eigenvalues --    4.26549   4.29885   4.32560   4.33245   4.35716
 Alpha virt. eigenvalues --    4.39933   4.40130   4.41993   4.42484   4.45225
 Alpha virt. eigenvalues --    4.45413   4.47899   4.50221   4.53108   4.54099
 Alpha virt. eigenvalues --    4.55200   4.58529   4.60455   4.60507   4.61161
 Alpha virt. eigenvalues --    4.64127   4.68083   4.68249   4.69495   4.73507
 Alpha virt. eigenvalues --    4.73923   4.74411   4.78383   4.79091   4.81590
 Alpha virt. eigenvalues --    4.84643   4.85004   4.85342   4.87493   4.88323
 Alpha virt. eigenvalues --    4.91639   4.94854   4.96673   5.03309   5.07109
 Alpha virt. eigenvalues --    5.07439   5.14048   5.15084   5.20023   5.27926
 Alpha virt. eigenvalues --    5.28390   5.33654   5.37747   5.39074   5.49532
 Alpha virt. eigenvalues --    5.50336   5.55776   5.56346   5.60128   5.63184
 Alpha virt. eigenvalues --    5.65494   5.74993   5.80976   5.87081   5.89811
 Alpha virt. eigenvalues --    5.94135   6.07321   6.09157   6.28316   6.31177
 Alpha virt. eigenvalues --    6.45821   6.68903   6.96112   7.28619  11.04304
 Alpha virt. eigenvalues --   11.45408  11.70085  11.96227  12.04843  12.46971
 Alpha virt. eigenvalues --   12.51839  13.35047  13.56993
          Condensed to atoms (all electrons):
               1          2          3          4          5          6
     1  C    4.989966   0.392803  -0.041195  -0.027467  -0.001144  -0.000128
     2  C    0.392803   4.747149   0.392800   0.366650  -0.029558   0.006119
     3  C   -0.041195   0.392800   4.989974  -0.027467   0.003462  -0.000128
     4  C   -0.027467   0.366650  -0.027467   4.874618   0.318997  -0.055178
     5  C   -0.001144  -0.029558   0.003462   0.318997   5.274802   0.255038
     6  O   -0.000128   0.006119  -0.000128  -0.055178   0.255038   7.932334
     7  C    0.003462  -0.029556  -0.001143   0.318996  -0.270400   0.255035
     8  C   -0.000229   0.007688  -0.000230  -0.030597   0.250663  -0.053240
     9  O    0.000023  -0.001054   0.000023  -0.003215  -0.046218  -0.001138
    10  H    0.374873  -0.027977  -0.005302  -0.004641  -0.000206  -0.000005
    11  H    0.373292  -0.023382   0.004634  -0.003222   0.002196  -0.000008
    12  H    0.373534  -0.020350  -0.003487   0.002453   0.000016   0.000001
    13  H   -0.041459   0.351680  -0.041461  -0.026349  -0.009366   0.000188
    14  H   -0.003489  -0.020351   0.373534   0.002453  -0.000117   0.000001
    15  H    0.004634  -0.023380   0.373292  -0.003220   0.000103  -0.000008
    16  H   -0.005300  -0.027977   0.374872  -0.004643  -0.000021  -0.000005
    17  H   -0.004757  -0.035310  -0.004759   0.328363  -0.025196   0.005188
    18  H    0.000913   0.000023  -0.000088  -0.034308   0.357152  -0.020404
    19  H   -0.000088   0.000023   0.000913  -0.034308   0.018436  -0.020404
               7          8          9         10         11         12
     1  C    0.003462  -0.000229   0.000023   0.374873   0.373292   0.373534
     2  C   -0.029556   0.007688  -0.001054  -0.027977  -0.023382  -0.020350
     3  C   -0.001143  -0.000230   0.000023  -0.005302   0.004634  -0.003487
     4  C    0.318996  -0.030597  -0.003215  -0.004641  -0.003222   0.002453
     5  C   -0.270400   0.250663  -0.046218  -0.000206   0.002196   0.000016
     6  O    0.255035  -0.053240  -0.001138  -0.000005  -0.000008   0.000001
     7  C    5.274811   0.250661  -0.046219  -0.000021   0.000103  -0.000117
     8  C    0.250661   4.339323   0.813188   0.000027   0.000165   0.000002
     9  O   -0.046219   0.813188   7.594842  -0.000001   0.000004   0.000000
    10  H   -0.000021   0.000027  -0.000001   0.595162  -0.032163  -0.031678
    11  H    0.000103   0.000165   0.000004  -0.032163   0.594188  -0.030619
    12  H   -0.000117   0.000002   0.000000  -0.031678  -0.030619   0.590453
    13  H   -0.009367   0.015120   0.000528   0.005670  -0.002852  -0.002680
    14  H    0.000016   0.000002   0.000000  -0.000142  -0.000055   0.003658
    15  H    0.002195   0.000165   0.000004  -0.000052  -0.000191  -0.000055
    16  H   -0.000206   0.000027  -0.000001   0.004534  -0.000052  -0.000142
    17  H   -0.025197   0.004036  -0.000155   0.004205  -0.000097  -0.000095
    18  H    0.018436  -0.025543   0.000552  -0.000021   0.000139  -0.000012
    19  H    0.357153  -0.025543   0.000552   0.000000   0.000000   0.000001
              13         14         15         16         17         18
     1  C   -0.041459  -0.003489   0.004634  -0.005300  -0.004757   0.000913
     2  C    0.351680  -0.020351  -0.023380  -0.027977  -0.035310   0.000023
     3  C   -0.041461   0.373534   0.373292   0.374872  -0.004759  -0.000088
     4  C   -0.026349   0.002453  -0.003220  -0.004643   0.328363  -0.034308
     5  C   -0.009366  -0.000117   0.000103  -0.000021  -0.025196   0.357152
     6  O    0.000188   0.000001  -0.000008  -0.000005   0.005188  -0.020404
     7  C   -0.009367   0.000016   0.002195  -0.000206  -0.025197   0.018436
     8  C    0.015120   0.000002   0.000165   0.000027   0.004036  -0.025543
     9  O    0.000528   0.000000   0.000004  -0.000001  -0.000155   0.000552
    10  H    0.005670  -0.000142  -0.000052   0.004534   0.004205  -0.000021
    11  H   -0.002852  -0.000055  -0.000191  -0.000052  -0.000097   0.000139
    12  H   -0.002680   0.003658  -0.000055  -0.000142  -0.000095  -0.000012
    13  H    0.662195  -0.002678  -0.002854   0.005670   0.006825  -0.000109
    14  H   -0.002678   0.590455  -0.030620  -0.031678  -0.000095   0.000001
    15  H   -0.002854  -0.030620   0.594187  -0.032163  -0.000097   0.000000
    16  H    0.005670  -0.031678  -0.032163   0.595162   0.004207   0.000000
    17  H    0.006825  -0.000095  -0.000097   0.004207   0.649955  -0.000075
    18  H   -0.000109   0.000001   0.000000   0.000000  -0.000075   0.591933
    19  H   -0.000109  -0.000012   0.000139  -0.000021  -0.000075  -0.000736
              19
     1  C   -0.000088
     2  C    0.000023
     3  C    0.000913
     4  C   -0.034308
     5  C    0.018436
     6  O   -0.020404
     7  C    0.357153
     8  C   -0.025543
     9  O    0.000552
    10  H    0.000000
    11  H    0.000000
    12  H    0.000001
    13  H   -0.000109
    14  H   -0.000012
    15  H    0.000139
    16  H   -0.000021
    17  H   -0.000075
    18  H   -0.000736
    19  H    0.591933
 Mulliken charges:
               1
     1  C   -0.388241
     2  C   -0.026041
     3  C   -0.388244
     4  C    0.042084
     5  C   -0.098640
     6  O   -0.303260
     7  C   -0.098643
     8  C    0.454316
     9  O   -0.311715
    10  H    0.117737
    11  H    0.117921
    12  H    0.119117
    13  H    0.091407
    14  H    0.119116
    15  H    0.117922
    16  H    0.117736
    17  H    0.093131
    18  H    0.112147
    19  H    0.112148
 Sum of Mulliken charges =   0.00000
 Mulliken charges with hydrogens summed into heavy atoms:
               1
     1  C   -0.033465
     2  C    0.065367
     3  C   -0.033470
     4  C    0.135216
     5  C    0.013507
     6  O   -0.303260
     7  C    0.013505
     8  C    0.454316
     9  O   -0.311715
 Electronic spatial extent (au):  <R**2>=           1225.1458
 Charge=              0.0000 electrons
 Dipole moment (field-independent basis, Debye):
    X=             -2.8719    Y=             -1.0110    Z=              0.0004  Tot=              3.0447
 Quadrupole moment (field-independent basis, Debye-Ang):
   XX=            -58.7199   YY=            -59.2845   ZZ=            -49.5759
   XY=             -2.1829   XZ=              0.0009   YZ=              0.0040
 Traceless Quadrupole moment (field-independent basis, Debye-Ang):
   XX=             -2.8598   YY=             -3.4244   ZZ=              6.2842
   XY=             -2.1829   XZ=              0.0009   YZ=              0.0040
 Octapole moment (field-independent basis, Debye-Ang**2):
  XXX=             -2.9748  YYY=             -3.5429  ZZZ=              0.0027  XYY=            -11.6810
  XXY=             -2.5392  XXZ=              0.0011  XZZ=             10.8483  YZZ=             -2.3722
  YYZ=             -0.0005  XYZ=              0.0093
 Hexadecapole moment (field-independent basis, Debye-Ang**3):
 XXXX=           -993.3755 YYYY=           -305.8144 ZZZZ=           -293.9021 XXXY=             -9.3975
 XXXZ=              0.0032 YYYX=             -4.7640 YYYZ=              0.0018 ZZZX=              0.0052
 ZZZY=             -0.0015 XXYY=           -233.1159 XXZZ=           -212.3033 YYZZ=            -98.9502
 XXYZ=              0.0080 YYXZ=             -0.0017 ZZXY=             -4.1368
 N-N= 4.559364095224D+02 E-N=-1.897892938484D+03  KE= 4.200146187192D+02
 Calling FoFJK, ICntrl=      2127 FMM=F ISym2X=0 I1Cent= 0 IOpClX= 0 NMat=1 NMatS=1 NMatT=0.
 ***** Axes restored to original set *****
 -------------------------------------------------------------------
 Center     Atomic                   Forces (Hartrees/Bohr)
 Number     Number              X              Y              Z
 -------------------------------------------------------------------
      1        6           0.000001727   -0.000006352    0.000003739
      2        6           0.000088060   -0.000058989   -0.000010786
      3        6           0.000001405   -0.000006628    0.000004723
      4        6          -0.000121529    0.000155994   -0.000034935
      5        6           0.000150888    0.000008213    0.000092477
      6        8          -0.000026356    0.000051077   -0.000016812
      7        6           0.000024692   -0.000132967   -0.000114151
      8        6          -0.000152303    0.000011794    0.000084710
      9        8           0.000044523    0.000007229   -0.000032457
     10        1           0.000003045   -0.000002132    0.000001295
     11        1          -0.000000952   -0.000004581   -0.000003542
     12        1           0.000008691    0.000001540   -0.000004291
     13        1          -0.000036960    0.000003993    0.000018542
     14        1           0.000007208    0.000000737   -0.000007603
     15        1           0.000003120    0.000001209    0.000004075
     16        1           0.000002581   -0.000004080   -0.000000824
     17        1           0.000030766   -0.000049191    0.000014479
     18        1          -0.000039108   -0.000016923   -0.000040384
     19        1           0.000010500    0.000040057    0.000041742
 -------------------------------------------------------------------
 Cartesian Forces:  Max     0.000155994 RMS     0.000053673

 GradGradGradGradGradGradGradGradGradGradGradGradGradGradGradGradGradGrad
 Berny optimization.
 FormGI is forming the generalized inverse of G from B-inverse, IUseBI=4.
 Internal  Forces:  Max     0.000080815 RMS     0.000017765
 Search for a local minimum.
 Step number   1 out of a maximum of  114
 All quantities printed in internal units (Hartrees-Bohrs-Radians)
 Mixed Optimization -- En-DIIS/RFO-DIIS
 Second derivative matrix not updated -- first step.
 ITU=  0
     Eigenvalues ---    0.00261   0.00290   0.00290   0.00445   0.01833
     Eigenvalues ---    0.02281   0.02341   0.03102   0.03578   0.04725
     Eigenvalues ---    0.04848   0.04897   0.05402   0.05402   0.05488
     Eigenvalues ---    0.05488   0.05828   0.06910   0.07065   0.07303
     Eigenvalues ---    0.09256   0.16000   0.16000   0.16000   0.16000
     Eigenvalues ---    0.16000   0.16000   0.16644   0.16773   0.17337
     Eigenvalues ---    0.20004   0.21062   0.22761   0.23517   0.24705
     Eigenvalues ---    0.25869   0.28881   0.28881   0.29962   0.31261
     Eigenvalues ---    0.33780   0.34098   0.34098   0.34232   0.34271
     Eigenvalues ---    0.34271   0.34310   0.34311   0.35054   0.35054
     Eigenvalues ---    1.12697
 RFO step:  Lambda=-1.82497268D-07 EMin= 2.61379376D-03
 Linear search not attempted -- first point.
 Iteration  1 RMS(Cart)=  0.00019760 RMS(Int)=  0.00000004
 Iteration  2 RMS(Cart)=  0.00000004 RMS(Int)=  0.00000001
 Variable       Old X    -DE/DX   Delta X   Delta X   Delta X     New X
                                 (Linear)    (Quad)   (Total)
    R1        2.90251   0.00001   0.00000   0.00002   0.00002   2.90253
    R2        2.07165   0.00000   0.00000   0.00000   0.00000   2.07166
    R3        2.06875   0.00000   0.00000   0.00001   0.00001   2.06876
    R4        2.06809   0.00000   0.00000   0.00000   0.00000   2.06809
    R5        2.90251   0.00000   0.00000   0.00002   0.00002   2.90253
    R6        2.88039   0.00008   0.00000   0.00027   0.00027   2.88066
    R7        2.07703  -0.00004   0.00000  -0.00013  -0.00013   2.07690
    R8        2.06810   0.00000   0.00000  -0.00001  -0.00001   2.06809
    R9        2.06875   0.00000   0.00000   0.00001   0.00001   2.06876
   R10        2.07166   0.00000   0.00000   0.00000   0.00000   2.07166
   R11        2.93971  -0.00003   0.00000  -0.00009  -0.00009   2.93962
   R12        2.93971  -0.00003   0.00000  -0.00009  -0.00009   2.93962
   R13        2.06941  -0.00003   0.00000  -0.00009  -0.00009   2.06931
   R14        2.80928   0.00002   0.00000   0.00005   0.00005   2.80932
   R15        2.94154  -0.00007   0.00000  -0.00027  -0.00027   2.94128
   R16        2.05587   0.00006   0.00000   0.00016   0.00016   2.05603
   R17        2.80929   0.00002   0.00000   0.00004   0.00004   2.80933
   R18        2.94154  -0.00007   0.00000  -0.00026  -0.00026   2.94128
   R19        2.05587   0.00006   0.00000   0.00016   0.00016   2.05603
   R20        2.23946   0.00006   0.00000   0.00005   0.00005   2.23951
    A1        1.93622   0.00000   0.00000  -0.00001  -0.00001   1.93621
    A2        1.94813   0.00001   0.00000   0.00005   0.00005   1.94818
    A3        1.93534  -0.00001   0.00000  -0.00004  -0.00004   1.93530
    A4        1.88106   0.00000   0.00000   0.00000   0.00000   1.88106
    A5        1.87949   0.00000   0.00000   0.00001   0.00001   1.87951
    A6        1.88087   0.00000   0.00000  -0.00001  -0.00001   1.88085
    A7        1.94353  -0.00001   0.00000  -0.00007  -0.00007   1.94346
    A8        1.92915   0.00001   0.00000   0.00004   0.00004   1.92920
    A9        1.88427   0.00000   0.00000  -0.00001  -0.00001   1.88426
   A10        1.92915   0.00001   0.00000   0.00004   0.00004   1.92920
   A11        1.88426   0.00000   0.00000  -0.00001  -0.00001   1.88425
   A12        1.89160   0.00000   0.00000   0.00001   0.00001   1.89161
   A13        1.93535  -0.00001   0.00000  -0.00005  -0.00005   1.93530
   A14        1.94813   0.00001   0.00000   0.00005   0.00005   1.94818
   A15        1.93622   0.00000   0.00000  -0.00001  -0.00001   1.93621
   A16        1.88086   0.00000   0.00000  -0.00001  -0.00001   1.88085
   A17        1.87949   0.00000   0.00000   0.00001   0.00001   1.87950
   A18        1.88106   0.00000   0.00000   0.00000   0.00000   1.88106
   A19        2.13355  -0.00001   0.00000  -0.00020  -0.00020   2.13335
   A20        2.13356  -0.00001   0.00000  -0.00020  -0.00020   2.13336
   A21        1.97640  -0.00002   0.00000  -0.00010  -0.00010   1.97630
   A22        1.28190  -0.00001   0.00000  -0.00008  -0.00008   1.28181
   A23        1.91678   0.00003   0.00000   0.00032   0.00032   1.91710
   A24        1.91677   0.00003   0.00000   0.00033   0.00033   1.91710
   A25        1.54201   0.00001   0.00000   0.00011   0.00011   1.54212
   A26        1.54187   0.00000   0.00000   0.00003   0.00003   1.54190
   A27        2.28087   0.00000   0.00000  -0.00004  -0.00004   2.28083
   A28        1.46832   0.00000   0.00000   0.00002   0.00002   1.46834
   A29        2.05190  -0.00001   0.00000  -0.00006  -0.00006   2.05183
   A30        2.31193   0.00000   0.00000  -0.00001  -0.00001   2.31192
   A31        1.35210  -0.00003   0.00000  -0.00016  -0.00016   1.35194
   A32        1.54200   0.00001   0.00000   0.00012   0.00012   1.54212
   A33        1.54187   0.00000   0.00000   0.00003   0.00003   1.54190
   A34        2.28087   0.00000   0.00000  -0.00004  -0.00004   2.28083
   A35        1.46831   0.00000   0.00000   0.00003   0.00003   1.46834
   A36        2.05190  -0.00001   0.00000  -0.00006  -0.00006   2.05183
   A37        2.31193   0.00000   0.00000  -0.00001  -0.00001   2.31192
   A38        1.28097   0.00001   0.00000   0.00001   0.00001   1.28097
   A39        2.49677  -0.00001   0.00000  -0.00003  -0.00003   2.49674
   A40        2.49677  -0.00001   0.00000  -0.00002  -0.00002   2.49674
    D1        1.07851   0.00000   0.00000  -0.00020  -0.00020   1.07832
    D2       -1.07295   0.00000   0.00000  -0.00023  -0.00023  -1.07319
    D3       -3.13914   0.00000   0.00000  -0.00026  -0.00026  -3.13940
    D4       -3.10650   0.00000   0.00000  -0.00017  -0.00017  -3.10667
    D5        1.02522   0.00000   0.00000  -0.00020  -0.00020   1.02502
    D6       -1.04097   0.00000   0.00000  -0.00023  -0.00023  -1.04119
    D7       -1.00917   0.00000   0.00000  -0.00018  -0.00018  -1.00935
    D8        3.12255   0.00000   0.00000  -0.00021  -0.00021   3.12234
    D9        1.05636   0.00000   0.00000  -0.00024  -0.00024   1.05612
   D10        1.00899   0.00000   0.00000   0.00030   0.00030   1.00929
   D11        3.10632   0.00000   0.00000   0.00028   0.00028   3.10660
   D12       -1.07869   0.00000   0.00000   0.00032   0.00032  -1.07838
   D13       -3.12273   0.00000   0.00000   0.00033   0.00033  -3.12239
   D14       -1.02540   0.00000   0.00000   0.00032   0.00032  -1.02508
   D15        1.07277   0.00000   0.00000   0.00035   0.00035   1.07312
   D16       -1.05654   0.00000   0.00000   0.00036   0.00036  -1.05619
   D17        1.04078   0.00000   0.00000   0.00035   0.00035   1.04113
   D18        3.13895   0.00000   0.00000   0.00038   0.00038   3.13933
   D19       -1.27644  -0.00001   0.00000  -0.00024  -0.00024  -1.27667
   D20       -2.84688   0.00001   0.00000   0.00012   0.00012  -2.84675
   D21        1.07994   0.00000   0.00000  -0.00006  -0.00006   1.07988
   D22        2.84697  -0.00001   0.00000  -0.00021  -0.00021   2.84677
   D23        1.27653   0.00001   0.00000   0.00015   0.00015   1.27669
   D24       -1.07984   0.00000   0.00000  -0.00003  -0.00003  -1.07987
   D25        0.78527  -0.00001   0.00000  -0.00022  -0.00022   0.78505
   D26       -0.78517   0.00001   0.00000   0.00014   0.00014  -0.78503
   D27       -3.14154   0.00000   0.00000  -0.00005  -0.00005  -3.14158
   D28       -2.76902   0.00000   0.00000   0.00026   0.00026  -2.76877
   D29       -1.29995   0.00001   0.00000   0.00028   0.00028  -1.29968
   D30        1.31758   0.00001   0.00000   0.00025   0.00025   1.31783
   D31       -0.70827  -0.00001   0.00000  -0.00003  -0.00003  -0.70829
   D32        0.76080  -0.00001   0.00000  -0.00001  -0.00001   0.76080
   D33       -2.90485  -0.00001   0.00000  -0.00003  -0.00003  -2.90488
   D34        1.13480   0.00001   0.00000   0.00024   0.00024   1.13504
   D35        2.60387   0.00001   0.00000   0.00026   0.00026   2.60413
   D36       -1.06178   0.00001   0.00000   0.00023   0.00023  -1.06155
   D37        2.76901   0.00000   0.00000  -0.00025  -0.00025   2.76876
   D38        1.29994  -0.00001   0.00000  -0.00027  -0.00027   1.29967
   D39       -1.31760  -0.00001   0.00000  -0.00024  -0.00024  -1.31784
   D40        0.70826   0.00001   0.00000   0.00003   0.00003   0.70829
   D41       -0.76080   0.00001   0.00000   0.00001   0.00001  -0.76080
   D42        2.90484   0.00001   0.00000   0.00004   0.00004   2.90488
   D43       -1.13482  -0.00001   0.00000  -0.00023  -0.00023  -1.13504
   D44       -2.60388  -0.00001   0.00000  -0.00025  -0.00025  -2.60413
   D45        1.06176  -0.00001   0.00000  -0.00022  -0.00022   1.06154
   D46        0.73210   0.00000   0.00000   0.00000   0.00000   0.73209
   D47       -0.81258   0.00000   0.00000  -0.00002  -0.00002  -0.81260
   D48        3.10760   0.00000   0.00000   0.00000   0.00000   3.10761
   D49       -0.76047   0.00000   0.00000  -0.00002  -0.00002  -0.76050
   D50        2.51542  -0.00001   0.00000   0.00034   0.00034   2.51576
   D51        0.78434   0.00001   0.00000   0.00009   0.00009   0.78443
   D52       -2.22294   0.00001   0.00000   0.00045   0.00045  -2.22250
   D53        2.92140   0.00001   0.00000   0.00001   0.00001   2.92142
   D54       -0.08588   0.00000   0.00000   0.00037   0.00037  -0.08551
   D55       -0.73210   0.00000   0.00000   0.00000   0.00000  -0.73209
   D56        0.81258   0.00000   0.00000   0.00002   0.00002   0.81260
   D57       -3.10761   0.00000   0.00000   0.00000   0.00000  -3.10761
   D58        0.76047   0.00000   0.00000   0.00002   0.00002   0.76050
   D59       -2.51542   0.00000   0.00000  -0.00034  -0.00034  -2.51576
   D60       -0.78434  -0.00002   0.00000  -0.00009  -0.00009  -0.78443
   D61        2.22295  -0.00001   0.00000  -0.00045  -0.00045   2.22250
   D62       -2.92140  -0.00001   0.00000  -0.00002  -0.00002  -2.92141
   D63        0.08589   0.00000   0.00000  -0.00038  -0.00038   0.08551
         Item               Value     Threshold  Converged?
 Maximum Force            0.000081     0.000450     YES
 RMS     Force            0.000018     0.000300     YES
 Maximum Displacement     0.000855     0.001800     YES
 RMS     Displacement     0.000198     0.001200     YES
 Predicted change in Energy=-9.124379D-08
 Optimization completed.
    -- Stationary point found.
                           ----------------------------
                           !   Optimized Parameters   !
                           ! (Angstroms and Degrees)  !
 --------------------------                            --------------------------
 ! Name  Definition              Value          Derivative Info.                !
 --------------------------------------------------------------------------------
 ! R1    R(1,2)                  1.5359         -DE/DX =    0.0                 !
 ! R2    R(1,10)                 1.0963         -DE/DX =    0.0                 !
 ! R3    R(1,11)                 1.0947         -DE/DX =    0.0                 !
 ! R4    R(1,12)                 1.0944         -DE/DX =    0.0                 !
 ! R5    R(2,3)                  1.5359         -DE/DX =    0.0                 !
 ! R6    R(2,4)                  1.5242         -DE/DX =    0.0001              !
 ! R7    R(2,13)                 1.0991         -DE/DX =    0.0                 !
 ! R8    R(3,14)                 1.0944         -DE/DX =    0.0                 !
 ! R9    R(3,15)                 1.0947         -DE/DX =    0.0                 !
 ! R10   R(3,16)                 1.0963         -DE/DX =    0.0                 !
 ! R11   R(4,5)                  1.5556         -DE/DX =    0.0                 !
 ! R12   R(4,7)                  1.5556         -DE/DX =    0.0                 !
 ! R13   R(4,17)                 1.0951         -DE/DX =    0.0                 !
 ! R14   R(5,6)                  1.4866         -DE/DX =    0.0                 !
 ! R15   R(5,8)                  1.5566         -DE/DX =   -0.0001              !
 ! R16   R(5,18)                 1.0879         -DE/DX =    0.0001              !
 ! R17   R(6,7)                  1.4866         -DE/DX =    0.0                 !
 ! R18   R(7,8)                  1.5566         -DE/DX =   -0.0001              !
 ! R19   R(7,19)                 1.0879         -DE/DX =    0.0001              !
 ! R20   R(8,9)                  1.1851         -DE/DX =    0.0001              !
 ! A1    A(2,1,10)             110.9371         -DE/DX =    0.0                 !
 ! A2    A(2,1,11)             111.6196         -DE/DX =    0.0                 !
 ! A3    A(2,1,12)             110.8869         -DE/DX =    0.0                 !
 ! A4    A(10,1,11)            107.777          -DE/DX =    0.0                 !
 ! A5    A(10,1,12)            107.6869         -DE/DX =    0.0                 !
 ! A6    A(11,1,12)            107.7657         -DE/DX =    0.0                 !
 ! A7    A(1,2,3)              111.356          -DE/DX =    0.0                 !
 ! A8    A(1,2,4)              110.5323         -DE/DX =    0.0                 !
 ! A9    A(1,2,13)             107.9606         -DE/DX =    0.0                 !
 ! A10   A(3,2,4)              110.5323         -DE/DX =    0.0                 !
 ! A11   A(3,2,13)             107.96           -DE/DX =    0.0                 !
 ! A12   A(4,2,13)             108.3807         -DE/DX =    0.0                 !
 ! A13   A(2,3,14)             110.8876         -DE/DX =    0.0                 !
 ! A14   A(2,3,15)             111.6196         -DE/DX =    0.0                 !
 ! A15   A(2,3,16)             110.937          -DE/DX =    0.0                 !
 ! A16   A(14,3,15)            107.7653         -DE/DX =    0.0                 !
 ! A17   A(14,3,16)            107.6867         -DE/DX =    0.0                 !
 ! A18   A(15,3,16)            107.7769         -DE/DX =    0.0                 !
 ! A19   A(2,4,5)              122.2433         -DE/DX =    0.0                 !
 ! A20   A(2,4,7)              122.2439         -DE/DX =    0.0                 !
 ! A21   A(2,4,17)             113.2395         -DE/DX =    0.0                 !
 ! A22   A(5,4,7)               73.4472         -DE/DX =    0.0                 !
 ! A23   A(5,4,17)             109.8236         -DE/DX =    0.0                 !
 ! A24   A(7,4,17)             109.8231         -DE/DX =    0.0                 !
 ! A25   A(4,5,6)               88.3504         -DE/DX =    0.0                 !
 ! A26   A(4,5,8)               88.3428         -DE/DX =    0.0                 !
 ! A27   A(4,5,18)             130.684          -DE/DX =    0.0                 !
 ! A28   A(6,5,8)               84.1284         -DE/DX =    0.0                 !
 ! A29   A(6,5,18)             117.5649         -DE/DX =    0.0                 !
 ! A30   A(8,5,18)             132.4639         -DE/DX =    0.0                 !
 ! A31   A(5,6,7)               77.4697         -DE/DX =    0.0                 !
 ! A32   A(4,7,6)               88.3502         -DE/DX =    0.0                 !
 ! A33   A(4,7,8)               88.3428         -DE/DX =    0.0                 !
 ! A34   A(4,7,19)             130.6842         -DE/DX =    0.0                 !
 ! A35   A(6,7,8)               84.1282         -DE/DX =    0.0                 !
 ! A36   A(6,7,19)             117.565          -DE/DX =    0.0                 !
 ! A37   A(8,7,19)             132.4638         -DE/DX =    0.0                 !
 ! A38   A(5,8,7)               73.3941         -DE/DX =    0.0                 !
 ! A39   A(5,8,9)              143.0545         -DE/DX =    0.0                 !
 ! A40   A(7,8,9)              143.0541         -DE/DX =    0.0                 !
 ! D1    D(10,1,2,3)            61.7943         -DE/DX =    0.0                 !
 ! D2    D(10,1,2,4)           -61.4757         -DE/DX =    0.0                 !
 ! D3    D(10,1,2,13)         -179.8596         -DE/DX =    0.0                 !
 ! D4    D(11,1,2,3)          -177.9892         -DE/DX =    0.0                 !
 ! D5    D(11,1,2,4)            58.7409         -DE/DX =    0.0                 !
 ! D6    D(11,1,2,13)          -59.643          -DE/DX =    0.0                 !
 ! D7    D(12,1,2,3)           -57.8212         -DE/DX =    0.0                 !
 ! D8    D(12,1,2,4)           178.9089         -DE/DX =    0.0                 !
 ! D9    D(12,1,2,13)           60.525          -DE/DX =    0.0                 !
 ! D10   D(1,2,3,14)            57.811          -DE/DX =    0.0                 !
 ! D11   D(1,2,3,15)           177.979          -DE/DX =    0.0                 !
 ! D12   D(1,2,3,16)           -61.8046         -DE/DX =    0.0                 !
 ! D13   D(4,2,3,14)          -178.919          -DE/DX =    0.0                 !
 ! D14   D(4,2,3,15)           -58.751          -DE/DX =    0.0                 !
 ! D15   D(4,2,3,16)            61.4654         -DE/DX =    0.0                 !
 ! D16   D(13,2,3,14)          -60.5355         -DE/DX =    0.0                 !
 ! D17   D(13,2,3,15)           59.6325         -DE/DX =    0.0                 !
 ! D18   D(13,2,3,16)          179.8489         -DE/DX =    0.0                 !
 ! D19   D(1,2,4,5)            -73.1344         -DE/DX =    0.0                 !
 ! D20   D(1,2,4,7)           -163.114          -DE/DX =    0.0                 !
 ! D21   D(1,2,4,17)            61.8758         -DE/DX =    0.0                 !
 ! D22   D(3,2,4,5)            163.1194         -DE/DX =    0.0                 !
 ! D23   D(3,2,4,7)             73.1399         -DE/DX =    0.0                 !
 ! D24   D(3,2,4,17)           -61.8703         -DE/DX =    0.0                 !
 ! D25   D(13,2,4,5)            44.9929         -DE/DX =    0.0                 !
 ! D26   D(13,2,4,7)           -44.9867         -DE/DX =    0.0                 !
 ! D27   D(13,2,4,17)         -179.9969         -DE/DX =    0.0                 !
 ! D28   D(2,4,5,6)           -158.6534         -DE/DX =    0.0                 !
 ! D29   D(2,4,5,8)            -74.4819         -DE/DX =    0.0                 !
 ! D30   D(2,4,5,18)            75.4917         -DE/DX =    0.0                 !
 ! D31   D(7,4,5,6)            -40.5807         -DE/DX =    0.0                 !
 ! D32   D(7,4,5,8)             43.5908         -DE/DX =    0.0                 !
 ! D33   D(7,4,5,18)          -166.4356         -DE/DX =    0.0                 !
 ! D34   D(17,4,5,6)            65.0194         -DE/DX =    0.0                 !
 ! D35   D(17,4,5,8)           149.1909         -DE/DX =    0.0                 !
 ! D36   D(17,4,5,18)          -60.8355         -DE/DX =    0.0                 !
 ! D37   D(2,4,7,6)            158.6524         -DE/DX =    0.0                 !
 ! D38   D(2,4,7,8)             74.4811         -DE/DX =    0.0                 !
 ! D39   D(2,4,7,19)           -75.4928         -DE/DX =    0.0                 !
 ! D40   D(5,4,7,6)             40.5805         -DE/DX =    0.0                 !
 ! D41   D(5,4,7,8)            -43.5908         -DE/DX =    0.0                 !
 ! D42   D(5,4,7,19)           166.4353         -DE/DX =    0.0                 !
 ! D43   D(17,4,7,6)           -65.0202         -DE/DX =    0.0                 !
 ! D44   D(17,4,7,8)          -149.1915         -DE/DX =    0.0                 !
 ! D45   D(17,4,7,19)           60.8346         -DE/DX =    0.0                 !
 ! D46   D(4,5,6,7)             41.946          -DE/DX =    0.0                 !
 ! D47   D(8,5,6,7)            -46.5571         -DE/DX =    0.0                 !
 ! D48   D(18,5,6,7)           178.0525         -DE/DX =    0.0                 !
 ! D49   D(4,5,8,7)            -43.5719         -DE/DX =    0.0                 !
 ! D50   D(4,5,8,9)            144.1232         -DE/DX =    0.0                 !
 ! D51   D(6,5,8,7)             44.9396         -DE/DX =    0.0                 !
 ! D52   D(6,5,8,9)           -127.3653         -DE/DX =    0.0                 !
 ! D53   D(18,5,8,7)           167.3842         -DE/DX =    0.0                 !
 ! D54   D(18,5,8,9)            -4.9207         -DE/DX =    0.0                 !
 ! D55   D(5,6,7,4)            -41.946          -DE/DX =    0.0                 !
 ! D56   D(5,6,7,8)             46.5572         -DE/DX =    0.0                 !
 ! D57   D(5,6,7,19)          -178.0527         -DE/DX =    0.0                 !
 ! D58   D(4,7,8,5)             43.572          -DE/DX =    0.0                 !
 ! D59   D(4,7,8,9)           -144.1231         -DE/DX =    0.0                 !
 ! D60   D(6,7,8,5)            -44.9393         -DE/DX =    0.0                 !
 ! D61   D(6,7,8,9)            127.3656         -DE/DX =    0.0                 !
 ! D62   D(19,7,8,5)          -167.3837         -DE/DX =    0.0                 !
 ! D63   D(19,7,8,9)             4.9212         -DE/DX =    0.0                 !
 --------------------------------------------------------------------------------
 GradGradGradGradGradGradGradGradGradGradGradGradGradGradGradGradGradGrad

                          Input orientation:                          
 ---------------------------------------------------------------------
 Center     Atomic      Atomic             Coordinates (Angstroms)
 Number     Number       Type             X           Y           Z
 ---------------------------------------------------------------------
      1          6           0       -1.653329   -3.574278    1.636268
      2          6           0       -0.770557   -2.367595    1.988052
      3          6           0       -0.520702   -2.279490    3.500974
      4          6           0       -1.398904   -1.077565    1.473959
      5          6           0       -1.417349   -0.708072   -0.037040
      6          8           0       -1.606567    0.712872    0.356800
      7          6           0       -0.586736    0.241421    1.330296
      8          6           0        0.098135   -0.370281    0.073409
      9          8           0        1.124711   -0.418548   -0.516680
     10          1           0       -2.639715   -3.488509    2.106902
     11          1           0       -1.805061   -3.661641    0.555626
     12          1           0       -1.197975   -4.505979    1.985934
     13          1           0        0.200701   -2.501942    1.491403
     14          1           0       -0.051931   -3.195736    3.873041
     15          1           0        0.137194   -1.441580    3.753013
     16          1           0       -1.461826   -2.141814    4.046086
     17          1           0       -2.376156   -0.865209    1.920156
     18          1           0       -2.027197   -1.089801   -0.853089
     19          1           0       -0.243924    0.948704    2.082490
 ---------------------------------------------------------------------
                    Distance matrix (angstroms):
                    1          2          3          4          5
     1  C    0.000000
     2  C    1.535943   0.000000
     3  C    2.537015   1.535944   0.000000
     4  C    2.514886   1.524235   2.514887   0.000000
     5  C    3.327278   2.696916   3.973773   1.555629   0.000000
     6  O    4.474246   3.584574   4.474278   2.120573   1.486605
     7  C    3.973763   2.696924   3.327341   1.555628   1.860393
     8  C    3.971870   2.899957   3.971932   2.168621   1.556597
     9  O    4.723486   3.696554   4.723562   3.281094   2.603065
    10  H    1.096271   2.182733   2.809872   2.784400   3.717728
    11  H    1.094734   2.190114   3.497856   2.772319   3.037292
    12  H    1.094387   2.180682   2.776922   3.472250   4.308672
    13  H    2.146699   1.099115   2.146692   2.141937   2.858705
    14  H    2.776855   2.180694   1.094389   3.472259   4.831312
    15  H    3.497854   2.190115   1.094735   2.772399   4.161628
    16  H    2.809955   2.182735   1.096273   2.784318   4.327761
    17  H    2.818178   2.199937   2.818135   1.095083   2.185090
    18  H    3.536849   3.359164   4.758440   2.410404   1.087918
    19  H    4.758455   3.359182   3.536939   2.410405   2.935003
                    6          7          8          9         10
     6  O    0.000000
     7  C    1.486612   0.000000
     8  C    2.039495   1.556596   0.000000
     9  O    3.082687   2.603061   1.185071   0.000000
    10  H    4.667103   4.327842   4.621067   5.520756   0.000000
    11  H    4.383525   4.161529   3.832459   4.500117   1.770051
    12  H    5.482466   4.831282   4.737262   5.325884   1.768755
    13  H    3.858571   2.858680   2.562266   3.037552   3.069221
    14  H    5.482523   4.308784   4.737396   5.326060   3.146680
    15  H    4.383678   3.037454   3.832584   4.500230   3.822411
    16  H    4.667013   3.717675   4.621036   5.520748   2.638454
    17  H    2.350891   2.185083   3.126907   4.288793   2.643112
    18  H    2.211422   2.935004   2.427579   3.240104   3.858824
    19  H    2.211429   1.087918   2.427578   3.240097   5.042744
                   11         12         13         14         15
    11  H    0.000000
    12  H    1.768401   0.000000
    13  H    2.498732   2.493395   0.000000
    14  H    3.780976   2.567358   2.493466   0.000000
    15  H    4.350209   3.780977   2.498656   1.768400   0.000000
    16  H    3.822433   3.146922   3.069217   1.768757   1.770052
    17  H    3.163563   3.827225   3.082681   3.827158   3.163621
    18  H    2.940779   4.518621   3.529067   5.538316   5.101422
    19  H    5.101347   5.538330   3.529027   4.518773   2.940979
                   16         17         18         19
    16  H    0.000000
    17  H    2.642972   0.000000
    18  H    5.042647   2.804122   0.000000
    19  H    3.858794   2.804112   3.994144   0.000000
 Stoichiometry    C7H10O2
 Framework group  C1[X(C7H10O2)]
 Deg. of freedom    51
 Full point group                 C1      NOp   1
 Largest Abelian subgroup         C1      NOp   1
 Largest concise Abelian subgroup C1      NOp   1
                         Standard orientation:                         
 ---------------------------------------------------------------------
 Center     Atomic      Atomic             Coordinates (Angstroms)
 Number     Number       Type             X           Y           Z
 ---------------------------------------------------------------------
      1          6           0       -2.253564    0.142895    1.268467
      2          6           0       -1.405422    0.317279   -0.000140
      3          6           0       -2.253636    0.141780   -1.268548
      4          6           0       -0.235745   -0.660036    0.000256
      5          6           0        0.997789   -0.477736    0.930386
      6          8           0        1.772523   -1.340983    0.000555
      7          6           0        0.997801   -0.478501   -0.930007
      8          6           0        1.472227    0.676283   -0.000282
      9          8           0        2.009460    1.732584   -0.000718
     10          1           0       -2.679051   -0.866144    1.319597
     11          1           0       -1.660806    0.302010    2.174979
     12          1           0       -3.084290    0.855183    1.283386
     13          1           0       -1.002605    1.339918   -0.000608
     14          1           0       -3.084472    0.853932   -1.283971
     15          1           0       -1.660969    0.300273   -2.175229
     16          1           0       -2.678976   -0.867363   -1.318857
     17          1           0       -0.549343   -1.709257    0.000678
     18          1           0        1.113960   -0.655748    1.997336
     19          1           0        1.113990   -0.657393   -1.996807
 ---------------------------------------------------------------------
 Rotational constants (GHZ):      2.6996633      1.1583467      1.1084944
 1\1\GINC-ALCHEMY-N\FOpt\RB3LYP\6-31G(2df,p)\C7H10O2\PUCK\27-Jan-2020\0
 \\# b3lyp 6-31G(2df,p) opt Freq\\titel\\0,1\C,-1.6533289055,-3.5742775
 237,1.6362682183\C,-0.7705572928,-2.3675953756,1.9880520799\C,-0.52070
 24187,-2.2794900591,3.5009741333\C,-1.3989044753,-1.0775645915,1.47395
 85185\C,-1.4173488989,-0.7080719573,-0.0370401836\O,-1.6065668622,0.71
 28715259,0.3567996506\C,-0.5867356652,0.2414206639,1.3302957124\C,0.09
 81351062,-0.3702812254,0.0734087688\O,1.124710932,-0.4185482181,-0.516
 6802227\H,-2.6397154071,-3.4885088121,2.1069022883\H,-1.8050608473,-3.
 6616413622,0.5556256745\H,-1.1979747272,-4.5059793232,1.9859342283\H,0
 .2007012692,-2.5019421933,1.4914027774\H,-0.05193068,-3.1957358177,3.8
 730412276\H,0.1371941895,-1.4415800798,3.7530133091\H,-1.4618261965,-2
 .1418141936,4.0460857348\H,-2.3761560689,-0.865208631,1.9201558677\H,-
 2.0271965332,-1.0898009105,-0.8530886551\H,-0.2439244182,0.9487037443,
 2.0824903719\\Version=ES64L-G09RevD.01\State=1-A\HF=-423.1287591\RMSD=
 8.788e-09\RMSF=5.367e-05\Dipole=-0.5654778,-0.6749171,0.8121828\Quadru
 pole=-1.6385112,0.6010417,1.0374695,0.7789217,3.2925958,2.3538314\PG=C
 01 [X(C7H10O2)]\\@


 If your ship doesn't come in, swim out to it!
                          -- Jonathan Winters
 Job cpu time:       0 days  0 hours  6 minutes 18.5 seconds.
 File lengths (MBytes):  RWF=     52 Int=      0 D2E=      0 Chk=      7 Scr=      1
 Normal termination of Gaussian 09 at Mon Jan 27 15:35:45 2020.
 Link1:  Proceeding to internal job step number  2.
 ----------------------------------------------------------------------
 #N Geom=AllCheck Guess=TCheck SCRF=Check GenChk RB3LYP/6-31G(2df,p) Fr
 eq
 ----------------------------------------------------------------------
 1/10=4,29=7,30=1,38=1,40=1/1,3;
 2/12=2,40=1/2;
 3/5=1,6=6,7=104,11=2,14=-4,16=1,25=1,30=1,70=2,71=2,74=-5,116=1,140=1/1,2,3;
 4/5=101/1;
 5/5=2,98=1/2;
 8/6=4,10=90,11=11/1;
 11/6=1,8=1,9=11,15=111,16=1/1,2,10;
 10/6=1/2;
 6/7=2,8=2,9=2,10=2,18=1,28=1/1;
 7/8=1,10=1,25=1/1,2,3,16;
 1/10=4,30=1/3;
 99//99;
 Structure from the checkpoint file:  "/scratch/puck/g09_a3743778-b0f1-4e4f-ae26-75ed80f2f6af/Gau-55396.chk"
 -----
 titel
 -----
 Charge =  0 Multiplicity = 1
 Redundant internal coordinates found in file.
 C,0,-1.6533289055,-3.5742775237,1.6362682183
 C,0,-0.7705572928,-2.3675953756,1.9880520799
 C,0,-0.5207024187,-2.2794900591,3.5009741333
 C,0,-1.3989044753,-1.0775645915,1.4739585185
 C,0,-1.4173488989,-0.7080719573,-0.0370401836
 O,0,-1.6065668622,0.7128715259,0.3567996506
 C,0,-0.5867356652,0.2414206639,1.3302957124
 C,0,0.0981351062,-0.3702812254,0.0734087688
 O,0,1.124710932,-0.4185482181,-0.5166802227
 H,0,-2.6397154071,-3.4885088121,2.1069022883
 H,0,-1.8050608473,-3.6616413622,0.5556256745
 H,0,-1.1979747272,-4.5059793232,1.9859342283
 H,0,0.2007012692,-2.5019421933,1.4914027774
 H,0,-0.05193068,-3.1957358177,3.8730412276
 H,0,0.1371941895,-1.4415800798,3.7530133091
 H,0,-1.4618261965,-2.1418141936,4.0460857348
 H,0,-2.3761560689,-0.865208631,1.9201558677
 H,0,-2.0271965332,-1.0898009105,-0.8530886551
 H,0,-0.2439244182,0.9487037443,2.0824903719
 Recover connectivity data from disk.

 GradGradGradGradGradGradGradGradGradGradGradGradGradGradGradGradGradGrad
 Berny optimization.
 Initialization pass.
                           ----------------------------
                           !    Initial Parameters    !
                           ! (Angstroms and Degrees)  !
 --------------------------                            --------------------------
 ! Name  Definition              Value          Derivative Info.                !
 --------------------------------------------------------------------------------
 ! R1    R(1,2)                  1.5359         calculate D2E/DX2 analytically  !
 ! R2    R(1,10)                 1.0963         calculate D2E/DX2 analytically  !
 ! R3    R(1,11)                 1.0947         calculate D2E/DX2 analytically  !
 ! R4    R(1,12)                 1.0944         calculate D2E/DX2 analytically  !
 ! R5    R(2,3)                  1.5359         calculate D2E/DX2 analytically  !
 ! R6    R(2,4)                  1.5242         calculate D2E/DX2 analytically  !
 ! R7    R(2,13)                 1.0991         calculate D2E/DX2 analytically  !
 ! R8    R(3,14)                 1.0944         calculate D2E/DX2 analytically  !
 ! R9    R(3,15)                 1.0947         calculate D2E/DX2 analytically  !
 ! R10   R(3,16)                 1.0963         calculate D2E/DX2 analytically  !
 ! R11   R(4,5)                  1.5556         calculate D2E/DX2 analytically  !
 ! R12   R(4,7)                  1.5556         calculate D2E/DX2 analytically  !
 ! R13   R(4,17)                 1.0951         calculate D2E/DX2 analytically  !
 ! R14   R(5,6)                  1.4866         calculate D2E/DX2 analytically  !
 ! R15   R(5,8)                  1.5566         calculate D2E/DX2 analytically  !
 ! R16   R(5,18)                 1.0879         calculate D2E/DX2 analytically  !
 ! R17   R(6,7)                  1.4866         calculate D2E/DX2 analytically  !
 ! R18   R(7,8)                  1.5566         calculate D2E/DX2 analytically  !
 ! R19   R(7,19)                 1.0879         calculate D2E/DX2 analytically  !
 ! R20   R(8,9)                  1.1851         calculate D2E/DX2 analytically  !
 ! A1    A(2,1,10)             110.9371         calculate D2E/DX2 analytically  !
 ! A2    A(2,1,11)             111.6196         calculate D2E/DX2 analytically  !
 ! A3    A(2,1,12)             110.8869         calculate D2E/DX2 analytically  !
 ! A4    A(10,1,11)            107.777          calculate D2E/DX2 analytically  !
 ! A5    A(10,1,12)            107.6869         calculate D2E/DX2 analytically  !
 ! A6    A(11,1,12)            107.7657         calculate D2E/DX2 analytically  !
 ! A7    A(1,2,3)              111.356          calculate D2E/DX2 analytically  !
 ! A8    A(1,2,4)              110.5323         calculate D2E/DX2 analytically  !
 ! A9    A(1,2,13)             107.9606         calculate D2E/DX2 analytically  !
 ! A10   A(3,2,4)              110.5323         calculate D2E/DX2 analytically  !
 ! A11   A(3,2,13)             107.96           calculate D2E/DX2 analytically  !
 ! A12   A(4,2,13)             108.3807         calculate D2E/DX2 analytically  !
 ! A13   A(2,3,14)             110.8876         calculate D2E/DX2 analytically  !
 ! A14   A(2,3,15)             111.6196         calculate D2E/DX2 analytically  !
 ! A15   A(2,3,16)             110.937          calculate D2E/DX2 analytically  !
 ! A16   A(14,3,15)            107.7653         calculate D2E/DX2 analytically  !
 ! A17   A(14,3,16)            107.6867         calculate D2E/DX2 analytically  !
 ! A18   A(15,3,16)            107.7769         calculate D2E/DX2 analytically  !
 ! A19   A(2,4,5)              122.2433         calculate D2E/DX2 analytically  !
 ! A20   A(2,4,7)              122.2439         calculate D2E/DX2 analytically  !
 ! A21   A(2,4,17)             113.2395         calculate D2E/DX2 analytically  !
 ! A22   A(5,4,7)               73.4472         calculate D2E/DX2 analytically  !
 ! A23   A(5,4,17)             109.8236         calculate D2E/DX2 analytically  !
 ! A24   A(7,4,17)             109.8231         calculate D2E/DX2 analytically  !
 ! A25   A(4,5,6)               88.3504         calculate D2E/DX2 analytically  !
 ! A26   A(4,5,8)               88.3428         calculate D2E/DX2 analytically  !
 ! A27   A(4,5,18)             130.684          calculate D2E/DX2 analytically  !
 ! A28   A(6,5,8)               84.1284         calculate D2E/DX2 analytically  !
 ! A29   A(6,5,18)             117.5649         calculate D2E/DX2 analytically  !
 ! A30   A(8,5,18)             132.4639         calculate D2E/DX2 analytically  !
 ! A31   A(5,6,7)               77.4697         calculate D2E/DX2 analytically  !
 ! A32   A(4,7,6)               88.3502         calculate D2E/DX2 analytically  !
 ! A33   A(4,7,8)               88.3428         calculate D2E/DX2 analytically  !
 ! A34   A(4,7,19)             130.6842         calculate D2E/DX2 analytically  !
 ! A35   A(6,7,8)               84.1282         calculate D2E/DX2 analytically  !
 ! A36   A(6,7,19)             117.565          calculate D2E/DX2 analytically  !
 ! A37   A(8,7,19)             132.4638         calculate D2E/DX2 analytically  !
 ! A38   A(5,8,7)               73.3941         calculate D2E/DX2 analytically  !
 ! A39   A(5,8,9)              143.0545         calculate D2E/DX2 analytically  !
 ! A40   A(7,8,9)              143.0541         calculate D2E/DX2 analytically  !
 ! D1    D(10,1,2,3)            61.7943         calculate D2E/DX2 analytically  !
 ! D2    D(10,1,2,4)           -61.4757         calculate D2E/DX2 analytically  !
 ! D3    D(10,1,2,13)         -179.8596         calculate D2E/DX2 analytically  !
 ! D4    D(11,1,2,3)          -177.9892         calculate D2E/DX2 analytically  !
 ! D5    D(11,1,2,4)            58.7409         calculate D2E/DX2 analytically  !
 ! D6    D(11,1,2,13)          -59.643          calculate D2E/DX2 analytically  !
 ! D7    D(12,1,2,3)           -57.8212         calculate D2E/DX2 analytically  !
 ! D8    D(12,1,2,4)           178.9089         calculate D2E/DX2 analytically  !
 ! D9    D(12,1,2,13)           60.525          calculate D2E/DX2 analytically  !
 ! D10   D(1,2,3,14)            57.811          calculate D2E/DX2 analytically  !
 ! D11   D(1,2,3,15)           177.979          calculate D2E/DX2 analytically  !
 ! D12   D(1,2,3,16)           -61.8046         calculate D2E/DX2 analytically  !
 ! D13   D(4,2,3,14)          -178.919          calculate D2E/DX2 analytically  !
 ! D14   D(4,2,3,15)           -58.751          calculate D2E/DX2 analytically  !
 ! D15   D(4,2,3,16)            61.4654         calculate D2E/DX2 analytically  !
 ! D16   D(13,2,3,14)          -60.5355         calculate D2E/DX2 analytically  !
 ! D17   D(13,2,3,15)           59.6325         calculate D2E/DX2 analytically  !
 ! D18   D(13,2,3,16)          179.8489         calculate D2E/DX2 analytically  !
 ! D19   D(1,2,4,5)            -73.1344         calculate D2E/DX2 analytically  !
 ! D20   D(1,2,4,7)           -163.114          calculate D2E/DX2 analytically  !
 ! D21   D(1,2,4,17)            61.8758         calculate D2E/DX2 analytically  !
 ! D22   D(3,2,4,5)            163.1194         calculate D2E/DX2 analytically  !
 ! D23   D(3,2,4,7)             73.1399         calculate D2E/DX2 analytically  !
 ! D24   D(3,2,4,17)           -61.8703         calculate D2E/DX2 analytically  !
 ! D25   D(13,2,4,5)            44.9929         calculate D2E/DX2 analytically  !
 ! D26   D(13,2,4,7)           -44.9867         calculate D2E/DX2 analytically  !
 ! D27   D(13,2,4,17)         -179.9969         calculate D2E/DX2 analytically  !
[...]
 86368,-0.10832996,0.04269282,-0.01265067,-0.00299004,0.00451943,-0.005
 84569,0.55135779,0.00759747,-0.03431289,0.00803447,0.03896598,-0.15207
 393,0.02613129,0.00071960,0.00134725,0.00704839,-0.05837513,0.47563363
 ,0.00468046,-0.00450133,0.00308603,-0.01006105,0.02386699,-0.09080743,
 -0.01762810,0.03267806,-0.01875708,-0.11127213,-0.08548862,0.42841362,
 0.00002716,-0.00020175,0.00067555,-0.00314098,-0.00178742,-0.01029071,
 -0.00140846,0.00224502,-0.00007705,-0.06649465,0.00453167,-0.00486872,
 0.41873595,0.00043743,0.00071085,0.00119861,0.00053963,-0.00347885,0.0
 1799267,0.00047930,-0.00247699,-0.00039603,-0.00578652,-0.04227415,0.0
 2332618,0.10649907,0.32578900,0.00084365,0.00031438,0.00166715,-0.0030
 9653,0.00262472,-0.00233652,0.00005919,-0.00020056,0.00098594,0.007320
 63,0.00918691,-0.13934195,0.18770751,0.13172963,0.55410777,-0.00025260
 ,0.00069846,-0.00081438,0.00483849,0.00016636,0.00237419,0.00059647,-0
 .00082595,0.00002308,0.00984907,-0.00297020,-0.00965540,-0.05662745,0.
 02018934,-0.01269390,0.19958730,0.00111475,0.00014235,0.00074156,-0.00
 472980,0.00022508,0.00892326,0.00072741,-0.00315314,-0.00053676,0.0384
 6218,-0.08998316,0.03256428,0.01713763,-0.13123141,0.00317286,-0.11066
 599,0.32444888,-0.00210270,0.00158482,-0.00160614,0.00577448,0.0059485
 4,0.00129868,-0.00005645,-0.00018339,0.00084016,-0.03842688,0.05773385
 ,-0.02618876,0.00676421,-0.03466305,-0.04820234,0.06433806,-0.03376973
 ,0.16336588,-0.00151683,0.00213869,-0.00119248,0.00892711,0.00910978,0
 .00200926,0.00066381,0.00094932,0.00107147,-0.08374104,-0.03157696,0.0
 0942817,-0.02592051,-0.03562815,-0.06272916,-0.08579682,0.00986599,-0.
 03225390,0.33000701,0.00202259,-0.00069266,0.00107395,-0.00618662,-0.0
 1447990,-0.00172910,0.00029454,0.00103110,0.00021795,-0.05083159,-0.11
 251055,-0.00202690,-0.04199536,-0.03244991,-0.07964748,0.04954022,-0.0
 6786446,0.02394756,0.11482771,0.46077179,-0.00002220,-0.00026487,-0.00
 068994,0.00382114,0.00576101,-0.00340293,0.00091432,0.00109198,0.00070
 970,0.01777433,-0.00585140,-0.05186139,-0.06704276,-0.07409607,-0.0843
 0588,-0.04246474,0.01206572,-0.08239272,0.10062759,0.21286274,0.507850
 61,-0.00150973,0.00068057,0.00028041,0.00449443,-0.00334714,-0.0020934
 6,-0.00113397,0.00188061,0.00012423,-0.03746231,-0.00988446,0.04073713
 ,-0.09695504,-0.02308527,-0.00542536,-0.08088454,0.05837153,-0.0043378
 7,-0.03222395,-0.02404183,0.00953437,0.89887789,0.00055546,-0.00085094
 ,0.00007091,-0.00418412,0.00073086,0.00010503,0.00098149,0.00051693,-0
 .00011295,-0.04166581,0.00948776,0.03142948,-0.04411067,-0.04066830,0.
 00522366,0.06978995,-0.05220556,-0.02093427,0.00229461,-0.07330421,-0.
 02309305,-0.00356995,0.24371986,0.00070017,-0.00080369,0.00123849,-0.0
 0151227,-0.00040335,-0.00157954,0.00041561,0.00013930,-0.00050520,0.06
 280623,0.01212380,-0.02827205,-0.03583902,0.01316188,-0.06714023,-0.01
 226722,-0.01399805,-0.00412810,0.03626044,-0.02780599,-0.09923405,-0.3
 6294547,0.03939080,0.49044509,0.00087991,-0.00054452,0.00003521,-0.002
 67918,0.00245665,0.00040578,0.00071825,-0.00102160,-0.00011708,-0.0059
 1030,0.00340537,-0.00026479,-0.02515809,-0.00729671,0.01201679,0.00384
 838,0.00030007,0.00497453,-0.01085229,0.01078500,0.02366982,-0.6727613
 8,0.01719988,0.33518197,0.71842800,-0.00035944,0.00033370,-0.00000348,
 0.00153254,-0.00127831,0.00051044,-0.00040685,-0.00005469,0.00004830,0
 .00848573,-0.00374105,-0.00426066,0.00538420,0.01349175,-0.00098170,-0
 .01101898,0.01040913,0.00806243,0.00783564,0.01826923,-0.01054685,0.01
 446612,-0.07526198,-0.02688813,-0.02553972,0.03551077,-0.00042887,0.00
 037998,-0.00042907,0.00104757,-0.00005108,0.00019633,-0.00020835,0.000
 15076,0.00012091,-0.00379266,-0.00117428,0.00066608,0.01431169,-0.0044
 0506,0.01606724,0.01283452,0.00118663,0.00375964,0.01461766,-0.0012121
 6,-0.00301645,0.33708003,-0.02854870,-0.28626690,-0.38247741,0.0322453
 8,0.26955382,-0.25362948,0.02155293,0.10045968,-0.01894380,0.00102456,
 0.00849402,0.00056408,0.00084449,0.00103339,0.00029147,0.00156630,-0.0
 0030670,0.00002088,-0.00010473,-0.00015143,0.00002394,-0.00036038,0.00
 019249,0.00037251,-0.00007781,-0.00011202,-0.00017600,0.00045915,-0.00
 011967,0.00025190,-0.00018165,-0.00006297,0.27830247,0.02200746,-0.049
 23594,-0.01059348,-0.02489968,0.00122091,0.01209869,0.00043492,0.00096
 918,0.00125160,-0.00123951,0.00206842,0.00060337,-0.00001311,-0.000121
 27,0.00002178,0.00017475,-0.00019739,-0.00000596,0.00018007,0.00005042
 ,0.00006233,-0.00022294,0.00036481,-0.00020610,0.00024844,-0.00015402,
 -0.00002483,-0.02045202,0.05239238,0.10077899,-0.01040145,-0.09648367,
 -0.00712972,0.00110116,0.00246692,-0.00090818,0.00047471,0.00119244,0.
 00048658,0.00008942,-0.00004478,0.00006709,-0.00005910,-0.00008858,-0.
 00003017,0.00012538,-0.00002194,-0.00021834,0.00011299,0.00008133,-0.0
 0002075,-0.00020313,-0.00010730,-0.00010143,0.00005485,0.00009459,-0.1
 1094220,0.01231163,0.10065777,-0.05130132,-0.00220075,-0.03273402,-0.0
 0316724,-0.00037097,-0.01975303,-0.00217742,-0.00359624,0.00008835,0.0
 0028389,0.00094081,0.00003222,0.00041555,-0.00015068,0.00020397,-0.000
 07346,0.00001500,0.00017502,-0.00013853,0.00014604,0.00003863,0.000097
 15,-0.00023087,-0.00023512,-0.00013798,0.00009011,0.00012827,0.0046968
 9,0.00165158,0.02932287,0.05276317,-0.00216046,-0.04844867,-0.01671538
 ,-0.00190734,-0.00207392,-0.02657176,-0.00322136,-0.00454689,0.0001138
 7,0.00021261,0.00137694,-0.00134172,0.00007817,-0.00055317,0.00042112,
 0.00024847,0.00023504,0.00021167,-0.00007833,0.00042871,0.00015082,-0.
 00058648,-0.00012592,0.00004138,0.00030253,0.00002516,-0.00007663,-0.0
 0025618,-0.00122250,-0.00328836,0.00498068,0.05124780,-0.03360701,-0.0
 1790621,-0.30349629,-0.00006105,0.00023540,-0.00594899,-0.00141608,-0.
 00172088,0.00105062,-0.00009838,0.00061559,-0.00012856,0.00002237,-0.0
 0056063,-0.00012828,0.00025864,-0.00001156,0.00044629,0.00000322,0.000
 19618,0.00019352,-0.00024011,-0.00013987,-0.00017962,0.00009401,0.0000
 4211,0.00006101,-0.00225307,-0.00031238,-0.01305737,0.03800573,0.02025
 695,0.32984621,-0.09481208,0.09678613,-0.03662257,0.00822440,-0.018382
 34,0.00647935,0.00068073,0.00016599,0.00082646,-0.00286790,-0.00250465
 ,-0.00155124,-0.00008538,-0.00006498,-0.00017063,0.00013438,-0.0003627
 4,0.00067864,0.00080969,-0.00055003,-0.00005859,0.00024583,0.00001278,
 -0.00028439,-0.00009074,0.00002768,0.00008139,-0.01198186,0.02423029,-
 0.01052430,-0.00233321,0.00252890,-0.00050537,0.10093649,0.09532445,-0
 .23331001,0.07164226,0.01163314,-0.02245550,0.00822439,0.00115518,0.00
 081395,0.00109054,-0.00545446,-0.00280929,-0.00182995,-0.00005299,0.00
 006454,-0.00050510,0.00031078,-0.00062507,0.00092743,0.00096937,-0.000
 03204,-0.00002325,0.00069322,-0.00022199,-0.00061244,-0.00052298,0.000
 12890,0.00034663,0.00083434,-0.00198664,0.00061409,-0.00143812,0.00256
 354,-0.00087136,-0.10249810,0.25612776,-0.03659477,0.07259833,-0.07457
 433,0.00375002,-0.00666609,0.00111238,0.00067812,-0.00078153,0.0008142
 7,-0.00096197,-0.00126143,-0.00032203,-0.00004107,-0.00043081,-0.00002
 276,0.00028594,-0.00002427,0.00037529,0.00002514,0.00009394,0.00045833
 ,-0.00033848,-0.00013805,-0.00002708,0.00015894,0.00002452,-0.00001919
 ,0.00616966,-0.01314270,0.00447573,-0.01410424,0.02747803,-0.00966122,
 0.04114276,-0.07853465,0.07721706,-0.01871231,0.00044378,0.00816058,-0
 .23901619,0.02819697,0.09760927,0.00491567,-0.00074295,-0.00295944,-0.
 01442036,0.00300230,0.00616305,-0.00064733,-0.00054869,0.00025845,0.00
 083783,-0.00039898,-0.00036603,0.00042332,-0.00030361,0.00053266,-0.00
 079722,0.00207629,-0.00028793,0.00097657,-0.00116408,-0.00000708,-0.00
 102676,-0.00337306,-0.00133332,0.00046339,0.00039704,-0.00044369,0.000
 97599,-0.00010578,0.00011266,0.26364671,-0.02574533,0.00105222,0.01149
 990,0.02801448,-0.05261768,-0.01247281,0.00132853,-0.00023242,-0.00111
 040,0.02748709,-0.00505265,-0.01377097,0.00023139,0.00097795,-0.000201
 12,-0.00132813,0.00053350,0.00028279,0.00066179,0.00035196,-0.00119378
 ,0.00099847,-0.00168363,0.00132789,-0.00115843,0.00016241,0.00033682,-
 0.00365917,-0.00401604,-0.00122331,0.00085819,0.00106241,-0.00010571,0
 .00068955,0.00098638,0.00051613,-0.02971099,0.06189792,-0.00725083,0.0
 0024811,0.00319722,0.09773510,-0.01258385,-0.09670409,0.02919853,-0.00
 450836,-0.01914687,-0.01083741,0.00109970,0.00497770,-0.00082015,-0.00
 005723,0.00051770,0.00027917,-0.00028148,-0.00019493,0.00039814,-0.000
 27568,0.00007328,0.00046071,0.00067264,0.00035502,-0.00001084,0.000340
 26,-0.00059550,-0.00137327,-0.00132397,0.00051964,0.00001985,0.0005639
 1,0.00058086,0.00041339,0.00031386,0.00000357,-0.10552385,0.01391372,0
 .11038223,-0.00009709,0.00077226,0.00023111,-0.00293083,0.00342114,-0.
 00077079,-0.09543618,0.09509644,-0.03705052,0.00048897,-0.00043016,-0.
 00137446,0.00040309,0.00005014,0.00029067,-0.00001590,0.00034849,0.000
 12203,-0.00019134,-0.00000416,-0.00017208,-0.00014098,-0.00002349,-0.0
 0019527,0.00013758,0.00000824,-0.00000073,-0.00007949,0.00005977,-0.00
 009219,0.00009619,-0.00024232,0.00019436,0.00006861,-0.00048394,-0.000
 28898,0.00043962,-0.00051192,-0.00009662,0.09964101,-0.00026509,0.0009
 0103,-0.00046479,-0.00188812,0.00159122,-0.00132967,0.09558533,-0.2340
 4281,0.07287070,-0.00073666,0.00056804,-0.00017892,0.00018625,0.000290
 42,-0.00014759,0.00007271,0.00011217,0.00018196,-0.00005167,0.00027394
 ,-0.00030511,0.00038304,-0.00011248,-0.00029304,-0.00030555,0.00005684
 ,0.00018094,-0.00002402,-0.00003199,0.00000569,-0.00005006,0.00021533,
 0.00006530,0.00023423,0.00033365,0.00005398,-0.00021765,0.00018498,0.0
 0055561,-0.10475631,0.25256609,0.00041238,0.00137807,0.00150584,-0.015
 19063,0.02856769,-0.01177742,-0.03640347,0.07132579,-0.07322158,0.0002
 9775,-0.00272524,-0.00705632,-0.00094251,0.00074113,0.00054276,0.00023
 851,0.00137541,-0.00021182,-0.00027703,-0.00040100,-0.00012634,-0.0008
 9596,-0.00010720,0.00025027,0.00052199,-0.00002206,-0.00017547,-0.0000
 4318,-0.00019813,-0.00003148,0.00047260,-0.00008408,0.00023745,-0.0001
 6459,-0.00098650,0.00001350,0.00055210,0.00004860,0.00134090,0.0415698
 5,-0.07944929,0.08207776,0.00063239,0.00051835,-0.00143720,-0.00356976
 ,-0.00237499,-0.00010376,-0.14234427,-0.12125073,-0.03431770,-0.000174
 11,-0.00082225,0.00020059,0.00019103,0.00003892,0.00022369,0.00003099,
 0.00031889,0.00030536,-0.00013121,0.00015131,-0.00052928,0.00031359,-0
 .00018345,-0.00032150,-0.00022394,0.00008195,0.00016828,0.00048948,0.0
 0027821,0.00017102,0.00018643,-0.00052541,-0.00009399,-0.00000690,-0.0
 0022566,0.00008809,0.00059909,0.00034107,-0.00028093,0.00895016,0.0113
 0889,0.00373398,0.15121817,0.00047265,0.00070777,-0.00083749,0.0003202
 9,-0.00129312,0.00031419,-0.12137353,-0.20183689,-0.04349066,0.0005009
 5,0.00028873,0.00018730,0.00007706,0.00005333,-0.00000175,0.00012836,0
 .00030857,-0.00003349,-0.00033815,0.00003057,-0.00007368,-0.00032728,-
 0.00005840,-0.00003814,0.00020266,0.00001413,-0.00003333,-0.00004792,-
 0.00001968,0.00010959,-0.00039329,0.00013783,-0.00005062,0.00006571,0.
 00050158,0.00017786,0.00021242,0.00008325,-0.00033835,-0.01717845,-0.0
 2012832,-0.00580429,0.13400850,0.21757588,-0.00016258,0.00119815,-0.00
 701391,-0.02060564,-0.02578657,-0.00632655,-0.03338672,-0.04235037,-0.
 05906575,-0.00008160,-0.00140629,0.00141669,0.00038839,-0.00016000,0.0
 0023925,0.00019196,0.00021598,0.00026812,-0.00016670,0.00074867,-0.000
 16558,0.00003013,-0.00016037,-0.00046354,-0.00002866,0.00005030,0.0001
 5805,-0.00019073,0.00017643,0.00004259,-0.00143644,-0.00180297,-0.0004
 9033,0.00029763,0.00008852,0.00005428,0.00059211,-0.00002709,0.0014244
 7,0.00716496,0.00765074,0.00174726,0.03860439,0.04812079,0.06506508,0.
 00103490,0.00009550,-0.00024080,0.00441697,-0.00091182,-0.00238037,-0.
 24113410,0.02802799,0.10805810,0.00056237,0.00010256,-0.00019738,0.000
 33512,-0.00008708,-0.00006734,-0.00001929,-0.00017920,0.00017600,-0.00
 000136,0.00005864,-0.00000305,-0.00016586,0.00004298,-0.00019603,0.000
 15546,-0.00001725,-0.00000539,0.00028567,0.00042344,0.00035520,0.00022
 142,0.00009814,0.00005054,-0.00006274,-0.00005906,0.00000510,0.0012521
 6,-0.00018769,-0.00145651,-0.01171135,0.00057741,0.00614214,-0.0163247
 5,0.00353664,0.00875783,0.26101443,0.00100970,0.00015331,-0.00014651,0
 .00150718,-0.00133028,-0.00082200,0.02795192,-0.05144851,-0.01569174,-
 0.00105585,0.00025127,0.00052204,0.00004658,-0.00006354,-0.00003544,0.
 00011713,0.00000044,-0.00003850,-0.00015101,-0.00006311,0.00000627,-0.
 00008423,0.00003433,-0.00008403,0.00009851,-0.00001139,-0.00002426,-0.
 00030228,0.00018174,-0.00010808,-0.00019102,-0.00003861,0.00018423,0.0
 0011807,-0.00002626,-0.00007732,-0.00012876,0.00068293,-0.00036663,0.0
 2401119,-0.00288762,-0.01403583,-0.02195234,0.00359307,0.01296288,-0.0
 3111039,0.05070522,0.00135088,0.00093711,0.00153580,0.02956552,-0.0041
 0795,-0.01833917,0.10747506,-0.01565395,-0.10676170,0.00176268,-0.0013
 7213,0.00150152,-0.00023283,0.00015173,0.00023290,-0.00017871,0.000335
 29,-0.00017657,-0.00013964,0.00001551,-0.00012455,0.00026707,-0.000578
 67,0.00021305,-0.00034601,0.00022766,0.00004846,-0.00100256,-0.0004659
 5,0.00021766,-0.00033715,0.00027356,0.00032952,-0.00012687,-0.00012240
 ,-0.00005366,-0.00173638,-0.00025833,-0.00645827,-0.00967967,0.0006549
 0,0.00510509,-0.00644549,0.00161894,0.00314872,-0.11939332,0.01769798,
 0.11962811,0.00052899,-0.00057830,-0.00017587,-0.01084978,0.00143191,0
 .00549788,0.00020660,-0.00039617,0.00074179,-0.25273270,0.04630915,0.0
 9772812,0.00416097,0.00057061,-0.00389349,0.00388377,-0.00026141,-0.00
 348508,-0.01643900,0.00236093,0.01126143,-0.00641341,-0.00235473,-0.00
 028625,0.00148692,0.00059407,0.00065673,0.00055033,0.00048605,0.000041
 49,0.00002702,0.00002446,-0.00002129,0.00023176,0.00005125,-0.00014409
 ,-0.00007164,0.00191995,-0.00088395,0.00032543,-0.00008817,-0.00023900
 ,-0.00007087,0.00001137,-0.00004828,0.00020367,0.00014320,-0.00080276,
 0.27452596,0.00121666,0.00176447,-0.00047418,0.02349515,-0.00499803,-0
 .01091698,-0.00032114,0.00063467,-0.00135149,0.04937308,-0.05409474,-0
 .01945594,0.00201679,-0.00132783,-0.00171799,-0.00106121,0.00293351,-0
 .00288684,-0.02132997,0.00094873,0.01593689,-0.00384556,-0.00759719,0.
 00096168,-0.00066641,0.00285415,0.00067770,-0.00080170,-0.00029961,0.0
 0029977,-0.00006572,-0.00011211,-0.00005979,-0.00038718,0.00019848,0.0
 0018469,0.00219654,-0.00415911,0.00201733,-0.00031334,0.00000129,0.000
 02169,-0.00005179,0.00001655,0.00011614,-0.00040386,0.00021647,0.00064
 438,-0.04978649,0.06241787,-0.00008323,-0.00047386,0.00001274,-0.00982
 343,0.00248552,0.00407792,-0.00064982,-0.00021540,0.00146467,0.0956009
 2,-0.01759472,-0.08477873,0.03037446,0.00117928,-0.01473499,-0.0029295
 8,-0.00337277,0.00196959,-0.00755956,-0.00047345,0.00358799,0.00074898
 ,0.00005600,-0.01007017,0.00153197,-0.00008797,0.00237755,0.00017167,-
 0.00022651,0.00009879,0.00009482,-0.00001234,-0.00004144,-0.00011711,-
 0.00007381,-0.00006498,-0.00107624,0.00218544,-0.00019623,0.00019478,-
 0.00012287,0.00003863,-0.00005794,-0.00002459,-0.00007250,0.00034175,0
 .00005595,-0.00007169,-0.10614694,0.01667811,0.09578111,-0.00007448,-0
 .00001406,-0.00033701,0.00000341,0.00039371,0.00035017,0.00011498,-0.0
 0020381,-0.00006254,0.00197292,0.00188434,0.00485744,-0.14566188,-0.05
 797520,-0.12344202,0.00470358,0.00347251,0.00869331,-0.00771765,-0.004
 35938,-0.00523654,0.01231207,-0.00257891,-0.01829643,-0.00505951,0.000
 48468,0.00423181,-0.00000951,-0.00000034,0.00008378,0.00008454,0.00007
 644,0.00011595,0.00000907,0.00002372,0.00007110,0.00004766,-0.00013857
 ,-0.00003291,0.00002236,-0.00000972,0.00009726,0.00003403,0.00002607,0
 .00005541,-0.00000182,0.00000983,-0.00002367,0.00013871,0.00015901,-0.
 00066173,0.13557668,-0.00004736,0.00003946,-0.00006728,0.00011672,0.00
 083856,0.00020841,0.00008780,-0.00041570,0.00002426,0.00768257,0.00617
 467,0.00153066,-0.04888737,-0.08099426,-0.06462125,-0.01693721,-0.0052
 5656,-0.01736194,0.00056881,-0.00346354,-0.00014079,-0.00063399,-0.000
 58413,0.00079873,-0.00022356,-0.00067232,0.00032502,0.00000375,-0.0000
 0406,-0.00001178,-0.00006019,-0.00031222,0.00007531,-0.00001556,-0.000
 01783,-0.00009442,0.00009146,-0.00008384,0.00002425,0.00002176,-0.0000
 6547,0.00015570,-0.00001394,-0.00000744,-0.00007027,-0.00001837,0.0000
 2111,-0.00002675,-0.00023025,0.00015934,-0.00024587,0.05984747,0.08226
 874,-0.00027173,-0.00018267,-0.00046816,0.00007450,-0.00095010,-0.0007
 6988,-0.00021739,0.00068399,0.00004765,-0.01141403,-0.00871968,-0.0007
 5365,-0.11791948,-0.07223696,-0.21045101,0.00002937,0.00044688,-0.0010
 7177,-0.00137871,-0.00137592,-0.00435514,-0.00013191,0.00100770,0.0029
 2389,0.00080833,0.00043462,-0.00048060,0.00004231,0.00001480,-0.000015
 83,0.00002674,0.00038420,0.00036754,0.00014067,0.00015675,0.00022694,-
 0.00012439,0.00014746,-0.00002873,-0.00004594,0.00008044,-0.00027330,0
 .00006315,-0.00000309,0.00012728,0.00002502,-0.00003365,0.00002275,0.0
 0045244,-0.00012008,0.00053708,0.13139658,0.08127788,0.21311489,0.0003
 2988,-0.00020133,0.00018025,-0.00068559,-0.00019111,-0.00034308,-0.000
 03799,-0.00012742,-0.00018274,-0.00051317,-0.00246173,-0.00664722,-0.0
 0218998,0.00192358,0.00274532,-0.00466415,-0.01317596,-0.01116523,-0.0
 7653292,-0.05183660,-0.05253303,0.01428345,0.00548941,-0.00257786,-0.0
 0400955,-0.00030297,0.00182549,-0.00000274,0.00002570,-0.00000642,-0.0
 0000647,0.00003042,-0.00000476,-0.00007615,-0.00015436,-0.00001391,0.0
 0011380,-0.00009026,0.00006239,0.00003014,0.00004516,0.00011781,0.0002
 0045,0.00009593,0.00002453,-0.00006090,-0.00003743,0.00002384,0.000307
 27,0.00057714,0.00004622,0.00350484,-0.00135253,-0.00155553,0.07000978
 ,0.00037127,-0.00036965,0.00036404,-0.00076695,0.00006027,-0.00074223,
 -0.00025471,-0.00037472,-0.00030088,0.00348448,-0.00034430,-0.01385337
 ,-0.00138515,-0.00573815,-0.00463508,0.00337115,0.01116809,0.01099612,
 -0.06024754,-0.17729607,-0.13234892,-0.00784442,-0.00217981,0.00318751
 ,0.00228037,-0.00008240,-0.00027953,-0.00001764,0.00004129,-0.00000407
 ,0.00006548,0.00014126,0.00006793,-0.00009377,-0.00023415,0.00002378,0
 .00007773,-0.00013056,-0.00001384,0.00015465,0.00017369,0.00019953,0.0
 0035446,0.00003259,0.00043535,0.00001142,0.00002943,0.00002906,-0.0002
 0742,0.00044308,0.00028383,-0.00109777,0.00237552,-0.00101256,0.061744
 37,0.17228461,-0.00026502,0.00022941,-0.00021333,0.00052488,-0.0001017
 2,0.00069750,-0.00013646,-0.00028312,-0.00009027,0.00146863,0.00353036
 ,0.00825109,-0.00223696,-0.00241616,-0.00760818,0.00018066,-0.00915863
 ,-0.00812855,-0.05852555,-0.12432182,-0.18327977,-0.01283370,-0.003939
 97,0.00254799,0.00394687,0.00074997,-0.00212050,-0.00000543,-0.0000406
 3,0.00000347,-0.00000907,-0.00000228,0.00001908,0.00006537,0.00015498,
 -0.00000610,-0.00012252,0.00010476,-0.00004798,-0.00000051,-0.00000898
 ,0.00001428,0.00002923,0.00020081,-0.00009364,0.00002851,0.00003463,0.
 00000201,-0.00025290,-0.00055507,0.00008465,-0.00185996,-0.00177988,0.
 00130005,0.07000393,0.13760334,0.18866822\\-0.00000179,0.00000635,-0.0
 0000377,-0.00008797,0.00005904,0.00001070,-0.00000142,0.00000668,-0.00
 000468,0.00012153,-0.00015593,0.00003489,-0.00015078,-0.00000817,-0.00
 009253,0.00002638,-0.00005115,0.00001685,-0.00002461,0.00013298,0.0001
 1405,0.00015230,-0.00001180,-0.00008470,-0.00004469,-0.00000722,0.0000
 3255,-0.00000307,0.00000213,-0.00000128,0.00000095,0.00000458,0.000003
 53,-0.00000866,-0.00000160,0.00000432,0.00003694,-0.00000400,-0.000018
 52,-0.00000718,-0.00000080,0.00000763,-0.00000311,-0.00000120,-0.00000
 408,-0.00000261,0.00000408,0.00000084,-0.00003081,0.00004918,-0.000014
 45,0.00003911,0.00001694,0.00004042,-0.00001053,-0.00004008,-0.0000417
 6\\\@


 OLD AGE AND TREACHERY WILL ALWAYS PREVAIL OVER YOUTH AND SKILL.
 Job cpu time:       0 days  0 hours 41 minutes 21.6 seconds.
 File lengths (MBytes):  RWF=    152 Int=      0 D2E=      0 Chk=      8 Scr=      1
 Normal termination of Gaussian 09 at Mon Jan 27 16:17:05 2020.
