 Entering Gaussian System, Link 0=/home/puck/opt/gaussian_09/g09
 Input=dsC7O2H10nsd_4785.com
 Output=dsC7O2H10nsd_4785.log
 Initial command:
 /home/puck/opt/gaussian_09/l1.exe "/scratch/puck/g09_edbe8584-c648-4b29-971a-ad095b4bd0dc/Gau-106520.inp" -scrdir="/scratch/puck/g09_edbe8584-c648-4b29-971a-ad095b4bd0dc/"
 Entering Link 1 = /home/puck/opt/gaussian_09/l1.exe PID=    106568.
  
 Copyright (c) 1988,1990,1992,1993,1995,1998,2003,2009,2013,
            Gaussian, Inc.  All Rights Reserved.
  
 This is part of the Gaussian(R) 09 program.  It is based on
 the Gaussian(R) 03 system (copyright 2003, Gaussian, Inc.),
 the Gaussian(R) 98 system (copyright 1998, Gaussian, Inc.),
 the Gaussian(R) 94 system (copyright 1995, Gaussian, Inc.),
 the Gaussian 92(TM) system (copyright 1992, Gaussian, Inc.),
 the Gaussian 90(TM) system (copyright 1990, Gaussian, Inc.),
 the Gaussian 88(TM) system (copyright 1988, Gaussian, Inc.),
 the Gaussian 86(TM) system (copyright 1986, Carnegie Mellon
 University), and the Gaussian 82(TM) system (copyright 1983,
 Carnegie Mellon University). Gaussian is a federally registered
 trademark of Gaussian, Inc.
  
 This software contains proprietary and confidential information,
 including trade secrets, belonging to Gaussian, Inc.
  
 This software is provided under written license and may be
 used, copied, transmitted, or stored only in accord with that
 written license.
  
 The following legend is applicable only to US Government
 contracts under FAR:
  
                    RESTRICTED RIGHTS LEGEND
  
 Use, reproduction and disclosure by the US Government is
 subject to restrictions as set forth in subparagraphs (a)
 and (c) of the Commercial Computer Software - Restricted
 Rights clause in FAR 52.227-19.
  
 Gaussian, Inc.
 340 Quinnipiac St., Bldg. 40, Wallingford CT 06492
  
  
 ---------------------------------------------------------------
 Warning -- This program may not be used in any manner that
 competes with the business of Gaussian, Inc. or will provide
 assistance to any competitor of Gaussian, Inc.  The licensee
 of this program is prohibited from giving any competitor of
 Gaussian, Inc. access to this program.  By using this program,
 the user acknowledges that Gaussian, Inc. is engaged in the
 business of creating and licensing software in the field of
 computational chemistry and represents and warrants to the
 licensee that it is not a competitor of Gaussian, Inc. and that
 it will not use this program in any manner prohibited above.
 ---------------------------------------------------------------
  

 Cite this work as:
 Gaussian 09, Revision D.01,
 M. J. Frisch, G. W. Trucks, H. B. Schlegel, G. E. Scuseria, 
 M. A. Robb, J. R. Cheeseman, G. Scalmani, V. Barone, B. Mennucci, 
 G. A. Petersson, H. Nakatsuji, M. Caricato, X. Li, H. P. Hratchian, 
 A. F. Izmaylov, J. Bloino, G. Zheng, J. L. Sonnenberg, M. Hada, 
 M. Ehara, K. Toyota, R. Fukuda, J. Hasegawa, M. Ishida, T. Nakajima, 
 Y. Honda, O. Kitao, H. Nakai, T. Vreven, J. A. Montgomery, Jr., 
 J. E. Peralta, F. Ogliaro, M. Bearpark, J. J. Heyd, E. Brothers, 
 K. N. Kudin, V. N. Staroverov, T. Keith, R. Kobayashi, J. Normand, 
 K. Raghavachari, A. Rendell, J. C. Burant, S. S. Iyengar, J. Tomasi, 
 M. Cossi, N. Rega, J. M. Millam, M. Klene, J. E. Knox, J. B. Cross, 
 V. Bakken, C. Adamo, J. Jaramillo, R. Gomperts, R. E. Stratmann, 
 O. Yazyev, A. J. Austin, R. Cammi, C. Pomelli, J. W. Ochterski, 
 R. L. Martin, K. Morokuma, V. G. Zakrzewski, G. A. Voth, 
 P. Salvador, J. J. Dannenberg, S. Dapprich, A. D. Daniels, 
 O. Farkas, J. B. Foresman, J. V. Ortiz, J. Cioslowski, 
 and D. J. Fox, Gaussian, Inc., Wallingford CT, 2013.
 
 ******************************************
 Gaussian 09:  ES64L-G09RevD.01 24-Apr-2013
                28-Jan-2020 
 ******************************************
 -----------------------------
 # b3lyp 6-31G(2df,p) opt Freq
 -----------------------------
 1/14=-1,18=20,19=15,26=3,38=1/1,3;
 2/9=110,12=2,17=6,18=5,40=1/2;
 3/5=1,6=6,7=104,11=2,16=1,25=1,30=1,71=1,74=-5/1,2,3;
 4//1;
 5/5=2,38=5/2;
 6/7=2,8=2,9=2,10=2,28=1/1;
 7//1,2,3,16;
 1/14=-1,18=20,19=15,26=3/3(2);
 2/9=110/2;
 99//99;
 2/9=110/2;
 3/5=1,6=6,7=104,11=2,16=1,25=1,30=1,71=1,74=-5/1,2,3;
 4/5=5,16=3,69=1/1;
 5/5=2,38=5/2;
 7//1,2,3,16;
 1/14=-1,18=20,19=15,26=3/3(-5);
 2/9=110/2;
 6/7=2,8=2,9=2,10=2,19=2,28=1/1;
 99/9=1/99;
 -----
 titel
 -----
 Symbolic Z-matrix:
 Charge =  0 Multiplicity = 1
 C                    -0.31653   2.81048  -0.71491 
 C                    -1.02124   2.03025   0.39776 
 C                    -0.09823   1.0232    1.12052 
 C                     0.19935  -0.13448   0.18727 
 O                     1.22268  -0.28219  -0.42846 
 C                    -0.76072   0.50963   2.42774 
 O                    -1.10015   1.57592   3.3059 
 C                     0.08366  -0.48848   3.08882 
 C                     0.81705  -1.2754    3.62562 
 H                     0.10945   2.14472  -1.47152 
 H                    -1.01628   3.487    -1.21443 
 H                     0.50303   3.4147   -0.31172 
 H                    -1.41612   2.7142    1.15467 
 H                    -1.88663   1.49008  -0.0114 
 H                     0.85572   1.50198   1.36986 
 H                    -0.65004  -0.84912   0.06479 
 H                    -1.7223    0.04834   2.16683 
 H                    -0.28642   1.87525   3.72721 
 H                     1.45203  -1.98331   4.09944 
 

 GradGradGradGradGradGradGradGradGradGradGradGradGradGradGradGradGradGrad
 Berny optimization.
 Initialization pass.
                           ----------------------------
                           !    Initial Parameters    !
                           ! (Angstroms and Degrees)  !
 --------------------------                            --------------------------
 ! Name  Definition              Value          Derivative Info.                !
 --------------------------------------------------------------------------------
 ! R1    R(1,2)                  1.5308         estimate D2E/DX2                !
 ! R2    R(1,10)                 1.0941         estimate D2E/DX2                !
 ! R3    R(1,11)                 1.094          estimate D2E/DX2                !
 ! R4    R(1,12)                 1.0951         estimate D2E/DX2                !
 ! R5    R(2,3)                  1.5455         estimate D2E/DX2                !
 ! R6    R(2,13)                 1.0939         estimate D2E/DX2                !
 ! R7    R(2,14)                 1.0991         estimate D2E/DX2                !
 ! R8    R(3,4)                  1.5165         estimate D2E/DX2                !
 ! R9    R(3,6)                  1.5529         estimate D2E/DX2                !
 ! R10   R(3,15)                 1.0961         estimate D2E/DX2                !
 ! R11   R(4,5)                  1.2034         estimate D2E/DX2                !
 ! R12   R(4,16)                 1.1168         estimate D2E/DX2                !
 ! R13   R(6,7)                  1.4225         estimate D2E/DX2                !
 ! R14   R(6,8)                  1.465          estimate D2E/DX2                !
 ! R15   R(6,17)                 1.0979         estimate D2E/DX2                !
 ! R16   R(7,18)                 0.964          estimate D2E/DX2                !
 ! R17   R(8,9)                  1.2022         estimate D2E/DX2                !
 ! R18   R(9,19)                 1.0625         estimate D2E/DX2                !
 ! A1    A(2,1,10)             111.822          estimate D2E/DX2                !
 ! A2    A(2,1,11)             110.6468         estimate D2E/DX2                !
 ! A3    A(2,1,12)             110.9846         estimate D2E/DX2                !
 ! A4    A(10,1,11)            108.0324         estimate D2E/DX2                !
 ! A5    A(10,1,12)            107.3942         estimate D2E/DX2                !
 ! A6    A(11,1,12)            107.7933         estimate D2E/DX2                !
 ! A7    A(1,2,3)              113.3966         estimate D2E/DX2                !
 ! A8    A(1,2,13)             110.5138         estimate D2E/DX2                !
 ! A9    A(1,2,14)             110.0204         estimate D2E/DX2                !
 ! A10   A(3,2,13)             107.4226         estimate D2E/DX2                !
 ! A11   A(3,2,14)             108.91           estimate D2E/DX2                !
 ! A12   A(13,2,14)            106.2984         estimate D2E/DX2                !
 ! A13   A(2,3,4)              109.0769         estimate D2E/DX2                !
 ! A14   A(2,3,6)              110.7555         estimate D2E/DX2                !
 ! A15   A(2,3,15)             109.9709         estimate D2E/DX2                !
 ! A16   A(4,3,6)              110.4436         estimate D2E/DX2                !
 ! A17   A(4,3,15)             107.618          estimate D2E/DX2                !
 ! A18   A(6,3,15)             108.9209         estimate D2E/DX2                !
 ! A19   A(3,4,5)              125.1306         estimate D2E/DX2                !
 ! A20   A(3,4,16)             114.0014         estimate D2E/DX2                !
 ! A21   A(5,4,16)             120.8049         estimate D2E/DX2                !
 ! A22   A(3,6,7)              111.9361         estimate D2E/DX2                !
 ! A23   A(3,6,8)              111.0565         estimate D2E/DX2                !
 ! A24   A(3,6,17)             108.2124         estimate D2E/DX2                !
 ! A25   A(7,6,8)              111.6952         estimate D2E/DX2                !
 ! A26   A(7,6,17)             104.6351         estimate D2E/DX2                !
 ! A27   A(8,6,17)             109.0128         estimate D2E/DX2                !
 ! A28   A(6,7,18)             107.5271         estimate D2E/DX2                !
 ! A29   L(6,8,9,5,-1)         179.0241         estimate D2E/DX2                !
 ! A30   L(8,9,19,5,-1)        180.2322         estimate D2E/DX2                !
 ! A31   L(6,8,9,5,-2)         177.6261         estimate D2E/DX2                !
 ! A32   L(8,9,19,5,-2)        181.1195         estimate D2E/DX2                !
 ! D1    D(10,1,2,3)            57.8628         estimate D2E/DX2                !
 ! D2    D(10,1,2,13)          178.5411         estimate D2E/DX2                !
 ! D3    D(10,1,2,14)          -64.3781         estimate D2E/DX2                !
 ! D4    D(11,1,2,3)           178.3414         estimate D2E/DX2                !
 ! D5    D(11,1,2,13)          -60.9804         estimate D2E/DX2                !
 ! D6    D(11,1,2,14)           56.1004         estimate D2E/DX2                !
 ! D7    D(12,1,2,3)           -62.0363         estimate D2E/DX2                !
 ! D8    D(12,1,2,13)           58.642          estimate D2E/DX2                !
 ! D9    D(12,1,2,14)          175.7228         estimate D2E/DX2                !
 ! D10   D(1,2,3,4)            -71.2833         estimate D2E/DX2                !
 ! D11   D(1,2,3,6)            166.9614         estimate D2E/DX2                !
 ! D12   D(1,2,3,15)            46.519          estimate D2E/DX2                !
 ! D13   D(13,2,3,4)           166.3074         estimate D2E/DX2                !
 ! D14   D(13,2,3,6)            44.5521         estimate D2E/DX2                !
 ! D15   D(13,2,3,15)          -75.8904         estimate D2E/DX2                !
 ! D16   D(14,2,3,4)            51.5726         estimate D2E/DX2                !
 ! D17   D(14,2,3,6)           -70.1827         estimate D2E/DX2                !
 ! D18   D(14,2,3,15)          169.3748         estimate D2E/DX2                !
 ! D19   D(2,3,4,5)            101.9846         estimate D2E/DX2                !
 ! D20   D(2,3,4,16)           -75.1343         estimate D2E/DX2                !
 ! D21   D(6,3,4,5)           -136.0714         estimate D2E/DX2                !
 ! D22   D(6,3,4,16)            46.8098         estimate D2E/DX2                !
 ! D23   D(15,3,4,5)           -17.2902         estimate D2E/DX2                !
 ! D24   D(15,3,4,16)          165.591          estimate D2E/DX2                !
 ! D25   D(2,3,6,7)            -56.8241         estimate D2E/DX2                !
 ! D26   D(2,3,6,8)            177.5785         estimate D2E/DX2                !
 ! D27   D(2,3,6,17)            57.9634         estimate D2E/DX2                !
 ! D28   D(4,3,6,7)           -177.7735         estimate D2E/DX2                !
 ! D29   D(4,3,6,8)             56.6291         estimate D2E/DX2                !
 ! D30   D(4,3,6,17)           -62.986          estimate D2E/DX2                !
 ! D31   D(15,3,6,7)            64.2414         estimate D2E/DX2                !
 ! D32   D(15,3,6,8)           -61.356          estimate D2E/DX2                !
 ! D33   D(15,3,6,17)          179.0289         estimate D2E/DX2                !
 ! D34   D(3,6,7,18)           -76.4391         estimate D2E/DX2                !
 ! D35   D(8,6,7,18)            48.8068         estimate D2E/DX2                !
 ! D36   D(17,6,7,18)          166.599          estimate D2E/DX2                !
 --------------------------------------------------------------------------------
 Trust Radius=3.00D-01 FncErr=1.00D-07 GrdErr=1.00D-06
 Number of steps in this run=     96 maximum allowed number of steps=    114.
 GradGradGradGradGradGradGradGradGradGradGradGradGradGradGradGradGradGrad

                          Input orientation:                          
 ---------------------------------------------------------------------
 Center     Atomic      Atomic             Coordinates (Angstroms)
 Number     Number       Type             X           Y           Z
 ---------------------------------------------------------------------
      1          6           0       -0.316530    2.810476   -0.714911
      2          6           0       -1.021240    2.030248    0.397763
      3          6           0       -0.098226    1.023201    1.120516
      4          6           0        0.199350   -0.134484    0.187267
      5          8           0        1.222683   -0.282187   -0.428461
      6          6           0       -0.760725    0.509626    2.427739
      7          8           0       -1.100152    1.575924    3.305896
      8          6           0        0.083657   -0.488478    3.088820
      9          6           0        0.817051   -1.275403    3.625619
     10          1           0        0.109452    2.144720   -1.471525
     11          1           0       -1.016282    3.487000   -1.214429
     12          1           0        0.503031    3.414701   -0.311722
     13          1           0       -1.416119    2.714202    1.154672
     14          1           0       -1.886631    1.490076   -0.011401
     15          1           0        0.855717    1.501979    1.369856
     16          1           0       -0.650037   -0.849124    0.064788
     17          1           0       -1.722299    0.048343    2.166829
     18          1           0       -0.286423    1.875248    3.727214
     19          1           0        1.452030   -1.983308    4.099440
 ---------------------------------------------------------------------
                    Distance matrix (angstroms):
                    1          2          3          4          5
     1  C    0.000000
     2  C    1.530822   0.000000
     3  C    2.571148   1.545467   0.000000
     4  C    3.122955   2.494035   1.516490   0.000000
     5  O    3.466381   3.326439   2.418299   1.203390   0.000000
     6  C    3.920136   2.549698   1.552899   2.521177   3.566336
     7  O    4.278443   2.944465   2.466829   3.786826   4.774261
     8  C    5.050902   3.847929   2.488468   2.925355   3.702864
     9  C    6.067917   4.972493   3.520917   3.674985   4.193636
    10  H    1.094147   2.187649   2.831892   2.820362   2.866556
    11  H    1.094009   2.172859   3.516404   4.069110   4.453929
    12  H    1.095138   2.177953   2.851681   3.596932   3.768091
    13  H    2.171107   1.093907   2.144176   3.414765   4.295106
    14  H    2.168779   1.099138   2.167395   2.651411   3.603150
    15  H    2.726275   2.178761   1.096086   2.123051   2.559660
    16  H    3.756572   2.922233   2.219157   1.116768   2.017869
    17  H    4.232020   2.747549   2.163962   2.764928   3.939252
    18  H    4.539607   3.413096   2.748868   4.099540   4.919509
    19  H    7.020409   5.994006   4.507369   4.504715   4.842345
                    6          7          8          9         10
     6  C    0.000000
     7  O    1.422450   0.000000
     8  C    1.464998   2.389619   0.000000
     9  C    2.666575   3.450790   1.202195   0.000000
    10  H    4.316827   4.960890   5.266036   6.178901   0.000000
    11  H    4.711205   4.908420   5.960892   7.033324   1.770619
    12  H    4.188220   4.363308   5.193685   6.131748   1.764341
    13  H    2.628763   2.454237   4.030808   5.197074   3.090079
    14  H    2.859781   3.410334   4.172298   5.309019   2.558295
    15  H    2.171812   2.753025   2.740955   3.578242   3.007237
    16  H    2.728000   4.072867   3.132593   3.874736   3.449664
    17  H    1.097943   2.004506   2.097551   3.213825   4.581237
    18  H    1.943843   0.963981   2.476228   3.339847   5.220749
    19  H    3.729020   4.451009   2.264579   1.062466   7.062491
                   11         12         13         14         15
    11  H    0.000000
    12  H    1.768734   0.000000
    13  H    2.523831   2.514785   0.000000
    14  H    2.488472   3.082995   1.754877   0.000000
    15  H    3.758087   2.571108   2.583994   3.070584   0.000000
    16  H    4.535692   4.433004   3.804210   2.647041   3.081912
    17  H    4.873985   4.735786   2.867928   2.617305   3.065027
    18  H    5.248836   4.393877   2.932240   4.084883   2.645931
    19  H    8.015861   7.035442   6.242158   6.333251   4.466928
                   16         17         18         19
    16  H    0.000000
    17  H    2.524633   0.000000
    18  H    4.579059   2.798950   0.000000
    19  H    4.688654   4.235441   4.248438   0.000000
 Stoichiometry    C7H10O2
 Framework group  C1[X(C7H10O2)]
 Deg. of freedom    51
 Full point group                 C1      NOp   1
 Largest Abelian subgroup         C1      NOp   1
 Largest concise Abelian subgroup C1      NOp   1
                         Standard orientation:                         
 ---------------------------------------------------------------------
 Center     Atomic      Atomic             Coordinates (Angstroms)
 Number     Number       Type             X           Y           Z
 ---------------------------------------------------------------------
      1          6           0        2.876213   -0.453165   -0.395362
      2          6           0        1.584918   -0.866480    0.315372
      3          6           0        0.355110   -0.034469   -0.113347
      4          6           0        0.483958    1.367302    0.450726
      5          8           0        0.829911    2.335990   -0.173861
      6          6           0       -0.958456   -0.699305    0.380649
      7          8           0       -1.086973   -2.035733   -0.089251
      8          6           0       -2.124965    0.113511    0.027370
      9          6           0       -3.063615    0.784140   -0.310956
     10          1           0        3.112065    0.602247   -0.229118
     11          1           0        3.721038   -1.049333   -0.037996
     12          1           0        2.794052   -0.603834   -1.476970
     13          1           0        1.355944   -1.917045    0.114088
     14          1           0        1.710713   -0.781279    1.403958
     15          1           0        0.322105    0.049239   -1.205734
     16          1           0        0.274160    1.437537    1.545359
     17          1           0       -0.905646   -0.793300    1.473286
     18          1           0       -1.348659   -1.993683   -1.016081
     19          1           0       -3.898254    1.378180   -0.592609
 ---------------------------------------------------------------------
 Rotational constants (GHZ):      2.1414971      1.2119742      0.8268137
 Standard basis: 6-31G(2df,p) (6D, 7F)
 There are   329 symmetry adapted cartesian basis functions of A   symmetry.
 There are   302 symmetry adapted basis functions of A   symmetry.
   302 basis functions,   466 primitive gaussians,   329 cartesian basis functions
    34 alpha electrons       34 beta electrons
       nuclear repulsion energy       431.4153510867 Hartrees.
 NAtoms=   19 NActive=   19 NUniq=   19 SFac= 1.00D+00 NAtFMM=   60 NAOKFM=F Big=F
 Integral buffers will be    131072 words long.
 Raffenetti 2 integral format.
 Two-electron integral symmetry is turned on.
 One-electron integrals computed using PRISM.
 NBasis=   302 RedAO= T EigKep=  1.39D-04  NBF=   302
 NBsUse=   302 1.00D-06 EigRej= -1.00D+00 NBFU=   302
 ExpMin= 1.61D-01 ExpMax= 5.48D+03 ExpMxC= 8.25D+02 IAcc=1 IRadAn=         1 AccDes= 0.00D+00
 Harris functional with IExCor=  402 and IRadAn=       1 diagonalized for initial guess.
 HarFok:  IExCor=  402 AccDes= 0.00D+00 IRadAn=         1 IDoV= 1 UseB2=F ITyADJ=14
 ICtDFT=  3500011 ScaDFX=  1.000000  1.000000  1.000000  1.000000
 FoFCou: FMM=F IPFlag=           0 FMFlag=      100000 FMFlg1=           0
         NFxFlg=           0 DoJE=T BraDBF=F KetDBF=T FulRan=T
         wScrn=  0.000000 ICntrl=     500 IOpCl=  0 I1Cent=   200000004 NGrid=           0
         NMat0=    1 NMatS0=      1 NMatT0=    0 NMatD0=    1 NMtDS0=    0 NMtDT0=    0
 Petite list used in FoFCou.
 Requested convergence on RMS density matrix=1.00D-08 within 128 cycles.
 Requested convergence on MAX density matrix=1.00D-06.
 Requested convergence on             energy=1.00D-06.
 No special actions if energy rises.
 Integral accuracy reduced to 1.0D-05 until final iterations.
 Initial convergence to 1.0D-05 achieved.  Increase integral accuracy.
 SCF Done:  E(RB3LYP) =  -423.150351435     A.U. after   14 cycles
            NFock= 14  Conv=0.93D-08     -V/T= 2.0075

 **********************************************************************

            Population analysis using the SCF density.

 **********************************************************************

 Orbital symmetries:
       Occupied  (A) (A) (A) (A) (A) (A) (A) (A) (A) (A) (A) (A)
                 (A) (A) (A) (A) (A) (A) (A) (A) (A) (A) (A) (A)
                 (A) (A) (A) (A) (A) (A) (A) (A) (A) (A)
       Virtual   (A) (A) (A) (A) (A) (A) (A) (A) (A) (A) (A) (A)
                 (A) (A) (A) (A) (A) (A) (A) (A) (A) (A) (A) (A)
                 (A) (A) (A) (A) (A) (A) (A) (A) (A) (A) (A) (A)
                 (A) (A) (A) (A) (A) (A) (A) (A) (A) (A) (A) (A)
                 (A) (A) (A) (A) (A) (A) (A) (A) (A) (A) (A) (A)
                 (A) (A) (A) (A) (A) (A) (A) (A) (A) (A) (A) (A)
                 (A) (A) (A) (A) (A) (A) (A) (A) (A) (A) (A) (A)
                 (A) (A) (A) (A) (A) (A) (A) (A) (A) (A) (A) (A)
                 (A) (A) (A) (A) (A) (A) (A) (A) (A) (A) (A) (A)
                 (A) (A) (A) (A) (A) (A) (A) (A) (A) (A) (A) (A)
                 (A) (A) (A) (A) (A) (A) (A) (A) (A) (A) (A) (A)
                 (A) (A) (A) (A) (A) (A) (A) (A) (A) (A) (A) (A)
                 (A) (A) (A) (A) (A) (A) (A) (A) (A) (A) (A) (A)
                 (A) (A) (A) (A) (A) (A) (A) (A) (A) (A) (A) (A)
                 (A) (A) (A) (A) (A) (A) (A) (A) (A) (A) (A) (A)
                 (A) (A) (A) (A) (A) (A) (A) (A) (A) (A) (A) (A)
                 (A) (A) (A) (A) (A) (A) (A) (A) (A) (A) (A) (A)
                 (A) (A) (A) (A) (A) (A) (A) (A) (A) (A) (A) (A)
                 (A) (A) (A) (A) (A) (A) (A) (A) (A) (A) (A) (A)
                 (A) (A) (A) (A) (A) (A) (A) (A) (A) (A) (A) (A)
                 (A) (A) (A) (A) (A) (A) (A) (A) (A) (A) (A) (A)
                 (A) (A) (A) (A) (A) (A) (A) (A) (A) (A) (A) (A)
                 (A) (A) (A) (A)
 The electronic state is 1-A.
 Alpha  occ. eigenvalues --  -19.15777 -19.14160 -10.27301 -10.27260 -10.20448
 Alpha  occ. eigenvalues --  -10.19530 -10.19500 -10.19182 -10.17948  -1.04885
 Alpha  occ. eigenvalues --   -1.04115  -0.82499  -0.77384  -0.72948  -0.67036
 Alpha  occ. eigenvalues --   -0.62030  -0.57974  -0.56048  -0.51482  -0.48792
 Alpha  occ. eigenvalues --   -0.47971  -0.45022  -0.44646  -0.42457  -0.39716
 Alpha  occ. eigenvalues --   -0.38332  -0.37291  -0.36397  -0.34879  -0.34337
 Alpha  occ. eigenvalues --   -0.30504  -0.28506  -0.27868  -0.24924
 Alpha virt. eigenvalues --   -0.02819   0.02633   0.03959   0.08356   0.10325
 Alpha virt. eigenvalues --    0.11117   0.11839   0.13678   0.14478   0.15977
 Alpha virt. eigenvalues --    0.16268   0.17361   0.18671   0.19859   0.21679
 Alpha virt. eigenvalues --    0.24856   0.25325   0.26655   0.29487   0.29805
 Alpha virt. eigenvalues --    0.38129   0.41754   0.45028   0.46361   0.47545
 Alpha virt. eigenvalues --    0.48969   0.50666   0.52341   0.53145   0.55017
 Alpha virt. eigenvalues --    0.56104   0.58240   0.59011   0.60166   0.62540
 Alpha virt. eigenvalues --    0.62846   0.64822   0.65596   0.67665   0.69272
 Alpha virt. eigenvalues --    0.69994   0.71555   0.72156   0.73281   0.74014
 Alpha virt. eigenvalues --    0.74468   0.75718   0.76250   0.77111   0.77783
 Alpha virt. eigenvalues --    0.78458   0.79968   0.81581   0.83052   0.84478
 Alpha virt. eigenvalues --    0.86757   0.88038   0.89034   0.89232   0.95108
 Alpha virt. eigenvalues --    0.96023   0.97506   0.98192   0.99260   1.02192
 Alpha virt. eigenvalues --    1.03229   1.06289   1.06846   1.08763   1.10695
 Alpha virt. eigenvalues --    1.13945   1.15168   1.16369   1.18106   1.21513
 Alpha virt. eigenvalues --    1.22189   1.25029   1.26562   1.27605   1.31307
 Alpha virt. eigenvalues --    1.33442   1.36172   1.37707   1.41233   1.43326
 Alpha virt. eigenvalues --    1.45850   1.51541   1.52135   1.53192   1.54983
 Alpha virt. eigenvalues --    1.56106   1.57300   1.60983   1.64140   1.65330
 Alpha virt. eigenvalues --    1.67704   1.70456   1.72559   1.75201   1.76753
 Alpha virt. eigenvalues --    1.79859   1.80590   1.84464   1.87894   1.89512
 Alpha virt. eigenvalues --    1.94970   1.96053   1.97129   2.00335   2.04680
 Alpha virt. eigenvalues --    2.14463   2.14568   2.17882   2.23105   2.26534
 Alpha virt. eigenvalues --    2.32036   2.33410   2.36878   2.41055   2.43629
 Alpha virt. eigenvalues --    2.44398   2.49976   2.52781   2.53272   2.54621
 Alpha virt. eigenvalues --    2.59065   2.63357   2.65909   2.65932   2.68377
 Alpha virt. eigenvalues --    2.68727   2.70395   2.72817   2.75837   2.77230
 Alpha virt. eigenvalues --    2.78826   2.80731   2.84224   2.85505   2.86779
 Alpha virt. eigenvalues --    2.88837   2.91435   2.92280   2.94662   2.96538
 Alpha virt. eigenvalues --    2.97900   3.00366   3.04116   3.04984   3.07360
 Alpha virt. eigenvalues --    3.07474   3.08887   3.11244   3.13200   3.15563
 Alpha virt. eigenvalues --    3.19636   3.20296   3.22458   3.26258   3.30778
 Alpha virt. eigenvalues --    3.34427   3.37732   3.38382   3.40408   3.42794
 Alpha virt. eigenvalues --    3.47378   3.47880   3.49705   3.52429   3.57158
 Alpha virt. eigenvalues --    3.58822   3.59605   3.61903   3.64562   3.65778
 Alpha virt. eigenvalues --    3.68442   3.72001   3.74754   3.75816   3.83675
 Alpha virt. eigenvalues --    3.84928   3.87915   3.88594   3.92326   3.95796
 Alpha virt. eigenvalues --    3.98951   4.02805   4.10217   4.14711   4.17913
 Alpha virt. eigenvalues --    4.18992   4.20957   4.21696   4.22912   4.26186
 Alpha virt. eigenvalues --    4.29130   4.30673   4.32123   4.34842   4.37230
 Alpha virt. eigenvalues --    4.39923   4.42809   4.44269   4.46009   4.48736
 Alpha virt. eigenvalues --    4.52344   4.54215   4.55271   4.56855   4.58631
 Alpha virt. eigenvalues --    4.61127   4.63014   4.64250   4.67233   4.69629
 Alpha virt. eigenvalues --    4.71367   4.72406   4.73416   4.75464   4.77654
 Alpha virt. eigenvalues --    4.80675   4.83662   4.86111   4.87043   4.89349
 Alpha virt. eigenvalues --    4.92664   4.97053   4.98128   4.99486   5.00746
 Alpha virt. eigenvalues --    5.04296   5.08169   5.10197   5.12698   5.20857
 Alpha virt. eigenvalues --    5.26557   5.29778   5.30221   5.34605   5.38090
 Alpha virt. eigenvalues --    5.39524   5.43980   5.48537   5.49152   5.53531
 Alpha virt. eigenvalues --    5.57116   5.65970   5.72995   5.82583   5.95239
 Alpha virt. eigenvalues --    5.97645   6.03762   6.06391   6.25907   6.30917
 Alpha virt. eigenvalues --    6.41950   6.83766   6.96683   7.15431   9.70638
 Alpha virt. eigenvalues --   10.94461  11.22685  11.42939  12.12462  12.20995
 Alpha virt. eigenvalues --   12.67690  12.98812  13.28272
          Condensed to atoms (all electrons):
               1          2          3          4          5          6
     1  C    4.966360   0.404663  -0.032523   0.000939  -0.000673   0.001680
     2  C    0.404663   4.867472   0.374216  -0.017784  -0.001547  -0.016004
     3  C   -0.032523   0.374216   5.205106   0.266595  -0.053247   0.320981
     4  C    0.000939  -0.017784   0.266595   4.513724   0.749001  -0.012904
     5  O   -0.000673  -0.001547  -0.053247   0.749001   7.608937   0.000771
     6  C    0.001680  -0.016004   0.320981  -0.012904   0.000771   4.810552
     7  O    0.000094  -0.012186  -0.040400   0.001957  -0.000013   0.369033
     8  C   -0.000232   0.003048  -0.040325   0.006193  -0.000902   0.377256
     9  C   -0.000008   0.000050  -0.006540   0.004541  -0.000189  -0.018986
    10  H    0.377581  -0.027219  -0.004823   0.005063   0.003172   0.000110
    11  H    0.375194  -0.022699   0.002527   0.000150   0.000028  -0.000089
    12  H    0.379369  -0.029097  -0.003825  -0.000482   0.000049   0.000215
    13  H   -0.034189   0.361526  -0.026971   0.002766  -0.000084  -0.007207
    14  H   -0.036851   0.361659  -0.035437  -0.007402   0.000057  -0.001403
    15  H   -0.004356  -0.039020   0.313014  -0.013892   0.000908  -0.028761
    16  H    0.000400  -0.000470  -0.120056   0.341706  -0.054357   0.003094
    17  H   -0.000040  -0.005319  -0.043979  -0.004847  -0.000110   0.340247
    18  H   -0.000028   0.000128  -0.000902  -0.000056  -0.000001  -0.070443
    19  H    0.000000   0.000000   0.000023   0.000027   0.000001   0.000057
               7          8          9         10         11         12
     1  C    0.000094  -0.000232  -0.000008   0.377581   0.375194   0.379369
     2  C   -0.012186   0.003048   0.000050  -0.027219  -0.022699  -0.029097
     3  C   -0.040400  -0.040325  -0.006540  -0.004823   0.002527  -0.003825
     4  C    0.001957   0.006193   0.004541   0.005063   0.000150  -0.000482
     5  O   -0.000013  -0.000902  -0.000189   0.003172   0.000028   0.000049
     6  C    0.369033   0.377256  -0.018986   0.000110  -0.000089   0.000215
     7  O    7.833815  -0.038352  -0.010251  -0.000007   0.000001   0.000013
     8  C   -0.038352   4.508722   0.942361   0.000010   0.000002   0.000013
     9  C   -0.010251   0.942361   5.133838   0.000000   0.000000   0.000001
    10  H   -0.000007   0.000010   0.000000   0.571205  -0.030500  -0.031523
    11  H    0.000001   0.000002   0.000000  -0.030500   0.593487  -0.031338
    12  H    0.000013   0.000013   0.000001  -0.031523  -0.031338   0.590380
    13  H    0.018100   0.001181   0.000043   0.004645  -0.001701  -0.003934
    14  H    0.000170   0.000351   0.000015  -0.003065  -0.002482   0.005268
    15  H   -0.000905  -0.002502   0.001944   0.000137   0.000036   0.004556
    16  H   -0.000038  -0.001288  -0.000067   0.000244   0.000024   0.000005
    17  H   -0.018563  -0.033673   0.000107  -0.000002   0.000003   0.000011
    18  H    0.312002   0.002409   0.001159   0.000001   0.000000  -0.000007
    19  H   -0.000043  -0.001339   0.372649   0.000000   0.000000   0.000000
              13         14         15         16         17         18
     1  C   -0.034189  -0.036851  -0.004356   0.000400  -0.000040  -0.000028
     2  C    0.361526   0.361659  -0.039020  -0.000470  -0.005319   0.000128
     3  C   -0.026971  -0.035437   0.313014  -0.120056  -0.043979  -0.000902
     4  C    0.002766  -0.007402  -0.013892   0.341706  -0.004847  -0.000056
     5  O   -0.000084   0.000057   0.000908  -0.054357  -0.000110  -0.000001
     6  C   -0.007207  -0.001403  -0.028761   0.003094   0.340247  -0.070443
     7  O    0.018100   0.000170  -0.000905  -0.000038  -0.018563   0.312002
     8  C    0.001181   0.000351  -0.002502  -0.001288  -0.033673   0.002409
     9  C    0.000043   0.000015   0.001944  -0.000067   0.000107   0.001159
    10  H    0.004645  -0.003065   0.000137   0.000244  -0.000002   0.000001
    11  H   -0.001701  -0.002482   0.000036   0.000024   0.000003   0.000000
    12  H   -0.003934   0.005268   0.004556   0.000005   0.000011  -0.000007
    13  H    0.596682  -0.035931  -0.001309  -0.000433   0.000360  -0.000144
    14  H   -0.035931   0.639268   0.006371   0.005478   0.004881   0.000017
    15  H   -0.001309   0.006371   0.652887   0.007488   0.006641   0.003516
    16  H   -0.000433   0.005478   0.007488   0.737130   0.006339   0.000020
    17  H    0.000360   0.004881   0.006641   0.006339   0.617400   0.007613
    18  H   -0.000144   0.000017   0.003516   0.000020   0.007613   0.455777
    19  H    0.000000   0.000000   0.000005   0.000000  -0.000058  -0.000010
              19
     1  C    0.000000
     2  C    0.000000
     3  C    0.000023
     4  C    0.000027
     5  O    0.000001
     6  C    0.000057
     7  O   -0.000043
     8  C   -0.001339
     9  C    0.372649
    10  H    0.000000
    11  H    0.000000
    12  H    0.000000
    13  H    0.000000
    14  H    0.000000
    15  H    0.000005
    16  H    0.000000
    17  H   -0.000058
    18  H   -0.000010
    19  H    0.421373
 Mulliken charges:
               1
     1  C   -0.397380
     2  C   -0.201418
     3  C   -0.073434
     4  C    0.164705
     5  O   -0.251802
     6  C   -0.068199
     7  O   -0.414428
     8  C    0.277067
     9  C   -0.420667
    10  H    0.134970
    11  H    0.117357
    12  H    0.120324
    13  H    0.126598
    14  H    0.099037
    15  H    0.093240
    16  H    0.074782
    17  H    0.122988
    18  H    0.288947
    19  H    0.207312
 Sum of Mulliken charges =   0.00000
 Mulliken charges with hydrogens summed into heavy atoms:
               1
     1  C   -0.024729
     2  C    0.024218
     3  C    0.019807
     4  C    0.239486
     5  O   -0.251802
     6  C    0.054789
     7  O   -0.125481
     8  C    0.277067
     9  C   -0.213355
 Electronic spatial extent (au):  <R**2>=           1392.5714
 Charge=              0.0000 electrons
 Dipole moment (field-independent basis, Debye):
    X=             -0.6515    Y=             -1.3809    Z=             -0.0941  Tot=              1.5297
 Quadrupole moment (field-independent basis, Debye-Ang):
   XX=            -49.5122   YY=            -62.1992   ZZ=            -50.2982
   XY=             -5.7498   XZ=              3.5155   YZ=              3.3606
 Traceless Quadrupole moment (field-independent basis, Debye-Ang):
   XX=              4.4910   YY=             -8.1960   ZZ=              3.7050
   XY=             -5.7498   XZ=              3.5155   YZ=              3.3606
 Octapole moment (field-independent basis, Debye-Ang**2):
  XXX=            -18.4837  YYY=            -11.5981  ZZZ=             -1.8583  XYY=             -8.6493
  XXY=             11.0851  XXZ=             -8.7462  XZZ=             -1.4332  YZZ=             -4.6452
  YYZ=             -3.9508  XYZ=              0.4497
 Hexadecapole moment (field-independent basis, Debye-Ang**3):
 XXXX=          -1032.9970 YYYY=           -602.9113 ZZZZ=           -118.0503 XXXY=            -52.9420
 XXXZ=             39.8095 YYYX=            -14.0604 YYYZ=             16.7124 ZZZX=              1.3256
 ZZZY=              4.9028 XXYY=           -261.9605 XXZZ=           -210.6081 YYZZ=           -101.5952
 XXYZ=             -6.8483 YYXZ=             15.8212 ZZXY=             10.9671
 N-N= 4.314153510867D+02 E-N=-1.849323212324D+03  KE= 4.200142228019D+02
 Calling FoFJK, ICntrl=      2127 FMM=F ISym2X=0 I1Cent= 0 IOpClX= 0 NMat=1 NMatS=1 NMatT=0.
 ***** Axes restored to original set *****
 -------------------------------------------------------------------
 Center     Atomic                   Forces (Hartrees/Bohr)
 Number     Number              X              Y              Z
 -------------------------------------------------------------------
      1        6           0.000005832    0.000006272   -0.000005324
      2        6          -0.000011118    0.000004698    0.000017434
      3        6          -0.000008167    0.000009906   -0.000021701
      4        6           0.000016880    0.000009119   -0.000003962
      5        8          -0.000017115   -0.000002268    0.000007580
      6        6           0.000018762   -0.000019654   -0.000017991
      7        8          -0.000004806    0.000009720    0.000006004
      8        6          -0.000014920    0.000007333    0.000012552
      9        6           0.000011594   -0.000014217    0.000002178
     10        1          -0.000002173   -0.000004851    0.000001380
     11        1           0.000001266    0.000001087    0.000000983
     12        1          -0.000000165   -0.000002138    0.000000105
     13        1           0.000010720    0.000001019    0.000002174
     14        1           0.000002957    0.000000253   -0.000002113
     15        1           0.000008389   -0.000004507   -0.000001247
     16        1          -0.000012655   -0.000006051   -0.000001138
     17        1          -0.000004625    0.000006065    0.000011501
     18        1           0.000009945   -0.000005478   -0.000000812
     19        1          -0.000010601    0.000003693   -0.000007601
 -------------------------------------------------------------------
 Cartesian Forces:  Max     0.000021701 RMS     0.000009256

 GradGradGradGradGradGradGradGradGradGradGradGradGradGradGradGradGradGrad
 Berny optimization.
 FormGI is forming the generalized inverse of G from B-inverse, IUseBI=4.
 Internal  Forces:  Max     0.000020269 RMS     0.000005064
 Search for a local minimum.
 Step number   1 out of a maximum of   96
 All quantities printed in internal units (Hartrees-Bohrs-Radians)
 Mixed Optimization -- En-DIIS/RFO-DIIS
 Second derivative matrix not updated -- first step.
 ITU=  0
     Eigenvalues ---    0.00230   0.00230   0.00358   0.00548   0.00555
     Eigenvalues ---    0.00599   0.00599   0.01395   0.03399   0.04070
     Eigenvalues ---    0.04566   0.04705   0.04705   0.04754   0.05434
     Eigenvalues ---    0.05545   0.05773   0.05831   0.05975   0.08437
     Eigenvalues ---    0.12206   0.12281   0.16000   0.16000   0.16000
     Eigenvalues ---    0.16000   0.16000   0.16429   0.17649   0.20107
     Eigenvalues ---    0.21911   0.22004   0.23664   0.27406   0.28040
     Eigenvalues ---    0.29348   0.30707   0.31894   0.33778   0.33911
     Eigenvalues ---    0.34119   0.34226   0.34338   0.34353   0.34365
     Eigenvalues ---    0.36346   0.38199   0.42094   0.54626   1.03138
     Eigenvalues ---    1.03728
 RFO step:  Lambda=-1.73872869D-08 EMin= 2.30000000D-03
 Linear search not attempted -- first point.
 Iteration  1 RMS(Cart)=  0.00021358 RMS(Int)=  0.00000002
 Iteration  2 RMS(Cart)=  0.00000003 RMS(Int)=  0.00000000
 Variable       Old X    -DE/DX   Delta X   Delta X   Delta X     New X
                                 (Linear)    (Quad)   (Total)
    R1        2.89283   0.00000   0.00000   0.00001   0.00001   2.89284
    R2        2.06764   0.00000   0.00000   0.00000   0.00000   2.06764
    R3        2.06738   0.00000   0.00000   0.00000   0.00000   2.06738
    R4        2.06951   0.00000   0.00000  -0.00001  -0.00001   2.06950
    R5        2.92051   0.00000   0.00000  -0.00002  -0.00002   2.92049
    R6        2.06718   0.00000   0.00000  -0.00001  -0.00001   2.06718
    R7        2.07707   0.00000   0.00000   0.00000   0.00000   2.07707
    R8        2.86575  -0.00001   0.00000  -0.00002  -0.00002   2.86573
    R9        2.93455   0.00001   0.00000   0.00003   0.00003   2.93459
   R10        2.07130   0.00001   0.00000   0.00002   0.00002   2.07132
   R11        2.27408  -0.00002   0.00000  -0.00001  -0.00001   2.27406
   R12        2.11039   0.00001   0.00000   0.00003   0.00003   2.11042
   R13        2.68804   0.00001   0.00000   0.00001   0.00001   2.68805
   R14        2.76844   0.00000   0.00000  -0.00001  -0.00001   2.76844
   R15        2.07481   0.00000   0.00000   0.00000   0.00000   2.07481
   R16        1.82166   0.00000   0.00000   0.00000   0.00000   1.82166
   R17        2.27182   0.00001   0.00000   0.00000   0.00000   2.27182
   R18        2.00777  -0.00001   0.00000  -0.00003  -0.00003   2.00774
    A1        1.95166  -0.00001   0.00000  -0.00004  -0.00004   1.95162
    A2        1.93115   0.00000   0.00000   0.00001   0.00001   1.93116
    A3        1.93705   0.00000   0.00000  -0.00001  -0.00001   1.93704
    A4        1.88552   0.00000   0.00000   0.00001   0.00001   1.88553
    A5        1.87438   0.00000   0.00000   0.00002   0.00002   1.87440
    A6        1.88135   0.00000   0.00000   0.00001   0.00001   1.88136
    A7        1.97914   0.00000   0.00000  -0.00002  -0.00002   1.97913
    A8        1.92883   0.00000   0.00000   0.00002   0.00002   1.92885
    A9        1.92022   0.00000   0.00000  -0.00003  -0.00003   1.92019
   A10        1.87488   0.00000   0.00000   0.00000   0.00000   1.87488
   A11        1.90084   0.00000   0.00000  -0.00003  -0.00003   1.90081
   A12        1.85526   0.00000   0.00000   0.00007   0.00007   1.85533
   A13        1.90375   0.00001   0.00000   0.00004   0.00004   1.90379
   A14        1.93305  -0.00001   0.00000  -0.00004  -0.00004   1.93301
   A15        1.91935   0.00000   0.00000   0.00004   0.00004   1.91939
   A16        1.92760   0.00000   0.00000   0.00001   0.00001   1.92761
   A17        1.87829   0.00000   0.00000  -0.00005  -0.00005   1.87824
   A18        1.90103   0.00000   0.00000  -0.00001  -0.00001   1.90102
   A19        2.18394   0.00000   0.00000   0.00000   0.00000   2.18394
   A20        1.98970   0.00000   0.00000   0.00002   0.00002   1.98972
   A21        2.10844   0.00000   0.00000   0.00000   0.00000   2.10845
   A22        1.95365  -0.00001   0.00000  -0.00004  -0.00004   1.95362
   A23        1.93830   0.00002   0.00000   0.00011   0.00011   1.93841
   A24        1.88866   0.00001   0.00000   0.00007   0.00007   1.88873
   A25        1.94945  -0.00001   0.00000  -0.00006  -0.00006   1.94939
   A26        1.82623   0.00000   0.00000  -0.00008  -0.00008   1.82615
   A27        1.90263  -0.00001   0.00000   0.00000   0.00000   1.90263
   A28        1.87670  -0.00001   0.00000  -0.00007  -0.00007   1.87663
   A29        3.12456  -0.00001   0.00000  -0.00013  -0.00013   3.12444
   A30        3.14565   0.00000   0.00000   0.00034   0.00034   3.14599
   A31        3.10016   0.00000   0.00000   0.00003   0.00003   3.10019
   A32        3.16113   0.00000   0.00000   0.00019   0.00019   3.16132
    D1        1.00990   0.00000   0.00000  -0.00023  -0.00023   1.00967
    D2        3.11613   0.00000   0.00000  -0.00023  -0.00023   3.11590
    D3       -1.12361   0.00000   0.00000  -0.00015  -0.00015  -1.12376
    D4        3.11264   0.00000   0.00000  -0.00024  -0.00024   3.11241
    D5       -1.06431   0.00000   0.00000  -0.00023  -0.00023  -1.06454
    D6        0.97914   0.00000   0.00000  -0.00016  -0.00016   0.97898
    D7       -1.08274   0.00000   0.00000  -0.00023  -0.00023  -1.08296
    D8        1.02350   0.00000   0.00000  -0.00022  -0.00022   1.02327
    D9        3.06694   0.00000   0.00000  -0.00015  -0.00015   3.06679
   D10       -1.24413   0.00000   0.00000   0.00010   0.00010  -1.24403
   D11        2.91403   0.00000   0.00000   0.00008   0.00008   2.91411
   D12        0.81191   0.00000   0.00000   0.00009   0.00009   0.81200
   D13        2.90261   0.00000   0.00000   0.00008   0.00008   2.90269
   D14        0.77758   0.00000   0.00000   0.00007   0.00007   0.77765
   D15       -1.32454   0.00000   0.00000   0.00007   0.00007  -1.32447
   D16        0.90011   0.00000   0.00000   0.00002   0.00002   0.90013
   D17       -1.22492   0.00000   0.00000   0.00000   0.00000  -1.22492
   D18        2.95615   0.00000   0.00000   0.00001   0.00001   2.95616
   D19        1.77997   0.00000   0.00000   0.00031   0.00031   1.78028
   D20       -1.31134   0.00000   0.00000  -0.00001  -0.00001  -1.31135
   D21       -2.37489   0.00000   0.00000   0.00030   0.00030  -2.37459
   D22        0.81698   0.00000   0.00000  -0.00002  -0.00002   0.81696
   D23       -0.30177   0.00000   0.00000   0.00027   0.00027  -0.30150
   D24        2.89011   0.00000   0.00000  -0.00005  -0.00005   2.89005
   D25       -0.99177   0.00000   0.00000  -0.00014  -0.00014  -0.99191
   D26        3.09933   0.00001   0.00000  -0.00012  -0.00012   3.09921
   D27        1.01165   0.00000   0.00000  -0.00022  -0.00022   1.01143
   D28       -3.10273   0.00000   0.00000  -0.00018  -0.00018  -3.10291
   D29        0.98836   0.00000   0.00000  -0.00015  -0.00015   0.98821
   D30       -1.09931  -0.00001   0.00000  -0.00025  -0.00025  -1.09957
   D31        1.12122   0.00000   0.00000  -0.00012  -0.00012   1.12110
   D32       -1.07087   0.00001   0.00000  -0.00009  -0.00009  -1.07096
   D33        3.12464   0.00000   0.00000  -0.00020  -0.00020   3.12445
   D34       -1.33411   0.00000   0.00000  -0.00011  -0.00011  -1.33423
   D35        0.85184   0.00001   0.00000  -0.00004  -0.00004   0.85180
   D36        2.90770  -0.00001   0.00000  -0.00013  -0.00013   2.90757
         Item               Value     Threshold  Converged?
 Maximum Force            0.000020     0.000450     YES
 RMS     Force            0.000005     0.000300     YES
 Maximum Displacement     0.000823     0.001800     YES
 RMS     Displacement     0.000214     0.001200     YES
 Predicted change in Energy=-8.693788D-09
 Optimization completed.
    -- Stationary point found.
                           ----------------------------
                           !   Optimized Parameters   !
                           ! (Angstroms and Degrees)  !
 --------------------------                            --------------------------
 ! Name  Definition              Value          Derivative Info.                !
 --------------------------------------------------------------------------------
 ! R1    R(1,2)                  1.5308         -DE/DX =    0.0                 !
 ! R2    R(1,10)                 1.0941         -DE/DX =    0.0                 !
 ! R3    R(1,11)                 1.094          -DE/DX =    0.0                 !
 ! R4    R(1,12)                 1.0951         -DE/DX =    0.0                 !
 ! R5    R(2,3)                  1.5455         -DE/DX =    0.0                 !
 ! R6    R(2,13)                 1.0939         -DE/DX =    0.0                 !
 ! R7    R(2,14)                 1.0991         -DE/DX =    0.0                 !
 ! R8    R(3,4)                  1.5165         -DE/DX =    0.0                 !
 ! R9    R(3,6)                  1.5529         -DE/DX =    0.0                 !
 ! R10   R(3,15)                 1.0961         -DE/DX =    0.0                 !
 ! R11   R(4,5)                  1.2034         -DE/DX =    0.0                 !
 ! R12   R(4,16)                 1.1168         -DE/DX =    0.0                 !
 ! R13   R(6,7)                  1.4225         -DE/DX =    0.0                 !
 ! R14   R(6,8)                  1.465          -DE/DX =    0.0                 !
 ! R15   R(6,17)                 1.0979         -DE/DX =    0.0                 !
 ! R16   R(7,18)                 0.964          -DE/DX =    0.0                 !
 ! R17   R(8,9)                  1.2022         -DE/DX =    0.0                 !
 ! R18   R(9,19)                 1.0625         -DE/DX =    0.0                 !
 ! A1    A(2,1,10)             111.822          -DE/DX =    0.0                 !
 ! A2    A(2,1,11)             110.6468         -DE/DX =    0.0                 !
 ! A3    A(2,1,12)             110.9846         -DE/DX =    0.0                 !
 ! A4    A(10,1,11)            108.0324         -DE/DX =    0.0                 !
 ! A5    A(10,1,12)            107.3942         -DE/DX =    0.0                 !
 ! A6    A(11,1,12)            107.7933         -DE/DX =    0.0                 !
 ! A7    A(1,2,3)              113.3966         -DE/DX =    0.0                 !
 ! A8    A(1,2,13)             110.5138         -DE/DX =    0.0                 !
 ! A9    A(1,2,14)             110.0204         -DE/DX =    0.0                 !
 ! A10   A(3,2,13)             107.4226         -DE/DX =    0.0                 !
 ! A11   A(3,2,14)             108.91           -DE/DX =    0.0                 !
 ! A12   A(13,2,14)            106.2984         -DE/DX =    0.0                 !
 ! A13   A(2,3,4)              109.0769         -DE/DX =    0.0                 !
 ! A14   A(2,3,6)              110.7555         -DE/DX =    0.0                 !
 ! A15   A(2,3,15)             109.9709         -DE/DX =    0.0                 !
 ! A16   A(4,3,6)              110.4436         -DE/DX =    0.0                 !
 ! A17   A(4,3,15)             107.618          -DE/DX =    0.0                 !
 ! A18   A(6,3,15)             108.9209         -DE/DX =    0.0                 !
 ! A19   A(3,4,5)              125.1306         -DE/DX =    0.0                 !
 ! A20   A(3,4,16)             114.0014         -DE/DX =    0.0                 !
 ! A21   A(5,4,16)             120.8049         -DE/DX =    0.0                 !
 ! A22   A(3,6,7)              111.9361         -DE/DX =    0.0                 !
 ! A23   A(3,6,8)              111.0565         -DE/DX =    0.0                 !
 ! A24   A(3,6,17)             108.2124         -DE/DX =    0.0                 !
 ! A25   A(7,6,8)              111.6952         -DE/DX =    0.0                 !
 ! A26   A(7,6,17)             104.6351         -DE/DX =    0.0                 !
 ! A27   A(8,6,17)             109.0128         -DE/DX =    0.0                 !
 ! A28   A(6,7,18)             107.5271         -DE/DX =    0.0                 !
 ! A29   L(6,8,9,5,-1)         179.0241         -DE/DX =    0.0                 !
 ! A30   L(8,9,19,5,-1)        180.2322         -DE/DX =    0.0                 !
 ! A31   L(6,8,9,5,-2)         177.6261         -DE/DX =    0.0                 !
 ! A32   L(8,9,19,5,-2)        181.1195         -DE/DX =    0.0                 !
 ! D1    D(10,1,2,3)            57.8628         -DE/DX =    0.0                 !
 ! D2    D(10,1,2,13)          178.5411         -DE/DX =    0.0                 !
 ! D3    D(10,1,2,14)          -64.3781         -DE/DX =    0.0                 !
 ! D4    D(11,1,2,3)           178.3414         -DE/DX =    0.0                 !
 ! D5    D(11,1,2,13)          -60.9804         -DE/DX =    0.0                 !
 ! D6    D(11,1,2,14)           56.1004         -DE/DX =    0.0                 !
 ! D7    D(12,1,2,3)           -62.0363         -DE/DX =    0.0                 !
 ! D8    D(12,1,2,13)           58.642          -DE/DX =    0.0                 !
 ! D9    D(12,1,2,14)          175.7228         -DE/DX =    0.0                 !
 ! D10   D(1,2,3,4)            -71.2833         -DE/DX =    0.0                 !
 ! D11   D(1,2,3,6)            166.9614         -DE/DX =    0.0                 !
 ! D12   D(1,2,3,15)            46.519          -DE/DX =    0.0                 !
 ! D13   D(13,2,3,4)           166.3074         -DE/DX =    0.0                 !
 ! D14   D(13,2,3,6)            44.5521         -DE/DX =    0.0                 !
 ! D15   D(13,2,3,15)          -75.8904         -DE/DX =    0.0                 !
 ! D16   D(14,2,3,4)            51.5726         -DE/DX =    0.0                 !
 ! D17   D(14,2,3,6)           -70.1827         -DE/DX =    0.0                 !
 ! D18   D(14,2,3,15)          169.3748         -DE/DX =    0.0                 !
 ! D19   D(2,3,4,5)            101.9846         -DE/DX =    0.0                 !
 ! D20   D(2,3,4,16)           -75.1343         -DE/DX =    0.0                 !
 ! D21   D(6,3,4,5)           -136.0714         -DE/DX =    0.0                 !
 ! D22   D(6,3,4,16)            46.8098         -DE/DX =    0.0                 !
 ! D23   D(15,3,4,5)           -17.2902         -DE/DX =    0.0                 !
 ! D24   D(15,3,4,16)          165.591          -DE/DX =    0.0                 !
 ! D25   D(2,3,6,7)            -56.8241         -DE/DX =    0.0                 !
 ! D26   D(2,3,6,8)            177.5785         -DE/DX =    0.0                 !
 ! D27   D(2,3,6,17)            57.9634         -DE/DX =    0.0                 !
 ! D28   D(4,3,6,7)           -177.7735         -DE/DX =    0.0                 !
 ! D29   D(4,3,6,8)             56.6291         -DE/DX =    0.0                 !
 ! D30   D(4,3,6,17)           -62.986          -DE/DX =    0.0                 !
 ! D31   D(15,3,6,7)            64.2414         -DE/DX =    0.0                 !
 ! D32   D(15,3,6,8)           -61.356          -DE/DX =    0.0                 !
 ! D33   D(15,3,6,17)          179.0289         -DE/DX =    0.0                 !
 ! D34   D(3,6,7,18)           -76.4391         -DE/DX =    0.0                 !
 ! D35   D(8,6,7,18)            48.8068         -DE/DX =    0.0                 !
 ! D36   D(17,6,7,18)          166.599          -DE/DX =    0.0                 !
 --------------------------------------------------------------------------------
 GradGradGradGradGradGradGradGradGradGradGradGradGradGradGradGradGradGrad

                          Input orientation:                          
 ---------------------------------------------------------------------
 Center     Atomic      Atomic             Coordinates (Angstroms)
 Number     Number       Type             X           Y           Z
 ---------------------------------------------------------------------
      1          6           0       -0.316530    2.810476   -0.714911
      2          6           0       -1.021240    2.030248    0.397763
      3          6           0       -0.098226    1.023201    1.120516
      4          6           0        0.199350   -0.134484    0.187267
      5          8           0        1.222683   -0.282187   -0.428461
      6          6           0       -0.760725    0.509626    2.427739
      7          8           0       -1.100152    1.575924    3.305896
      8          6           0        0.083657   -0.488478    3.088820
      9          6           0        0.817051   -1.275403    3.625619
     10          1           0        0.109452    2.144720   -1.471525
     11          1           0       -1.016282    3.487000   -1.214429
     12          1           0        0.503031    3.414701   -0.311722
     13          1           0       -1.416119    2.714202    1.154672
     14          1           0       -1.886631    1.490076   -0.011401
     15          1           0        0.855717    1.501979    1.369856
     16          1           0       -0.650037   -0.849124    0.064788
     17          1           0       -1.722299    0.048343    2.166829
     18          1           0       -0.286423    1.875248    3.727214
     19          1           0        1.452030   -1.983308    4.099440
 ---------------------------------------------------------------------
                    Distance matrix (angstroms):
                    1          2          3          4          5
     1  C    0.000000
     2  C    1.530822   0.000000
     3  C    2.571148   1.545467   0.000000
     4  C    3.122955   2.494035   1.516490   0.000000
     5  O    3.466381   3.326439   2.418299   1.203390   0.000000
     6  C    3.920136   2.549698   1.552899   2.521177   3.566336
     7  O    4.278443   2.944465   2.466829   3.786826   4.774261
     8  C    5.050902   3.847929   2.488468   2.925355   3.702864
     9  C    6.067917   4.972493   3.520917   3.674985   4.193636
    10  H    1.094147   2.187649   2.831892   2.820362   2.866556
    11  H    1.094009   2.172859   3.516404   4.069110   4.453929
    12  H    1.095138   2.177953   2.851681   3.596932   3.768091
    13  H    2.171107   1.093907   2.144176   3.414765   4.295106
    14  H    2.168779   1.099138   2.167395   2.651411   3.603150
    15  H    2.726275   2.178761   1.096086   2.123051   2.559660
    16  H    3.756572   2.922233   2.219157   1.116768   2.017869
    17  H    4.232020   2.747549   2.163962   2.764928   3.939252
    18  H    4.539607   3.413096   2.748868   4.099540   4.919509
    19  H    7.020409   5.994006   4.507369   4.504715   4.842345
                    6          7          8          9         10
     6  C    0.000000
     7  O    1.422450   0.000000
     8  C    1.464998   2.389619   0.000000
     9  C    2.666575   3.450790   1.202195   0.000000
    10  H    4.316827   4.960890   5.266036   6.178901   0.000000
    11  H    4.711205   4.908420   5.960892   7.033324   1.770619
    12  H    4.188220   4.363308   5.193685   6.131748   1.764341
    13  H    2.628763   2.454237   4.030808   5.197074   3.090079
    14  H    2.859781   3.410334   4.172298   5.309019   2.558295
    15  H    2.171812   2.753025   2.740955   3.578242   3.007237
    16  H    2.728000   4.072867   3.132593   3.874736   3.449664
    17  H    1.097943   2.004506   2.097551   3.213825   4.581237
    18  H    1.943843   0.963981   2.476228   3.339847   5.220749
    19  H    3.729020   4.451009   2.264579   1.062466   7.062491
                   11         12         13         14         15
    11  H    0.000000
    12  H    1.768734   0.000000
    13  H    2.523831   2.514785   0.000000
    14  H    2.488472   3.082995   1.754877   0.000000
    15  H    3.758087   2.571108   2.583994   3.070584   0.000000
    16  H    4.535692   4.433004   3.804210   2.647041   3.081912
    17  H    4.873985   4.735786   2.867928   2.617305   3.065027
    18  H    5.248836   4.393877   2.932240   4.084883   2.645931
    19  H    8.015861   7.035442   6.242158   6.333251   4.466928
                   16         17         18         19
    16  H    0.000000
    17  H    2.524633   0.000000
    18  H    4.579059   2.798950   0.000000
    19  H    4.688654   4.235441   4.248438   0.000000
 Stoichiometry    C7H10O2
 Framework group  C1[X(C7H10O2)]
 Deg. of freedom    51
 Full point group                 C1      NOp   1
 Largest Abelian subgroup         C1      NOp   1
 Largest concise Abelian subgroup C1      NOp   1
                         Standard orientation:                         
 ---------------------------------------------------------------------
 Center     Atomic      Atomic             Coordinates (Angstroms)
 Number     Number       Type             X           Y           Z
 ---------------------------------------------------------------------
      1          6           0        2.876213   -0.453165   -0.395362
      2          6           0        1.584918   -0.866480    0.315372
      3          6           0        0.355110   -0.034469   -0.113347
      4          6           0        0.483958    1.367302    0.450726
      5          8           0        0.829911    2.335990   -0.173861
      6          6           0       -0.958456   -0.699305    0.380649
      7          8           0       -1.086973   -2.035733   -0.089251
      8          6           0       -2.124965    0.113511    0.027370
      9          6           0       -3.063615    0.784140   -0.310956
     10          1           0        3.112065    0.602247   -0.229118
     11          1           0        3.721038   -1.049333   -0.037996
     12          1           0        2.794052   -0.603834   -1.476970
     13          1           0        1.355944   -1.917045    0.114088
     14          1           0        1.710713   -0.781279    1.403958
     15          1           0        0.322105    0.049239   -1.205734
     16          1           0        0.274160    1.437537    1.545359
     17          1           0       -0.905646   -0.793300    1.473286
     18          1           0       -1.348659   -1.993683   -1.016081
     19          1           0       -3.898254    1.378180   -0.592609
 ---------------------------------------------------------------------
 Rotational constants (GHZ):      2.1414971      1.2119742      0.8268137
 1\1\GINC-ALCHEMY-GE\FOpt\RB3LYP\6-31G(2df,p)\C7H10O2\PUCK\28-Jan-2020\
 0\\# b3lyp 6-31G(2df,p) opt Freq\\titel\\0,1\C,-0.3165295362,2.8104763
 701,-0.714910653\C,-1.0212399107,2.0302479238,0.3977634018\C,-0.098226
 0537,1.023201295,1.1205160406\C,0.1993502686,-0.1344838322,0.187266900
 9\O,1.2226833567,-0.2821872447,-0.4284613245\C,-0.7607249033,0.5096256
 178,2.4277385111\O,-1.1001522296,1.5759239884,3.3058962267\C,0.0836566
 057,-0.4884776965,3.0888195543\C,0.8170506256,-1.2754028375,3.62561907
 49\H,0.1094521931,2.1447200257,-1.471524989\H,-1.0162820354,3.48700003
 99,-1.2144287078\H,0.5030310509,3.4147006254,-0.3117220555\H,-1.416118
 9706,2.7142018673,1.1546716764\H,-1.8866312577,1.4900756932,-0.0114008
 788\H,0.8557168954,1.5019790209,1.3698557348\H,-0.6500371487,-0.849123
 7829,0.0647881355\H,-1.7222989953,0.0483433187,2.1668293027\H,-0.28642
 25072,1.8752480942,3.7272142887\H,1.4520302222,-1.9833077364,4.0994400
 5\\Version=ES64L-G09RevD.01\State=1-A\HF=-423.1503514\RMSD=9.335e-09\R
 MSF=9.256e-06\Dipole=-0.2476974,0.24519,0.4906489\Quadrupole=-1.452417
 2,2.305791,-0.8533737,1.3685874,6.8001483,-2.6625492\PG=C01 [X(C7H10O2
 )]\\@


 NEVER TEACH A PIG TO SING.
 IT WASTES YOUR TIME AND ANNOYS THE PIG.
     -- SEEN ON A GREETING CARD
 Job cpu time:       0 days  0 hours  6 minutes 20.6 seconds.
 File lengths (MBytes):  RWF=     52 Int=      0 D2E=      0 Chk=      7 Scr=      1
 Normal termination of Gaussian 09 at Tue Jan 28 08:21:07 2020.
 Link1:  Proceeding to internal job step number  2.
 ----------------------------------------------------------------------
 #N Geom=AllCheck Guess=TCheck SCRF=Check GenChk RB3LYP/6-31G(2df,p) Fr
 eq
 ----------------------------------------------------------------------
 1/10=4,29=7,30=1,38=1,40=1/1,3;
 2/12=2,40=1/2;
 3/5=1,6=6,7=104,11=2,14=-4,16=1,25=1,30=1,70=2,71=2,74=-5,116=1,140=1/1,2,3;
 4/5=101/1;
 5/5=2,98=1/2;
 8/6=4,10=90,11=11/1;
 11/6=1,8=1,9=11,15=111,16=1/1,2,10;
 10/6=1/2;
 6/7=2,8=2,9=2,10=2,18=1,28=1/1;
 7/8=1,10=1,25=1/1,2,3,16;
 1/10=4,30=1/3;
 99//99;
 Structure from the checkpoint file:  "/scratch/puck/g09_edbe8584-c648-4b29-971a-ad095b4bd0dc/Gau-106568.chk"
 -----
 titel
 -----
 Charge =  0 Multiplicity = 1
 Redundant internal coordinates found in file.
 C,0,-0.3165295362,2.8104763701,-0.714910653
 C,0,-1.0212399107,2.0302479238,0.3977634018
 C,0,-0.0982260537,1.023201295,1.1205160406
 C,0,0.1993502686,-0.1344838322,0.1872669009
 O,0,1.2226833567,-0.2821872447,-0.4284613245
 C,0,-0.7607249033,0.5096256178,2.4277385111
 O,0,-1.1001522296,1.5759239884,3.3058962267
 C,0,0.0836566057,-0.4884776965,3.0888195543
 C,0,0.8170506256,-1.2754028375,3.6256190749
 H,0,0.1094521931,2.1447200257,-1.471524989
 H,0,-1.0162820354,3.4870000399,-1.2144287078
 H,0,0.5030310509,3.4147006254,-0.3117220555
 H,0,-1.4161189706,2.7142018673,1.1546716764
 H,0,-1.8866312577,1.4900756932,-0.0114008788
 H,0,0.8557168954,1.5019790209,1.3698557348
 H,0,-0.6500371487,-0.8491237829,0.0647881355
 H,0,-1.7222989953,0.0483433187,2.1668293027
 H,0,-0.2864225072,1.8752480942,3.7272142887
 H,0,1.4520302222,-1.9833077364,4.09944005
 Recover connectivity data from disk.

 GradGradGradGradGradGradGradGradGradGradGradGradGradGradGradGradGradGrad
 Berny optimization.
 Initialization pass.
                           ----------------------------
                           !    Initial Parameters    !
                           ! (Angstroms and Degrees)  !
 --------------------------                            --------------------------
 ! Name  Definition              Value          Derivative Info.                !
 --------------------------------------------------------------------------------
 ! R1    R(1,2)                  1.5308         calculate D2E/DX2 analytically  !
 ! R2    R(1,10)                 1.0941         calculate D2E/DX2 analytically  !
 ! R3    R(1,11)                 1.094          calculate D2E/DX2 analytically  !
 ! R4    R(1,12)                 1.0951         calculate D2E/DX2 analytically  !
 ! R5    R(2,3)                  1.5455         calculate D2E/DX2 analytically  !
 ! R6    R(2,13)                 1.0939         calculate D2E/DX2 analytically  !
 ! R7    R(2,14)                 1.0991         calculate D2E/DX2 analytically  !
 ! R8    R(3,4)                  1.5165         calculate D2E/DX2 analytically  !
 ! R9    R(3,6)                  1.5529         calculate D2E/DX2 analytically  !
 ! R10   R(3,15)                 1.0961         calculate D2E/DX2 analytically  !
 ! R11   R(4,5)                  1.2034         calculate D2E/DX2 analytically  !
 ! R12   R(4,16)                 1.1168         calculate D2E/DX2 analytically  !
 ! R13   R(6,7)                  1.4225         calculate D2E/DX2 analytically  !
 ! R14   R(6,8)                  1.465          calculate D2E/DX2 analytically  !
 ! R15   R(6,17)                 1.0979         calculate D2E/DX2 analytically  !
 ! R16   R(7,18)                 0.964          calculate D2E/DX2 analytically  !
 ! R17   R(8,9)                  1.2022         calculate D2E/DX2 analytically  !
 ! R18   R(9,19)                 1.0625         calculate D2E/DX2 analytically  !
 ! A1    A(2,1,10)             111.822          calculate D2E/DX2 analytically  !
 ! A2    A(2,1,11)             110.6468         calculate D2E/DX2 analytically  !
 ! A3    A(2,1,12)             110.9846         calculate D2E/DX2 analytically  !
 ! A4    A(10,1,11)            108.0324         calculate D2E/DX2 analytically  !
 ! A5    A(10,1,12)            107.3942         calculate D2E/DX2 analytically  !
 ! A6    A(11,1,12)            107.7933         calculate D2E/DX2 analytically  !
 ! A7    A(1,2,3)              113.3966         calculate D2E/DX2 analytically  !
 ! A8    A(1,2,13)             110.5138         calculate D2E/DX2 analytically  !
 ! A9    A(1,2,14)             110.0204         calculate D2E/DX2 analytically  !
 ! A10   A(3,2,13)             107.4226         calculate D2E/DX2 analytically  !
 ! A11   A(3,2,14)             108.91           calculate D2E/DX2 analytically  !
 ! A12   A(13,2,14)            106.2984         calculate D2E/DX2 analytically  !
 ! A13   A(2,3,4)              109.0769         calculate D2E/DX2 analytically  !
 ! A14   A(2,3,6)              110.7555         calculate D2E/DX2 analytically  !
 ! A15   A(2,3,15)             109.9709         calculate D2E/DX2 analytically  !
 ! A16   A(4,3,6)              110.4436         calculate D2E/DX2 analytically  !
 ! A17   A(4,3,15)             107.618          calculate D2E/DX2 analytically  !
 ! A18   A(6,3,15)             108.9209         calculate D2E/DX2 analytically  !
 ! A19   A(3,4,5)              125.1306         calculate D2E/DX2 analytically  !
 ! A20   A(3,4,16)             114.0014         calculate D2E/DX2 analytically  !
 ! A21   A(5,4,16)             120.8049         calculate D2E/DX2 analytically  !
 ! A22   A(3,6,7)              111.9361         calculate D2E/DX2 analytically  !
 ! A23   A(3,6,8)              111.0565         calculate D2E/DX2 analytically  !
 ! A24   A(3,6,17)             108.2124         calculate D2E/DX2 analytically  !
 ! A25   A(7,6,8)              111.6952         calculate D2E/DX2 analytically  !
 ! A26   A(7,6,17)             104.6351         calculate D2E/DX2 analytically  !
 ! A27   A(8,6,17)             109.0128         calculate D2E/DX2 analytically  !
 ! A28   A(6,7,18)             107.5271         calculate D2E/DX2 analytically  !
 ! A29   L(6,8,9,5,-1)         179.0241         calculate D2E/DX2 analytically  !
 ! A30   L(8,9,19,5,-1)        180.2322         calculate D2E/DX2 analytically  !
 ! A31   L(6,8,9,5,-2)         177.6261         calculate D2E/DX2 analytically  !
 ! A32   L(8,9,19,5,-2)        181.1195         calculate D2E/DX2 analytically  !
 ! D1    D(10,1,2,3)            57.8628         calculate D2E/DX2 analytically  !
 ! D2    D(10,1,2,13)          178.5411         calculate D2E/DX2 analytically  !
 ! D3    D(10,1,2,14)          -64.3781         calculate D2E/DX2 analytically  !
 ! D4    D(11,1,2,3)           178.3414         calculate D2E/DX2 analytically  !
 ! D5    D(11,1,2,13)          -60.9804         calculate D2E/DX2 analytically  !
 ! D6    D(11,1,2,14)           56.1004         calculate D2E/DX2 analytically  !
 ! D7    D(12,1,2,3)           -62.0363         calculate D2E/DX2 analytically  !
 ! D8    D(12,1,2,13)           58.642          calculate D2E/DX2 analytically  !
 ! D9    D(12,1,2,14)          175.7228         calculate D2E/DX2 analytically  !
 ! D10   D(1,2,3,4)            -71.2833         calculate D2E/DX2 analytically  !
 ! D11   D(1,2,3,6)            166.9614         calculate D2E/DX2 analytically  !
 ! D12   D(1,2,3,15)            46.519          calculate D2E/DX2 analytically  !
 ! D13   D(13,2,3,4)           166.3074         calculate D2E/DX2 analytically  !
 ! D14   D(13,2,3,6)            44.5521         calculate D2E/DX2 analytically  !
 ! D15   D(13,2,3,15)          -75.8904         calculate D2E/DX2 analytically  !
 ! D16   D(14,2,3,4)            51.5726         calculate D2E/DX2 analytically  !
 ! D17   D(14,2,3,6)           -70.1827         calculate D2E/DX2 analytically  !
 ! D18   D(14,2,3,15)          169.3748         calculate D2E/DX2 analytically  !
 ! D19   D(2,3,4,5)            101.9846         calculate D2E/DX2 analytically  !
 ! D20   D(2,3,4,16)           -75.1343         calculate D2E/DX2 analytically  !
 ! D21   D(6,3,4,5)           -136.0714         calculate D2E/DX2 analytically  !
 ! D22   D(6,3,4,16)            46.8098         calculate D2E/DX2 analytically  !
 ! D23   D(15,3,4,5)           -17.2902         calculate D2E/DX2 analytically  !
 ! D24   D(15,3,4,16)          165.591          calculate D2E/DX2 analytically  !
 ! D25   D(2,3,6,7)            -56.8241         calculate D2E/DX2 analytically  !
 ! D26   D(2,3,6,8)            177.5785         calculate D2E/DX2 analytically  !
 ! D27   D(2,3,6,17)            57.9634         calculate D2E/DX2 analytically  !
 ! D28   D(4,3,6,7)           -177.7735         calculate D2E/DX2 analytically  !
 ! D29   D(4,3,6,8)             56.6291         calculate D2E/DX2 analytically  !
 ! D30   D(4,3,6,17)           -62.986          calculate D2E/DX2 analytically  !
 ! D31   D(15,3,6,7)            64.2414         calculate D2E/DX2 analytically  !
 ! D32   D(15,3,6,8)           -61.356          calculate D2E/DX2 analytically  !
 ! D33   D(15,3,6,17)          179.0289         calculate D2E/DX2 analytically  !
 ! D34   D(3,6,7,18)           -76.4391         calculate D2E/DX2 analytically  !
 ! D35   D(8,6,7,18)            48.8068         calculate D2E/DX2 analytically  !
 ! D36   D(17,6,7,18)          166.599          calculate D2E/DX2 analytically  !
 --------------------------------------------------------------------------------
 Trust Radius=3.00D-01 FncErr=1.00D-07 GrdErr=1.00D-07
 Number of steps in this run=      2 maximum allowed number of steps=      2.
 GradGradGradGradGradGradGradGradGradGradGradGradGradGradGradGradGradGrad

                          Input orientation:                          
 ---------------------------------------------------------------------
 Center     Atomic      Atomic             Coordinates (Angstroms)
 Number     Number       Type             X           Y           Z
 ---------------------------------------------------------------------
      1          6           0       -0.316530    2.810476   -0.714911
      2          6           0       -1.021240    2.030248    0.397763
      3          6           0       -0.098226    1.023201    1.120516
      4          6           0        0.199350   -0.134484    0.187267
      5          8           0        1.222683   -0.282187   -0.428461
      6          6           0       -0.760725    0.509626    2.427739
      7          8           0       -1.100152    1.575924    3.305896
      8          6           0        0.083657   -0.488478    3.088820
      9          6           0        0.817051   -1.275403    3.625619
     10          1           0        0.109452    2.144720   -1.471525
     11          1           0       -1.016282    3.487000   -1.214429
     12          1           0        0.503031    3.414701   -0.311722
     13          1           0       -1.416119    2.714202    1.154672
     14          1           0       -1.886631    1.490076   -0.011401
     15          1           0        0.855717    1.501979    1.369856
     16          1           0       -0.650037   -0.849124    0.064788
     17          1           0       -1.722299    0.048343    2.166829
     18          1           0       -0.286423    1.875248    3.727214
     19          1           0        1.452030   -1.983308    4.099440
 ---------------------------------------------------------------------
                    Distance matrix (angstroms):
                    1          2          3          4          5
     1  C    0.000000
     2  C    1.530822   0.000000
     3  C    2.571148   1.545467   0.000000
     4  C    3.122955   2.494035   1.516490   0.000000
     5  O    3.466381   3.326439   2.418299   1.203390   0.000000
     6  C    3.920136   2.549698   1.552899   2.521177   3.566336
     7  O    4.278443   2.944465   2.466829   3.786826   4.774261
     8  C    5.050902   3.847929   2.488468   2.925355   3.702864
     9  C    6.067917   4.972493   3.520917   3.674985   4.193636
    10  H    1.094147   2.187649   2.831892   2.820362   2.866556
    11  H    1.094009   2.172859   3.516404   4.069110   4.453929
    12  H    1.095138   2.177953   2.851681   3.596932   3.768091
    13  H    2.171107   1.093907   2.144176   3.414765   4.295106
    14  H    2.168779   1.099138   2.167395   2.651411   3.603150
    15  H    2.726275   2.178761   1.096086   2.123051   2.559660
    16  H    3.756572   2.922233   2.219157   1.116768   2.017869
    17  H    4.232020   2.747549   2.163962   2.764928   3.939252
    18  H    4.539607   3.413096   2.748868   4.099540   4.919509
    19  H    7.020409   5.994006   4.507369   4.504715   4.842345
                    6          7          8          9         10
     6  C    0.000000
     7  O    1.422450   0.000000
     8  C    1.464998   2.389619   0.000000
     9  C    2.666575   3.450790   1.202195   0.000000
    10  H    4.316827   4.960890   5.266036   6.178901   0.000000
    11  H    4.711205   4.908420   5.960892   7.033324   1.770619
    12  H    4.188220   4.363308   5.193685   6.131748   1.764341
    13  H    2.628763   2.454237   4.030808   5.197074   3.090079
    14  H    2.859781   3.410334   4.172298   5.309019   2.558295
    15  H    2.171812   2.753025   2.740955   3.578242   3.007237
    16  H    2.728000   4.072867   3.132593   3.874736   3.449664
    17  H    1.097943   2.004506   2.097551   3.213825   4.581237
    18  H    1.943843   0.963981   2.476228   3.339847   5.220749
    19  H    3.729020   4.451009   2.264579   1.062466   7.062491
                   11         12         13         14         15
    11  H    0.000000
    12  H    1.768734   0.000000
    13  H    2.523831   2.514785   0.000000
    14  H    2.488472   3.082995   1.754877   0.000000
    15  H    3.758087   2.571108   2.583994   3.070584   0.000000
    16  H    4.535692   4.433004   3.804210   2.647041   3.081912
    17  H    4.873985   4.735786   2.867928   2.617305   3.065027
    18  H    5.248836   4.393877   2.932240   4.084883   2.645931
    19  H    8.015861   7.035442   6.242158   6.333251   4.466928
                   16         17         18         19
    16  H    0.000000
    17  H    2.524633   0.000000
    18  H    4.579059   2.798950   0.000000
    19  H    4.688654   4.235441   4.248438   0.000000
 Stoichiometry    C7H10O2
 Framework group  C1[X(C7H10O2)]
 Deg. of freedom    51
 Full point group                 C1      NOp   1
 Largest Abelian subgroup         C1      NOp   1
 Largest concise Abelian subgroup C1      NOp   1
                         Standard orientation:                         
 ---------------------------------------------------------------------
 Center     Atomic      Atomic             Coordinates (Angstroms)
 Number     Number       Type             X           Y           Z
 ---------------------------------------------------------------------
      1          6           0        2.876213   -0.453165   -0.395362
      2          6           0        1.584918   -0.866480    0.315372
      3          6           0        0.355110   -0.034469   -0.113347
      4          6           0        0.483958    1.367302    0.450726
      5          8           0        0.829911    2.335990   -0.173861
      6          6           0       -0.958456   -0.699305    0.380649
      7          8           0       -1.086973   -2.035733   -0.089251
      8          6           0       -2.124965    0.113511    0.027370
      9          6           0       -3.063615    0.784140   -0.310956
     10          1           0        3.112065    0.602247   -0.229118
     11          1           0        3.721038   -1.049333   -0.037996
     12          1           0        2.794052   -0.603834   -1.476970
     13          1           0        1.355944   -1.917045    0.114088
     14          1           0        1.710713   -0.781279    1.403958
     15          1           0        0.322105    0.049239   -1.205734
     16          1           0        0.274160    1.437537    1.545359
     17          1           0       -0.905646   -0.793300    1.473286
     18          1           0       -1.348659   -1.993683   -1.016081
     19          1           0       -3.898254    1.378180   -0.592609
 ---------------------------------------------------------------------
 Rotational constants (GHZ):      2.1414971      1.2119742      0.8268137
 Standard basis: 6-31G(2df,p) (6D, 7F)
 There are   329 symmetry adapted cartesian basis functions of A   symmetry.
 There are   302 symmetry adapted basis functions of A   symmetry.
   302 basis functions,   466 primitive gaussians,   329 cartesian basis functions
    34 alpha electrons       34 beta electrons
       nuclear repulsion energy       431.4153510867 Hartrees.
 NAtoms=   19 NActive=   19 NUniq=   19 SFac= 1.00D+00 NAtFMM=   60 NAOKFM=F Big=F
 Integral buffers will be    131072 words long.
 Raffenetti 2 integral format.
 Two-electron integral symmetry is turned on.
 One-electron integrals computed using PRISM.
 NBasis=   302 RedAO= T EigKep=  1.39D-04  NBF=   302
 NBsUse=   302 1.00D-06 EigRej= -1.00D+00 NBFU=   302
 Initial guess from the checkpoint file:  "/scratch/puck/g09_edbe8584-c648-4b29-971a-ad095b4bd0dc/Gau-106568.chk"
 B after Tr=     0.000000    0.000000    0.000000
         Rot=    1.000000    0.000000    0.000000    0.000000 Ang=   0.00 deg.
 Requested convergence on RMS density matrix=1.00D-08 within 128 cycles.
 Requested convergence on MAX density matrix=1.00D-06.
 Requested convergence on             energy=1.00D-06.
 No special actions if energy rises.
 SCF Done:  E(RB3LYP) =  -423.150351435     A.U. after    1 cycles
            NFock=  1  Conv=0.87D-08     -V/T= 2.0075
 DoSCS=F DFT=T ScalE2(SS,OS)=  1.000000  1.000000
 Range of M.O.s used for correlation:     1   302
 NBasis=   302 NAE=    34 NBE=    34 NFC=     0 NFV=     0
 NROrb=    302 NOA=    34 NOB=    34 NVA=   268 NVB=   268

 **** Warning!!: The largest alpha MO coefficient is  0.18371598D+02

 Symmetrizing basis deriv contribution to polar:
 IMax=3 JMax=2 DiffMx= 0.00D+00
 G2DrvN: will do    20 centers at a time, making    1 passes.
 Calling FoFCou, ICntrl=  3107 FMM=F I1Cent=   0 AccDes= 0.00D+00.
[...]
 0.02211551,0.00913260,-0.07855453,-0.01386876,-0.00504168,0.84011237,-
 0.00121681,-0.00083981,-0.00003803,0.01505148,-0.02433645,-0.00488220,
 -0.01136090,-0.14495305,-0.04332134,0.03283581,0.42280411,-0.00237936,
 0.00174319,0.00141844,0.00301512,0.00735721,0.02010718,-0.00477320,-0.
 04117538,-0.11368910,-0.28308029,0.13792811,0.45449900,-0.00044324,0.0
 0025188,0.00104531,0.00310934,-0.00285565,0.00323058,-0.01319216,0.015
 94485,0.02700958,-0.59862056,0.05973321,0.30848031,0.65215752,0.000262
 95,0.00013303,0.00070955,-0.00110470,0.00056680,-0.00014455,0.03124615
 ,0.01022912,-0.02750405,0.05838418,-0.10044888,-0.05856544,-0.07225974
 ,0.07522206,0.00066451,-0.00012863,-0.00144819,-0.00008730,-0.00079344
 ,-0.00924512,0.03755559,-0.01718247,-0.00771999,0.30658969,-0.05893231
 ,-0.25694279,-0.36310229,0.07534434,0.25524931,-0.00370432,0.00275584,
 -0.00146508,0.00991268,0.00411982,-0.01488122,-0.09199947,-0.02703184,
 0.01903293,-0.00668682,0.00697210,0.00908414,0.00258214,-0.00025423,-0
 .00025355,0.56291301,0.00448243,-0.00362271,0.00097307,-0.01133371,-0.
 00918929,0.02266551,-0.01761082,-0.08466866,0.01324515,0.01060955,0.01
 759290,-0.01946375,0.00442673,-0.00795170,-0.00277348,0.02792116,0.472
 73753,-0.00138739,-0.00012926,-0.00017305,0.00254353,0.01426266,-0.019
 34269,0.02244103,0.03276386,-0.10679038,0.01380795,-0.00552650,-0.0247
 7140,-0.00507770,0.00159758,0.00290206,0.07203608,0.00913834,0.4331000
 5,0.00021261,-0.00047076,-0.00025493,0.00058901,0.00145901,-0.00190415
 ,-0.00189722,0.01585537,0.01945467,0.00019001,-0.00576088,0.00095904,-
 0.00129723,0.00192126,0.00112017,-0.09633247,0.00418517,-0.00312561,0.
 48091309,-0.00084092,0.00140786,0.00031009,0.00255596,-0.00202511,0.00
 093318,0.00108942,-0.00078684,-0.00788772,-0.00015625,0.00220008,0.001
 44799,0.00074362,-0.00063014,-0.00065032,0.03696923,-0.13984535,-0.073
 46176,0.06627343,0.25958687,0.00022116,-0.00075609,-0.00004128,-0.0000
 0780,-0.00146067,0.00140201,0.00874098,-0.03261728,-0.03310680,0.00127
 378,0.01111143,-0.00191403,0.00384352,-0.00445740,-0.00285494,0.022318
 00,-0.07254479,-0.11887023,0.15091996,0.19321349,0.26421845,0.00115189
 ,-0.00050778,0.00040790,-0.00216200,0.00005739,0.00189852,0.01010414,-
 0.00555879,-0.00092893,0.00075309,-0.00186707,-0.00009274,-0.00050433,
 0.00062080,0.00019822,-0.13341760,0.07085853,-0.05440869,-0.00883988,0
 .02143101,0.00243962,0.57352126,0.00013003,-0.00007064,0.00019357,-0.0
 0037090,-0.00003387,0.00160749,0.00564964,-0.01083422,0.01881791,-0.00
 009559,0.00062079,-0.00005463,0.00022710,-0.00032993,-0.00005346,0.064
 29168,-0.14149615,0.06079986,0.02912863,-0.04276616,-0.00236237,-0.533
 58763,0.67643530,-0.00150552,0.00098255,-0.00028657,0.00435753,0.00151
 459,-0.00435264,-0.01761458,0.02222531,-0.02022582,-0.00021759,-0.0004
 7155,-0.00027899,-0.00008560,0.00060913,-0.00064129,-0.05633442,0.0640
 1873,-0.10740069,0.01230079,-0.01791146,0.00918490,0.35770991,-0.39390
 813,0.36688969,-0.00054925,0.00018065,-0.00002839,0.00129339,-0.000004
 22,-0.00066731,-0.00314082,-0.00023396,0.00226501,-0.00121423,0.001789
 10,0.00038718,0.00111105,-0.00082494,-0.00019230,0.00223291,-0.0028875
 1,-0.00243175,0.00110018,0.00060981,-0.00017661,-0.42547743,0.43590957
 ,-0.29472841,0.58823696,0.00044932,-0.00014726,-0.00001965,-0.00093256
 ,0.00020627,0.00064535,0.00242658,0.00088413,-0.00155461,0.00055773,-0
 .00248677,-0.00059045,-0.00072410,0.00097775,0.00032935,0.00235441,0.0
 0489986,0.00120084,-0.00041348,0.00008661,0.00040428,0.43345920,-0.497
 09113,0.31819411,-0.59853583,0.69505830,-0.00024783,0.00008691,-0.0000
 3504,0.00050449,-0.00015561,-0.00012208,-0.00120409,-0.00055937,0.0011
 6662,0.00006487,0.00076705,-0.00007251,0.00002521,-0.00015733,-0.00016
 255,-0.00127667,-0.00289653,0.00190233,0.00031643,0.00070825,0.0008005
 0,-0.29518843,0.32002769,-0.24468345,0.40554480,-0.43921430,0.34402907
 ,-0.08635558,0.06228111,0.06912978,-0.00667441,0.00973630,0.01098892,0
 .00029277,0.00004776,-0.00069714,0.00077347,0.00009285,0.00021742,-0.0
 0027136,-0.00004761,-0.00015888,-0.00017720,0.00020604,0.00002145,0.00
 009433,-0.00020303,0.00016144,-0.00001348,0.00000817,-0.00001203,0.000
 03458,-0.00003789,0.00002298,0.09093419,0.06274990,-0.14956534,-0.1132
 3147,-0.00737721,0.01262258,0.01350057,0.00029098,0.00099709,-0.000518
 27,-0.00041546,-0.00050255,0.00126668,0.00031738,-0.00062178,-0.000342
 46,-0.00029671,0.00031130,0.00002623,0.00017020,-0.00025651,0.00014559
 ,0.00003433,-0.00000196,-0.00006699,-0.00000773,0.00000929,-0.00001623
 ,-0.06737033,0.16129128,0.06828671,-0.11119951,-0.17038908,0.00917667,
 -0.01483393,-0.01768414,-0.00005835,-0.00089894,0.00101323,0.00162879,
 0.00022215,-0.00185051,-0.00112467,-0.00048990,0.00148766,0.00037578,-
 0.00037865,-0.00029214,-0.00025297,0.00055459,-0.00005077,-0.00001871,
 -0.00000645,0.00002469,-0.00005868,0.00005999,0.00000536,-0.07883870,0
 .12109034,0.18636519,-0.15850622,0.10632930,-0.07793382,0.01082220,-0.
 01146725,0.00805605,-0.00132627,-0.00205744,0.00203194,-0.00059752,0.0
 0026024,0.00079911,0.00037591,0.00026130,-0.00048389,0.00067390,-0.000
 62849,0.00053912,-0.00001380,0.00008291,-0.00011760,-0.00020368,0.0000
 0445,0.00026819,0.00009628,-0.00007541,0.00003258,-0.00808832,0.005893
 71,-0.00565674,0.17017395,0.10534814,-0.14639244,0.07238627,0.01074736
 ,-0.01085862,0.00674301,-0.00286617,-0.00075585,0.00219932,0.00016715,
 0.00080481,0.00017395,-0.00012457,-0.00019356,0.00010978,0.00106752,-0
 .00069465,-0.00010370,-0.00008680,0.00023010,0.00017978,-0.00021107,-0
 .00008953,0.00040235,0.00010219,-0.00009722,0.00008260,0.01271323,-0.0
 1222947,0.00967443,-0.11482572,0.15741069,-0.07688758,0.07220338,-0.09
 950181,-0.01618890,0.01446862,-0.01125627,0.00323765,0.00233448,-0.002
 78257,0.00093498,-0.00073235,-0.00112817,-0.00063396,-0.00009116,0.000
 71886,-0.00099616,0.00127713,0.00013372,0.00006865,-0.00026333,-0.0000
 7117,0.00030217,0.00002973,-0.00047028,-0.00015561,0.00013661,-0.00008
 038,0.01500180,-0.01346658,0.01124173,0.08307201,-0.08241983,0.1075446
 2,-0.19098716,-0.10598062,-0.07430871,-0.01285504,-0.00856375,-0.00556
 559,0.00058512,0.00076675,-0.00029469,-0.00021570,0.00011454,0.0002984
 3,0.00011866,0.00002583,-0.00020881,0.00015964,0.00006818,-0.00007274,
 0.00003318,0.00014812,0.00014109,0.00000111,0.00001995,0.00009789,0.00
 003590,-0.00003031,0.00003441,0.01004838,0.00731984,0.00475291,-0.0152
 5276,-0.01190715,-0.00775125,0.20768764,-0.10586050,-0.12553760,-0.054
 77124,-0.01251110,-0.01028080,-0.00603200,-0.00126595,0.00043070,-0.00
 132628,-0.00017118,-0.00010657,-0.00018807,0.00022090,0.00014154,0.000
 07371,0.00011011,0.00024026,0.00022035,0.00004663,-0.00004588,0.000076
 36,0.00006969,0.00000848,0.00006819,0.00002574,-0.00000704,0.00001076,
 -0.01560245,-0.01119065,-0.00755238,0.01532374,0.01201231,0.00773730,0
 .11937076,0.13426889,-0.07545694,-0.05567718,-0.08556898,0.01968013,0.
 01523034,0.00918521,0.00095581,-0.00046856,0.00138418,0.00019238,0.000
 12180,-0.00025978,-0.00004973,-0.00002989,0.00023529,0.00023984,-0.000
 07119,0.00003784,-0.00003998,-0.00013444,0.00000611,-0.00008945,-0.000
 03651,0.00001157,0.00000503,-0.00000694,0.00000012,-0.01733092,-0.0109
 1970,-0.00867022,-0.00950235,-0.00850178,-0.00615592,0.07994819,0.0581
 0190,0.09186276,-0.00615507,0.00927244,0.01169065,-0.07947861,0.056186
 96,0.06372926,-0.00901031,0.01865162,0.01181280,-0.00186516,-0.0003561
 6,-0.00438572,-0.00046046,0.00040848,0.00155154,0.00049463,0.00032987,
 0.00137519,-0.00001579,-0.00219444,0.00074444,-0.00005675,-0.00014600,
 0.00010972,0.00007464,-0.00007142,-0.00001455,-0.00059154,-0.00187958,
 0.00243073,0.00058042,-0.00021602,-0.00052771,0.00023923,0.00062896,-0
 .00044369,0.08667122,-0.00744606,0.01198107,0.01419838,0.05616991,-0.1
 5105190,-0.11614094,0.00880366,-0.01922386,-0.01087726,0.00296494,0.00
 015269,0.00436796,0.00043113,-0.00028510,-0.00193384,0.00121010,-0.001
 60377,-0.00249406,-0.00110426,0.00189826,-0.00027403,-0.00009682,0.000
 20079,0.00004445,-0.00019437,0.00015765,-0.00003486,-0.00210343,-0.001
 50459,0.00347001,0.00046575,0.00072501,-0.00071505,0.00043206,0.000850
 95,-0.00066750,-0.06366004,0.16718715,0.00853867,-0.01374937,-0.017127
 78,0.06421287,-0.11768113,-0.17045381,-0.00665043,0.01289324,0.0101318
 4,-0.00086647,0.00066812,-0.00421555,-0.00101395,-0.00002622,0.0020742
 0,0.00054319,0.00086319,0.00045056,-0.00018421,0.00094522,-0.00235732,
 -0.00001099,-0.00071419,0.00011413,0.00018790,-0.00014850,0.00007201,0
 .00196749,0.00335940,-0.00222409,-0.00065571,-0.00017114,0.00034354,-0
 .00021238,0.00007171,0.00132582,-0.07035975,0.12204718,0.18959972,-0.0
 1200101,-0.00825863,-0.00523427,-0.19639405,-0.09532551,-0.07340444,-0
 .01893581,-0.00747459,-0.00792296,-0.00056992,-0.00292893,-0.00131909,
 0.00014557,0.00086286,0.00025429,-0.00003557,-0.00045749,0.00076382,0.
 00000299,-0.00002248,-0.00009851,0.00042425,0.00016780,0.00006106,0.00
 001133,0.00004333,-0.00000180,0.00011090,0.00052150,-0.00029099,0.0009
 1672,0.00010912,0.00013312,-0.00029427,-0.00135847,0.00260392,0.008841
 60,0.00503725,0.00385839,0.21841996,-0.01350104,-0.00957913,-0.0060673
 1,-0.09508553,-0.10955897,-0.04772121,0.01787548,0.01081237,0.00907384
 ,0.00185117,0.00139563,-0.00050676,-0.00074401,-0.00032377,0.00024598,
 0.00041414,0.00065236,-0.00075171,0.00000332,0.00055026,-0.00030832,-0
 .00003483,-0.00004196,-0.00028774,-0.00004625,-0.00003424,0.00002778,0
 .00055237,0.00076045,0.00024023,0.00038976,0.00011233,-0.00034709,-0.0
 0146858,-0.00079194,0.00336123,-0.01707395,-0.01060966,-0.00755846,0.1
 0470725,0.11957905,0.02050645,0.01391452,0.00905312,-0.07410920,-0.048
 57129,-0.08428125,-0.01207265,-0.00611406,-0.00655352,0.00070156,-0.00
 113522,-0.00032024,-0.00024008,0.00031179,0.00026584,-0.00131264,-0.00
 140986,0.00056287,0.00047450,0.00076116,-0.00067359,0.00032796,0.00019
 819,0.00014048,0.00004047,0.00002877,-0.00001040,-0.00035139,-0.000769
 38,0.00105234,-0.00066016,-0.00063303,0.00111804,0.00292086,0.00295501
 ,-0.00331371,-0.01813553,-0.01095010,-0.00822167,0.08244139,0.04819532
 ,0.09155878,0.00097872,-0.00099319,0.00117932,-0.01701058,-0.00792504,
 -0.00638644,-0.24011562,-0.10045376,-0.05162902,0.00368361,0.00355012,
 0.00270678,0.00158529,0.00037409,-0.00091354,-0.01244466,-0.00747972,-
 0.00315083,0.00181210,0.00150746,-0.00032337,0.00035583,0.00115652,-0.
 00026862,0.00046428,-0.00026976,0.00020598,0.00009222,0.00004218,-0.00
 013998,0.00026859,0.00009072,0.00037038,0.00063447,0.00075710,-0.00051
 087,0.00027832,-0.00005205,0.00036490,-0.00147978,0.00275886,-0.001219
 57,0.26139003,0.00056866,0.00166163,-0.00052434,0.01928185,0.00878781,
 0.00718000,-0.09693567,-0.09411849,-0.02560978,-0.02530878,-0.01597443
 ,-0.00735517,0.00174127,0.00367915,0.00377482,-0.00893172,-0.00622595,
 -0.00289766,0.00123972,0.00092641,0.00037284,-0.00080463,0.00053389,-0
 .00057908,0.00052784,-0.00010488,0.00003612,-0.00020915,-0.00003093,0.
 00002865,0.00004196,0.00010671,-0.00031105,-0.00040051,-0.00022941,-0.
 00024340,-0.00051834,0.00062474,-0.00060963,0.00294104,-0.00272492,0.0
 0221284,0.10678866,0.10628819,-0.00059709,-0.00115250,0.00052895,-0.01
 318540,-0.00526910,-0.00496830,-0.04911842,-0.02687589,-0.06189349,-0.
 02059123,-0.01039219,-0.00463005,0.00140588,0.00291562,0.00172790,0.02
 591089,0.01447340,0.00383509,-0.00218248,0.00029981,0.00262876,0.00108
 061,-0.00146747,0.00170383,-0.00052437,0.00013392,-0.00015160,-0.00003
 844,-0.00006933,-0.00012663,0.00024867,-0.00000818,0.00016755,0.000302
 83,0.00053436,0.00002004,0.00036076,0.00025982,0.00034730,-0.00208452,
 0.00234201,-0.00067776,0.05567470,0.02616682,0.06787548,0.00022511,0.0
 0016490,0.00021366,0.00063251,-0.00169764,-0.00161103,0.00507300,0.000
 27997,0.00551146,-0.14620967,-0.09441464,-0.02884498,-0.04668699,-0.02
 082190,0.01718523,-0.00019528,-0.00027075,0.00074771,0.00017896,0.0000
 9258,-0.00037052,0.00013079,0.00015327,-0.00017537,0.00000697,0.000162
 48,-0.00001295,-0.00019303,-0.00000275,-0.00019019,0.00005603,-0.00008
 684,0.00000381,0.00001214,0.00009876,-0.00006693,0.00050902,-0.0006979
 6,0.00051313,0.00034783,-0.00032026,0.00014527,0.00008819,0.00070606,0
 .00103124,0.18566223,0.00018681,-0.00007039,-0.00002530,-0.00184742,0.
 00216636,0.00044202,-0.02244325,-0.00833353,-0.01047351,-0.08903327,-0
 .15541188,-0.02608067,-0.00693596,0.01950199,0.00271799,-0.00181626,-0
 .00192537,0.00097804,0.00140138,0.00025581,-0.00108764,0.00034367,-0.0
 0002889,0.00020765,-0.00014096,0.00039036,-0.00001212,-0.00004021,-0.0
 0006028,0.00009483,-0.00000050,-0.00005454,0.00011408,0.00008374,0.000
 17186,-0.00004441,0.00032072,0.00037165,-0.00005850,0.00108681,-0.0001
 7148,0.00060245,0.00104771,-0.00331953,-0.00331808,0.11672722,0.146096
 97,0.00005059,0.00011877,-0.00003748,0.00005791,-0.00161731,-0.0022941
 6,-0.01017431,-0.01669060,0.00805232,-0.02456273,-0.02575862,-0.066915
 30,0.02717615,0.01027029,0.01422332,-0.00151944,0.00048354,0.00129193,
 -0.00001513,0.00038549,0.00052858,0.00012219,0.00002392,-0.00011978,-0
 .00010636,0.00009650,-0.00001205,-0.00007228,-0.00002077,0.00003659,0.
 00003353,-0.00000186,0.00007600,0.00004286,0.00009275,-0.00001634,0.00
 075579,-0.00041627,0.00052845,0.00053842,0.00010574,0.00029087,0.00080
 616,-0.00335116,-0.00125635,0.00627665,0.03608857,0.04572520,0.0001157
 7,0.00011111,0.00018573,0.00091731,0.00100090,-0.00105013,-0.01459154,
 -0.00722682,0.00002621,-0.00114537,-0.00202639,-0.00127851,0.00085462,
 0.00065572,0.00009022,-0.24517446,-0.09343292,-0.05297544,0.00973444,0
 .00297507,0.00212448,-0.01953712,-0.00058068,-0.00741209,0.00055407,-0
 .00014760,0.00008159,-0.00000631,0.00000684,-0.00003103,0.00003451,-0.
 00000181,0.00002186,0.00006066,0.00015748,-0.00014284,0.00006888,-0.00
 018379,0.00008179,0.00058222,-0.00033802,0.00051303,-0.00005708,-0.000
 51520,0.00249853,0.00049278,0.00116774,0.00063566,0.26497305,0.0001706
 9,0.00004238,0.00009120,-0.00065691,0.00046628,-0.00109887,-0.01267867
 ,-0.00402140,0.00040900,0.00108581,-0.00047112,-0.00052784,-0.00050123
 ,0.00038387,0.00022525,-0.08282833,-0.08466919,-0.01869194,-0.02289908
 ,-0.01893451,-0.01813239,0.02185445,0.00930302,0.00664818,0.00098328,-
 0.00194000,0.00134903,0.00001041,0.00001731,-0.00005355,0.00002456,-0.
 00001329,0.00002926,0.00010160,0.00010729,-0.00006768,-0.00004049,-0.0
 0015482,-0.00012386,0.00033579,0.00010084,0.00051128,-0.00088050,-0.00
 027437,0.00176352,-0.00005077,0.00035630,0.00018326,0.09599766,0.10519
 997,0.00007205,-0.00003058,-0.00003733,0.00071629,-0.00056977,0.001792
 91,0.02491102,0.01241231,0.00388206,0.00081685,0.00149034,0.00157684,-
 0.00045976,-0.00062874,-0.00035564,-0.04570915,-0.01851790,-0.05655967
 ,-0.01934291,-0.01909212,-0.01321357,-0.01757920,-0.00219407,-0.004457
 01,-0.00012645,0.00076931,0.00003033,0.00000839,-0.00000949,0.00005043
 ,-0.00008864,-0.00002904,-0.00000859,-0.00015434,-0.00013544,-0.000016
 49,-0.00024928,0.00017802,-0.00003764,-0.00045301,-0.00009569,-0.00027
 442,0.00203424,0.00151399,-0.00454300,-0.00037812,-0.00066578,-0.00029
 969,0.05465327,0.02980914,0.07382593,0.00004999,-0.00001505,0.00002838
 ,-0.00017162,0.00008652,-0.00007556,0.00151906,0.00200832,0.00076202,-
 0.00013117,-0.00045667,0.00042691,-0.00035553,0.00025049,0.00009862,0.
 00652409,0.00846200,0.00977676,-0.38646942,-0.13085931,-0.19210908,0.0
 0223126,0.00036534,0.00184991,-0.00087281,0.00038418,-0.00046954,-0.00
 000393,0.00000199,0.00000168,-0.00001745,-0.00001791,-0.00000565,-0.00
 000302,-0.00003184,0.00000505,-0.00012494,0.00000128,-0.00031007,-0.00
 007315,0.00007442,0.00004438,-0.00050633,-0.00021636,-0.00019806,-0.00
 009186,-0.00007672,-0.00003172,0.00160929,0.00085194,0.00084613,0.3769
 6662,0.00015141,0.00007748,0.00010826,-0.00041443,-0.00017003,0.000440
 85,0.00100816,0.00106945,0.00084007,-0.00020100,-0.00026317,0.00000109
 ,0.00003902,0.00006261,0.00007427,-0.03003040,-0.01786683,-0.01870294,
 -0.09022529,-0.06291603,-0.07135239,-0.00230848,0.00155530,0.00018310,
 0.00023069,0.00039808,0.00040572,-0.00004145,-0.00003972,-0.00002086,-
 0.00002328,-0.00004456,0.00003724,-0.00010030,-0.00003428,0.00004713,0
 .00034884,0.00029235,-0.00004262,0.00004589,-0.00013845,-0.00007221,0.
 00001165,0.00041159,-0.00034269,0.00001674,0.00008925,0.00000739,0.001
 99109,-0.00481570,-0.00461558,0.11930914,0.08244468,0.00005545,0.00000
 084,-0.00010813,0.00013093,0.00036951,-0.00064727,-0.00226499,-0.00009
 794,0.00067945,0.00103099,-0.00114721,-0.00063074,-0.00054911,0.000414
 98,0.00045903,-0.02459471,-0.01035997,-0.01504779,-0.15761688,-0.08140
 121,-0.10538168,0.00156166,0.00046318,0.00246078,-0.00017554,0.0002311
 9,-0.00052190,-0.00001473,0.00003407,0.00002079,0.00003380,-0.00004493
 ,0.00006836,0.00004087,0.00006346,-0.00006419,-0.00045441,-0.00004505,
 -0.00036291,0.00014805,0.00004522,0.00028259,0.00121743,0.00018142,-0.
 00056864,0.00002552,0.00050123,0.00020447,0.00195255,-0.00212451,-0.00
 136944,0.17948541,0.09300280,0.12053251,-0.00003152,0.00002916,-0.0000
 1877,0.00010386,0.00002634,-0.00011334,-0.00042296,0.00045327,-0.00042
 083,0.00019621,-0.00001101,-0.00022054,-0.00020824,0.00003901,0.000092
 47,0.00467485,0.00255174,-0.00142249,0.00000492,-0.00020217,0.00027504
 ,0.00153865,-0.00243135,0.00159925,-0.16399802,0.16140112,-0.10841749,
 -0.00000566,0.00000092,0.00000775,0.00000752,-0.00000137,0.00000041,-0
 .00000819,-0.00000837,0.00000336,0.00000068,0.00002271,-0.00000437,-0.
 00001981,-0.00001429,-0.00001465,-0.00001762,0.00000332,0.00000590,-0.
 00003874,-0.00003127,-0.00001395,0.00051428,-0.00088020,0.00048263,-0.
 00007908,0.00019199,-0.00001229,0.15778887,-0.00005007,0.00001534,-0.0
 0001564,0.00007629,-0.00005209,-0.00003573,-0.00018058,0.00005906,-0.0
 0014561,-0.00000091,0.00022366,0.00022197,0.00006815,-0.00011306,-0.00
 010507,0.00300340,0.00332541,0.00177177,-0.00072356,0.00106428,-0.0001
 5039,-0.00375198,0.00412686,-0.00187340,0.16251688,-0.20115975,0.11954
 445,0.00000732,-0.00000552,-0.00000105,0.00000040,0.00002176,-0.000021
 38,-0.00000014,-0.00000811,0.00000677,0.00000856,-0.00000862,0.0000355
 5,-0.00003253,0.00001121,-0.00003617,-0.00003106,-0.00001720,0.0000061
 3,-0.00003846,-0.00002466,0.00000039,0.00038961,-0.00068285,0.00041106
 ,-0.00012176,-0.00011201,-0.00008709,-0.16113955,0.19333631,0.00012578
 ,-0.00005641,0.00002404,-0.00030417,-0.00002777,0.00018089,0.00078579,
 -0.00059549,0.00016792,-0.00009879,0.00002852,0.00001770,0.00012032,-0
 .00007860,0.00002703,-0.00119782,0.00127804,0.00503158,-0.00069493,0.0
 0124308,-0.00023392,0.00226838,-0.00136426,0.00238644,-0.10905860,0.11
 930425,-0.10215440,-0.00000515,0.00000778,-0.00001045,-0.00001609,-0.0
 0003799,0.00004274,-0.00001183,-0.00000045,-0.00000329,0.00000974,-0.0
 0001687,0.00001321,0.00000714,0.00000694,0.00000162,-0.00001763,0.0000
 1376,-0.00001907,-0.00000360,0.00001916,-0.00000657,0.00002513,-0.0001
 9849,0.00001399,-0.00012557,0.00000137,-0.00000528,0.10819190,-0.11952
 656,0.09452581\\-0.00000568,-0.00000624,0.00000526,0.00001106,-0.00000
 462,-0.00001738,0.00000817,-0.00000975,0.00002195,-0.00001590,-0.00000
 932,0.00000331,0.00001650,0.00000234,-0.00000721,-0.00001862,0.0000194
 8,0.00001824,0.00000489,-0.00000973,-0.00000603,0.00001477,-0.00000718
 ,-0.00001271,-0.00001167,0.00001432,-0.00000223,0.00000217,0.00000483,
 -0.00000137,-0.00000133,-0.00000105,-0.00000101,0.00000015,0.00000213,
 -0.00000010,-0.00001074,-0.00000098,-0.00000214,-0.00000303,-0.0000003
 1,0.00000206,-0.00000845,0.00000447,0.00000119,0.00001246,0.00000597,0
 .00000122,0.00000458,-0.00000607,-0.00001153,-0.00001000,0.00000549,0.
 00000081,0.00001069,-0.00000380,0.00000767\\\@


 IT TAKES GREATER CHARACTER TO CARRY OFF GOOD FORTUNE THAN BAD.
                     FRENCH PROVERB.
 Job cpu time:       0 days  0 hours 43 minutes 26.5 seconds.
 File lengths (MBytes):  RWF=    152 Int=      0 D2E=      0 Chk=      8 Scr=      1
 Normal termination of Gaussian 09 at Tue Jan 28 09:04:31 2020.
