 Entering Gaussian System, Link 0=/home/puck/opt/gaussian_09/g09
 Input=dsC7O2H10nsd_0943.com
 Output=dsC7O2H10nsd_0943.log
 Initial command:
 /home/puck/opt/gaussian_09/l1.exe "/scratch/puck/g09_0ca5ac4c-ec0d-4238-9475-60d94ef968ea/Gau-75982.inp" -scrdir="/scratch/puck/g09_0ca5ac4c-ec0d-4238-9475-60d94ef968ea/"
 Entering Link 1 = /home/puck/opt/gaussian_09/l1.exe PID=     75983.
  
 Copyright (c) 1988,1990,1992,1993,1995,1998,2003,2009,2013,
            Gaussian, Inc.  All Rights Reserved.
  
 This is part of the Gaussian(R) 09 program.  It is based on
 the Gaussian(R) 03 system (copyright 2003, Gaussian, Inc.),
 the Gaussian(R) 98 system (copyright 1998, Gaussian, Inc.),
 the Gaussian(R) 94 system (copyright 1995, Gaussian, Inc.),
 the Gaussian 92(TM) system (copyright 1992, Gaussian, Inc.),
 the Gaussian 90(TM) system (copyright 1990, Gaussian, Inc.),
 the Gaussian 88(TM) system (copyright 1988, Gaussian, Inc.),
 the Gaussian 86(TM) system (copyright 1986, Carnegie Mellon
 University), and the Gaussian 82(TM) system (copyright 1983,
 Carnegie Mellon University). Gaussian is a federally registered
 trademark of Gaussian, Inc.
  
 This software contains proprietary and confidential information,
 including trade secrets, belonging to Gaussian, Inc.
  
 This software is provided under written license and may be
 used, copied, transmitted, or stored only in accord with that
 written license.
  
 The following legend is applicable only to US Government
 contracts under FAR:
  
                    RESTRICTED RIGHTS LEGEND
  
 Use, reproduction and disclosure by the US Government is
 subject to restrictions as set forth in subparagraphs (a)
 and (c) of the Commercial Computer Software - Restricted
 Rights clause in FAR 52.227-19.
  
 Gaussian, Inc.
 340 Quinnipiac St., Bldg. 40, Wallingford CT 06492
  
  
 ---------------------------------------------------------------
 Warning -- This program may not be used in any manner that
 competes with the business of Gaussian, Inc. or will provide
 assistance to any competitor of Gaussian, Inc.  The licensee
 of this program is prohibited from giving any competitor of
 Gaussian, Inc. access to this program.  By using this program,
 the user acknowledges that Gaussian, Inc. is engaged in the
 business of creating and licensing software in the field of
 computational chemistry and represents and warrants to the
 licensee that it is not a competitor of Gaussian, Inc. and that
 it will not use this program in any manner prohibited above.
 ---------------------------------------------------------------
  

 Cite this work as:
 Gaussian 09, Revision D.01,
 M. J. Frisch, G. W. Trucks, H. B. Schlegel, G. E. Scuseria, 
 M. A. Robb, J. R. Cheeseman, G. Scalmani, V. Barone, B. Mennucci, 
 G. A. Petersson, H. Nakatsuji, M. Caricato, X. Li, H. P. Hratchian, 
 A. F. Izmaylov, J. Bloino, G. Zheng, J. L. Sonnenberg, M. Hada, 
 M. Ehara, K. Toyota, R. Fukuda, J. Hasegawa, M. Ishida, T. Nakajima, 
 Y. Honda, O. Kitao, H. Nakai, T. Vreven, J. A. Montgomery, Jr., 
 J. E. Peralta, F. Ogliaro, M. Bearpark, J. J. Heyd, E. Brothers, 
 K. N. Kudin, V. N. Staroverov, T. Keith, R. Kobayashi, J. Normand, 
 K. Raghavachari, A. Rendell, J. C. Burant, S. S. Iyengar, J. Tomasi, 
 M. Cossi, N. Rega, J. M. Millam, M. Klene, J. E. Knox, J. B. Cross, 
 V. Bakken, C. Adamo, J. Jaramillo, R. Gomperts, R. E. Stratmann, 
 O. Yazyev, A. J. Austin, R. Cammi, C. Pomelli, J. W. Ochterski, 
 R. L. Martin, K. Morokuma, V. G. Zakrzewski, G. A. Voth, 
 P. Salvador, J. J. Dannenberg, S. Dapprich, A. D. Daniels, 
 O. Farkas, J. B. Foresman, J. V. Ortiz, J. Cioslowski, 
 and D. J. Fox, Gaussian, Inc., Wallingford CT, 2013.
 
 ******************************************
 Gaussian 09:  ES64L-G09RevD.01 24-Apr-2013
                27-Jan-2020 
 ******************************************
 -----------------------------
 # b3lyp 6-31G(2df,p) opt Freq
 -----------------------------
 1/14=-1,18=20,19=15,26=3,38=1/1,3;
 2/9=110,12=2,17=6,18=5,40=1/2;
 3/5=1,6=6,7=104,11=2,16=1,25=1,30=1,71=1,74=-5/1,2,3;
 4//1;
 5/5=2,38=5/2;
 6/7=2,8=2,9=2,10=2,28=1/1;
 7//1,2,3,16;
 1/14=-1,18=20,19=15,26=3/3(2);
 2/9=110/2;
 99//99;
 2/9=110/2;
 3/5=1,6=6,7=104,11=2,16=1,25=1,30=1,71=1,74=-5/1,2,3;
 4/5=5,16=3,69=1/1;
 5/5=2,38=5/2;
 7//1,2,3,16;
 1/14=-1,18=20,19=15,26=3/3(-5);
 2/9=110/2;
 6/7=2,8=2,9=2,10=2,19=2,28=1/1;
 99/9=1/99;
 -----
 titel
 -----
 Symbolic Z-matrix:
 Charge =  0 Multiplicity = 1
 O                     0.30893  -0.92978  -0.42064 
 C                     0.4492    0.23764  -0.15951 
 C                    -0.14913   0.91992   1.0536 
 C                    -1.13572   2.01531   0.64787 
 C                    -1.95986   2.73957   1.74824 
 C                    -3.19806   2.70796   0.81111 
 C                    -2.46775   1.60377  -0.0282 
 C                    -2.56461   1.70298  -1.52334 
 O                    -1.64364   2.0009   -2.24417 
 H                     1.0323    0.9102   -0.82776 
 H                    -0.63249   0.15974   1.6759 
 H                     0.66994   1.37132   1.63171 
 H                    -0.63457   2.74461   0.00292 
 H                    -2.10536   2.10294   2.62631 
 H                    -1.60477   3.71738   2.08076 
 H                    -4.16122   2.44386   1.25048 
 H                    -3.31087   3.63709   0.24566 
 H                    -2.8067    0.60793   0.2836 
 H                    -3.57631   1.50235  -1.94473 
 

 GradGradGradGradGradGradGradGradGradGradGradGradGradGradGradGradGradGrad
 Berny optimization.
 Initialization pass.
                           ----------------------------
                           !    Initial Parameters    !
                           ! (Angstroms and Degrees)  !
 --------------------------                            --------------------------
 ! Name  Definition              Value          Derivative Info.                !
 --------------------------------------------------------------------------------
 ! R1    R(1,2)                  1.2045         estimate D2E/DX2                !
 ! R2    R(2,3)                  1.515          estimate D2E/DX2                !
 ! R3    R(2,10)                 1.1131         estimate D2E/DX2                !
 ! R4    R(3,4)                  1.529          estimate D2E/DX2                !
 ! R5    R(3,11)                 1.0949         estimate D2E/DX2                !
 ! R6    R(3,12)                 1.0995         estimate D2E/DX2                !
 ! R7    R(4,5)                  1.5539         estimate D2E/DX2                !
 ! R8    R(4,7)                  1.5494         estimate D2E/DX2                !
 ! R9    R(4,13)                 1.095          estimate D2E/DX2                !
 ! R10   R(5,6)                  1.5532         estimate D2E/DX2                !
 ! R11   R(5,14)                 1.0943         estimate D2E/DX2                !
 ! R12   R(5,15)                 1.0921         estimate D2E/DX2                !
 ! R13   R(6,7)                  1.5675         estimate D2E/DX2                !
 ! R14   R(6,16)                 1.0911         estimate D2E/DX2                !
 ! R15   R(6,17)                 1.0935         estimate D2E/DX2                !
 ! R16   R(7,8)                  1.5015         estimate D2E/DX2                !
 ! R17   R(7,18)                 1.0972         estimate D2E/DX2                !
 ! R18   R(8,9)                  1.2069         estimate D2E/DX2                !
 ! R19   R(8,19)                 1.1142         estimate D2E/DX2                !
 ! A1    A(1,2,3)              124.3406         estimate D2E/DX2                !
 ! A2    A(1,2,10)             121.0983         estimate D2E/DX2                !
 ! A3    A(3,2,10)             114.5524         estimate D2E/DX2                !
 ! A4    A(2,3,4)              111.4073         estimate D2E/DX2                !
 ! A5    A(2,3,11)             108.4695         estimate D2E/DX2                !
 ! A6    A(2,3,12)             108.1623         estimate D2E/DX2                !
 ! A7    A(4,3,11)             111.3071         estimate D2E/DX2                !
 ! A8    A(4,3,12)             109.0313         estimate D2E/DX2                !
 ! A9    A(11,3,12)            108.3656         estimate D2E/DX2                !
 ! A10   A(3,4,5)              119.224          estimate D2E/DX2                !
 ! A11   A(3,4,7)              118.6992         estimate D2E/DX2                !
 ! A12   A(3,4,13)             109.7631         estimate D2E/DX2                !
 ! A13   A(5,4,7)               88.6724         estimate D2E/DX2                !
 ! A14   A(5,4,13)             110.4508         estimate D2E/DX2                !
 ! A15   A(7,4,13)             108.2623         estimate D2E/DX2                !
 ! A16   A(4,5,6)               89.2017         estimate D2E/DX2                !
 ! A17   A(4,5,14)             111.5664         estimate D2E/DX2                !
 ! A18   A(4,5,15)             117.4169         estimate D2E/DX2                !
 ! A19   A(6,5,14)             111.4884         estimate D2E/DX2                !
 ! A20   A(6,5,15)             117.4597         estimate D2E/DX2                !
 ! A21   A(14,5,15)            108.65           estimate D2E/DX2                !
 ! A22   A(5,6,7)               88.0503         estimate D2E/DX2                !
 ! A23   A(5,6,16)             117.7555         estimate D2E/DX2                !
 ! A24   A(5,6,17)             112.1448         estimate D2E/DX2                !
 ! A25   A(7,6,16)             117.1549         estimate D2E/DX2                !
 ! A26   A(7,6,17)             111.6988         estimate D2E/DX2                !
 ! A27   A(16,6,17)            108.834          estimate D2E/DX2                !
 ! A28   A(4,7,6)               88.8425         estimate D2E/DX2                !
 ! A29   A(4,7,8)              118.1889         estimate D2E/DX2                !
 ! A30   A(4,7,18)             112.4986         estimate D2E/DX2                !
 ! A31   A(6,7,8)              117.1656         estimate D2E/DX2                !
 ! A32   A(6,7,18)             110.0756         estimate D2E/DX2                !
 ! A33   A(8,7,18)             108.8452         estimate D2E/DX2                !
 ! A34   A(7,8,9)              124.1808         estimate D2E/DX2                !
 ! A35   A(7,8,19)             115.0418         estimate D2E/DX2                !
 ! A36   A(9,8,19)             120.7622         estimate D2E/DX2                !
 ! D1    D(1,2,3,4)           -117.5703         estimate D2E/DX2                !
 ! D2    D(1,2,3,11)             5.279          estimate D2E/DX2                !
 ! D3    D(1,2,3,12)           122.6132         estimate D2E/DX2                !
 ! D4    D(10,2,3,4)            61.3639         estimate D2E/DX2                !
 ! D5    D(10,2,3,11)         -175.7869         estimate D2E/DX2                !
 ! D6    D(10,2,3,12)          -58.4527         estimate D2E/DX2                !
 ! D7    D(2,3,4,5)            174.1097         estimate D2E/DX2                !
 ! D8    D(2,3,4,7)             68.088          estimate D2E/DX2                !
 ! D9    D(2,3,4,13)           -57.1039         estimate D2E/DX2                !
 ! D10   D(11,3,4,5)            52.9016         estimate D2E/DX2                !
 ! D11   D(11,3,4,7)           -53.1201         estimate D2E/DX2                !
 ! D12   D(11,3,4,13)         -178.3119         estimate D2E/DX2                !
 ! D13   D(12,3,4,5)           -66.5893         estimate D2E/DX2                !
 ! D14   D(12,3,4,7)          -172.611          estimate D2E/DX2                !
 ! D15   D(12,3,4,13)           62.1971         estimate D2E/DX2                !
 ! D16   D(3,4,5,6)           -139.8216         estimate D2E/DX2                !
 ! D17   D(3,4,5,14)           -26.9655         estimate D2E/DX2                !
 ! D18   D(3,4,5,15)            99.3616         estimate D2E/DX2                !
 ! D19   D(7,4,5,6)            -17.3127         estimate D2E/DX2                !
 ! D20   D(7,4,5,14)            95.5434         estimate D2E/DX2                !
 ! D21   D(7,4,5,15)          -138.1295         estimate D2E/DX2                !
 ! D22   D(13,4,5,6)            91.707          estimate D2E/DX2                !
 ! D23   D(13,4,5,14)         -155.4368         estimate D2E/DX2                !
 ! D24   D(13,4,5,15)          -29.1098         estimate D2E/DX2                !
 ! D25   D(3,4,7,6)            140.1121         estimate D2E/DX2                !
 ! D26   D(3,4,7,8)            -99.4052         estimate D2E/DX2                !
 ! D27   D(3,4,7,18)            28.8125         estimate D2E/DX2                !
 ! D28   D(5,4,7,6)             17.1515         estimate D2E/DX2                !
 ! D29   D(5,4,7,8)            137.6341         estimate D2E/DX2                !
 ! D30   D(5,4,7,18)           -94.1482         estimate D2E/DX2                !
 ! D31   D(13,4,7,6)           -93.9724         estimate D2E/DX2                !
 ! D32   D(13,4,7,8)            26.5102         estimate D2E/DX2                !
 ! D33   D(13,4,7,18)          154.728          estimate D2E/DX2                !
 ! D34   D(4,5,6,7)             17.1124         estimate D2E/DX2                !
 ! D35   D(4,5,6,16)           136.9882         estimate D2E/DX2                !
 ! D36   D(4,5,6,17)           -95.5654         estimate D2E/DX2                !
 ! D37   D(14,5,6,7)           -95.8166         estimate D2E/DX2                !
 ! D38   D(14,5,6,16)           24.0592         estimate D2E/DX2                !
 ! D39   D(14,5,6,17)          151.5056         estimate D2E/DX2                !
 ! D40   D(15,5,6,7)           137.8919         estimate D2E/DX2                !
 ! D41   D(15,5,6,16)         -102.2324         estimate D2E/DX2                !
 ! D42   D(15,5,6,17)           25.214          estimate D2E/DX2                !
 ! D43   D(5,6,7,4)            -17.1651         estimate D2E/DX2                !
 ! D44   D(5,6,7,8)           -138.5435         estimate D2E/DX2                !
 ! D45   D(5,6,7,18)            96.4202         estimate D2E/DX2                !
 ! D46   D(16,6,7,4)          -137.5782         estimate D2E/DX2                !
 ! D47   D(16,6,7,8)           101.0434         estimate D2E/DX2                !
 ! D48   D(16,6,7,18)          -23.9928         estimate D2E/DX2                !
 ! D49   D(17,6,7,4)            95.9379         estimate D2E/DX2                !
 ! D50   D(17,6,7,8)           -25.4405         estimate D2E/DX2                !
 ! D51   D(17,6,7,18)         -150.4768         estimate D2E/DX2                !
 ! D52   D(4,7,8,9)              5.0055         estimate D2E/DX2                !
 ! D53   D(4,7,8,19)          -173.5802         estimate D2E/DX2                !
 ! D54   D(6,7,8,9)            109.4399         estimate D2E/DX2                !
 ! D55   D(6,7,8,19)           -69.1458         estimate D2E/DX2                !
 ! D56   D(18,7,8,9)          -124.9108         estimate D2E/DX2                !
 ! D57   D(18,7,8,19)           56.5035         estimate D2E/DX2                !
 --------------------------------------------------------------------------------
 Trust Radius=3.00D-01 FncErr=1.00D-07 GrdErr=1.00D-06
 Number of steps in this run=    114 maximum allowed number of steps=    114.
 GradGradGradGradGradGradGradGradGradGradGradGradGradGradGradGradGradGrad

                          Input orientation:                          
 ---------------------------------------------------------------------
 Center     Atomic      Atomic             Coordinates (Angstroms)
 Number     Number       Type             X           Y           Z
 ---------------------------------------------------------------------
      1          8           0        0.308928   -0.929775   -0.420643
      2          6           0        0.449205    0.237642   -0.159510
      3          6           0       -0.149132    0.919916    1.053599
      4          6           0       -1.135723    2.015312    0.647866
      5          6           0       -1.959863    2.739566    1.748237
      6          6           0       -3.198060    2.707960    0.811112
      7          6           0       -2.467746    1.603770   -0.028205
      8          6           0       -2.564609    1.702982   -1.523336
      9          8           0       -1.643640    2.000903   -2.244170
     10          1           0        1.032298    0.910198   -0.827758
     11          1           0       -0.632489    0.159740    1.675896
     12          1           0        0.669940    1.371315    1.631709
     13          1           0       -0.634568    2.744613    0.002921
     14          1           0       -2.105356    2.102943    2.626305
     15          1           0       -1.604766    3.717379    2.080761
     16          1           0       -4.161220    2.443864    1.250475
     17          1           0       -3.310868    3.637094    0.245663
     18          1           0       -2.806702    0.607933    0.283598
     19          1           0       -3.576308    1.502348   -1.944732
 ---------------------------------------------------------------------
                    Distance matrix (angstroms):
                    1          2          3          4          5
     1  O    0.000000
     2  C    1.204463   0.000000
     3  C    2.409266   1.514970   0.000000
     4  C    3.449967   2.514749   1.529011   0.000000
     5  C    4.828614   3.962666   2.659397   1.553887   0.000000
     6  C    5.200894   4.510778   3.542861   2.181661   1.553169
     7  C    3.779257   3.223686   2.648382   1.549427   2.168806
     8  C    4.050254   3.618054   3.617777   2.617897   3.484739
     9  O    3.965684   3.440189   3.778540   2.936335   4.072460
    10  H    2.018541   1.113052   2.221570   2.845885   4.351478
    11  H    2.543381   2.131864   1.094877   2.180192   2.902181
    12  H    3.104431   2.131291   1.099478   2.154784   2.966741
    13  H    3.817161   2.736029   2.160808   1.094984   2.191474
    14  H    4.930521   4.214960   2.774846   2.205014   1.094286
    15  H    5.613848   4.620193   3.316585   2.273812   1.092147
    16  H    5.844340   5.302027   4.296281   3.114551   2.276221
    17  H    5.865422   5.085134   4.246456   2.742845   2.210995
    18  H    3.545089   3.306719   2.784405   2.214854   2.721426
    19  H    4.830438   4.581622   4.590724   3.597382   4.216826
                    6          7          8          9         10
     6  C    0.000000
     7  C    1.567496   0.000000
     8  C    2.619329   1.501546   0.000000
     9  O    3.500128   2.397367   1.206873   0.000000
    10  H    4.879936   3.656588   3.748343   3.218152   0.000000
    11  H    3.717987   2.890908   4.043484   4.447384   3.098869
    12  H    4.173898   3.557305   4.530631   4.557572   2.528420
    13  H    2.688123   2.159406   2.671986   2.573081   2.614106
    14  H    2.203401   2.725238   4.194091   4.893375   4.816437
    15  H    2.273659   3.108024   4.238939   4.653260   4.826371
    16  H    1.091084   2.282243   3.285133   4.329777   5.800329
    17  H    1.093503   2.218166   2.725261   3.414094   5.239397
    18  H    2.200350   1.097180   2.126676   3.111702   4.008042
    19  H    3.031707   2.216365   1.114166   2.018274   4.778862
                   11         12         13         14         15
    11  H    0.000000
    12  H    1.779379   0.000000
    13  H    3.079029   2.498127   0.000000
    14  H    2.616992   3.037560   3.075240   0.000000
    15  H    3.710260   3.298477   2.490979   1.776123   0.000000
    16  H    4.224943   4.963447   3.752881   2.497141   2.974336
    17  H    4.616413   4.785573   2.831612   3.078041   2.506953
    18  H    2.620414   3.806204   3.059795   2.866220   3.787228
    19  H    4.855678   5.553262   3.740376   4.839297   4.999794
                   16         17         18         19
    16  H    0.000000
    17  H    1.776667   0.000000
    18  H    2.477945   3.071064   0.000000
    19  H    3.382000   3.070086   2.521453   0.000000
 Stoichiometry    C7H10O2
 Framework group  C1[X(C7H10O2)]
 Deg. of freedom    51
 Full point group                 C1      NOp   1
 Largest Abelian subgroup         C1      NOp   1
 Largest concise Abelian subgroup C1      NOp   1
                         Standard orientation:                         
 ---------------------------------------------------------------------
 Center     Atomic      Atomic             Coordinates (Angstroms)
 Number     Number       Type             X           Y           Z
 ---------------------------------------------------------------------
      1          8           0       -2.884357    0.125831    0.653717
      2          6           0       -2.181937   -0.225162   -0.259597
      3          6           0       -1.104146   -1.284240   -0.150716
      4          6           0        0.280117   -0.703758   -0.441800
      5          6           0        1.534771   -1.599437   -0.246436
      6          6           0        2.283420   -0.381008    0.359609
      7          6           0        0.889473    0.306591    0.562495
      8          6           0        0.794008    1.770437    0.242056
      9          8           0        0.197012    2.219501   -0.705826
     10          1           0       -2.275464    0.237625   -1.267548
     11          1           0       -1.148898   -1.722919    0.851438
     12          1           0       -1.323576   -2.073214   -0.884353
     13          1           0        0.287958   -0.245987   -1.436473
     14          1           0        1.361110   -2.376884    0.503817
     15          1           0        1.965221   -2.063096   -1.136671
     16          1           0        2.890076   -0.549295    1.250738
     17          1           0        2.888268    0.143333   -0.385358
     18          1           0        0.535297    0.144493    1.588208
     19          1           0        1.344526    2.442740    0.939411
 ---------------------------------------------------------------------
 Rotational constants (GHZ):      2.1333426      1.3163130      0.9234237
 Standard basis: 6-31G(2df,p) (6D, 7F)
 There are   329 symmetry adapted cartesian basis functions of A   symmetry.
 There are   302 symmetry adapted basis functions of A   symmetry.
   302 basis functions,   466 primitive gaussians,   329 cartesian basis functions
    34 alpha electrons       34 beta electrons
       nuclear repulsion energy       441.0331556088 Hartrees.
 NAtoms=   19 NActive=   19 NUniq=   19 SFac= 1.00D+00 NAtFMM=   60 NAOKFM=F Big=F
 Integral buffers will be    131072 words long.
 Raffenetti 2 integral format.
 Two-electron integral symmetry is turned on.
 One-electron integrals computed using PRISM.
 NBasis=   302 RedAO= T EigKep=  3.95D-04  NBF=   302
 NBsUse=   302 1.00D-06 EigRej= -1.00D+00 NBFU=   302
 ExpMin= 1.61D-01 ExpMax= 5.48D+03 ExpMxC= 8.25D+02 IAcc=1 IRadAn=         1 AccDes= 0.00D+00
 Harris functional with IExCor=  402 and IRadAn=       1 diagonalized for initial guess.
 HarFok:  IExCor=  402 AccDes= 0.00D+00 IRadAn=         1 IDoV= 1 UseB2=F ITyADJ=14
 ICtDFT=  3500011 ScaDFX=  1.000000  1.000000  1.000000  1.000000
 FoFCou: FMM=F IPFlag=           0 FMFlag=      100000 FMFlg1=           0
         NFxFlg=           0 DoJE=T BraDBF=F KetDBF=T FulRan=T
         wScrn=  0.000000 ICntrl=     500 IOpCl=  0 I1Cent=   200000004 NGrid=           0
         NMat0=    1 NMatS0=      1 NMatT0=    0 NMatD0=    1 NMtDS0=    0 NMtDT0=    0
 Petite list used in FoFCou.
 Requested convergence on RMS density matrix=1.00D-08 within 128 cycles.
 Requested convergence on MAX density matrix=1.00D-06.
 Requested convergence on             energy=1.00D-06.
 No special actions if energy rises.
 Integral accuracy reduced to 1.0D-05 until final iterations.
 Initial convergence to 1.0D-05 achieved.  Increase integral accuracy.
 SCF Done:  E(RB3LYP) =  -423.192519538     A.U. after   14 cycles
            NFock= 14  Conv=0.54D-08     -V/T= 2.0075

 **********************************************************************

            Population analysis using the SCF density.

 **********************************************************************

 Orbital symmetries:
       Occupied  (A) (A) (A) (A) (A) (A) (A) (A) (A) (A) (A) (A)
                 (A) (A) (A) (A) (A) (A) (A) (A) (A) (A) (A) (A)
                 (A) (A) (A) (A) (A) (A) (A) (A) (A) (A)
       Virtual   (A) (A) (A) (A) (A) (A) (A) (A) (A) (A) (A) (A)
                 (A) (A) (A) (A) (A) (A) (A) (A) (A) (A) (A) (A)
                 (A) (A) (A) (A) (A) (A) (A) (A) (A) (A) (A) (A)
                 (A) (A) (A) (A) (A) (A) (A) (A) (A) (A) (A) (A)
                 (A) (A) (A) (A) (A) (A) (A) (A) (A) (A) (A) (A)
                 (A) (A) (A) (A) (A) (A) (A) (A) (A) (A) (A) (A)
                 (A) (A) (A) (A) (A) (A) (A) (A) (A) (A) (A) (A)
                 (A) (A) (A) (A) (A) (A) (A) (A) (A) (A) (A) (A)
                 (A) (A) (A) (A) (A) (A) (A) (A) (A) (A) (A) (A)
                 (A) (A) (A) (A) (A) (A) (A) (A) (A) (A) (A) (A)
                 (A) (A) (A) (A) (A) (A) (A) (A) (A) (A) (A) (A)
                 (A) (A) (A) (A) (A) (A) (A) (A) (A) (A) (A) (A)
                 (A) (A) (A) (A) (A) (A) (A) (A) (A) (A) (A) (A)
                 (A) (A) (A) (A) (A) (A) (A) (A) (A) (A) (A) (A)
                 (A) (A) (A) (A) (A) (A) (A) (A) (A) (A) (A) (A)
                 (A) (A) (A) (A) (A) (A) (A) (A) (A) (A) (A) (A)
                 (A) (A) (A) (A) (A) (A) (A) (A) (A) (A) (A) (A)
                 (A) (A) (A) (A) (A) (A) (A) (A) (A) (A) (A) (A)
                 (A) (A) (A) (A) (A) (A) (A) (A) (A) (A) (A) (A)
                 (A) (A) (A) (A) (A) (A) (A) (A) (A) (A) (A) (A)
                 (A) (A) (A) (A) (A) (A) (A) (A) (A) (A) (A) (A)
                 (A) (A) (A) (A) (A) (A) (A) (A) (A) (A) (A) (A)
                 (A) (A) (A) (A)
 The electronic state is 1-A.
 Alpha  occ. eigenvalues --  -19.14586 -19.13622 -10.27498 -10.26828 -10.20609
 Alpha  occ. eigenvalues --  -10.20560 -10.20500 -10.19805 -10.19634  -1.05123
 Alpha  occ. eigenvalues --   -1.04271  -0.86868  -0.76661  -0.71100  -0.65239
 Alpha  occ. eigenvalues --   -0.60152  -0.57544  -0.55308  -0.50046  -0.48933
 Alpha  occ. eigenvalues --   -0.46855  -0.45419  -0.43575  -0.42426  -0.42108
 Alpha  occ. eigenvalues --   -0.39306  -0.37954  -0.37349  -0.35575  -0.34053
 Alpha  occ. eigenvalues --   -0.32841  -0.31765  -0.25591  -0.24656
 Alpha virt. eigenvalues --   -0.02792  -0.01802   0.08190   0.08575   0.10803
 Alpha virt. eigenvalues --    0.11821   0.13276   0.13893   0.14887   0.15727
 Alpha virt. eigenvalues --    0.16526   0.17133   0.17961   0.19843   0.20712
 Alpha virt. eigenvalues --    0.22851   0.27603   0.28014   0.29580   0.31807
 Alpha virt. eigenvalues --    0.32869   0.42483   0.44109   0.45156   0.46614
 Alpha virt. eigenvalues --    0.47644   0.48465   0.49920   0.51959   0.53723
 Alpha virt. eigenvalues --    0.54732   0.56076   0.56699   0.58320   0.59737
 Alpha virt. eigenvalues --    0.61122   0.62529   0.65286   0.65792   0.65995
 Alpha virt. eigenvalues --    0.69666   0.70706   0.72203   0.73326   0.74148
 Alpha virt. eigenvalues --    0.75392   0.75992   0.76547   0.77455   0.78435
 Alpha virt. eigenvalues --    0.80152   0.81582   0.82702   0.84344   0.84543
 Alpha virt. eigenvalues --    0.87723   0.90103   0.90551   0.93551   0.96227
 Alpha virt. eigenvalues --    0.97648   0.98447   1.00277   1.01632   1.02464
 Alpha virt. eigenvalues --    1.04535   1.06591   1.08357   1.12170   1.13682
 Alpha virt. eigenvalues --    1.15825   1.16976   1.19976   1.21272   1.25869
 Alpha virt. eigenvalues --    1.27870   1.30638   1.33015   1.35338   1.37298
 Alpha virt. eigenvalues --    1.38014   1.40429   1.42226   1.44245   1.47105
 Alpha virt. eigenvalues --    1.47746   1.49292   1.50756   1.51508   1.53195
 Alpha virt. eigenvalues --    1.55477   1.57234   1.58641   1.59863   1.64071
 Alpha virt. eigenvalues --    1.64939   1.67185   1.67837   1.71940   1.74473
 Alpha virt. eigenvalues --    1.77576   1.78351   1.79701   1.83242   1.89270
 Alpha virt. eigenvalues --    1.91101   1.93969   1.95994   1.98046   2.03529
 Alpha virt. eigenvalues --    2.08049   2.11867   2.17300   2.20447   2.22211
 Alpha virt. eigenvalues --    2.27181   2.28915   2.30921   2.33662   2.35148
 Alpha virt. eigenvalues --    2.39341   2.42867   2.45294   2.53364   2.54463
 Alpha virt. eigenvalues --    2.57107   2.63271   2.64425   2.68468   2.70180
 Alpha virt. eigenvalues --    2.72031   2.75877   2.78364   2.80613   2.83735
 Alpha virt. eigenvalues --    2.84683   2.85626   2.88336   2.90290   2.91199
 Alpha virt. eigenvalues --    2.93849   2.95363   2.96787   2.97692   3.01253
 Alpha virt. eigenvalues --    3.05821   3.06243   3.07322   3.08209   3.09345
 Alpha virt. eigenvalues --    3.12123   3.14287   3.19496   3.20435   3.21300
 Alpha virt. eigenvalues --    3.24238   3.24861   3.28500   3.31772   3.32150
 Alpha virt. eigenvalues --    3.38982   3.39693   3.42200   3.44552   3.46593
 Alpha virt. eigenvalues --    3.48275   3.51046   3.52906   3.56140   3.56947
 Alpha virt. eigenvalues --    3.59068   3.62452   3.67249   3.68722   3.70815
 Alpha virt. eigenvalues --    3.75218   3.77264   3.84502   3.86908   3.93937
 Alpha virt. eigenvalues --    3.98316   4.01734   4.05851   4.07580   4.11498
 Alpha virt. eigenvalues --    4.12983   4.14516   4.16760   4.18748   4.20173
 Alpha virt. eigenvalues --    4.22333   4.25442   4.28218   4.30432   4.33691
 Alpha virt. eigenvalues --    4.34022   4.36943   4.42921   4.43051   4.45654
 Alpha virt. eigenvalues --    4.45999   4.51661   4.52849   4.55153   4.55812
 Alpha virt. eigenvalues --    4.58318   4.60493   4.61481   4.62063   4.64010
 Alpha virt. eigenvalues --    4.65110   4.67315   4.70055   4.73501   4.75298
 Alpha virt. eigenvalues --    4.76000   4.78148   4.80146   4.81690   4.83311
 Alpha virt. eigenvalues --    4.84773   4.86403   4.87887   4.89379   4.93967
 Alpha virt. eigenvalues --    4.96432   4.98010   5.00686   5.06000   5.07512
 Alpha virt. eigenvalues --    5.08256   5.09011   5.10022   5.11365   5.16886
 Alpha virt. eigenvalues --    5.19485   5.22426   5.28904   5.29524   5.33359
 Alpha virt. eigenvalues --    5.43582   5.44847   5.51325   5.52542   5.54621
 Alpha virt. eigenvalues --    5.55992   5.60701   5.66873   5.74920   5.92932
 Alpha virt. eigenvalues --    6.00132   6.03556   6.25079   6.27821   6.34603
 Alpha virt. eigenvalues --    6.41803   6.76609   6.79887   7.12817  10.73196
 Alpha virt. eigenvalues --   10.98706  11.32209  11.93412  12.10664  12.42490
 Alpha virt. eigenvalues --   12.87716  12.95398  13.10456
          Condensed to atoms (all electrons):
               1          2          3          4          5          6
     1  O    7.596014   0.763194  -0.063095  -0.000808  -0.000059   0.000012
     2  C    0.763194   4.461213   0.299532  -0.020756   0.001334   0.000316
     3  C   -0.063095   0.299532   5.273148   0.372263  -0.018912   0.002732
     4  C   -0.000808  -0.020756   0.372263   4.731533   0.367642  -0.085324
     5  C   -0.000059   0.001334  -0.018912   0.367642   4.982408   0.363380
     6  C    0.000012   0.000316   0.002732  -0.085324   0.363380   4.961640
     7  C    0.001500  -0.004691  -0.019170   0.350146  -0.091245   0.345281
     8  C   -0.000154   0.003468  -0.000996  -0.004897   0.001449  -0.007538
     9  O   -0.000218   0.002912  -0.001768   0.000472   0.000461  -0.000326
    10  H   -0.056078   0.352882  -0.121453   0.002515  -0.000269   0.000038
    11  H    0.002884  -0.009756   0.319950  -0.017558  -0.006181   0.000686
    12  H    0.001796  -0.013447   0.330923  -0.020885  -0.003886  -0.000140
    13  H   -0.000087  -0.003294  -0.049287   0.362258  -0.034594   0.006661
    14  H   -0.000002   0.000132  -0.008558  -0.020222   0.358356  -0.022717
    15  H    0.000000  -0.000044   0.001808  -0.019120   0.367943  -0.025129
    16  H    0.000000   0.000000  -0.000289   0.006983  -0.023701   0.367782
    17  H    0.000000   0.000007  -0.000143   0.000738  -0.021783   0.365839
    18  H    0.000364   0.000279  -0.007266  -0.034484   0.004216  -0.027450
    19  H   -0.000007   0.000161  -0.000302   0.006352  -0.000436   0.003094
               7          8          9         10         11         12
     1  O    0.001500  -0.000154  -0.000218  -0.056078   0.002884   0.001796
     2  C   -0.004691   0.003468   0.002912   0.352882  -0.009756  -0.013447
     3  C   -0.019170  -0.000996  -0.001768  -0.121453   0.319950   0.330923
     4  C    0.350146  -0.004897   0.000472   0.002515  -0.017558  -0.020885
     5  C   -0.091245   0.001449   0.000461  -0.000269  -0.006181  -0.003886
     6  C    0.345281  -0.007538  -0.000326   0.000038   0.000686  -0.000140
     7  C    5.195020   0.264210  -0.078949   0.000097  -0.008083   0.004269
     8  C    0.264210   4.517516   0.761043   0.000069  -0.000013  -0.000038
     9  O   -0.078949   0.761043   7.605522   0.001190  -0.000019  -0.000010
    10  H    0.000097   0.000069   0.001190   0.719987   0.007007   0.002954
    11  H   -0.008083  -0.000013  -0.000019   0.007007   0.615655  -0.032596
    12  H    0.004269  -0.000038  -0.000010   0.002954  -0.032596   0.616610
    13  H   -0.053961  -0.002853   0.011936   0.005255   0.006074  -0.003214
    14  H   -0.001113  -0.000097  -0.000008   0.000006   0.004962   0.000271
    15  H    0.007163  -0.000061   0.000000   0.000010  -0.000179   0.000710
    16  H   -0.018867   0.001113  -0.000014   0.000000  -0.000040   0.000013
    17  H   -0.030298  -0.003717   0.000629  -0.000001   0.000006   0.000011
    18  H    0.336506  -0.025666   0.001617   0.000100   0.004861  -0.000045
    19  H   -0.122330   0.357777  -0.056048   0.000016  -0.000004   0.000003
              13         14         15         16         17         18
     1  O   -0.000087  -0.000002   0.000000   0.000000   0.000000   0.000364
     2  C   -0.003294   0.000132  -0.000044   0.000000   0.000007   0.000279
     3  C   -0.049287  -0.008558   0.001808  -0.000289  -0.000143  -0.007266
     4  C    0.362258  -0.020222  -0.019120   0.006983   0.000738  -0.034484
     5  C   -0.034594   0.358356   0.367943  -0.023701  -0.021783   0.004216
     6  C    0.006661  -0.022717  -0.025129   0.367782   0.365839  -0.027450
     7  C   -0.053961  -0.001113   0.007163  -0.018867  -0.030298   0.336506
     8  C   -0.002853  -0.000097  -0.000061   0.001113  -0.003717  -0.025666
     9  O    0.011936  -0.000008   0.000000  -0.000014   0.000629   0.001617
    10  H    0.005255   0.000006   0.000010   0.000000  -0.000001   0.000100
    11  H    0.006074   0.004962  -0.000179  -0.000040   0.000006   0.004861
    12  H   -0.003214   0.000271   0.000710   0.000013   0.000011  -0.000045
    13  H    0.649855   0.005147  -0.007405  -0.000464   0.002405   0.006273
    14  H    0.005147   0.617572  -0.041078  -0.007081   0.004318   0.001949
    15  H   -0.007405  -0.041078   0.611947   0.002841  -0.006933  -0.000470
    16  H   -0.000464  -0.007081   0.002841   0.606781  -0.039929  -0.007959
    17  H    0.002405   0.004318  -0.006933  -0.039929   0.604724   0.005013
    18  H    0.006273   0.001949  -0.000470  -0.007959   0.005013   0.637851
    19  H    0.000771   0.000007   0.000021   0.000145   0.001441   0.001289
              19
     1  O   -0.000007
     2  C    0.000161
     3  C   -0.000302
     4  C    0.006352
     5  C   -0.000436
     6  C    0.003094
     7  C   -0.122330
     8  C    0.357777
     9  O   -0.056048
    10  H    0.000016
    11  H   -0.000004
    12  H    0.000003
    13  H    0.000771
    14  H    0.000007
    15  H    0.000021
    16  H    0.000145
    17  H    0.001441
    18  H    0.001289
    19  H    0.726669
 Mulliken charges:
               1
     1  O   -0.245255
     2  C    0.166557
     3  C   -0.309118
     4  C    0.023155
     5  C   -0.246123
     6  C   -0.248837
     7  C   -0.075485
     8  C    0.139385
     9  O   -0.248423
    10  H    0.085676
    11  H    0.112345
    12  H    0.116701
    13  H    0.098525
    14  H    0.108157
    15  H    0.107976
    16  H    0.112686
    17  H    0.117674
    18  H    0.103023
    19  H    0.081380
 Sum of Mulliken charges =   0.00000
 Mulliken charges with hydrogens summed into heavy atoms:
               1
     1  O   -0.245255
     2  C    0.252233
     3  C   -0.080072
     4  C    0.121680
     5  C   -0.029989
     6  C   -0.018477
     7  C    0.027538
     8  C    0.220765
     9  O   -0.248423
 Electronic spatial extent (au):  <R**2>=           1289.2392
 Charge=              0.0000 electrons
 Dipole moment (field-independent basis, Debye):
    X=              3.1173    Y=             -2.4045    Z=              0.0695  Tot=              3.9375
 Quadrupole moment (field-independent basis, Debye-Ang):
   XX=            -58.4917   YY=            -55.9086   ZZ=            -52.6465
   XY=              3.0894   XZ=              4.9662   YZ=              3.5068
 Traceless Quadrupole moment (field-independent basis, Debye-Ang):
   XX=             -2.8094   YY=             -0.2263   ZZ=              3.0358
   XY=              3.0894   XZ=              4.9662   YZ=              3.5068
 Octapole moment (field-independent basis, Debye-Ang**2):
  XXX=             19.8148  YYY=             -3.9818  ZZZ=              0.0964  XYY=             -2.1632
  XXY=              0.2228  XXZ=            -13.2387  XZZ=             -0.2127  YZZ=             -0.0086
  YYZ=              8.1167  XYZ=              0.8199
 Hexadecapole moment (field-independent basis, Debye-Ang**3):
 XXXX=           -999.3430 YYYY=           -585.8008 ZZZZ=           -155.1513 XXXY=             17.9053
 XXXZ=             28.2960 YYYX=              7.3297 YYYZ=             14.6545 ZZZX=             -3.8415
 ZZZY=             -3.7131 XXYY=           -240.2611 XXZZ=           -179.7148 YYZZ=           -119.6621
 XXYZ=             -2.7112 YYXZ=              0.4606 ZZXY=             -0.5391
 N-N= 4.410331556088D+02 E-N=-1.868537774503D+03  KE= 4.200260189309D+02
 Calling FoFJK, ICntrl=      2127 FMM=F ISym2X=0 I1Cent= 0 IOpClX= 0 NMat=1 NMatS=1 NMatT=0.
 ***** Axes restored to original set *****
 -------------------------------------------------------------------
 Center     Atomic                   Forces (Hartrees/Bohr)
 Number     Number              X              Y              Z
 -------------------------------------------------------------------
      1        8          -0.000007482   -0.000012797    0.000006689
      2        6          -0.000005891    0.000002846    0.000001056
      3        6           0.000006496   -0.000000124   -0.000001953
      4        6          -0.000001160   -0.000003760   -0.000003156
      5        6           0.000008907    0.000011057   -0.000001268
      6        6           0.000000376    0.000005560   -0.000003883
      7        6           0.000001900   -0.000001100    0.000004525
      8        6          -0.000005713   -0.000005217    0.000003388
      9        8          -0.000005889   -0.000011624   -0.000001416
     10        1          -0.000004611   -0.000012814   -0.000002749
     11        1           0.000000995    0.000003242    0.000003473
     12        1          -0.000000231    0.000002241   -0.000002158
     13        1           0.000000207   -0.000002911   -0.000008399
     14        1           0.000005129    0.000010291   -0.000001362
     15        1           0.000008567    0.000007301   -0.000009042
     16        1           0.000003986    0.000008708    0.000004420
     17        1           0.000003219    0.000002968   -0.000003015
     18        1          -0.000002022    0.000002458    0.000008445
     19        1          -0.000006784   -0.000006324    0.000006405
 -------------------------------------------------------------------
 Cartesian Forces:  Max     0.000012814 RMS     0.000005764

 GradGradGradGradGradGradGradGradGradGradGradGradGradGradGradGradGradGrad
 Berny optimization.
 FormGI is forming the generalized inverse of G from B-inverse, IUseBI=4.
 Internal  Forces:  Max     0.000005621 RMS     0.000000969
 Search for a local minimum.
 Step number   1 out of a maximum of  114
 All quantities printed in internal units (Hartrees-Bohrs-Radians)
 Mixed Optimization -- En-DIIS/RFO-DIIS
 Second derivative matrix not updated -- first step.
 ITU=  0
     Eigenvalues ---    0.00303   0.00382   0.00568   0.00569   0.00745
     Eigenvalues ---    0.00747   0.02318   0.02358   0.02862   0.03550
     Eigenvalues ---    0.04254   0.04434   0.04461   0.04693   0.04842
     Eigenvalues ---    0.05280   0.05406   0.06260   0.06286   0.06632
     Eigenvalues ---    0.07287   0.08154   0.09205   0.09275   0.11436
     Eigenvalues ---    0.12680   0.16000   0.16000   0.19533   0.21979
     Eigenvalues ---    0.22001   0.22001   0.24566   0.25017   0.26418
     Eigenvalues ---    0.27340   0.29515   0.30856   0.32163   0.32216
     Eigenvalues ---    0.32279   0.33740   0.33996   0.34243   0.34255
     Eigenvalues ---    0.34322   0.34411   0.34566   0.34688   1.01444
     Eigenvalues ---    1.02612
 RFO step:  Lambda= 0.00000000D+00 EMin= 3.02915706D-03
 Linear search not attempted -- first point.
 Iteration  1 RMS(Cart)=  0.00005171 RMS(Int)=  0.00000000
 Iteration  2 RMS(Cart)=  0.00000000 RMS(Int)=  0.00000000
 Variable       Old X    -DE/DX   Delta X   Delta X   Delta X     New X
                                 (Linear)    (Quad)   (Total)
    R1        2.27610   0.00001   0.00000   0.00001   0.00001   2.27611
    R2        2.86288   0.00000   0.00000   0.00000   0.00000   2.86287
    R3        2.10336   0.00000   0.00000  -0.00001  -0.00001   2.10336
    R4        2.88941   0.00000   0.00000   0.00000   0.00000   2.88941
    R5        2.06902   0.00000   0.00000   0.00000   0.00000   2.06902
    R6        2.07771   0.00000   0.00000   0.00000   0.00000   2.07771
    R7        2.93642   0.00000   0.00000   0.00000   0.00000   2.93642
    R8        2.92799   0.00000   0.00000  -0.00001  -0.00001   2.92798
    R9        2.06922   0.00000   0.00000   0.00000   0.00000   2.06922
   R10        2.93506   0.00000   0.00000   0.00001   0.00001   2.93507
   R11        2.06790   0.00000   0.00000   0.00000   0.00000   2.06790
   R12        2.06386   0.00000   0.00000   0.00000   0.00000   2.06386
   R13        2.96214   0.00000   0.00000   0.00000   0.00000   2.96214
   R14        2.06185   0.00000   0.00000   0.00000   0.00000   2.06185
   R15        2.06642   0.00000   0.00000   0.00000   0.00000   2.06642
   R16        2.83751   0.00000   0.00000   0.00000   0.00000   2.83751
   R17        2.07337   0.00000   0.00000   0.00000   0.00000   2.07337
   R18        2.28066   0.00000   0.00000   0.00000   0.00000   2.28066
   R19        2.10547   0.00000   0.00000   0.00000   0.00000   2.10547
    A1        2.17015   0.00000   0.00000  -0.00001  -0.00001   2.17014
    A2        2.11356   0.00000   0.00000   0.00000   0.00000   2.11356
    A3        1.99932   0.00000   0.00000   0.00002   0.00002   1.99933
    A4        1.94442   0.00000   0.00000   0.00001   0.00001   1.94443
    A5        1.89315   0.00000   0.00000  -0.00002  -0.00002   1.89313
    A6        1.88779   0.00000   0.00000   0.00003   0.00003   1.88782
    A7        1.94267   0.00000   0.00000   0.00000   0.00000   1.94267
    A8        1.90296   0.00000   0.00000  -0.00001  -0.00001   1.90295
    A9        1.89134   0.00000   0.00000  -0.00001  -0.00001   1.89133
   A10        2.08085   0.00000   0.00000   0.00000   0.00000   2.08085
   A11        2.07169   0.00000   0.00000   0.00001   0.00001   2.07171
   A12        1.91573   0.00000   0.00000   0.00000   0.00000   1.91573
   A13        1.54762   0.00000   0.00000   0.00000   0.00000   1.54763
   A14        1.92773   0.00000   0.00000  -0.00001  -0.00001   1.92772
   A15        1.88953   0.00000   0.00000  -0.00001  -0.00001   1.88952
   A16        1.55686   0.00000   0.00000   0.00000   0.00000   1.55686
   A17        1.94720   0.00000   0.00000   0.00000   0.00000   1.94720
   A18        2.04931   0.00000   0.00000   0.00000   0.00000   2.04932
   A19        1.94584   0.00000   0.00000  -0.00002  -0.00002   1.94582
   A20        2.05006   0.00000   0.00000   0.00001   0.00001   2.05007
   A21        1.89630   0.00000   0.00000   0.00001   0.00001   1.89631
   A22        1.53677   0.00000   0.00000   0.00000   0.00000   1.53677
   A23        2.05522   0.00000   0.00000  -0.00001  -0.00001   2.05521
   A24        1.95730   0.00000   0.00000   0.00000   0.00000   1.95729
   A25        2.04474   0.00000   0.00000   0.00000   0.00000   2.04474
   A26        1.94951   0.00000   0.00000   0.00001   0.00001   1.94952
   A27        1.89951   0.00000   0.00000   0.00000   0.00000   1.89951
   A28        1.55059   0.00000   0.00000   0.00000   0.00000   1.55060
   A29        2.06278   0.00000   0.00000   0.00000   0.00000   2.06278
   A30        1.96347   0.00000   0.00000   0.00000   0.00000   1.96347
   A31        2.04493   0.00000   0.00000  -0.00001  -0.00001   2.04491
   A32        1.92118   0.00000   0.00000   0.00000   0.00000   1.92118
   A33        1.89971   0.00000   0.00000   0.00001   0.00001   1.89971
   A34        2.16736   0.00000   0.00000   0.00000   0.00000   2.16736
   A35        2.00786   0.00000   0.00000   0.00000   0.00000   2.00786
   A36        2.10770   0.00000   0.00000   0.00000   0.00000   2.10770
    D1       -2.05199   0.00000   0.00000  -0.00008  -0.00008  -2.05207
    D2        0.09214   0.00000   0.00000  -0.00010  -0.00010   0.09204
    D3        2.14000   0.00000   0.00000  -0.00010  -0.00010   2.13990
    D4        1.07100   0.00000   0.00000   0.00011   0.00011   1.07111
    D5       -3.06806   0.00000   0.00000   0.00010   0.00010  -3.06796
    D6       -1.02019   0.00000   0.00000   0.00010   0.00010  -1.02010
    D7        3.03879   0.00000   0.00000   0.00007   0.00007   3.03886
    D8        1.18836   0.00000   0.00000   0.00006   0.00006   1.18842
    D9       -0.99665   0.00000   0.00000   0.00006   0.00006  -0.99659
   D10        0.92331   0.00000   0.00000   0.00009   0.00009   0.92340
   D11       -0.92712   0.00000   0.00000   0.00008   0.00008  -0.92704
   D12       -3.11213   0.00000   0.00000   0.00009   0.00009  -3.11204
   D13       -1.16220   0.00000   0.00000   0.00011   0.00011  -1.16209
   D14       -3.01263   0.00000   0.00000   0.00010   0.00010  -3.01253
   D15        1.08554   0.00000   0.00000   0.00010   0.00010   1.08565
   D16       -2.44035   0.00000   0.00000  -0.00001  -0.00001  -2.44036
   D17       -0.47064   0.00000   0.00000  -0.00004  -0.00004  -0.47067
   D18        1.73419   0.00000   0.00000  -0.00003  -0.00003   1.73416
   D19       -0.30216   0.00000   0.00000   0.00000   0.00000  -0.30216
   D20        1.66755   0.00000   0.00000  -0.00002  -0.00002   1.66753
   D21       -2.41081   0.00000   0.00000  -0.00001  -0.00001  -2.41082
   D22        1.60059   0.00000   0.00000  -0.00001  -0.00001   1.60058
   D23       -2.71288   0.00000   0.00000  -0.00003  -0.00003  -2.71292
   D24       -0.50806   0.00000   0.00000  -0.00002  -0.00002  -0.50808
   D25        2.44542   0.00000   0.00000   0.00000   0.00000   2.44542
   D26       -1.73495   0.00000   0.00000  -0.00001  -0.00001  -1.73496
   D27        0.50287   0.00000   0.00000   0.00000   0.00000   0.50287
   D28        0.29935   0.00000   0.00000   0.00000   0.00000   0.29935
   D29        2.40217   0.00000   0.00000  -0.00002  -0.00002   2.40215
   D30       -1.64320   0.00000   0.00000  -0.00001  -0.00001  -1.64320
   D31       -1.64013   0.00000   0.00000   0.00000   0.00000  -1.64012
   D32        0.46269   0.00000   0.00000  -0.00001  -0.00001   0.46268
   D33        2.70051   0.00000   0.00000   0.00000   0.00000   2.70051
   D34        0.29867   0.00000   0.00000  -0.00001  -0.00001   0.29866
   D35        2.39089   0.00000   0.00000  -0.00001  -0.00001   2.39089
   D36       -1.66793   0.00000   0.00000  -0.00002  -0.00002  -1.66795
   D37       -1.67231   0.00000   0.00000   0.00000   0.00000  -1.67231
   D38        0.41991   0.00000   0.00000   0.00000   0.00000   0.41991
   D39        2.64427   0.00000   0.00000  -0.00001  -0.00001   2.64426
   D40        2.40667   0.00000   0.00000   0.00000   0.00000   2.40667
   D41       -1.78429   0.00000   0.00000   0.00000   0.00000  -1.78429
   D42        0.44007   0.00000   0.00000  -0.00001  -0.00001   0.44006
   D43       -0.29959   0.00000   0.00000   0.00000   0.00000  -0.29958
   D44       -2.41804   0.00000   0.00000   0.00001   0.00001  -2.41803
   D45        1.68285   0.00000   0.00000   0.00001   0.00001   1.68286
   D46       -2.40119   0.00000   0.00000   0.00002   0.00002  -2.40118
   D47        1.76354   0.00000   0.00000   0.00002   0.00002   1.76356
   D48       -0.41875   0.00000   0.00000   0.00002   0.00002  -0.41874
   D49        1.67443   0.00000   0.00000   0.00000   0.00000   1.67443
   D50       -0.44402   0.00000   0.00000   0.00000   0.00000  -0.44402
   D51       -2.62632   0.00000   0.00000   0.00001   0.00001  -2.62631
   D52        0.08736   0.00000   0.00000   0.00002   0.00002   0.08739
   D53       -3.02955   0.00000   0.00000   0.00003   0.00003  -3.02952
   D54        1.91009   0.00000   0.00000   0.00002   0.00002   1.91010
   D55       -1.20682   0.00000   0.00000   0.00002   0.00002  -1.20680
   D56       -2.18010   0.00000   0.00000   0.00001   0.00001  -2.18009
   D57        0.98617   0.00000   0.00000   0.00002   0.00002   0.98619
         Item               Value     Threshold  Converged?
 Maximum Force            0.000006     0.000450     YES
 RMS     Force            0.000001     0.000300     YES
 Maximum Displacement     0.000279     0.001800     YES
 RMS     Displacement     0.000052     0.001200     YES
 Predicted change in Energy=-6.764442D-10
 Optimization completed.
    -- Stationary point found.
                           ----------------------------
                           !   Optimized Parameters   !
                           ! (Angstroms and Degrees)  !
 --------------------------                            --------------------------
 ! Name  Definition              Value          Derivative Info.                !
 --------------------------------------------------------------------------------
 ! R1    R(1,2)                  1.2045         -DE/DX =    0.0                 !
 ! R2    R(2,3)                  1.515          -DE/DX =    0.0                 !
 ! R3    R(2,10)                 1.1131         -DE/DX =    0.0                 !
 ! R4    R(3,4)                  1.529          -DE/DX =    0.0                 !
 ! R5    R(3,11)                 1.0949         -DE/DX =    0.0                 !
 ! R6    R(3,12)                 1.0995         -DE/DX =    0.0                 !
 ! R7    R(4,5)                  1.5539         -DE/DX =    0.0                 !
 ! R8    R(4,7)                  1.5494         -DE/DX =    0.0                 !
 ! R9    R(4,13)                 1.095          -DE/DX =    0.0                 !
 ! R10   R(5,6)                  1.5532         -DE/DX =    0.0                 !
 ! R11   R(5,14)                 1.0943         -DE/DX =    0.0                 !
 ! R12   R(5,15)                 1.0921         -DE/DX =    0.0                 !
 ! R13   R(6,7)                  1.5675         -DE/DX =    0.0                 !
 ! R14   R(6,16)                 1.0911         -DE/DX =    0.0                 !
 ! R15   R(6,17)                 1.0935         -DE/DX =    0.0                 !
 ! R16   R(7,8)                  1.5015         -DE/DX =    0.0                 !
 ! R17   R(7,18)                 1.0972         -DE/DX =    0.0                 !
 ! R18   R(8,9)                  1.2069         -DE/DX =    0.0                 !
 ! R19   R(8,19)                 1.1142         -DE/DX =    0.0                 !
 ! A1    A(1,2,3)              124.3406         -DE/DX =    0.0                 !
 ! A2    A(1,2,10)             121.0983         -DE/DX =    0.0                 !
 ! A3    A(3,2,10)             114.5524         -DE/DX =    0.0                 !
 ! A4    A(2,3,4)              111.4073         -DE/DX =    0.0                 !
 ! A5    A(2,3,11)             108.4695         -DE/DX =    0.0                 !
 ! A6    A(2,3,12)             108.1623         -DE/DX =    0.0                 !
 ! A7    A(4,3,11)             111.3071         -DE/DX =    0.0                 !
 ! A8    A(4,3,12)             109.0313         -DE/DX =    0.0                 !
 ! A9    A(11,3,12)            108.3656         -DE/DX =    0.0                 !
 ! A10   A(3,4,5)              119.224          -DE/DX =    0.0                 !
 ! A11   A(3,4,7)              118.6992         -DE/DX =    0.0                 !
 ! A12   A(3,4,13)             109.7631         -DE/DX =    0.0                 !
 ! A13   A(5,4,7)               88.6724         -DE/DX =    0.0                 !
 ! A14   A(5,4,13)             110.4508         -DE/DX =    0.0                 !
 ! A15   A(7,4,13)             108.2623         -DE/DX =    0.0                 !
 ! A16   A(4,5,6)               89.2017         -DE/DX =    0.0                 !
 ! A17   A(4,5,14)             111.5664         -DE/DX =    0.0                 !
 ! A18   A(4,5,15)             117.4169         -DE/DX =    0.0                 !
 ! A19   A(6,5,14)             111.4884         -DE/DX =    0.0                 !
 ! A20   A(6,5,15)             117.4597         -DE/DX =    0.0                 !
 ! A21   A(14,5,15)            108.65           -DE/DX =    0.0                 !
 ! A22   A(5,6,7)               88.0503         -DE/DX =    0.0                 !
 ! A23   A(5,6,16)             117.7555         -DE/DX =    0.0                 !
 ! A24   A(5,6,17)             112.1448         -DE/DX =    0.0                 !
 ! A25   A(7,6,16)             117.1549         -DE/DX =    0.0                 !
 ! A26   A(7,6,17)             111.6988         -DE/DX =    0.0                 !
 ! A27   A(16,6,17)            108.834          -DE/DX =    0.0                 !
 ! A28   A(4,7,6)               88.8425         -DE/DX =    0.0                 !
 ! A29   A(4,7,8)              118.1889         -DE/DX =    0.0                 !
 ! A30   A(4,7,18)             112.4986         -DE/DX =    0.0                 !
 ! A31   A(6,7,8)              117.1656         -DE/DX =    0.0                 !
 ! A32   A(6,7,18)             110.0756         -DE/DX =    0.0                 !
 ! A33   A(8,7,18)             108.8452         -DE/DX =    0.0                 !
 ! A34   A(7,8,9)              124.1808         -DE/DX =    0.0                 !
 ! A35   A(7,8,19)             115.0418         -DE/DX =    0.0                 !
 ! A36   A(9,8,19)             120.7622         -DE/DX =    0.0                 !
 ! D1    D(1,2,3,4)           -117.5703         -DE/DX =    0.0                 !
 ! D2    D(1,2,3,11)             5.279          -DE/DX =    0.0                 !
 ! D3    D(1,2,3,12)           122.6132         -DE/DX =    0.0                 !
 ! D4    D(10,2,3,4)            61.3639         -DE/DX =    0.0                 !
 ! D5    D(10,2,3,11)         -175.7869         -DE/DX =    0.0                 !
 ! D6    D(10,2,3,12)          -58.4527         -DE/DX =    0.0                 !
 ! D7    D(2,3,4,5)            174.1097         -DE/DX =    0.0                 !
 ! D8    D(2,3,4,7)             68.088          -DE/DX =    0.0                 !
 ! D9    D(2,3,4,13)           -57.1039         -DE/DX =    0.0                 !
 ! D10   D(11,3,4,5)            52.9016         -DE/DX =    0.0                 !
 ! D11   D(11,3,4,7)           -53.1201         -DE/DX =    0.0                 !
 ! D12   D(11,3,4,13)         -178.3119         -DE/DX =    0.0                 !
 ! D13   D(12,3,4,5)           -66.5893         -DE/DX =    0.0                 !
 ! D14   D(12,3,4,7)          -172.611          -DE/DX =    0.0                 !
 ! D15   D(12,3,4,13)           62.1971         -DE/DX =    0.0                 !
 ! D16   D(3,4,5,6)           -139.8216         -DE/DX =    0.0                 !
 ! D17   D(3,4,5,14)           -26.9655         -DE/DX =    0.0                 !
 ! D18   D(3,4,5,15)            99.3616         -DE/DX =    0.0                 !
 ! D19   D(7,4,5,6)            -17.3127         -DE/DX =    0.0                 !
 ! D20   D(7,4,5,14)            95.5434         -DE/DX =    0.0                 !
 ! D21   D(7,4,5,15)          -138.1295         -DE/DX =    0.0                 !
 ! D22   D(13,4,5,6)            91.707          -DE/DX =    0.0                 !
 ! D23   D(13,4,5,14)         -155.4368         -DE/DX =    0.0                 !
 ! D24   D(13,4,5,15)          -29.1098         -DE/DX =    0.0                 !
 ! D25   D(3,4,7,6)            140.1121         -DE/DX =    0.0                 !
 ! D26   D(3,4,7,8)            -99.4052         -DE/DX =    0.0                 !
 ! D27   D(3,4,7,18)            28.8125         -DE/DX =    0.0                 !
 ! D28   D(5,4,7,6)             17.1515         -DE/DX =    0.0                 !
 ! D29   D(5,4,7,8)            137.6341         -DE/DX =    0.0                 !
 ! D30   D(5,4,7,18)           -94.1482         -DE/DX =    0.0                 !
 ! D31   D(13,4,7,6)           -93.9724         -DE/DX =    0.0                 !
 ! D32   D(13,4,7,8)            26.5102         -DE/DX =    0.0                 !
 ! D33   D(13,4,7,18)          154.728          -DE/DX =    0.0                 !
 ! D34   D(4,5,6,7)             17.1124         -DE/DX =    0.0                 !
 ! D35   D(4,5,6,16)           136.9882         -DE/DX =    0.0                 !
 ! D36   D(4,5,6,17)           -95.5654         -DE/DX =    0.0                 !
 ! D37   D(14,5,6,7)           -95.8166         -DE/DX =    0.0                 !
 ! D38   D(14,5,6,16)           24.0592         -DE/DX =    0.0                 !
 ! D39   D(14,5,6,17)          151.5056         -DE/DX =    0.0                 !
 ! D40   D(15,5,6,7)           137.8919         -DE/DX =    0.0                 !
 ! D41   D(15,5,6,16)         -102.2324         -DE/DX =    0.0                 !
 ! D42   D(15,5,6,17)           25.214          -DE/DX =    0.0                 !
 ! D43   D(5,6,7,4)            -17.1651         -DE/DX =    0.0                 !
 ! D44   D(5,6,7,8)           -138.5435         -DE/DX =    0.0                 !
 ! D45   D(5,6,7,18)            96.4202         -DE/DX =    0.0                 !
 ! D46   D(16,6,7,4)          -137.5782         -DE/DX =    0.0                 !
 ! D47   D(16,6,7,8)           101.0434         -DE/DX =    0.0                 !
 ! D48   D(16,6,7,18)          -23.9928         -DE/DX =    0.0                 !
 ! D49   D(17,6,7,4)            95.9379         -DE/DX =    0.0                 !
 ! D50   D(17,6,7,8)           -25.4405         -DE/DX =    0.0                 !
 ! D51   D(17,6,7,18)         -150.4768         -DE/DX =    0.0                 !
 ! D52   D(4,7,8,9)              5.0055         -DE/DX =    0.0                 !
 ! D53   D(4,7,8,19)          -173.5802         -DE/DX =    0.0                 !
 ! D54   D(6,7,8,9)            109.4399         -DE/DX =    0.0                 !
 ! D55   D(6,7,8,19)           -69.1458         -DE/DX =    0.0                 !
 ! D56   D(18,7,8,9)          -124.9108         -DE/DX =    0.0                 !
 ! D57   D(18,7,8,19)           56.5035         -DE/DX =    0.0                 !
 --------------------------------------------------------------------------------
 GradGradGradGradGradGradGradGradGradGradGradGradGradGradGradGradGradGrad

                          Input orientation:                          
 ---------------------------------------------------------------------
 Center     Atomic      Atomic             Coordinates (Angstroms)
 Number     Number       Type             X           Y           Z
 ---------------------------------------------------------------------
      1          8           0        0.308928   -0.929775   -0.420643
      2          6           0        0.449205    0.237642   -0.159510
      3          6           0       -0.149132    0.919916    1.053599
      4          6           0       -1.135723    2.015312    0.647866
      5          6           0       -1.959863    2.739566    1.748237
      6          6           0       -3.198060    2.707960    0.811112
      7          6           0       -2.467746    1.603770   -0.028205
      8          6           0       -2.564609    1.702982   -1.523336
      9          8           0       -1.643640    2.000903   -2.244170
     10          1           0        1.032298    0.910198   -0.827758
     11          1           0       -0.632489    0.159740    1.675896
     12          1           0        0.669940    1.371315    1.631709
     13          1           0       -0.634568    2.744613    0.002921
     14          1           0       -2.105356    2.102943    2.626305
     15          1           0       -1.604766    3.717379    2.080761
     16          1           0       -4.161220    2.443864    1.250475
     17          1           0       -3.310868    3.637094    0.245663
     18          1           0       -2.806702    0.607933    0.283598
     19          1           0       -3.576308    1.502348   -1.944732
 ---------------------------------------------------------------------
                    Distance matrix (angstroms):
                    1          2          3          4          5
     1  O    0.000000
     2  C    1.204463   0.000000
     3  C    2.409266   1.514970   0.000000
     4  C    3.449967   2.514749   1.529011   0.000000
     5  C    4.828614   3.962666   2.659397   1.553887   0.000000
     6  C    5.200894   4.510778   3.542861   2.181661   1.553169
     7  C    3.779257   3.223686   2.648382   1.549427   2.168806
     8  C    4.050254   3.618054   3.617777   2.617897   3.484739
     9  O    3.965684   3.440189   3.778540   2.936335   4.072460
    10  H    2.018541   1.113052   2.221570   2.845885   4.351478
    11  H    2.543381   2.131864   1.094877   2.180192   2.902181
    12  H    3.104431   2.131291   1.099478   2.154784   2.966741
    13  H    3.817161   2.736029   2.160808   1.094984   2.191474
    14  H    4.930521   4.214960   2.774846   2.205014   1.094286
    15  H    5.613848   4.620193   3.316585   2.273812   1.092147
    16  H    5.844340   5.302027   4.296281   3.114551   2.276221
    17  H    5.865422   5.085134   4.246456   2.742845   2.210995
    18  H    3.545089   3.306719   2.784405   2.214854   2.721426
    19  H    4.830438   4.581622   4.590724   3.597382   4.216826
                    6          7          8          9         10
     6  C    0.000000
     7  C    1.567496   0.000000
     8  C    2.619329   1.501546   0.000000
     9  O    3.500128   2.397367   1.206873   0.000000
    10  H    4.879936   3.656588   3.748343   3.218152   0.000000
    11  H    3.717987   2.890908   4.043484   4.447384   3.098869
    12  H    4.173898   3.557305   4.530631   4.557572   2.528420
    13  H    2.688123   2.159406   2.671986   2.573081   2.614106
    14  H    2.203401   2.725238   4.194091   4.893375   4.816437
    15  H    2.273659   3.108024   4.238939   4.653260   4.826371
    16  H    1.091084   2.282243   3.285133   4.329777   5.800329
    17  H    1.093503   2.218166   2.725261   3.414094   5.239397
    18  H    2.200350   1.097180   2.126676   3.111702   4.008042
    19  H    3.031707   2.216365   1.114166   2.018274   4.778862
                   11         12         13         14         15
    11  H    0.000000
    12  H    1.779379   0.000000
    13  H    3.079029   2.498127   0.000000
    14  H    2.616992   3.037560   3.075240   0.000000
    15  H    3.710260   3.298477   2.490979   1.776123   0.000000
    16  H    4.224943   4.963447   3.752881   2.497141   2.974336
    17  H    4.616413   4.785573   2.831612   3.078041   2.506953
    18  H    2.620414   3.806204   3.059795   2.866220   3.787228
    19  H    4.855678   5.553262   3.740376   4.839297   4.999794
                   16         17         18         19
    16  H    0.000000
    17  H    1.776667   0.000000
    18  H    2.477945   3.071064   0.000000
    19  H    3.382000   3.070086   2.521453   0.000000
 Stoichiometry    C7H10O2
 Framework group  C1[X(C7H10O2)]
 Deg. of freedom    51
 Full point group                 C1      NOp   1
 Largest Abelian subgroup         C1      NOp   1
 Largest concise Abelian subgroup C1      NOp   1
                         Standard orientation:                         
 ---------------------------------------------------------------------
 Center     Atomic      Atomic             Coordinates (Angstroms)
 Number     Number       Type             X           Y           Z
 ---------------------------------------------------------------------
      1          8           0       -2.884357    0.125831    0.653717
      2          6           0       -2.181937   -0.225162   -0.259597
      3          6           0       -1.104146   -1.284240   -0.150716
      4          6           0        0.280117   -0.703758   -0.441800
      5          6           0        1.534771   -1.599437   -0.246436
      6          6           0        2.283420   -0.381008    0.359609
      7          6           0        0.889473    0.306591    0.562495
      8          6           0        0.794008    1.770437    0.242056
      9          8           0        0.197012    2.219501   -0.705826
     10          1           0       -2.275464    0.237625   -1.267548
     11          1           0       -1.148898   -1.722919    0.851438
     12          1           0       -1.323576   -2.073214   -0.884353
     13          1           0        0.287958   -0.245987   -1.436473
     14          1           0        1.361110   -2.376884    0.503817
     15          1           0        1.965221   -2.063096   -1.136671
     16          1           0        2.890076   -0.549295    1.250738
     17          1           0        2.888268    0.143333   -0.385358
     18          1           0        0.535297    0.144493    1.588208
     19          1           0        1.344526    2.442740    0.939411
 ---------------------------------------------------------------------
 Rotational constants (GHZ):      2.1333426      1.3163130      0.9234237
 1\1\GINC-ALCHEMY-LI\FOpt\RB3LYP\6-31G(2df,p)\C7H10O2\PUCK\27-Jan-2020\
 0\\# b3lyp 6-31G(2df,p) opt Freq\\titel\\0,1\O,0.3089284278,-0.9297751
 487,-0.4206431256\C,0.4492047927,0.2376418253,-0.1595095125\C,-0.14913
 18257,0.9199157024,1.053598524\C,-1.1357226427,2.0153123987,0.64786634
 16\C,-1.9598625001,2.7395658756,1.7482365163\C,-3.1980600301,2.7079596
 795,0.8111116154\C,-2.4677460331,1.6037704,-0.0282047426\C,-2.56460876
 13,1.7029822604,-1.5233356727\O,-1.6436398149,2.0009029464,-2.24416982
 82\H,1.0322981564,0.9101976342,-0.8277581632\H,-0.6324893109,0.1597403
 282,1.6758959912\H,0.6699400552,1.3713152297,1.6317086092\H,-0.6345680
 022,2.744613149,0.0029210131\H,-2.1053558151,2.1029427002,2.6263053864
 \H,-1.6047660327,3.7173791011,2.0807613357\H,-4.1612202649,2.443863749
 7,1.2504751632\H,-3.3108675203,3.6370941159,0.2456626735\H,-2.80670195
 98,0.6079334,0.2835984989\H,-3.5763083584,1.5023478823,-1.9447317638\\
 Version=ES64L-G09RevD.01\State=1-A\HF=-423.1925195\RMSD=5.384e-09\RMSF
 =5.764e-06\Dipole=-0.6856004,0.8350147,1.1101849\Quadrupole=4.8149937,
 -3.2155604,-1.5994334,2.9083016,1.984125,-0.1118002\PG=C01 [X(C7H10O2)
 ]\\@


 HICKORY, DICKORY, DOCK
 TWO MICE RAN UP THE CLOCK
 THE CLOCK STRUCK ONE...
 THE OTHER ESCAPED WITH MINOR INJURIES.
 Job cpu time:       0 days  0 hours  6 minutes 21.2 seconds.
 File lengths (MBytes):  RWF=     52 Int=      0 D2E=      0 Chk=      7 Scr=      1
 Normal termination of Gaussian 09 at Mon Jan 27 13:47:57 2020.
 Link1:  Proceeding to internal job step number  2.
 ----------------------------------------------------------------------
 #N Geom=AllCheck Guess=TCheck SCRF=Check GenChk RB3LYP/6-31G(2df,p) Fr
 eq
 ----------------------------------------------------------------------
 1/10=4,29=7,30=1,38=1,40=1/1,3;
 2/12=2,40=1/2;
 3/5=1,6=6,7=104,11=2,14=-4,16=1,25=1,30=1,70=2,71=2,74=-5,116=1,140=1/1,2,3;
 4/5=101/1;
 5/5=2,98=1/2;
 8/6=4,10=90,11=11/1;
 11/6=1,8=1,9=11,15=111,16=1/1,2,10;
 10/6=1/2;
 6/7=2,8=2,9=2,10=2,18=1,28=1/1;
 7/8=1,10=1,25=1/1,2,3,16;
 1/10=4,30=1/3;
 99//99;
 Structure from the checkpoint file:  "/scratch/puck/g09_0ca5ac4c-ec0d-4238-9475-60d94ef968ea/Gau-75983.chk"
 -----
 titel
 -----
 Charge =  0 Multiplicity = 1
 Redundant internal coordinates found in file.
 O,0,0.3089284278,-0.9297751487,-0.4206431256
 C,0,0.4492047927,0.2376418253,-0.1595095125
 C,0,-0.1491318257,0.9199157024,1.053598524
 C,0,-1.1357226427,2.0153123987,0.6478663416
 C,0,-1.9598625001,2.7395658756,1.7482365163
 C,0,-3.1980600301,2.7079596795,0.8111116154
 C,0,-2.4677460331,1.6037704,-0.0282047426
 C,0,-2.5646087613,1.7029822604,-1.5233356727
 O,0,-1.6436398149,2.0009029464,-2.2441698282
 H,0,1.0322981564,0.9101976342,-0.8277581632
 H,0,-0.6324893109,0.1597403282,1.6758959912
 H,0,0.6699400552,1.3713152297,1.6317086092
 H,0,-0.6345680022,2.744613149,0.0029210131
 H,0,-2.1053558151,2.1029427002,2.6263053864
 H,0,-1.6047660327,3.7173791011,2.0807613357
 H,0,-4.1612202649,2.4438637497,1.2504751632
 H,0,-3.3108675203,3.6370941159,0.2456626735
 H,0,-2.8067019598,0.6079334,0.2835984989
 H,0,-3.5763083584,1.5023478823,-1.9447317638
 Recover connectivity data from disk.

 GradGradGradGradGradGradGradGradGradGradGradGradGradGradGradGradGradGrad
 Berny optimization.
 Initialization pass.
                           ----------------------------
                           !    Initial Parameters    !
                           ! (Angstroms and Degrees)  !
 --------------------------                            --------------------------
 ! Name  Definition              Value          Derivative Info.                !
 --------------------------------------------------------------------------------
 ! R1    R(1,2)                  1.2045         calculate D2E/DX2 analytically  !
 ! R2    R(2,3)                  1.515          calculate D2E/DX2 analytically  !
 ! R3    R(2,10)                 1.1131         calculate D2E/DX2 analytically  !
 ! R4    R(3,4)                  1.529          calculate D2E/DX2 analytically  !
 ! R5    R(3,11)                 1.0949         calculate D2E/DX2 analytically  !
 ! R6    R(3,12)                 1.0995         calculate D2E/DX2 analytically  !
 ! R7    R(4,5)                  1.5539         calculate D2E/DX2 analytically  !
 ! R8    R(4,7)                  1.5494         calculate D2E/DX2 analytically  !
 ! R9    R(4,13)                 1.095          calculate D2E/DX2 analytically  !
 ! R10   R(5,6)                  1.5532         calculate D2E/DX2 analytically  !
 ! R11   R(5,14)                 1.0943         calculate D2E/DX2 analytically  !
 ! R12   R(5,15)                 1.0921         calculate D2E/DX2 analytically  !
 ! R13   R(6,7)                  1.5675         calculate D2E/DX2 analytically  !
 ! R14   R(6,16)                 1.0911         calculate D2E/DX2 analytically  !
 ! R15   R(6,17)                 1.0935         calculate D2E/DX2 analytically  !
 ! R16   R(7,8)                  1.5015         calculate D2E/DX2 analytically  !
 ! R17   R(7,18)                 1.0972         calculate D2E/DX2 analytically  !
 ! R18   R(8,9)                  1.2069         calculate D2E/DX2 analytically  !
 ! R19   R(8,19)                 1.1142         calculate D2E/DX2 analytically  !
 ! A1    A(1,2,3)              124.3406         calculate D2E/DX2 analytically  !
 ! A2    A(1,2,10)             121.0983         calculate D2E/DX2 analytically  !
 ! A3    A(3,2,10)             114.5524         calculate D2E/DX2 analytically  !
 ! A4    A(2,3,4)              111.4073         calculate D2E/DX2 analytically  !
 ! A5    A(2,3,11)             108.4695         calculate D2E/DX2 analytically  !
 ! A6    A(2,3,12)             108.1623         calculate D2E/DX2 analytically  !
 ! A7    A(4,3,11)             111.3071         calculate D2E/DX2 analytically  !
 ! A8    A(4,3,12)             109.0313         calculate D2E/DX2 analytically  !
 ! A9    A(11,3,12)            108.3656         calculate D2E/DX2 analytically  !
 ! A10   A(3,4,5)              119.224          calculate D2E/DX2 analytically  !
 ! A11   A(3,4,7)              118.6992         calculate D2E/DX2 analytically  !
 ! A12   A(3,4,13)             109.7631         calculate D2E/DX2 analytically  !
 ! A13   A(5,4,7)               88.6724         calculate D2E/DX2 analytically  !
 ! A14   A(5,4,13)             110.4508         calculate D2E/DX2 analytically  !
 ! A15   A(7,4,13)             108.2623         calculate D2E/DX2 analytically  !
 ! A16   A(4,5,6)               89.2017         calculate D2E/DX2 analytically  !
 ! A17   A(4,5,14)             111.5664         calculate D2E/DX2 analytically  !
 ! A18   A(4,5,15)             117.4169         calculate D2E/DX2 analytically  !
 ! A19   A(6,5,14)             111.4884         calculate D2E/DX2 analytically  !
 ! A20   A(6,5,15)             117.4597         calculate D2E/DX2 analytically  !
 ! A21   A(14,5,15)            108.65           calculate D2E/DX2 analytically  !
 ! A22   A(5,6,7)               88.0503         calculate D2E/DX2 analytically  !
 ! A23   A(5,6,16)             117.7555         calculate D2E/DX2 analytically  !
 ! A24   A(5,6,17)             112.1448         calculate D2E/DX2 analytically  !
 ! A25   A(7,6,16)             117.1549         calculate D2E/DX2 analytically  !
 ! A26   A(7,6,17)             111.6988         calculate D2E/DX2 analytically  !
 ! A27   A(16,6,17)            108.834          calculate D2E/DX2 analytically  !
 ! A28   A(4,7,6)               88.8425         calculate D2E/DX2 analytically  !
 ! A29   A(4,7,8)              118.1889         calculate D2E/DX2 analytically  !
 ! A30   A(4,7,18)             112.4986         calculate D2E/DX2 analytically  !
 ! A31   A(6,7,8)              117.1656         calculate D2E/DX2 analytically  !
 ! A32   A(6,7,18)             110.0756         calculate D2E/DX2 analytically  !
 ! A33   A(8,7,18)             108.8452         calculate D2E/DX2 analytically  !
 ! A34   A(7,8,9)              124.1808         calculate D2E/DX2 analytically  !
 ! A35   A(7,8,19)             115.0418         calculate D2E/DX2 analytically  !
 ! A36   A(9,8,19)             120.7622         calculate D2E/DX2 analytically  !
 ! D1    D(1,2,3,4)           -117.5703         calculate D2E/DX2 analytically  !
 ! D2    D(1,2,3,11)             5.279          calculate D2E/DX2 analytically  !
 ! D3    D(1,2,3,12)           122.6132         calculate D2E/DX2 analytically  !
 ! D4    D(10,2,3,4)            61.3639         calculate D2E/DX2 analytically  !
 ! D5    D(10,2,3,11)         -175.7869         calculate D2E/DX2 analytically  !
 ! D6    D(10,2,3,12)          -58.4527         calculate D2E/DX2 analytically  !
 ! D7    D(2,3,4,5)            174.1097         calculate D2E/DX2 analytically  !
 ! D8    D(2,3,4,7)             68.088          calculate D2E/DX2 analytically  !
 ! D9    D(2,3,4,13)           -57.1039         calculate D2E/DX2 analytically  !
 ! D10   D(11,3,4,5)            52.9016         calculate D2E/DX2 analytically  !
 ! D11   D(11,3,4,7)           -53.1201         calculate D2E/DX2 analytically  !
 ! D12   D(11,3,4,13)         -178.3119         calculate D2E/DX2 analytically  !
 ! D13   D(12,3,4,5)           -66.5893         calculate D2E/DX2 analytically  !
 ! D14   D(12,3,4,7)          -172.611          calculate D2E/DX2 analytically  !
 ! D15   D(12,3,4,13)           62.1971         calculate D2E/DX2 analytically  !
 ! D16   D(3,4,5,6)           -139.8216         calculate D2E/DX2 analytically  !
 ! D17   D(3,4,5,14)           -26.9655         calculate D2E/DX2 analytically  !
 ! D18   D(3,4,5,15)            99.3616         calculate D2E/DX2 analytically  !
 ! D19   D(7,4,5,6)            -17.3127         calculate D2E/DX2 analytically  !
 ! D20   D(7,4,5,14)            95.5434         calculate D2E/DX2 analytically  !
 ! D21   D(7,4,5,15)          -138.1295         calculate D2E/DX2 analytically  !
 ! D22   D(13,4,5,6)            91.707          calculate D2E/DX2 analytically  !
 ! D23   D(13,4,5,14)         -155.4368         calculate D2E/DX2 analytically  !
 ! D24   D(13,4,5,15)          -29.1098         calculate D2E/DX2 analytically  !
 ! D25   D(3,4,7,6)            140.1121         calculate D2E/DX2 analytically  !
 ! D26   D(3,4,7,8)            -99.4052         calculate D2E/DX2 analytically  !
 ! D27   D(3,4,7,18)            28.8125         calculate D2E/DX2 analytically  !
 ! D28   D(5,4,7,6)             17.1515         calculate D2E/DX2 analytically  !
 ! D29   D(5,4,7,8)            137.6341         calculate D2E/DX2 analytically  !
 ! D30   D(5,4,7,18)           -94.1482         calculate D2E/DX2 analytically  !
 ! D31   D(13,4,7,6)           -93.9724         calculate D2E/DX2 analytically  !
 ! D32   D(13,4,7,8)            26.5102         calculate D2E/DX2 analytically  !
 ! D33   D(13,4,7,18)          154.728          calculate D2E/DX2 analytically  !
 ! D34   D(4,5,6,7)             17.1124         calculate D2E/DX2 analytically  !
 ! D35   D(4,5,6,16)           136.9882         calculate D2E/DX2 analytically  !
 ! D36   D(4,5,6,17)           -95.5654         calculate D2E/DX2 analytically  !
 ! D37   D(14,5,6,7)           -95.8166         calculate D2E/DX2 analytically  !
 ! D38   D(14,5,6,16)           24.0592         calculate D2E/DX2 analytically  !
 ! D39   D(14,5,6,17)          151.5056         calculate D2E/DX2 analytically  !
 ! D40   D(15,5,6,7)           137.8919         calculate D2E/DX2 analytically  !
 ! D41   D(15,5,6,16)         -102.2324         calculate D2E/DX2 analytically  !
 ! D42   D(15,5,6,17)           25.214          calculate D2E/DX2 analytically  !
 ! D43   D(5,6,7,4)            -17.1651         calculate D2E/DX2 analytically  !
 ! D44   D(5,6,7,8)           -138.5435         calculate D2E/DX2 analytically  !
 ! D45   D(5,6,7,18)            96.4202         calculate D2E/DX2 analytically  !
 ! D46   D(16,6,7,4)          -137.5782         calculate D2E/DX2 analytically  !
 ! D47   D(16,6,7,8)           101.0434         calculate D2E/DX2 analytically  !
 ! D48   D(16,6,7,18)          -23.9928         calculate D2E/DX2 analytically  !
 ! D49   D(17,6,7,4)            95.9379         calculate D2E/DX2 analytically  !
 ! D50   D(17,6,7,8)           -25.4405         calculate D2E/DX2 analytically  !
 ! D51   D(17,6,7,18)         -150.4768         calculate D2E/DX2 analytically  !
 ! D52   D(4,7,8,9)              5.0055         calculate D2E/DX2 analytically  !
 ! D53   D(4,7,8,19)          -173.5802         calculate D2E/DX2 analytically  !
 ! D54   D(6,7,8,9)            109.4399         calculate D2E/DX2 analytically  !
 ! D55   D(6,7,8,19)           -69.1458         calculate D2E/DX2 analytically  !
 ! D56   D(18,7,8,9)          -124.9108         calculate D2E/DX2 analytically  !
 ! D57   D(18,7,8,19)           56.5035         calculate D2E/DX2 analytically  !
 --------------------------------------------------------------------------------
 Trust Radius=3.00D-01 FncErr=1.00D-07 GrdErr=1.00D-07
 Number of steps in this run=      2 maximum allowed number of steps=      2.
 GradGradGradGradGradGradGradGradGradGradGradGradGradGradGradGradGradGrad

                          Input orientation:                          
 ---------------------------------------------------------------------
 Center     Atomic      Atomic             Coordinates (Angstroms)
 Number     Number       Type             X           Y           Z
[...]
 3769,0.00426871,-0.11190260,0.04492938,-0.02361457,0.52056125,0.000165
 44,0.00382322,-0.00114521,0.01463174,-0.02238559,-0.00645879,0.0434490
 1,-0.12817198,0.03100641,0.00716065,0.49690427,-0.00260527,-0.00527920
 ,-0.00849403,0.01715330,-0.01816452,0.01884167,-0.00904763,0.02002259,
 -0.08741933,-0.04974147,-0.08208083,0.45257510,-0.00020976,0.00037724,
 0.00077784,-0.00036396,0.00141492,-0.00275888,-0.01097936,0.00799135,0
 .01305131,-0.07566817,0.02639252,0.04918324,0.36912466,-0.00004750,-0.
 00071033,-0.00122137,0.00128331,-0.00099924,0.00431026,0.01094721,-0.0
 1150936,-0.01639098,0.01776746,-0.09619363,-0.02743127,0.08237050,0.58
 734514,0.00051039,0.00168742,0.00210223,-0.00128651,0.00171553,-0.0037
 6204,-0.00367398,0.00548695,0.01008027,0.04111830,-0.02440521,-0.11457
 087,0.01880018,-0.00476543,0.55256335,0.00034095,0.00064062,0.00072714
 ,-0.00008475,-0.00034165,-0.00185364,-0.00602769,0.00073843,0.00222219
 ,-0.06789029,0.02990976,-0.00131934,-0.12536497,-0.01120589,-0.0502881
 7,0.57003170,0.00001387,-0.00005542,-0.00019130,0.00020550,-0.00015898
 ,0.00047581,0.00058401,-0.00077451,-0.00118586,0.01904553,-0.00236986,
 -0.00627205,-0.01571170,-0.06680172,0.01232526,0.00006279,0.49434042,-
 0.00023552,-0.00051049,-0.00054948,0.00046873,-0.00010116,0.00122473,0
 .00139652,-0.00086847,-0.00216149,0.00796951,-0.01139538,0.00113811,-0
 .05580732,0.01241784,-0.09842934,-0.06157920,-0.11593798,0.41798086,-0
 .00001832,0.00007180,-0.00003698,-0.00077505,-0.00002811,-0.00015138,-
 0.01708327,-0.00224248,-0.00593252,-0.13148485,-0.03399016,-0.04284902
 ,-0.00831888,-0.00585168,-0.01218316,-0.06706310,0.02937797,0.03770442
 ,0.40964917,-0.00069643,-0.00065329,-0.00020005,-0.00019540,0.00244463
 ,0.00152783,0.01731789,0.00915502,0.01152998,-0.02913321,-0.07765210,0
 .00566876,-0.00605558,-0.01682940,-0.03259865,0.02751893,-0.10458019,-
 0.02813817,0.08349571,0.51191510,-0.00019655,0.00082401,0.00062080,0.0
 0099666,-0.00033423,-0.00120962,-0.00793021,-0.00282683,-0.00453331,-0
 .03168225,0.00495213,-0.08208262,-0.01971324,-0.04913871,-0.04908372,0
 .02517484,-0.01424951,-0.07757412,0.01914806,-0.02774312,0.50143213,0.
 00001088,0.00020674,0.00144589,-0.00008776,0.00055343,-0.00384007,-0.0
 0273486,-0.00201506,-0.00181075,0.00289847,0.00672218,-0.03168422,-0.0
 0265295,-0.00138753,-0.00001333,-0.00156800,-0.00529665,0.01978165,-0.
 09928964,0.00228998,-0.03400418,0.80602263,-0.00034122,-0.00038133,0.0
 0015090,0.00065431,0.00091922,-0.00065204,-0.00027989,-0.00059046,0.00
 034280,-0.00025577,-0.00072697,-0.00781361,-0.00171233,-0.00474689,-0.
 00278442,-0.00413732,0.00613058,-0.01741901,0.00257385,-0.08631303,0.0
 0456980,0.16530352,0.26459407,0.00054140,-0.00102022,-0.00224112,-0.00
 201573,0.00054775,0.00554149,0.00280428,0.00039400,-0.00032868,-0.0089
 5139,-0.00619718,-0.01404211,-0.00198489,-0.00018227,-0.00209222,0.004
 95300,-0.01023875,-0.01690109,-0.03345792,0.01078905,-0.17876297,-0.18
 388374,-0.08966929,0.65866858,0.00038673,0.00049708,-0.00146270,-0.001
 26340,-0.00130668,0.00411615,0.00162037,0.00034935,0.00032662,-0.00190
 765,-0.00237397,0.00094445,0.00041596,0.00145643,-0.00085853,0.0024332
 2,-0.00341509,-0.00398871,0.00326195,-0.00738832,0.02687651,-0.4983651
 3,-0.13589002,0.30191870,0.53432814,0.00028423,0.00035674,0.00045109,-
 0.00025365,-0.00055809,-0.00090990,0.00078499,0.00068483,-0.00016792,-
 0.00014446,-0.00189411,0.00000855,-0.00018505,0.00127743,-0.00008201,0
 .00151576,-0.00474327,0.00146663,-0.01078415,0.02342898,0.01176480,-0.
 13712849,-0.10862254,0.10229809,0.16132406,0.07325307,-0.00009768,0.00
 091044,0.00120247,0.00080988,-0.00093653,-0.00258955,-0.00083585,0.000
 17682,0.00031434,0.00319680,0.00009271,0.00418789,0.00108077,0.0000807
 4,0.00010410,-0.00115311,0.00667822,-0.00173345,0.04432153,0.01349020,
 -0.04082860,0.29967693,0.09957614,-0.33783680,-0.35421030,-0.11964884,
 0.36698516,0.01371646,-0.01830608,0.00307925,-0.12014702,-0.05201197,0
 .07268742,0.00591071,-0.01033828,0.01397146,0.00153027,-0.00219642,-0.
 00177635,-0.00001134,-0.00010566,0.00009579,-0.00010673,0.00006058,-0.
 00002663,-0.00002920,0.00022222,-0.00026518,-0.00045796,-0.00013278,0.
 00066780,0.00057854,0.00002747,-0.00056636,0.09906999,-0.02737347,-0.0
 4664289,0.01653704,-0.05667731,-0.10970420,0.07069508,0.00462191,0.009
 32511,-0.00942839,-0.00076412,0.00135896,0.00147084,-0.00024880,0.0001
 9586,-0.00049452,-0.00011108,0.00009099,0.00006764,0.00009896,-0.00005
 758,-0.00008441,-0.00038333,-0.00018668,0.00050591,0.00070925,-0.00013
 812,-0.00006318,0.07924629,0.14656643,-0.00147930,-0.00046907,0.021763
 13,0.07354952,0.06647183,-0.15060607,0.01968296,0.01433567,-0.00832959
 ,-0.00015565,0.00075515,-0.00202315,0.00025325,-0.00086330,0.00041781,
 0.00013847,-0.00016877,-0.00008898,0.00003065,-0.00000605,0.00022938,0
 .00075672,0.00019402,-0.00090884,-0.00116202,0.00023736,0.00006522,-0.
 09286515,-0.07733813,0.14052467,0.00102189,0.00126546,-0.00330541,-0.0
 0844620,-0.01212561,0.00890243,-0.10167065,-0.08192922,0.06538730,0.00
 858947,0.01667434,-0.01296972,0.00122148,-0.00049360,-0.00087708,0.000
 33587,0.00012365,-0.00018356,0.00200343,0.00057136,0.00014866,0.000108
 10,-0.00004750,-0.00016113,-0.00010694,-0.00020347,-0.00006189,0.00070
 657,0.00150451,0.00275922,0.10892582,-0.00025399,0.00165230,0.00173195
 ,0.00766671,0.00984203,-0.00990083,-0.08330908,-0.17205242,0.10217376,
 -0.00965483,-0.01774804,0.01346684,-0.00117723,0.00057061,0.00106667,-
 0.00021512,0.00040435,-0.00011524,-0.00101802,0.00085420,-0.00100901,-
 0.00029636,0.00010993,0.00037932,0.00033287,0.00020335,-0.00004900,0.0
 0105619,-0.00105570,-0.00246098,0.08669760,0.18707884,-0.00368301,-0.0
 0055534,0.00468391,0.01518001,0.02269945,-0.01802237,0.06457934,0.0989
 5007,-0.12981763,0.00309534,0.00587242,-0.00559182,-0.00023248,-0.0008
 2983,0.00076855,0.00006257,-0.00021352,0.00014151,0.00089272,0.0003191
 4,0.00028167,0.00029321,-0.00006915,-0.00052891,-0.00041119,-0.0000635
 8,0.00020884,0.00258138,-0.00277907,-0.00338726,-0.07300219,-0.1121762
 8,0.14056109,-0.00261901,0.00233934,0.00014727,0.01193464,0.00507141,0
 .00685446,-0.17987380,-0.08229035,-0.09284549,-0.01904186,-0.00896008,
 -0.01380031,0.00069431,-0.00058931,0.00088916,-0.00029739,-0.00026944,
 -0.00030194,0.00008342,0.00409346,-0.00160504,-0.00131105,-0.00000237,
 0.00102487,0.00049994,0.00010997,-0.00031152,-0.00075152,-0.00054769,-
 0.00157154,-0.00999371,-0.00485838,-0.00765174,0.19942667,0.00404460,-
 0.00071478,-0.00284049,-0.01312860,-0.01022670,-0.00718096,-0.08485835
 ,-0.08605035,-0.05518694,0.02084749,0.00931926,0.01535514,-0.00073336,
 0.00117513,-0.00086993,0.00024030,0.00044885,0.00046228,0.00193292,-0.
 00353508,0.00123635,0.00087210,0.00019599,-0.00046318,-0.00024805,-0.0
 0017802,0.00007213,0.00157585,0.00032672,0.00055898,-0.01461900,-0.008
 28787,-0.01197654,0.08518763,0.09656877,0.00455936,-0.00222024,-0.0023
 3307,-0.02438256,-0.01242089,-0.01154711,-0.09722514,-0.05430934,-0.11
 853924,-0.00782530,-0.00241402,-0.00525546,-0.00003173,0.00056491,0.00
 058045,-0.00017303,0.00007652,0.00004815,0.00066975,0.00119176,0.00088
 581,-0.00002823,-0.00022424,0.00015770,0.00003217,0.00014398,-0.000041
 96,0.00267868,0.00091651,0.00148518,0.01373296,0.00730514,0.01032256,0
 .10835959,0.06134829,0.12383262,-0.00038432,-0.00029111,0.00035370,0.0
 0137537,0.00042666,-0.00063060,0.00996089,0.01627278,-0.01338350,-0.10
 353608,-0.07828928,0.06935669,-0.00490285,-0.00727213,0.00706004,0.000
 63483,0.00016444,-0.00046071,-0.01403049,-0.01863552,0.01186448,-0.000
 40974,-0.00151831,0.00293761,0.00204149,0.00153163,-0.00050732,-0.0003
 3685,-0.00012010,0.00024802,-0.00258842,0.00369764,-0.00090939,0.00106
 950,-0.00083623,0.00009142,0.11598830,0.00062054,0.00029562,-0.0007051
 9,-0.00222932,0.00005882,0.00233157,-0.00948891,-0.01842089,0.01382957
 ,-0.07790983,-0.16235406,0.10166643,0.00825412,0.01098809,-0.01115130,
 -0.00039911,-0.00048649,-0.00005788,-0.00760940,-0.00985113,0.00506424
 ,-0.00088228,0.00023482,0.00285748,0.00225002,0.00066983,0.00007517,0.
 00078958,-0.00004644,-0.00103487,0.00370552,-0.00237907,0.00107318,0.0
 0009619,0.00114886,-0.00022546,0.08293888,0.17893661,0.00004376,0.0001
 3945,0.00006861,0.00002580,-0.00082630,0.00004856,0.00300332,0.0069908
 4,-0.00505848,0.06983826,0.10356318,-0.13288624,0.01169142,0.01614555,
 -0.01657644,-0.00000864,-0.00018854,-0.00061976,-0.00763982,-0.0122564
 3,0.01088356,0.00021290,-0.00050779,0.00021520,-0.00061341,0.00018457,
 -0.00097204,-0.00002691,0.00005599,0.00040355,-0.00111576,0.00078561,0
 .00032416,0.00016790,-0.00022229,0.00009697,-0.07492966,-0.11100643,0.
 14544682,0.00007025,-0.00011394,-0.00017279,-0.00000435,0.00000801,0.0
 0045176,0.00177022,-0.00187048,-0.00088085,-0.00548267,-0.01334311,0.0
 1820707,-0.04817294,-0.02377906,0.02810778,0.00240295,0.01872714,-0.02
 414728,-0.00123196,0.00013406,0.00002460,-0.00033207,-0.00013627,0.000
 46028,0.00049602,0.00024479,0.00011733,0.00009862,0.00005923,-0.000261
 81,0.00000211,0.00063776,-0.00023245,-0.00020359,-0.00007800,-0.000023
 45,-0.00152479,0.00273242,0.00325751,0.05428336,-0.00005036,0.00002907
 ,0.00020027,0.00006745,0.00024151,-0.00043580,-0.00001801,0.00192941,-
 0.00019747,0.00195168,0.00829487,-0.01169958,-0.02351060,-0.14137617,0
 .12260515,0.00031880,-0.00199461,0.00107530,0.00043315,-0.00036951,0.0
 0045241,0.00006570,0.00004612,0.00004962,-0.00021646,-0.00009310,-0.00
 015609,0.00001884,-0.00013407,0.00009843,-0.00039261,0.00004622,0.0000
 7583,0.00006386,-0.00004007,0.00014236,0.00098282,-0.00060989,-0.00229
 253,0.02341815,0.14818509,-0.00003823,0.00008263,0.00007242,-0.0001997
 0,-0.00025512,-0.00015208,-0.00095003,0.00183073,0.00156286,0.00406480
 ,0.01164269,-0.01552569,0.02805655,0.12230184,-0.21279404,0.00146372,0
 .00898560,-0.01132160,0.00043113,-0.00005230,0.00058736,0.00018273,-0.
 00040165,-0.00023829,-0.00035308,-0.00005688,-0.00005743,-0.00015513,0
 .00005586,0.00027474,0.00037248,-0.00101750,0.00018899,0.00036191,-0.0
 0024057,0.00009324,0.00038128,-0.00234275,-0.00229295,-0.03069813,-0.1
 3317064,0.23158884,0.00016518,0.00028145,0.00034669,-0.00043460,-0.000
 05757,-0.00090035,-0.00050022,0.00095977,0.00175627,0.00779602,0.01760
 907,0.00120546,-0.07902325,-0.07746620,-0.02429274,-0.00582910,-0.0218
 3871,-0.00155751,-0.00109522,0.00005127,-0.00146559,0.00130493,-0.0008
 2817,0.00113396,0.00027065,0.00043032,-0.00078933,0.00005135,-0.000070
 55,0.00017830,-0.00001267,-0.00006281,0.00006465,-0.00009057,-0.000220
 85,-0.00021636,0.00127466,-0.00081917,-0.00146085,-0.00100477,-0.00379
 904,-0.00133156,0.07684409,-0.00006214,-0.00027733,-0.00023455,0.00029
 645,0.00016655,0.00062707,0.00031653,-0.00071376,-0.00132835,-0.005126
 80,-0.00764166,0.00027949,-0.07793609,-0.26656378,-0.06811842,0.002301
 68,0.00457705,0.00124042,0.00070721,0.00064917,-0.00220909,-0.00078780
 ,-0.00013168,0.00070977,0.00026721,-0.00001567,-0.00021661,-0.00000914
 ,0.00002347,-0.00017653,-0.00006324,0.00023935,-0.00001941,0.00021477,
 -0.00009400,0.00009029,0.00005559,0.00138890,0.00046338,-0.00600317,-0
 .01601399,-0.00582334,0.08574252,0.28322706,-0.00001628,-0.00014222,-0
 .00019701,-0.00002107,-0.00016947,0.00052058,-0.00002058,-0.00009526,-
 0.00116131,-0.00720818,-0.01517867,-0.00579732,-0.02415012,-0.06732968
 ,-0.06727794,-0.00382070,-0.01236589,-0.00463878,-0.00005819,-0.002386
 44,-0.00631859,-0.00099694,-0.00183132,0.00088689,0.00061889,0.0004759
 4,-0.00036427,-0.00004260,0.00005609,-0.00003548,0.00008847,-0.0002566
 4,0.00004799,0.00011156,-0.00000925,0.00025826,-0.00009093,0.00045684,
 0.00164408,0.00859036,0.02365374,0.00834956,0.02758334,0.07528596,0.07
 390857,0.00004389,0.00038497,0.00034384,0.00001504,-0.00010227,-0.0007
 9684,-0.00081353,-0.00032230,0.00117330,-0.00382569,0.00303113,-0.0014
 2054,-0.01317702,-0.00482209,0.00943347,-0.25392331,-0.06276475,0.0973
 1617,-0.00618076,-0.00184239,0.00132933,-0.00117449,0.00038351,-0.0006
 2938,0.00033739,-0.00010958,0.00029152,-0.00000018,-0.00005372,0.00005
 970,0.00004355,0.00007510,-0.00003779,-0.00005598,-0.00000863,-0.00007
 062,0.00008335,-0.00021634,0.00012232,0.00195968,-0.00000331,0.0000863
 4,-0.00179391,0.00054532,-0.00041173,0.27320535,-0.00004926,-0.0000638
 1,0.00000335,-0.00003646,0.00018839,0.00007679,0.00097981,0.00047905,0
 .00018612,0.00233016,-0.00177082,-0.00102588,0.00080923,-0.00271433,0.
 00238198,-0.06354572,-0.06562081,0.02879620,0.01820470,0.00542893,-0.0
 0967511,0.00191607,-0.00164699,0.00178918,0.00036665,0.00102763,-0.001
 56261,-0.00000486,-0.00000368,0.00002481,-0.00010725,0.00000874,0.0000
 1791,0.00022167,-0.00022755,0.00010892,0.00039598,0.00003718,-0.000167
 59,0.00045556,0.00103156,0.00011120,-0.00069212,0.00008912,-0.00042723
 ,0.06454363,0.06759697,0.00005938,0.00013338,0.00020695,-0.00020604,0.
 00023000,-0.00042141,-0.00027720,0.00073865,0.00114764,-0.00144278,-0.
 00095765,-0.00131285,-0.01636358,-0.00701121,0.01110843,0.09749865,0.0
 2866151,-0.09518479,0.01088238,0.00642978,-0.00758178,0.00237207,-0.00
 121964,0.00178956,0.00005076,0.00070339,-0.00136081,0.00001024,-0.0000
 5490,0.00004461,0.00006119,-0.00001320,-0.00000036,0.00026673,-0.00028
 995,0.00009800,-0.00026949,0.00008358,0.00011824,0.00160156,-0.0002898
 7,0.00153528,-0.00210849,-0.00000742,-0.00085315,-0.10516665,-0.032121
 15,0.09553840,-0.00000343,0.00006608,0.00005757,-0.00000103,-0.0000403
 2,-0.00013316,-0.00033859,0.00009044,0.00024868,0.00007914,-0.00065219
 ,-0.00009330,-0.00189150,0.01947229,-0.01255803,-0.05127006,0.01988707
 ,-0.00977246,-0.00147304,0.00754354,-0.00442826,0.00203925,0.00081655,
 -0.00094357,-0.00056229,-0.00048939,0.00005849,-0.00001603,-0.00002537
 ,0.00005222,-0.00005398,-0.00017181,0.00008736,0.00001882,-0.00002472,
 -0.00004362,-0.00056428,0.00013883,0.00023109,-0.00360640,0.00083017,-
 0.00132441,0.00215698,-0.00037796,0.00028907,0.00383147,-0.02450953,0.
 01454498,0.05264210,0.00009728,0.00004576,-0.00003369,-0.00016500,-0.0
 0009264,0.00013928,0.00035380,0.00013323,0.00001048,-0.00053884,-0.000
 38121,-0.00053723,-0.00092066,0.00534579,-0.00313625,0.01988093,-0.237
 41887,0.11963247,0.00101833,-0.01885731,0.00766921,-0.00102435,-0.0000
 5575,0.00363846,0.00082553,0.00046140,-0.00112841,0.00001824,0.0000245
 2,-0.00002902,-0.00009991,0.00009250,-0.00008956,0.00012790,-0.0000131
 1,0.00003511,0.00040930,0.00018355,0.00002785,-0.00088524,0.00085137,-
 0.00128567,0.00060895,0.00099027,0.00018014,0.00114870,-0.00599446,0.0
 0400914,-0.02349364,0.25704090,0.00007525,0.00019518,0.00010268,-0.000
 10115,-0.00017159,-0.00016382,-0.00014201,0.00020807,0.00044641,-0.000
 32893,-0.00030024,-0.00110779,-0.00104450,0.01902125,-0.01348544,-0.00
 992402,0.11915158,-0.11695238,0.00125052,-0.01882988,0.01024736,-0.000
 71415,-0.00045285,0.00167016,-0.00011227,0.00001869,0.00043798,-0.0000
 0830,0.00000460,0.00004004,0.00004243,-0.00008447,-0.00006413,0.000147
 44,-0.00003883,-0.00000746,0.00000094,0.00018960,0.00040569,-0.0044390
 0,0.00000104,-0.00149995,0.00128868,-0.00053635,0.00147430,-0.00188880
 ,0.01116033,-0.00624913,0.01338184,-0.12639397,0.12648190,0.00045499,0
 .00069077,0.00028209,-0.00046101,-0.00076680,-0.00019396,0.00195467,-0
 .00046105,0.00176426,-0.01033913,-0.02614849,0.01054253,-0.00083918,0.
 00064348,0.00047334,0.00409959,0.02058194,-0.00466209,-0.06624475,-0.0
 7546349,0.01629778,-0.00026112,0.00174331,0.00257741,0.00131607,-0.000
 06591,-0.00019771,0.00007999,0.00008220,-0.00014408,-0.00007654,0.0008
 1394,-0.00064691,0.00056542,0.00005005,-0.00008860,-0.00428558,-0.0021
 8058,-0.00339466,0.00037050,-0.00015961,-0.00027750,0.00010295,-0.0000
 0085,-0.00013014,0.00120979,-0.00108138,-0.00115274,-0.00093266,0.0028
 7985,0.00259422,0.07329946,0.00010943,0.00015516,0.00015881,-0.0001501
 8,-0.00002198,-0.00027615,0.00061153,0.00063373,0.00013434,-0.00126832
 ,-0.00296572,0.00189485,0.00039450,0.00040106,0.00027661,-0.00403157,-
 0.02100783,0.00615605,-0.07480344,-0.25131846,0.07049280,-0.00218760,-
 0.00196283,-0.00067936,0.00120494,-0.00058174,0.00034258,0.00001168,-0
 .00002435,-0.00004157,-0.00051188,0.00049931,-0.00025338,0.00011938,0.
 00006309,-0.00012243,0.00013051,0.00012492,-0.00096025,-0.00021128,-0.
 00004413,-0.00048739,0.00004380,0.00012670,-0.00032022,0.00009750,0.00
 209602,0.00090929,0.00080628,-0.00196280,-0.00321510,0.07922247,0.2755
 8605,-0.00024767,-0.00017545,-0.00002186,0.00011400,0.00054619,-0.0000
 5223,0.00006767,-0.00046565,0.00133778,-0.00326336,-0.00975791,0.00342
 456,0.00023488,0.00078752,0.00016157,-0.00327511,-0.01500649,0.0046159
 6,0.01744251,0.07489997,-0.06889501,0.01453192,0.03367747,-0.00732162,
 -0.00010998,-0.00372483,-0.00640888,0.00004288,-0.00007269,0.00003411,
 0.00018436,0.00014349,-0.00014217,0.00017860,-0.00003123,-0.00005767,-
 0.00112367,-0.00106310,-0.00152083,-0.00012111,-0.00015839,-0.00042097
 ,0.00018635,0.00032867,-0.00012883,0.00006846,0.00056876,0.00171635,0.
 00007798,-0.00211474,-0.00175629,-0.02427020,-0.07483935,0.07487246,0.
 00009773,0.00040102,0.00006684,-0.00006577,-0.00056657,0.00003505,0.00
 003494,-0.00008237,0.00006311,0.00190302,0.00020785,0.00071442,0.00011
 971,-0.00092003,-0.00045690,-0.00085371,0.00046185,-0.00191409,-0.0006
 7944,-0.00382808,-0.00057041,-0.20373949,-0.02619310,-0.08699157,-0.04
 578108,-0.01688908,0.00917782,0.00011431,0.00005318,-0.00006946,-0.000
 00916,0.00003982,-0.00002944,-0.00005423,0.00000484,-0.00001530,0.0001
 3501,0.00020882,0.00059545,0.00010983,-0.00000061,-0.00007319,-0.00018
 252,-0.00008009,-0.00031422,0.00021534,-0.00019688,-0.00036098,-0.0000
 5449,-0.00024118,-0.00007816,-0.00001347,0.00041224,-0.00071851,0.2487
 0347,0.00002896,-0.00001246,-0.00012714,-0.00003459,-0.00018636,0.0004
 4837,-0.00036631,-0.00039306,-0.00038203,-0.00088906,0.00255516,0.0004
 7068,0.00018704,0.00114574,0.00086059,0.00085946,0.00002030,0.00322895
 ,-0.00158717,0.01614105,0.00024427,-0.02654027,-0.06686558,-0.01550840
 ,-0.01874480,0.01546138,0.00226613,0.00007825,0.00008163,-0.00008797,0
 .00005084,-0.00007861,0.00001766,-0.00012797,0.00012086,0.00001282,-0.
 00004354,0.00008077,0.00007173,0.00000341,0.00002031,0.00012325,0.0001
 2803,-0.00002577,0.00040359,0.00003553,0.00005888,0.00006624,0.0001336
 7,-0.00039315,0.00007293,-0.00037985,0.00020378,-0.00354224,0.04720838
 ,0.03206514,-0.00003525,0.00038683,0.00034718,0.00035844,-0.00034623,-
 0.00084326,-0.00073004,-0.00074312,-0.00046950,0.00256654,0.00240640,-
 0.00405805,-0.00104271,-0.00046589,0.00018529,0.00115438,-0.00033584,0
 .00100594,-0.03046466,-0.00363538,-0.00829774,-0.08227842,-0.01546610,
 -0.10772693,0.02839795,0.00690087,0.01868780,-0.00008229,-0.00005027,0
 .00009693,-0.00000275,0.00003037,0.00002538,-0.00042189,0.00031699,-0.
 00007696,0.00001109,-0.00004068,0.00027132,0.00015861,0.00004621,0.000
 04973,0.00037909,-0.00035499,-0.00031757,0.00019791,-0.00024598,-0.000
 33919,0.00026755,-0.00059359,-0.00002014,0.00062694,0.00082985,0.00056
 357,0.08093954,0.01136057,0.10091622\\0.00000742,0.00001242,-0.0000067
 5,0.00000598,-0.00000231,-0.00000100,-0.00000644,0.00000004,0.00000197
 ,0.00000119,0.00000376,0.00000313,-0.00000887,-0.00001105,0.00000135,-
 0.00000043,-0.00000558,0.00000383,-0.00000189,0.00000107,-0.00000459,0
 .00000536,0.00000511,-0.00000316,0.00000613,0.00001171,0.00000124,0.00
 000457,0.00001274,0.00000277,-0.00000101,-0.00000324,-0.00000347,0.000
 00021,-0.00000225,0.00000214,-0.00000020,0.00000292,0.00000840,-0.0000
 0513,-0.00001029,0.00000135,-0.00000857,-0.00000730,0.00000904,-0.0000
 0398,-0.00000871,-0.00000441,-0.00000322,-0.00000295,0.00000301,0.0000
 0203,-0.00000244,-0.00000845,0.00000685,0.00000634,-0.00000641\\\@


 IF THE FACTS DO NOT CONFORM TO THE THEORY, THEY MUST BE DISPOSED OF.
 Job cpu time:       0 days  0 hours 39 minutes 51.5 seconds.
 File lengths (MBytes):  RWF=    152 Int=      0 D2E=      0 Chk=      8 Scr=      1
 Normal termination of Gaussian 09 at Mon Jan 27 14:27:47 2020.
