 Entering Gaussian System, Link 0=/home/puck/opt/gaussian_09/g09
 Input=dsC7O2H10nsd_0915.com
 Output=dsC7O2H10nsd_0915.log
 Initial command:
 /home/puck/opt/gaussian_09/l1.exe "/scratch/puck/g09_16c2f9b7-5642-43dd-8830-23ab04cab9b8/Gau-46981.inp" -scrdir="/scratch/puck/g09_16c2f9b7-5642-43dd-8830-23ab04cab9b8/"
 Entering Link 1 = /home/puck/opt/gaussian_09/l1.exe PID=     46982.
  
 Copyright (c) 1988,1990,1992,1993,1995,1998,2003,2009,2013,
            Gaussian, Inc.  All Rights Reserved.
  
 This is part of the Gaussian(R) 09 program.  It is based on
 the Gaussian(R) 03 system (copyright 2003, Gaussian, Inc.),
 the Gaussian(R) 98 system (copyright 1998, Gaussian, Inc.),
 the Gaussian(R) 94 system (copyright 1995, Gaussian, Inc.),
 the Gaussian 92(TM) system (copyright 1992, Gaussian, Inc.),
 the Gaussian 90(TM) system (copyright 1990, Gaussian, Inc.),
 the Gaussian 88(TM) system (copyright 1988, Gaussian, Inc.),
 the Gaussian 86(TM) system (copyright 1986, Carnegie Mellon
 University), and the Gaussian 82(TM) system (copyright 1983,
 Carnegie Mellon University). Gaussian is a federally registered
 trademark of Gaussian, Inc.
  
 This software contains proprietary and confidential information,
 including trade secrets, belonging to Gaussian, Inc.
  
 This software is provided under written license and may be
 used, copied, transmitted, or stored only in accord with that
 written license.
  
 The following legend is applicable only to US Government
 contracts under FAR:
  
                    RESTRICTED RIGHTS LEGEND
  
 Use, reproduction and disclosure by the US Government is
 subject to restrictions as set forth in subparagraphs (a)
 and (c) of the Commercial Computer Software - Restricted
 Rights clause in FAR 52.227-19.
  
 Gaussian, Inc.
 340 Quinnipiac St., Bldg. 40, Wallingford CT 06492
  
  
 ---------------------------------------------------------------
 Warning -- This program may not be used in any manner that
 competes with the business of Gaussian, Inc. or will provide
 assistance to any competitor of Gaussian, Inc.  The licensee
 of this program is prohibited from giving any competitor of
 Gaussian, Inc. access to this program.  By using this program,
 the user acknowledges that Gaussian, Inc. is engaged in the
 business of creating and licensing software in the field of
 computational chemistry and represents and warrants to the
 licensee that it is not a competitor of Gaussian, Inc. and that
 it will not use this program in any manner prohibited above.
 ---------------------------------------------------------------
  

 Cite this work as:
 Gaussian 09, Revision D.01,
 M. J. Frisch, G. W. Trucks, H. B. Schlegel, G. E. Scuseria, 
 M. A. Robb, J. R. Cheeseman, G. Scalmani, V. Barone, B. Mennucci, 
 G. A. Petersson, H. Nakatsuji, M. Caricato, X. Li, H. P. Hratchian, 
 A. F. Izmaylov, J. Bloino, G. Zheng, J. L. Sonnenberg, M. Hada, 
 M. Ehara, K. Toyota, R. Fukuda, J. Hasegawa, M. Ishida, T. Nakajima, 
 Y. Honda, O. Kitao, H. Nakai, T. Vreven, J. A. Montgomery, Jr., 
 J. E. Peralta, F. Ogliaro, M. Bearpark, J. J. Heyd, E. Brothers, 
 K. N. Kudin, V. N. Staroverov, T. Keith, R. Kobayashi, J. Normand, 
 K. Raghavachari, A. Rendell, J. C. Burant, S. S. Iyengar, J. Tomasi, 
 M. Cossi, N. Rega, J. M. Millam, M. Klene, J. E. Knox, J. B. Cross, 
 V. Bakken, C. Adamo, J. Jaramillo, R. Gomperts, R. E. Stratmann, 
 O. Yazyev, A. J. Austin, R. Cammi, C. Pomelli, J. W. Ochterski, 
 R. L. Martin, K. Morokuma, V. G. Zakrzewski, G. A. Voth, 
 P. Salvador, J. J. Dannenberg, S. Dapprich, A. D. Daniels, 
 O. Farkas, J. B. Foresman, J. V. Ortiz, J. Cioslowski, 
 and D. J. Fox, Gaussian, Inc., Wallingford CT, 2013.
 
 ******************************************
 Gaussian 09:  ES64L-G09RevD.01 24-Apr-2013
                27-Jan-2020 
 ******************************************
 -----------------------------
 # b3lyp 6-31G(2df,p) opt Freq
 -----------------------------
 1/14=-1,18=20,19=15,26=3,38=1/1,3;
 2/9=110,12=2,17=6,18=5,40=1/2;
 3/5=1,6=6,7=104,11=2,16=1,25=1,30=1,71=1,74=-5/1,2,3;
 4//1;
 5/5=2,38=5/2;
 6/7=2,8=2,9=2,10=2,28=1/1;
 7//1,2,3,16;
 1/14=-1,18=20,19=15,26=3/3(2);
 2/9=110/2;
 99//99;
 2/9=110/2;
 3/5=1,6=6,7=104,11=2,16=1,25=1,30=1,71=1,74=-5/1,2,3;
 4/5=5,16=3,69=1/1;
 5/5=2,38=5/2;
 7//1,2,3,16;
 1/14=-1,18=20,19=15,26=3/3(-5);
 2/9=110/2;
 6/7=2,8=2,9=2,10=2,19=2,28=1/1;
 99/9=1/99;
 -----
 titel
 -----
 Symbolic Z-matrix:
 Charge =  0 Multiplicity = 1
 O                     0.6928    0.07767  -0.92468 
 C                     0.32509  -0.20461   0.1815 
 O                    -0.48207   0.52831   0.96523 
 C                    -0.9512    1.75304   0.41293 
 C                    -1.93791   2.46703   1.28331 
 C                    -2.08329   3.97024   1.09045 
 C                    -2.19049   4.16539  -0.44203 
 C                    -2.82173   2.85925  -0.98504 
 C                    -2.39695   1.78218   0.0027 
 H                     0.6085   -1.1148    0.73244 
 H                    -0.19184   2.27327  -0.15924 
 H                    -2.14201   2.02644   2.25261 
 H                    -3.00342   4.30086   1.58632 
 H                    -1.25822   4.54543   1.52379 
 H                    -2.77039   5.05205  -0.7098 
 H                    -1.19278   4.30317  -0.87099 
 H                    -3.91581   2.9297   -0.98252 
 H                    -2.51228   2.64799  -2.01373 
 H                    -2.93475   0.84163   0.03961 
 

 GradGradGradGradGradGradGradGradGradGradGradGradGradGradGradGradGradGrad
 Berny optimization.
 Initialization pass.
                           ----------------------------
                           !    Initial Parameters    !
                           ! (Angstroms and Degrees)  !
 --------------------------                            --------------------------
 ! Name  Definition              Value          Derivative Info.                !
 --------------------------------------------------------------------------------
 ! R1    R(1,2)                  1.1994         estimate D2E/DX2                !
 ! R2    R(2,3)                  1.3427         estimate D2E/DX2                !
 ! R3    R(2,10)                 1.101          estimate D2E/DX2                !
 ! R4    R(3,4)                  1.4231         estimate D2E/DX2                !
 ! R5    R(4,5)                  1.497          estimate D2E/DX2                !
 ! R6    R(4,9)                  1.5031         estimate D2E/DX2                !
 ! R7    R(4,11)                 1.0838         estimate D2E/DX2                !
 ! R8    R(5,6)                  1.5225         estimate D2E/DX2                !
 ! R9    R(5,9)                  1.523          estimate D2E/DX2                !
 ! R10   R(5,12)                 1.0841         estimate D2E/DX2                !
 ! R11   R(6,7)                  1.5486         estimate D2E/DX2                !
 ! R12   R(6,13)                 1.0963         estimate D2E/DX2                !
 ! R13   R(6,14)                 1.0952         estimate D2E/DX2                !
 ! R14   R(7,8)                  1.549          estimate D2E/DX2                !
 ! R15   R(7,15)                 1.0928         estimate D2E/DX2                !
 ! R16   R(7,16)                 1.0947         estimate D2E/DX2                !
 ! R17   R(8,9)                  1.5219         estimate D2E/DX2                !
 ! R18   R(8,17)                 1.0963         estimate D2E/DX2                !
 ! R19   R(8,18)                 1.0948         estimate D2E/DX2                !
 ! R20   R(9,19)                 1.0841         estimate D2E/DX2                !
 ! A1    A(1,2,3)              126.4529         estimate D2E/DX2                !
 ! A2    A(1,2,10)             125.2491         estimate D2E/DX2                !
 ! A3    A(3,2,10)             108.2942         estimate D2E/DX2                !
 ! A4    A(2,3,4)              116.1939         estimate D2E/DX2                !
 ! A5    A(3,4,5)              113.7109         estimate D2E/DX2                !
 ! A6    A(3,4,9)              116.0843         estimate D2E/DX2                !
 ! A7    A(3,4,11)             112.7697         estimate D2E/DX2                !
 ! A8    A(5,4,11)             122.6718         estimate D2E/DX2                !
 ! A9    A(9,4,11)             121.3665         estimate D2E/DX2                !
 ! A10   A(4,5,6)              117.4001         estimate D2E/DX2                !
 ! A11   A(4,5,12)             116.7497         estimate D2E/DX2                !
 ! A12   A(6,5,9)              107.9795         estimate D2E/DX2                !
 ! A13   A(6,5,12)             119.7715         estimate D2E/DX2                !
 ! A14   A(9,5,12)             120.8157         estimate D2E/DX2                !
 ! A15   A(5,6,7)              104.856          estimate D2E/DX2                !
 ! A16   A(5,6,13)             108.6995         estimate D2E/DX2                !
 ! A17   A(5,6,14)             113.3597         estimate D2E/DX2                !
 ! A18   A(7,6,13)             110.5796         estimate D2E/DX2                !
 ! A19   A(7,6,14)             112.1816         estimate D2E/DX2                !
 ! A20   A(13,6,14)            107.1553         estimate D2E/DX2                !
 ! A21   A(6,7,8)              105.5969         estimate D2E/DX2                !
 ! A22   A(6,7,15)             112.4254         estimate D2E/DX2                !
 ! A23   A(6,7,16)             109.9101         estimate D2E/DX2                !
 ! A24   A(8,7,15)             112.4588         estimate D2E/DX2                !
 ! A25   A(8,7,16)             109.8869         estimate D2E/DX2                !
 ! A26   A(15,7,16)            106.5892         estimate D2E/DX2                !
 ! A27   A(7,8,9)              104.803          estimate D2E/DX2                !
 ! A28   A(7,8,17)             110.5905         estimate D2E/DX2                !
 ! A29   A(7,8,18)             112.1429         estimate D2E/DX2                !
 ! A30   A(9,8,17)             108.8155         estimate D2E/DX2                !
 ! A31   A(9,8,18)             113.227          estimate D2E/DX2                !
 ! A32   A(17,8,18)            107.2554         estimate D2E/DX2                !
 ! A33   A(4,9,8)              117.3431         estimate D2E/DX2                !
 ! A34   A(4,9,19)             116.8108         estimate D2E/DX2                !
 ! A35   A(5,9,8)              108.1561         estimate D2E/DX2                !
 ! A36   A(5,9,19)             120.7316         estimate D2E/DX2                !
 ! A37   A(8,9,19)             119.8443         estimate D2E/DX2                !
 ! D1    D(1,2,3,4)              0.632          estimate D2E/DX2                !
 ! D2    D(1,2,3,10)          -179.3187         estimate D2E/DX2                !
 ! D3    D(10,2,3,4)           179.9506         estimate D2E/DX2                !
 ! D4    D(2,3,4,5)            175.0059         estimate D2E/DX2                !
 ! D5    D(2,3,4,9)            106.9828         estimate D2E/DX2                !
 ! D6    D(2,3,4,11)           -39.5295         estimate D2E/DX2                !
 ! D7    D(3,4,5,6)            156.4771         estimate D2E/DX2                !
 ! D8    D(3,4,5,12)             3.9062         estimate D2E/DX2                !
 ! D9    D(11,4,5,6)            14.8656         estimate D2E/DX2                !
 ! D10   D(11,4,5,12)         -137.7053         estimate D2E/DX2                !
 ! D11   D(3,4,9,8)           -160.2846         estimate D2E/DX2                !
 ! D12   D(3,4,9,19)            -7.5314         estimate D2E/DX2                !
 ! D13   D(11,4,9,8)           -16.8569         estimate D2E/DX2                !
 ! D14   D(11,4,9,19)          135.8963         estimate D2E/DX2                !
 ! D15   D(4,5,6,7)             46.7816         estimate D2E/DX2                !
 ! D16   D(4,5,6,13)           165.0573         estimate D2E/DX2                !
 ! D17   D(4,5,6,14)           -75.9047         estimate D2E/DX2                !
 ! D18   D(9,5,6,7)            -17.7881         estimate D2E/DX2                !
 ! D19   D(9,5,6,13)           100.4875         estimate D2E/DX2                !
 ! D20   D(9,5,6,14)          -140.4744         estimate D2E/DX2                !
 ! D21   D(12,5,6,7)          -161.5062         estimate D2E/DX2                !
 ! D22   D(12,5,6,13)          -43.2306         estimate D2E/DX2                !
 ! D23   D(12,5,6,14)           75.8074         estimate D2E/DX2                !
 ! D24   D(6,5,9,8)              0.2021         estimate D2E/DX2                !
 ! D25   D(6,5,9,19)          -143.3348         estimate D2E/DX2                !
 ! D26   D(12,5,9,8)           143.4687         estimate D2E/DX2                !
 ! D27   D(12,5,9,19)           -0.0682         estimate D2E/DX2                !
 ! D28   D(5,6,7,8)             28.4993         estimate D2E/DX2                !
 ! D29   D(5,6,7,15)           151.4742         estimate D2E/DX2                !
 ! D30   D(5,6,7,16)           -89.9726         estimate D2E/DX2                !
 ! D31   D(13,6,7,8)           -88.4948         estimate D2E/DX2                !
 ! D32   D(13,6,7,15)           34.4802         estimate D2E/DX2                !
 ! D33   D(13,6,7,16)          153.0334         estimate D2E/DX2                !
 ! D34   D(14,6,7,8)           151.9452         estimate D2E/DX2                !
 ! D35   D(14,6,7,15)          -85.0799         estimate D2E/DX2                !
 ! D36   D(14,6,7,16)           33.4734         estimate D2E/DX2                !
 ! D37   D(6,7,8,9)            -28.355          estimate D2E/DX2                !
 ! D38   D(6,7,8,17)            88.751          estimate D2E/DX2                !
 ! D39   D(6,7,8,18)          -151.5804         estimate D2E/DX2                !
 ! D40   D(15,7,8,9)          -151.3087         estimate D2E/DX2                !
 ! D41   D(15,7,8,17)          -34.2026         estimate D2E/DX2                !
 ! D42   D(15,7,8,18)           85.466          estimate D2E/DX2                !
 ! D43   D(16,7,8,9)            90.1323         estimate D2E/DX2                !
 ! D44   D(16,7,8,17)         -152.7616         estimate D2E/DX2                !
 ! D45   D(16,7,8,18)          -33.093          estimate D2E/DX2                !
 ! D46   D(7,8,9,4)            -46.7296         estimate D2E/DX2                !
 ! D47   D(7,8,9,5)             17.4578         estimate D2E/DX2                !
 ! D48   D(7,8,9,19)           161.375          estimate D2E/DX2                !
 ! D49   D(17,8,9,4)          -165.0459         estimate D2E/DX2                !
 ! D50   D(17,8,9,5)          -100.8585         estimate D2E/DX2                !
 ! D51   D(17,8,9,19)           43.0587         estimate D2E/DX2                !
 ! D52   D(18,8,9,4)            75.7945         estimate D2E/DX2                !
 ! D53   D(18,8,9,5)           139.9819         estimate D2E/DX2                !
 ! D54   D(18,8,9,19)          -76.1008         estimate D2E/DX2                !
 --------------------------------------------------------------------------------
 Trust Radius=3.00D-01 FncErr=1.00D-07 GrdErr=1.00D-06
 Number of steps in this run=    114 maximum allowed number of steps=    114.
 GradGradGradGradGradGradGradGradGradGradGradGradGradGradGradGradGradGrad

                          Input orientation:                          
 ---------------------------------------------------------------------
 Center     Atomic      Atomic             Coordinates (Angstroms)
 Number     Number       Type             X           Y           Z
 ---------------------------------------------------------------------
      1          8           0        0.692804    0.077668   -0.924680
      2          6           0        0.325091   -0.204608    0.181501
      3          8           0       -0.482069    0.528313    0.965234
      4          6           0       -0.951196    1.753041    0.412933
      5          6           0       -1.937914    2.467032    1.283307
      6          6           0       -2.083286    3.970242    1.090449
      7          6           0       -2.190486    4.165391   -0.442029
      8          6           0       -2.821729    2.859247   -0.985043
      9          6           0       -2.396947    1.782184    0.002703
     10          1           0        0.608500   -1.114803    0.732442
     11          1           0       -0.191841    2.273272   -0.159242
     12          1           0       -2.142013    2.026435    2.252611
     13          1           0       -3.003422    4.300859    1.586316
     14          1           0       -1.258215    4.545430    1.523788
     15          1           0       -2.770395    5.052055   -0.709805
     16          1           0       -1.192777    4.303168   -0.870994
     17          1           0       -3.915809    2.929697   -0.982521
     18          1           0       -2.512279    2.647989   -2.013728
     19          1           0       -2.934745    0.841632    0.039607
 ---------------------------------------------------------------------
                    Distance matrix (angstroms):
                    1          2          3          4          5
     1  O    0.000000
     2  C    1.199387   0.000000
     3  O    2.270503   1.342727   0.000000
     4  C    2.701633   2.348374   1.423052   0.000000
     5  C    4.183892   3.670535   2.445258   1.496979   0.000000
     6  C    5.188406   4.904675   3.798217   2.580046   1.522488
     7  C    5.025515   5.080729   4.257630   2.843630   2.434133
     8  C    4.482495   4.544283   3.835471   2.583973   2.465841
     9  C    3.648558   3.374730   2.483025   1.503108   1.523048
    10  H    2.043318   1.101050   1.985790   3.280132   4.429133
    11  H    2.487805   2.554058   2.096082   1.083810   2.273161
    12  H    4.682848   3.918374   2.580141   2.208440   1.084127
    13  H    6.148377   5.775096   4.579855   3.475606   2.142439
    14  H    5.455490   5.183768   4.129360   3.020876   2.199899
    15  H    6.065018   6.165141   5.339141   3.931096   3.368659
    16  H    4.627435   4.871521   4.257508   2.865306   2.927053
    17  H    5.420031   5.400375   4.620710   3.481485   3.043042
    18  H    4.250310   4.583340   4.181984   3.021025   3.351579
    19  H    3.830483   3.426556   2.640184   2.214612   2.276486
                    6          7          8          9         10
     6  C    0.000000
     7  C    1.548568   0.000000
     8  C    2.467240   1.548982   0.000000
     9  C    2.463569   2.433123   1.521889   0.000000
    10  H    5.764682   6.090497   5.523521   4.237660   0.000000
    11  H    2.831784   2.766707   2.818088   2.264925   3.593702
    12  H    2.265492   3.440722   3.411449   2.277440   4.443378
    13  H    1.096286   2.189383   2.953497   3.036341   6.565400
    14  H    1.095155   2.208618   3.403236   3.353496   6.012411
    15  H    2.209830   1.092781   2.210611   3.367371   7.178240
    16  H    2.179703   1.094723   2.179771   2.927241   5.930431
    17  H    2.956024   2.189934   1.096350   2.143454   6.306223
    18  H    3.401221   2.208234   1.094798   2.197479   5.607077
    19  H    3.408439   3.439952   2.265712   1.084079   4.106366
                   11         12         13         14         15
    11  H    0.000000
    12  H    3.111452   0.000000
    13  H    3.881117   2.521701   0.000000
    14  H    3.021993   2.767240   1.763369   0.000000
    15  H    3.830626   4.280788   2.427090   2.744502   0.000000
    16  H    2.372539   3.980135   3.052346   2.407894   1.753765
    17  H    3.869964   3.798462   3.051468   3.994369   2.427088
    18  H    2.993988   4.327248   3.991681   4.205589   2.747067
    19  H    3.100429   2.632407   3.789891   4.328009   4.279754
                   16         17         18         19
    16  H    0.000000
    17  H    3.051847   0.000000
    18  H    2.405524   1.764269   0.000000
    19  H    3.980689   2.523341   2.767235   0.000000
 Stoichiometry    C7H10O2
 Framework group  C1[X(C7H10O2)]
 Deg. of freedom    51
 Full point group                 C1      NOp   1
 Largest Abelian subgroup         C1      NOp   1
 Largest concise Abelian subgroup C1      NOp   1
                         Standard orientation:                         
 ---------------------------------------------------------------------
 Center     Atomic      Atomic             Coordinates (Angstroms)
 Number     Number       Type             X           Y           Z
 ---------------------------------------------------------------------
      1          8           0       -2.739112    0.989120   -0.559197
      2          6           0       -2.720578   -0.088377   -0.032712
      3          8           0       -1.632619   -0.832222    0.224107
      4          6           0       -0.382711   -0.270440   -0.159570
      5          6           0        0.798831   -1.089557    0.257507
      6          6           0        2.089030   -0.910298   -0.530670
      7          6           0        2.272231    0.622833   -0.649035
      8          6           0        1.583961    1.222362    0.602441
      9          6           0        0.489743    0.226519    0.958996
     10          1           0       -3.607295   -0.642119    0.312849
     11          1           0       -0.429616    0.246775   -1.110849
     12          1           0        0.589527   -2.038074    0.739002
     13          1           0        2.913655   -1.354064    0.039335
     14          1           0        2.071793   -1.401430   -1.509372
     15          1           0        3.323112    0.912350   -0.726485
     16          1           0        1.779717    0.988232   -1.555860
     17          1           0        2.290740    1.285376    1.438189
     18          1           0        1.205152    2.233304    0.420556
     19          1           0        0.054022    0.236215    1.951608
 ---------------------------------------------------------------------
 Rotational constants (GHZ):      3.7146827      1.0127271      0.9235638
 Standard basis: 6-31G(2df,p) (6D, 7F)
 There are   329 symmetry adapted cartesian basis functions of A   symmetry.
 There are   302 symmetry adapted basis functions of A   symmetry.
   302 basis functions,   466 primitive gaussians,   329 cartesian basis functions
    34 alpha electrons       34 beta electrons
       nuclear repulsion energy       453.8664291085 Hartrees.
 NAtoms=   19 NActive=   19 NUniq=   19 SFac= 1.00D+00 NAtFMM=   60 NAOKFM=F Big=F
 Integral buffers will be    131072 words long.
 Raffenetti 2 integral format.
 Two-electron integral symmetry is turned on.
 One-electron integrals computed using PRISM.
 NBasis=   302 RedAO= T EigKep=  5.33D-04  NBF=   302
 NBsUse=   302 1.00D-06 EigRej= -1.00D+00 NBFU=   302
 ExpMin= 1.61D-01 ExpMax= 5.48D+03 ExpMxC= 8.25D+02 IAcc=1 IRadAn=         1 AccDes= 0.00D+00
 Harris functional with IExCor=  402 and IRadAn=       1 diagonalized for initial guess.
 HarFok:  IExCor=  402 AccDes= 0.00D+00 IRadAn=         1 IDoV= 1 UseB2=F ITyADJ=14
 ICtDFT=  3500011 ScaDFX=  1.000000  1.000000  1.000000  1.000000
 FoFCou: FMM=F IPFlag=           0 FMFlag=      100000 FMFlg1=           0
         NFxFlg=           0 DoJE=T BraDBF=F KetDBF=T FulRan=T
         wScrn=  0.000000 ICntrl=     500 IOpCl=  0 I1Cent=   200000004 NGrid=           0
         NMat0=    1 NMatS0=      1 NMatT0=    0 NMatD0=    1 NMtDS0=    0 NMtDT0=    0
 Petite list used in FoFCou.
 Requested convergence on RMS density matrix=1.00D-08 within 128 cycles.
 Requested convergence on MAX density matrix=1.00D-06.
 Requested convergence on             energy=1.00D-06.
 No special actions if energy rises.
 Integral accuracy reduced to 1.0D-05 until final iterations.
 EnCoef did     1 forward-backward iterations
 Initial convergence to 1.0D-05 achieved.  Increase integral accuracy.
 SCF Done:  E(RB3LYP) =  -423.213617584     A.U. after   14 cycles
            NFock= 14  Conv=0.75D-08     -V/T= 2.0075

 **********************************************************************

            Population analysis using the SCF density.

 **********************************************************************

 Orbital symmetries:
       Occupied  (A) (A) (A) (A) (A) (A) (A) (A) (A) (A) (A) (A)
                 (A) (A) (A) (A) (A) (A) (A) (A) (A) (A) (A) (A)
                 (A) (A) (A) (A) (A) (A) (A) (A) (A) (A)
       Virtual   (A) (A) (A) (A) (A) (A) (A) (A) (A) (A) (A) (A)
                 (A) (A) (A) (A) (A) (A) (A) (A) (A) (A) (A) (A)
                 (A) (A) (A) (A) (A) (A) (A) (A) (A) (A) (A) (A)
                 (A) (A) (A) (A) (A) (A) (A) (A) (A) (A) (A) (A)
                 (A) (A) (A) (A) (A) (A) (A) (A) (A) (A) (A) (A)
                 (A) (A) (A) (A) (A) (A) (A) (A) (A) (A) (A) (A)
                 (A) (A) (A) (A) (A) (A) (A) (A) (A) (A) (A) (A)
                 (A) (A) (A) (A) (A) (A) (A) (A) (A) (A) (A) (A)
                 (A) (A) (A) (A) (A) (A) (A) (A) (A) (A) (A) (A)
                 (A) (A) (A) (A) (A) (A) (A) (A) (A) (A) (A) (A)
                 (A) (A) (A) (A) (A) (A) (A) (A) (A) (A) (A) (A)
                 (A) (A) (A) (A) (A) (A) (A) (A) (A) (A) (A) (A)
                 (A) (A) (A) (A) (A) (A) (A) (A) (A) (A) (A) (A)
                 (A) (A) (A) (A) (A) (A) (A) (A) (A) (A) (A) (A)
                 (A) (A) (A) (A) (A) (A) (A) (A) (A) (A) (A) (A)
                 (A) (A) (A) (A) (A) (A) (A) (A) (A) (A) (A) (A)
                 (A) (A) (A) (A) (A) (A) (A) (A) (A) (A) (A) (A)
                 (A) (A) (A) (A) (A) (A) (A) (A) (A) (A) (A) (A)
                 (A) (A) (A) (A) (A) (A) (A) (A) (A) (A) (A) (A)
                 (A) (A) (A) (A) (A) (A) (A) (A) (A) (A) (A) (A)
                 (A) (A) (A) (A) (A) (A) (A) (A) (A) (A) (A) (A)
                 (A) (A) (A) (A) (A) (A) (A) (A) (A) (A) (A) (A)
                 (A) (A) (A) (A)
 The electronic state is 1-A.
 Alpha  occ. eigenvalues --  -19.19133 -19.13209 -10.30705 -10.24271 -10.19334
 Alpha  occ. eigenvalues --  -10.19252 -10.18787 -10.18655 -10.18525  -1.10667
 Alpha  occ. eigenvalues --   -1.02271  -0.88687  -0.76966  -0.71275  -0.67031
 Alpha  occ. eigenvalues --   -0.59859  -0.56462  -0.55775  -0.52106  -0.48972
 Alpha  occ. eigenvalues --   -0.46943  -0.46125  -0.45120  -0.43162  -0.41074
 Alpha  occ. eigenvalues --   -0.37674  -0.36075  -0.34706  -0.34372  -0.34048
 Alpha  occ. eigenvalues --   -0.33295  -0.28269  -0.27530  -0.26549
 Alpha virt. eigenvalues --    0.00970   0.07923   0.09473   0.12699   0.13551
 Alpha virt. eigenvalues --    0.13821   0.14010   0.15023   0.16102   0.16878
 Alpha virt. eigenvalues --    0.17776   0.18824   0.19813   0.20550   0.21700
 Alpha virt. eigenvalues --    0.26443   0.26901   0.27749   0.28132   0.30399
 Alpha virt. eigenvalues --    0.31441   0.41377   0.44649   0.45989   0.47251
 Alpha virt. eigenvalues --    0.48231   0.49992   0.50398   0.52611   0.55269
 Alpha virt. eigenvalues --    0.55664   0.56415   0.57121   0.58099   0.59885
 Alpha virt. eigenvalues --    0.60320   0.60738   0.64019   0.65410   0.67365
 Alpha virt. eigenvalues --    0.67812   0.72519   0.72714   0.73651   0.74961
 Alpha virt. eigenvalues --    0.75235   0.75955   0.76285   0.77902   0.78145
 Alpha virt. eigenvalues --    0.79700   0.81899   0.84329   0.85235   0.87145
 Alpha virt. eigenvalues --    0.87225   0.88522   0.94312   0.95329   0.97723
 Alpha virt. eigenvalues --    0.98623   1.02410   1.05059   1.06761   1.09590
 Alpha virt. eigenvalues --    1.11146   1.12876   1.15596   1.18984   1.19067
 Alpha virt. eigenvalues --    1.20712   1.25296   1.25750   1.27433   1.28922
 Alpha virt. eigenvalues --    1.29949   1.34720   1.36819   1.38745   1.39770
 Alpha virt. eigenvalues --    1.42036   1.44655   1.45431   1.46452   1.47458
 Alpha virt. eigenvalues --    1.48615   1.50133   1.51413   1.52615   1.54020
 Alpha virt. eigenvalues --    1.57000   1.58835   1.62232   1.64009   1.65594
 Alpha virt. eigenvalues --    1.66279   1.67714   1.71573   1.74828   1.76309
 Alpha virt. eigenvalues --    1.78917   1.84104   1.85082   1.86064   1.89910
 Alpha virt. eigenvalues --    1.99358   2.04181   2.08490   2.09725   2.11603
 Alpha virt. eigenvalues --    2.14287   2.18247   2.21432   2.26529   2.28533
 Alpha virt. eigenvalues --    2.30575   2.32443   2.34983   2.38524   2.38822
 Alpha virt. eigenvalues --    2.41115   2.45359   2.49749   2.55876   2.59893
 Alpha virt. eigenvalues --    2.63661   2.64234   2.65323   2.67658   2.72475
 Alpha virt. eigenvalues --    2.73608   2.75939   2.83011   2.85085   2.88138
 Alpha virt. eigenvalues --    2.90139   2.90618   2.92464   2.95639   2.96336
 Alpha virt. eigenvalues --    2.98622   3.00801   3.01148   3.03272   3.05923
 Alpha virt. eigenvalues --    3.07032   3.09655   3.11199   3.14607   3.15921
 Alpha virt. eigenvalues --    3.17932   3.19713   3.20332   3.22057   3.25023
 Alpha virt. eigenvalues --    3.27571   3.29188   3.31002   3.33046   3.35236
 Alpha virt. eigenvalues --    3.38220   3.41593   3.41878   3.43078   3.44464
 Alpha virt. eigenvalues --    3.46414   3.52167   3.54508   3.56484   3.65133
 Alpha virt. eigenvalues --    3.66195   3.67722   3.72661   3.74075   3.76693
 Alpha virt. eigenvalues --    3.77521   3.82532   3.85779   3.89801   3.98472
 Alpha virt. eigenvalues --    4.01586   4.03011   4.04007   4.08137   4.09405
 Alpha virt. eigenvalues --    4.13567   4.14967   4.21263   4.23123   4.27567
 Alpha virt. eigenvalues --    4.30833   4.31110   4.32494   4.34095   4.35372
 Alpha virt. eigenvalues --    4.38363   4.40524   4.42202   4.45124   4.46421
 Alpha virt. eigenvalues --    4.52047   4.52535   4.53465   4.57163   4.58711
 Alpha virt. eigenvalues --    4.60342   4.60885   4.63266   4.65587   4.68050
 Alpha virt. eigenvalues --    4.69124   4.72252   4.73828   4.75059   4.77293
 Alpha virt. eigenvalues --    4.78554   4.79873   4.82925   4.83567   4.86438
 Alpha virt. eigenvalues --    4.86925   4.88623   4.90358   4.94698   4.97065
 Alpha virt. eigenvalues --    4.99675   5.00459   5.03358   5.06800   5.11891
 Alpha virt. eigenvalues --    5.12553   5.15864   5.22674   5.25502   5.27162
 Alpha virt. eigenvalues --    5.29927   5.35123   5.37950   5.39383   5.46498
 Alpha virt. eigenvalues --    5.48610   5.50426   5.54837   5.58724   5.62850
 Alpha virt. eigenvalues --    5.69371   5.73464   5.84115   5.88293   5.94024
 Alpha virt. eigenvalues --    6.04535   6.11072   6.17813   6.28865   6.34520
 Alpha virt. eigenvalues --    6.47240   6.64075   6.79931   7.25764  10.64252
 Alpha virt. eigenvalues --   10.71248  11.51947  11.88566  12.07256  12.49640
 Alpha virt. eigenvalues --   12.54787  12.96827  13.57369
          Condensed to atoms (all electrons):
               1          2          3          4          5          6
     1  O    7.646046   0.738781  -0.057967   0.001307   0.001075   0.000003
     2  C    0.738781   4.401712   0.390500  -0.070418   0.005101   0.000011
     3  O   -0.057967   0.390500   7.695090   0.309420  -0.010256   0.000583
     4  C    0.001307  -0.070418   0.309420   4.708421   0.313158  -0.017514
     5  C    0.001075   0.005101  -0.010256   0.313158   4.861172   0.404171
     6  C    0.000003   0.000011   0.000583  -0.017514   0.404171   4.881224
     7  C   -0.000010   0.000040  -0.000032  -0.002261  -0.043401   0.391708
     8  C   -0.000064  -0.000177   0.001067  -0.020767  -0.021895  -0.061890
     9  C    0.000563   0.000857  -0.016339   0.335277   0.334007  -0.024563
    10  H   -0.041108   0.358662  -0.062302   0.007296   0.000077   0.000003
    11  H    0.011305   0.001391  -0.030981   0.371097  -0.042173   0.000636
    12  H    0.000002   0.000148   0.001034  -0.028377   0.375413  -0.042077
    13  H    0.000000   0.000000  -0.000023   0.004162  -0.025881   0.362206
    14  H    0.000000  -0.000009   0.000032  -0.006163  -0.030908   0.371447
    15  H    0.000000  -0.000001  -0.000001  -0.000391   0.004267  -0.027056
    16  H   -0.000011  -0.000003  -0.000013   0.005235  -0.004452  -0.029899
    17  H    0.000000  -0.000001  -0.000030   0.004461  -0.002002   0.001185
    18  H    0.000035   0.000017   0.000051  -0.005984   0.005287   0.004796
    19  H   -0.000143   0.001990   0.000173  -0.032126  -0.035616   0.004635
               7          8          9         10         11         12
     1  O   -0.000010  -0.000064   0.000563  -0.041108   0.011305   0.000002
     2  C    0.000040  -0.000177   0.000857   0.358662   0.001391   0.000148
     3  O   -0.000032   0.001067  -0.016339  -0.062302  -0.030981   0.001034
     4  C   -0.002261  -0.020767   0.335277   0.007296   0.371097  -0.028377
     5  C   -0.043401  -0.021895   0.334007   0.000077  -0.042173   0.375413
     6  C    0.391708  -0.061890  -0.024563   0.000003   0.000636  -0.042077
     7  C    4.893630   0.392936  -0.040127  -0.000001  -0.003618   0.005019
     8  C    0.392936   4.881736   0.398834   0.000001   0.000445   0.004318
     9  C   -0.040127   0.398834   4.829271  -0.000251  -0.042066  -0.031269
    10  H   -0.000001   0.000001  -0.000251   0.628266   0.000593  -0.000015
    11  H   -0.003618   0.000445  -0.042066   0.000593   0.602638   0.002073
    12  H    0.005019   0.004318  -0.031269  -0.000015   0.002073   0.627812
    13  H   -0.027870   0.001200  -0.001956   0.000000  -0.000010  -0.004102
    14  H   -0.031698   0.004743   0.005357   0.000000   0.001807   0.001503
    15  H    0.372654  -0.026771   0.004191   0.000000  -0.000102  -0.000114
    16  H    0.373418  -0.029887  -0.003792   0.000000   0.002770  -0.000131
    17  H   -0.028238   0.360919  -0.025350   0.000000  -0.000071   0.000113
    18  H   -0.031330   0.373336  -0.031056   0.000001   0.001981  -0.000107
    19  H    0.004870  -0.040969   0.379594  -0.000093   0.002481  -0.005941
              13         14         15         16         17         18
     1  O    0.000000   0.000000   0.000000  -0.000011   0.000000   0.000035
     2  C    0.000000  -0.000009  -0.000001  -0.000003  -0.000001   0.000017
     3  O   -0.000023   0.000032  -0.000001  -0.000013  -0.000030   0.000051
     4  C    0.004162  -0.006163  -0.000391   0.005235   0.004461  -0.005984
     5  C   -0.025881  -0.030908   0.004267  -0.004452  -0.002002   0.005287
     6  C    0.362206   0.371447  -0.027056  -0.029899   0.001185   0.004796
     7  C   -0.027870  -0.031698   0.372654   0.373418  -0.028238  -0.031330
     8  C    0.001200   0.004743  -0.026771  -0.029887   0.360919   0.373336
     9  C   -0.001956   0.005357   0.004191  -0.003792  -0.025350  -0.031056
    10  H    0.000000   0.000000   0.000000   0.000000   0.000000   0.000001
    11  H   -0.000010   0.001807  -0.000102   0.002770  -0.000071   0.001981
    12  H   -0.004102   0.001503  -0.000114  -0.000131   0.000113  -0.000107
    13  H    0.632594  -0.042211  -0.007844   0.005162   0.000737  -0.000190
    14  H   -0.042211   0.628939   0.002842  -0.007318  -0.000191  -0.000090
    15  H   -0.007844   0.002842   0.622641  -0.039948  -0.007884   0.002795
    16  H    0.005162  -0.007318  -0.039948   0.619755   0.005154  -0.007386
    17  H    0.000737  -0.000191  -0.007884   0.005154   0.634602  -0.042160
    18  H   -0.000190  -0.000090   0.002795  -0.007386  -0.042160   0.620030
    19  H    0.000111  -0.000104  -0.000118  -0.000131  -0.004303   0.001564
              19
     1  O   -0.000143
     2  C    0.001990
     3  O    0.000173
     4  C   -0.032126
     5  C   -0.035616
     6  C    0.004635
     7  C    0.004870
     8  C   -0.040969
     9  C    0.379594
    10  H   -0.000093
    11  H    0.002481
    12  H   -0.005941
    13  H    0.000111
    14  H   -0.000104
    15  H   -0.000118
    16  H   -0.000131
    17  H   -0.004303
    18  H    0.001564
    19  H    0.632222
 Mulliken charges:
               1
     1  O   -0.299816
     2  C    0.171399
     3  O   -0.220007
     4  C    0.124166
     5  C   -0.087143
     6  C   -0.219609
     7  C   -0.225689
     8  C   -0.217117
     9  C   -0.071185
    10  H    0.108869
    11  H    0.119806
    12  H    0.094698
    13  H    0.103914
    14  H    0.102022
    15  H    0.100841
    16  H    0.111477
    17  H    0.103060
    18  H    0.108410
    19  H    0.091904
 Sum of Mulliken charges =   0.00000
 Mulliken charges with hydrogens summed into heavy atoms:
               1
     1  O   -0.299816
     2  C    0.280268
     3  O   -0.220007
     4  C    0.243972
     5  C    0.007555
     6  C   -0.013672
     7  C   -0.013372
     8  C   -0.005647
     9  C    0.020719
 Electronic spatial extent (au):  <R**2>=           1313.2353
 Charge=              0.0000 electrons
 Dipole moment (field-independent basis, Debye):
    X=              1.6208    Y=             -1.2224    Z=              0.7106  Tot=              2.1509
 Quadrupole moment (field-independent basis, Debye-Ang):
   XX=            -52.8195   YY=            -55.3245   ZZ=            -52.1643
   XY=              4.6881   XZ=             -2.4622   YZ=              1.0972
 Traceless Quadrupole moment (field-independent basis, Debye-Ang):
   XX=              0.6166   YY=             -1.8884   ZZ=              1.2718
   XY=              4.6881   XZ=             -2.4622   YZ=              1.0972
 Octapole moment (field-independent basis, Debye-Ang**2):
  XXX=            -17.3396  YYY=             -1.7053  ZZZ=             -0.6129  XYY=              1.7132
  XXY=            -15.7711  XXZ=              8.5466  XZZ=             -5.3050  YZZ=              0.0512
  YYZ=              1.3216  XYZ=             -3.4898
 Hexadecapole moment (field-independent basis, Debye-Ang**3):
 XXXX=          -1155.1765 YYYY=           -299.3142 ZZZZ=           -177.1892 XXXY=             50.5660
 XXXZ=            -19.6390 YYYX=             -2.2787 YYYZ=             -4.5281 ZZZX=              3.1884
 ZZZY=             -1.1299 XXYY=           -266.6224 XXZZ=           -233.2050 YYZZ=            -81.0866
 XXYZ=              8.5963 YYXZ=             -1.1286 ZZXY=              0.3603
 N-N= 4.538664291085D+02 E-N=-1.894182764958D+03  KE= 4.200487450921D+02
 Calling FoFJK, ICntrl=      2127 FMM=F ISym2X=0 I1Cent= 0 IOpClX= 0 NMat=1 NMatS=1 NMatT=0.
 ***** Axes restored to original set *****
 -------------------------------------------------------------------
 Center     Atomic                   Forces (Hartrees/Bohr)
 Number     Number              X              Y              Z
 -------------------------------------------------------------------
      1        8          -0.000004059   -0.000005440    0.000034961
      2        6           0.000059259   -0.000011794   -0.000087399
      3        8          -0.000042119    0.000111826    0.000008360
      4        6           0.000068339   -0.000136216    0.000052866
      5        6          -0.000016209    0.000012924   -0.000025789
      6        6           0.000010905    0.000006211   -0.000001911
      7        6          -0.000010144   -0.000014511    0.000001855
      8        6          -0.000004952   -0.000007140    0.000002636
      9        6          -0.000003380    0.000025227    0.000011745
     10        1           0.000010310    0.000016528    0.000007431
     11        1          -0.000024278    0.000032540   -0.000012912
     12        1           0.000007052    0.000001987    0.000005174
     13        1          -0.000002845   -0.000005213    0.000000061
     14        1          -0.000005853    0.000006638   -0.000003449
     15        1          -0.000012173   -0.000006236   -0.000002535
     16        1          -0.000010962    0.000003715   -0.000006932
     17        1          -0.000010855   -0.000011929    0.000007011
     18        1          -0.000014122   -0.000011464    0.000004472
     19        1           0.000006083   -0.000007654    0.000004354
 -------------------------------------------------------------------
 Cartesian Forces:  Max     0.000136216 RMS     0.000032166

 GradGradGradGradGradGradGradGradGradGradGradGradGradGradGradGradGradGrad
 Berny optimization.
 FormGI is forming the generalized inverse of G from B-inverse, IUseBI=4.
 Internal  Forces:  Max     0.000086695 RMS     0.000011933
 Search for a local minimum.
 Step number   1 out of a maximum of  114
 All quantities printed in internal units (Hartrees-Bohrs-Radians)
 Mixed Optimization -- En-DIIS/RFO-DIIS
 Second derivative matrix not updated -- first step.
 ITU=  0
     Eigenvalues ---    0.00387   0.00904   0.01387   0.01680   0.01710
     Eigenvalues ---    0.02449   0.02450   0.02888   0.02963   0.03239
     Eigenvalues ---    0.04076   0.04173   0.04945   0.05473   0.05646
     Eigenvalues ---    0.06264   0.06457   0.07078   0.07110   0.07182
     Eigenvalues ---    0.08659   0.09725   0.10624   0.11263   0.12997
     Eigenvalues ---    0.15369   0.16000   0.17421   0.20605   0.22000
     Eigenvalues ---    0.22248   0.23840   0.25000   0.26814   0.27034
     Eigenvalues ---    0.28767   0.30019   0.31532   0.33566   0.34089
     Eigenvalues ---    0.34096   0.34224   0.34264   0.34272   0.34493
     Eigenvalues ---    0.35500   0.35506   0.35538   0.42004   0.56598
     Eigenvalues ---    1.05132
 RFO step:  Lambda=-6.02605533D-08 EMin= 3.86676637D-03
 Linear search not attempted -- first point.
 Iteration  1 RMS(Cart)=  0.00013411 RMS(Int)=  0.00000001
 Iteration  2 RMS(Cart)=  0.00000001 RMS(Int)=  0.00000000
 Variable       Old X    -DE/DX   Delta X   Delta X   Delta X     New X
                                 (Linear)    (Quad)   (Total)
    R1        2.26651  -0.00004   0.00000  -0.00004  -0.00004   2.26647
    R2        2.53739   0.00006   0.00000   0.00010   0.00010   2.53749
    R3        2.08068   0.00000   0.00000  -0.00001  -0.00001   2.08067
    R4        2.68918  -0.00009   0.00000  -0.00021  -0.00021   2.68897
    R5        2.82888   0.00001   0.00000   0.00004   0.00004   2.82892
    R6        2.84046   0.00001   0.00000   0.00007   0.00007   2.84053
    R7        2.04810   0.00000   0.00000   0.00000   0.00000   2.04811
    R8        2.87708   0.00000   0.00000  -0.00001  -0.00001   2.87708
    R9        2.87814  -0.00001   0.00000  -0.00008  -0.00008   2.87807
   R10        2.04870   0.00000   0.00000   0.00001   0.00001   2.04871
   R11        2.92637  -0.00001   0.00000  -0.00001  -0.00001   2.92636
   R12        2.07168   0.00000   0.00000   0.00000   0.00000   2.07168
   R13        2.06954   0.00000   0.00000   0.00000   0.00000   2.06954
   R14        2.92715   0.00000   0.00000   0.00000   0.00000   2.92716
   R15        2.06506   0.00000   0.00000   0.00000   0.00000   2.06505
   R16        2.06873   0.00000   0.00000   0.00000   0.00000   2.06873
   R17        2.87595   0.00000   0.00000  -0.00001  -0.00001   2.87595
   R18        2.07180   0.00000   0.00000   0.00001   0.00001   2.07181
   R19        2.06887   0.00000   0.00000  -0.00001  -0.00001   2.06886
   R20        2.04861   0.00000   0.00000   0.00000   0.00000   2.04862
    A1        2.20702   0.00001   0.00000   0.00006   0.00006   2.20708
    A2        2.18601   0.00000   0.00000   0.00004   0.00004   2.18605
    A3        1.89009  -0.00002   0.00000  -0.00010  -0.00010   1.88999
    A4        2.02797   0.00001   0.00000   0.00004   0.00004   2.02801
    A5        1.98463   0.00001   0.00000   0.00002   0.00002   1.98465
    A6        2.02605   0.00001   0.00000   0.00014   0.00014   2.02620
    A7        1.96820   0.00001   0.00000   0.00015   0.00015   1.96835
    A8        2.14103  -0.00002   0.00000  -0.00018  -0.00018   2.14084
    A9        2.11825  -0.00002   0.00000  -0.00018  -0.00018   2.11806
   A10        2.04902   0.00001   0.00000  -0.00005  -0.00005   2.04897
   A11        2.03767   0.00000   0.00000   0.00001   0.00001   2.03768
   A12        1.88460   0.00000   0.00000   0.00004   0.00004   1.88464
   A13        2.09041   0.00000   0.00000  -0.00001  -0.00001   2.09040
   A14        2.10863   0.00000   0.00000  -0.00001  -0.00001   2.10862
   A15        1.83008   0.00000   0.00000  -0.00004  -0.00004   1.83004
   A16        1.89716   0.00000   0.00000  -0.00004  -0.00004   1.89712
   A17        1.97850   0.00000   0.00000   0.00004   0.00004   1.97854
   A18        1.92998   0.00000   0.00000  -0.00001  -0.00001   1.92996
   A19        1.95794   0.00000   0.00000   0.00005   0.00005   1.95799
   A20        1.87021   0.00000   0.00000   0.00000   0.00000   1.87021
   A21        1.84301   0.00000   0.00000  -0.00001  -0.00001   1.84300
   A22        1.96219   0.00000   0.00000  -0.00001  -0.00001   1.96218
   A23        1.91829   0.00000   0.00000   0.00001   0.00001   1.91831
   A24        1.96278   0.00000   0.00000   0.00000   0.00000   1.96278
   A25        1.91789   0.00000   0.00000   0.00004   0.00004   1.91793
   A26        1.86033   0.00000   0.00000  -0.00003  -0.00003   1.86031
   A27        1.82916   0.00000   0.00000  -0.00003  -0.00003   1.82913
   A28        1.93017   0.00000   0.00000   0.00001   0.00001   1.93018
   A29        1.95726   0.00000   0.00000   0.00003   0.00003   1.95730
   A30        1.89919   0.00000   0.00000   0.00000   0.00000   1.89919
   A31        1.97618   0.00000   0.00000  -0.00001  -0.00001   1.97618
   A32        1.87196   0.00000   0.00000  -0.00002  -0.00002   1.87194
   A33        2.04802   0.00001   0.00000   0.00002   0.00002   2.04805
   A34        2.03873   0.00000   0.00000  -0.00001  -0.00001   2.03872
   A35        1.88768   0.00000   0.00000  -0.00002  -0.00002   1.88766
   A36        2.10716   0.00000   0.00000   0.00004   0.00004   2.10720
   A37        2.09168  -0.00001   0.00000  -0.00002  -0.00002   2.09166
    D1        0.01103   0.00000   0.00000   0.00006   0.00006   0.01109
    D2       -3.12970   0.00000   0.00000   0.00006   0.00006  -3.12964
    D3        3.14073   0.00000   0.00000   0.00001   0.00001   3.14074
    D4        3.05443   0.00000   0.00000   0.00002   0.00002   3.05445
    D5        1.86720   0.00000   0.00000   0.00004   0.00004   1.86724
    D6       -0.68992   0.00000   0.00000  -0.00006  -0.00006  -0.68998
    D7        2.73104  -0.00001   0.00000  -0.00024  -0.00024   2.73080
    D8        0.06818   0.00000   0.00000  -0.00015  -0.00015   0.06803
    D9        0.25945  -0.00002   0.00000  -0.00028  -0.00028   0.25917
   D10       -2.40341  -0.00001   0.00000  -0.00019  -0.00019  -2.40360
   D11       -2.79749   0.00000   0.00000  -0.00009  -0.00009  -2.79758
   D12       -0.13145  -0.00001   0.00000  -0.00011  -0.00011  -0.13156
   D13       -0.29421   0.00001   0.00000   0.00015   0.00015  -0.29406
   D14        2.37184   0.00001   0.00000   0.00013   0.00013   2.37197
   D15        0.81649   0.00001   0.00000   0.00008   0.00008   0.81658
   D16        2.88079   0.00000   0.00000   0.00002   0.00002   2.88082
   D17       -1.32479   0.00000   0.00000   0.00002   0.00002  -1.32477
   D18       -0.31046   0.00000   0.00000   0.00003   0.00003  -0.31043
   D19        1.75384   0.00000   0.00000  -0.00003  -0.00003   1.75381
   D20       -2.45174   0.00000   0.00000  -0.00003  -0.00003  -2.45177
   D21       -2.81882   0.00000   0.00000  -0.00001  -0.00001  -2.81882
   D22       -0.75452   0.00000   0.00000  -0.00006  -0.00006  -0.75458
   D23        1.32309   0.00000   0.00000  -0.00007  -0.00007   1.32302
   D24        0.00353   0.00000   0.00000  -0.00011  -0.00011   0.00342
   D25       -2.50166   0.00000   0.00000  -0.00010  -0.00010  -2.50176
   D26        2.50400   0.00000   0.00000  -0.00007  -0.00007   2.50393
   D27       -0.00119   0.00000   0.00000  -0.00006  -0.00006  -0.00125
   D28        0.49741   0.00000   0.00000   0.00006   0.00006   0.49746
   D29        2.64372   0.00000   0.00000   0.00004   0.00004   2.64376
   D30       -1.57032   0.00000   0.00000   0.00001   0.00001  -1.57031
   D31       -1.54453   0.00000   0.00000   0.00013   0.00013  -1.54439
   D32        0.60179   0.00000   0.00000   0.00012   0.00012   0.60191
   D33        2.67094   0.00000   0.00000   0.00008   0.00008   2.67102
   D34        2.65194   0.00000   0.00000   0.00011   0.00011   2.65205
   D35       -1.48492   0.00000   0.00000   0.00009   0.00009  -1.48483
   D36        0.58422   0.00000   0.00000   0.00006   0.00006   0.58428
   D37       -0.49489   0.00000   0.00000  -0.00013  -0.00013  -0.49502
   D38        1.54900   0.00000   0.00000  -0.00014  -0.00014   1.54886
   D39       -2.64558   0.00000   0.00000  -0.00013  -0.00013  -2.64570
   D40       -2.64084   0.00000   0.00000  -0.00011  -0.00011  -2.64094
   D41       -0.59695   0.00000   0.00000  -0.00011  -0.00011  -0.59706
   D42        1.49166   0.00000   0.00000  -0.00010  -0.00010   1.49156
   D43        1.57311   0.00000   0.00000  -0.00010  -0.00010   1.57300
   D44       -2.66619   0.00000   0.00000  -0.00011  -0.00011  -2.66630
   D45       -0.57758   0.00000   0.00000  -0.00010  -0.00010  -0.57768
   D46       -0.81559   0.00000   0.00000   0.00013   0.00013  -0.81545
   D47        0.30470   0.00000   0.00000   0.00015   0.00015   0.30484
   D48        2.81653   0.00000   0.00000   0.00016   0.00016   2.81668
   D49       -2.88059   0.00000   0.00000   0.00013   0.00013  -2.88046
   D50       -1.76031   0.00000   0.00000   0.00015   0.00015  -1.76017
   D51        0.75152   0.00000   0.00000   0.00016   0.00016   0.75167
   D52        1.32286   0.00000   0.00000   0.00016   0.00016   1.32302
   D53        2.44315   0.00000   0.00000   0.00017   0.00017   2.44331
   D54       -1.32821   0.00000   0.00000   0.00018   0.00018  -1.32803
         Item               Value     Threshold  Converged?
 Maximum Force            0.000087     0.000450     YES
 RMS     Force            0.000012     0.000300     YES
 Maximum Displacement     0.000486     0.001800     YES
 RMS     Displacement     0.000134     0.001200     YES
 Predicted change in Energy=-3.012852D-08
 Optimization completed.
    -- Stationary point found.
                           ----------------------------
                           !   Optimized Parameters   !
                           ! (Angstroms and Degrees)  !
 --------------------------                            --------------------------
 ! Name  Definition              Value          Derivative Info.                !
 --------------------------------------------------------------------------------
 ! R1    R(1,2)                  1.1994         -DE/DX =    0.0                 !
 ! R2    R(2,3)                  1.3427         -DE/DX =    0.0001              !
 ! R3    R(2,10)                 1.101          -DE/DX =    0.0                 !
 ! R4    R(3,4)                  1.4231         -DE/DX =   -0.0001              !
 ! R5    R(4,5)                  1.497          -DE/DX =    0.0                 !
 ! R6    R(4,9)                  1.5031         -DE/DX =    0.0                 !
 ! R7    R(4,11)                 1.0838         -DE/DX =    0.0                 !
 ! R8    R(5,6)                  1.5225         -DE/DX =    0.0                 !
 ! R9    R(5,9)                  1.523          -DE/DX =    0.0                 !
 ! R10   R(5,12)                 1.0841         -DE/DX =    0.0                 !
 ! R11   R(6,7)                  1.5486         -DE/DX =    0.0                 !
 ! R12   R(6,13)                 1.0963         -DE/DX =    0.0                 !
 ! R13   R(6,14)                 1.0952         -DE/DX =    0.0                 !
 ! R14   R(7,8)                  1.549          -DE/DX =    0.0                 !
 ! R15   R(7,15)                 1.0928         -DE/DX =    0.0                 !
 ! R16   R(7,16)                 1.0947         -DE/DX =    0.0                 !
 ! R17   R(8,9)                  1.5219         -DE/DX =    0.0                 !
 ! R18   R(8,17)                 1.0963         -DE/DX =    0.0                 !
 ! R19   R(8,18)                 1.0948         -DE/DX =    0.0                 !
 ! R20   R(9,19)                 1.0841         -DE/DX =    0.0                 !
 ! A1    A(1,2,3)              126.4529         -DE/DX =    0.0                 !
 ! A2    A(1,2,10)             125.2491         -DE/DX =    0.0                 !
 ! A3    A(3,2,10)             108.2942         -DE/DX =    0.0                 !
 ! A4    A(2,3,4)              116.1939         -DE/DX =    0.0                 !
 ! A5    A(3,4,5)              113.7109         -DE/DX =    0.0                 !
 ! A6    A(3,4,9)              116.0843         -DE/DX =    0.0                 !
 ! A7    A(3,4,11)             112.7697         -DE/DX =    0.0                 !
 ! A8    A(5,4,11)             122.6718         -DE/DX =    0.0                 !
 ! A9    A(9,4,11)             121.3665         -DE/DX =    0.0                 !
 ! A10   A(4,5,6)              117.4001         -DE/DX =    0.0                 !
 ! A11   A(4,5,12)             116.7497         -DE/DX =    0.0                 !
 ! A12   A(6,5,9)              107.9795         -DE/DX =    0.0                 !
 ! A13   A(6,5,12)             119.7715         -DE/DX =    0.0                 !
 ! A14   A(9,5,12)             120.8157         -DE/DX =    0.0                 !
 ! A15   A(5,6,7)              104.856          -DE/DX =    0.0                 !
 ! A16   A(5,6,13)             108.6995         -DE/DX =    0.0                 !
 ! A17   A(5,6,14)             113.3597         -DE/DX =    0.0                 !
 ! A18   A(7,6,13)             110.5796         -DE/DX =    0.0                 !
 ! A19   A(7,6,14)             112.1816         -DE/DX =    0.0                 !
 ! A20   A(13,6,14)            107.1553         -DE/DX =    0.0                 !
 ! A21   A(6,7,8)              105.5969         -DE/DX =    0.0                 !
 ! A22   A(6,7,15)             112.4254         -DE/DX =    0.0                 !
 ! A23   A(6,7,16)             109.9101         -DE/DX =    0.0                 !
 ! A24   A(8,7,15)             112.4588         -DE/DX =    0.0                 !
 ! A25   A(8,7,16)             109.8869         -DE/DX =    0.0                 !
 ! A26   A(15,7,16)            106.5892         -DE/DX =    0.0                 !
 ! A27   A(7,8,9)              104.803          -DE/DX =    0.0                 !
 ! A28   A(7,8,17)             110.5905         -DE/DX =    0.0                 !
 ! A29   A(7,8,18)             112.1429         -DE/DX =    0.0                 !
 ! A30   A(9,8,17)             108.8155         -DE/DX =    0.0                 !
 ! A31   A(9,8,18)             113.227          -DE/DX =    0.0                 !
 ! A32   A(17,8,18)            107.2554         -DE/DX =    0.0                 !
 ! A33   A(4,9,8)              117.3431         -DE/DX =    0.0                 !
 ! A34   A(4,9,19)             116.8108         -DE/DX =    0.0                 !
 ! A35   A(5,9,8)              108.1561         -DE/DX =    0.0                 !
 ! A36   A(5,9,19)             120.7316         -DE/DX =    0.0                 !
 ! A37   A(8,9,19)             119.8443         -DE/DX =    0.0                 !
 ! D1    D(1,2,3,4)              0.632          -DE/DX =    0.0                 !
 ! D2    D(1,2,3,10)          -179.3187         -DE/DX =    0.0                 !
 ! D3    D(10,2,3,4)           179.9506         -DE/DX =    0.0                 !
 ! D4    D(2,3,4,5)            175.0059         -DE/DX =    0.0                 !
 ! D5    D(2,3,4,9)            106.9828         -DE/DX =    0.0                 !
 ! D6    D(2,3,4,11)           -39.5295         -DE/DX =    0.0                 !
 ! D7    D(3,4,5,6)            156.4771         -DE/DX =    0.0                 !
 ! D8    D(3,4,5,12)             3.9062         -DE/DX =    0.0                 !
 ! D9    D(11,4,5,6)            14.8656         -DE/DX =    0.0                 !
 ! D10   D(11,4,5,12)         -137.7053         -DE/DX =    0.0                 !
 ! D11   D(3,4,9,8)           -160.2846         -DE/DX =    0.0                 !
 ! D12   D(3,4,9,19)            -7.5314         -DE/DX =    0.0                 !
 ! D13   D(11,4,9,8)           -16.8569         -DE/DX =    0.0                 !
 ! D14   D(11,4,9,19)          135.8963         -DE/DX =    0.0                 !
 ! D15   D(4,5,6,7)             46.7816         -DE/DX =    0.0                 !
 ! D16   D(4,5,6,13)           165.0573         -DE/DX =    0.0                 !
 ! D17   D(4,5,6,14)           -75.9047         -DE/DX =    0.0                 !
 ! D18   D(9,5,6,7)            -17.7881         -DE/DX =    0.0                 !
 ! D19   D(9,5,6,13)           100.4875         -DE/DX =    0.0                 !
 ! D20   D(9,5,6,14)          -140.4744         -DE/DX =    0.0                 !
 ! D21   D(12,5,6,7)          -161.5062         -DE/DX =    0.0                 !
 ! D22   D(12,5,6,13)          -43.2306         -DE/DX =    0.0                 !
 ! D23   D(12,5,6,14)           75.8074         -DE/DX =    0.0                 !
 ! D24   D(6,5,9,8)              0.2021         -DE/DX =    0.0                 !
 ! D25   D(6,5,9,19)          -143.3348         -DE/DX =    0.0                 !
 ! D26   D(12,5,9,8)           143.4687         -DE/DX =    0.0                 !
 ! D27   D(12,5,9,19)           -0.0682         -DE/DX =    0.0                 !
 ! D28   D(5,6,7,8)             28.4993         -DE/DX =    0.0                 !
 ! D29   D(5,6,7,15)           151.4742         -DE/DX =    0.0                 !
 ! D30   D(5,6,7,16)           -89.9726         -DE/DX =    0.0                 !
 ! D31   D(13,6,7,8)           -88.4948         -DE/DX =    0.0                 !
 ! D32   D(13,6,7,15)           34.4802         -DE/DX =    0.0                 !
 ! D33   D(13,6,7,16)          153.0334         -DE/DX =    0.0                 !
 ! D34   D(14,6,7,8)           151.9452         -DE/DX =    0.0                 !
 ! D35   D(14,6,7,15)          -85.0799         -DE/DX =    0.0                 !
 ! D36   D(14,6,7,16)           33.4734         -DE/DX =    0.0                 !
 ! D37   D(6,7,8,9)            -28.355          -DE/DX =    0.0                 !
 ! D38   D(6,7,8,17)            88.751          -DE/DX =    0.0                 !
 ! D39   D(6,7,8,18)          -151.5804         -DE/DX =    0.0                 !
 ! D40   D(15,7,8,9)          -151.3087         -DE/DX =    0.0                 !
 ! D41   D(15,7,8,17)          -34.2026         -DE/DX =    0.0                 !
 ! D42   D(15,7,8,18)           85.466          -DE/DX =    0.0                 !
 ! D43   D(16,7,8,9)            90.1323         -DE/DX =    0.0                 !
 ! D44   D(16,7,8,17)         -152.7616         -DE/DX =    0.0                 !
 ! D45   D(16,7,8,18)          -33.093          -DE/DX =    0.0                 !
 ! D46   D(7,8,9,4)            -46.7296         -DE/DX =    0.0                 !
 ! D47   D(7,8,9,5)             17.4578         -DE/DX =    0.0                 !
 ! D48   D(7,8,9,19)           161.375          -DE/DX =    0.0                 !
 ! D49   D(17,8,9,4)          -165.0459         -DE/DX =    0.0                 !
 ! D50   D(17,8,9,5)          -100.8585         -DE/DX =    0.0                 !
 ! D51   D(17,8,9,19)           43.0587         -DE/DX =    0.0                 !
 ! D52   D(18,8,9,4)            75.7945         -DE/DX =    0.0                 !
 ! D53   D(18,8,9,5)           139.9819         -DE/DX =    0.0                 !
 ! D54   D(18,8,9,19)          -76.1008         -DE/DX =    0.0                 !
 --------------------------------------------------------------------------------
 GradGradGradGradGradGradGradGradGradGradGradGradGradGradGradGradGradGrad

                          Input orientation:                          
 ---------------------------------------------------------------------
 Center     Atomic      Atomic             Coordinates (Angstroms)
 Number     Number       Type             X           Y           Z
 ---------------------------------------------------------------------
      1          8           0        0.692804    0.077668   -0.924680
      2          6           0        0.325091   -0.204608    0.181501
      3          8           0       -0.482069    0.528313    0.965234
      4          6           0       -0.951196    1.753041    0.412933
      5          6           0       -1.937914    2.467032    1.283307
      6          6           0       -2.083286    3.970242    1.090449
      7          6           0       -2.190486    4.165391   -0.442029
      8          6           0       -2.821729    2.859247   -0.985043
      9          6           0       -2.396947    1.782184    0.002703
     10          1           0        0.608500   -1.114803    0.732442
     11          1           0       -0.191841    2.273272   -0.159242
     12          1           0       -2.142013    2.026435    2.252611
     13          1           0       -3.003422    4.300859    1.586316
     14          1           0       -1.258215    4.545430    1.523788
     15          1           0       -2.770395    5.052055   -0.709805
     16          1           0       -1.192777    4.303168   -0.870994
     17          1           0       -3.915809    2.929697   -0.982521
     18          1           0       -2.512279    2.647989   -2.013728
     19          1           0       -2.934745    0.841632    0.039607
 ---------------------------------------------------------------------
                    Distance matrix (angstroms):
                    1          2          3          4          5
     1  O    0.000000
     2  C    1.199387   0.000000
     3  O    2.270503   1.342727   0.000000
     4  C    2.701633   2.348374   1.423052   0.000000
     5  C    4.183892   3.670535   2.445258   1.496979   0.000000
     6  C    5.188406   4.904675   3.798217   2.580046   1.522488
     7  C    5.025515   5.080729   4.257630   2.843630   2.434133
     8  C    4.482495   4.544283   3.835471   2.583973   2.465841
     9  C    3.648558   3.374730   2.483025   1.503108   1.523048
    10  H    2.043318   1.101050   1.985790   3.280132   4.429133
    11  H    2.487805   2.554058   2.096082   1.083810   2.273161
    12  H    4.682848   3.918374   2.580141   2.208440   1.084127
    13  H    6.148377   5.775096   4.579855   3.475606   2.142439
    14  H    5.455490   5.183768   4.129360   3.020876   2.199899
    15  H    6.065018   6.165141   5.339141   3.931096   3.368659
    16  H    4.627435   4.871521   4.257508   2.865306   2.927053
    17  H    5.420031   5.400375   4.620710   3.481485   3.043042
    18  H    4.250310   4.583340   4.181984   3.021025   3.351579
    19  H    3.830483   3.426556   2.640184   2.214612   2.276486
                    6          7          8          9         10
     6  C    0.000000
     7  C    1.548568   0.000000
     8  C    2.467240   1.548982   0.000000
     9  C    2.463569   2.433123   1.521889   0.000000
    10  H    5.764682   6.090497   5.523521   4.237660   0.000000
    11  H    2.831784   2.766707   2.818088   2.264925   3.593702
    12  H    2.265492   3.440722   3.411449   2.277440   4.443378
    13  H    1.096286   2.189383   2.953497   3.036341   6.565400
    14  H    1.095155   2.208618   3.403236   3.353496   6.012411
    15  H    2.209830   1.092781   2.210611   3.367371   7.178240
    16  H    2.179703   1.094723   2.179771   2.927241   5.930431
    17  H    2.956024   2.189934   1.096350   2.143454   6.306223
    18  H    3.401221   2.208234   1.094798   2.197479   5.607077
    19  H    3.408439   3.439952   2.265712   1.084079   4.106366
                   11         12         13         14         15
    11  H    0.000000
    12  H    3.111452   0.000000
    13  H    3.881117   2.521701   0.000000
    14  H    3.021993   2.767240   1.763369   0.000000
    15  H    3.830626   4.280788   2.427090   2.744502   0.000000
    16  H    2.372539   3.980135   3.052346   2.407894   1.753765
    17  H    3.869964   3.798462   3.051468   3.994369   2.427088
    18  H    2.993988   4.327248   3.991681   4.205589   2.747067
    19  H    3.100429   2.632407   3.789891   4.328009   4.279754
                   16         17         18         19
    16  H    0.000000
    17  H    3.051847   0.000000
    18  H    2.405524   1.764269   0.000000
    19  H    3.980689   2.523341   2.767235   0.000000
 Stoichiometry    C7H10O2
 Framework group  C1[X(C7H10O2)]
 Deg. of freedom    51
 Full point group                 C1      NOp   1
 Largest Abelian subgroup         C1      NOp   1
 Largest concise Abelian subgroup C1      NOp   1
                         Standard orientation:                         
 ---------------------------------------------------------------------
 Center     Atomic      Atomic             Coordinates (Angstroms)
 Number     Number       Type             X           Y           Z
 ---------------------------------------------------------------------
      1          8           0       -2.739112    0.989120   -0.559197
      2          6           0       -2.720578   -0.088377   -0.032712
      3          8           0       -1.632619   -0.832222    0.224107
      4          6           0       -0.382711   -0.270440   -0.159570
      5          6           0        0.798831   -1.089557    0.257507
      6          6           0        2.089030   -0.910298   -0.530670
      7          6           0        2.272231    0.622833   -0.649035
      8          6           0        1.583961    1.222362    0.602441
      9          6           0        0.489743    0.226519    0.958996
     10          1           0       -3.607295   -0.642119    0.312849
     11          1           0       -0.429616    0.246775   -1.110849
     12          1           0        0.589527   -2.038074    0.739002
     13          1           0        2.913655   -1.354064    0.039335
     14          1           0        2.071793   -1.401430   -1.509372
     15          1           0        3.323112    0.912350   -0.726485
     16          1           0        1.779717    0.988232   -1.555860
     17          1           0        2.290740    1.285376    1.438189
     18          1           0        1.205152    2.233304    0.420556
     19          1           0        0.054022    0.236215    1.951608
 ---------------------------------------------------------------------
 Rotational constants (GHZ):      3.7146827      1.0127271      0.9235638
 1\1\GINC-ALCHEMY-TI\FOpt\RB3LYP\6-31G(2df,p)\C7H10O2\PUCK\27-Jan-2020\
 0\\# b3lyp 6-31G(2df,p) opt Freq\\titel\\0,1\O,0.6928038855,0.07766757
 66,-0.9246802392\C,0.3250913558,-0.2046077314,0.1815012836\O,-0.482069
 1802,0.5283128173,0.9652335446\C,-0.9511960849,1.7530414833,0.41293253
 26\C,-1.9379138389,2.4670321429,1.2833074338\C,-2.0832859697,3.9702423
 548,1.0904487369\C,-2.1904864563,4.1653910684,-0.4420289729\C,-2.82172
 87615,2.8592465564,-0.9850426628\C,-2.3969471444,1.7821837512,0.002703
 1537\H,0.6084997466,-1.114802699,0.7324420788\H,-0.1918410785,2.273272
 1033,-0.1592416847\H,-2.1420134336,2.0264352927,2.2526108108\H,-3.0034
 223349,4.3008589245,1.5863157721\H,-1.2582154912,4.545429646,1.5237876
 42\H,-2.7703946582,5.0520549825,-0.7098046298\H,-1.1927765574,4.303168
 4921,-0.8709940738\H,-3.9158094945,2.9296967405,-0.9825207698\H,-2.512
 279037,2.6479887395,-2.0137280979\H,-2.9347450469,0.8416317982,0.03960
 68921\\Version=ES64L-G09RevD.01\State=1-A\HF=-423.2136176\RMSD=7.501e-
 09\RMSF=3.217e-05\Dipole=-0.573874,0.3535198,0.511649\Quadrupole=-0.64
 8255,2.3120374,-1.6637824,0.6633772,2.6748036,-2.4169141\PG=C01 [X(C7H
 10O2)]\\@


 FROM THE ASHES OF OUR DESPAIR GROW THE FLOWERS OF TOMORROW.
 Job cpu time:       0 days  0 hours  5 minutes 53.6 seconds.
 File lengths (MBytes):  RWF=     52 Int=      0 D2E=      0 Chk=      7 Scr=      1
 Normal termination of Gaussian 09 at Mon Jan 27 13:40:29 2020.
 Link1:  Proceeding to internal job step number  2.
 ----------------------------------------------------------------------
 #N Geom=AllCheck Guess=TCheck SCRF=Check GenChk RB3LYP/6-31G(2df,p) Fr
 eq
 ----------------------------------------------------------------------
 1/10=4,29=7,30=1,38=1,40=1/1,3;
 2/12=2,40=1/2;
 3/5=1,6=6,7=104,11=2,14=-4,16=1,25=1,30=1,70=2,71=2,74=-5,116=1,140=1/1,2,3;
 4/5=101/1;
 5/5=2,98=1/2;
 8/6=4,10=90,11=11/1;
 11/6=1,8=1,9=11,15=111,16=1/1,2,10;
 10/6=1/2;
 6/7=2,8=2,9=2,10=2,18=1,28=1/1;
 7/8=1,10=1,25=1/1,2,3,16;
 1/10=4,30=1/3;
 99//99;
 Structure from the checkpoint file:  "/scratch/puck/g09_16c2f9b7-5642-43dd-8830-23ab04cab9b8/Gau-46982.chk"
 -----
 titel
 -----
 Charge =  0 Multiplicity = 1
 Redundant internal coordinates found in file.
 O,0,0.6928038855,0.0776675766,-0.9246802392
 C,0,0.3250913558,-0.2046077314,0.1815012836
 O,0,-0.4820691802,0.5283128173,0.9652335446
 C,0,-0.9511960849,1.7530414833,0.4129325326
 C,0,-1.9379138389,2.4670321429,1.2833074338
 C,0,-2.0832859697,3.9702423548,1.0904487369
 C,0,-2.1904864563,4.1653910684,-0.4420289729
 C,0,-2.8217287615,2.8592465564,-0.9850426628
 C,0,-2.3969471444,1.7821837512,0.0027031537
 H,0,0.6084997466,-1.114802699,0.7324420788
 H,0,-0.1918410785,2.2732721033,-0.1592416847
 H,0,-2.1420134336,2.0264352927,2.2526108108
 H,0,-3.0034223349,4.3008589245,1.5863157721
 H,0,-1.2582154912,4.545429646,1.523787642
 H,0,-2.7703946582,5.0520549825,-0.7098046298
 H,0,-1.1927765574,4.3031684921,-0.8709940738
 H,0,-3.9158094945,2.9296967405,-0.9825207698
 H,0,-2.512279037,2.6479887395,-2.0137280979
 H,0,-2.9347450469,0.8416317982,0.0396068921
 Recover connectivity data from disk.

 GradGradGradGradGradGradGradGradGradGradGradGradGradGradGradGradGradGrad
 Berny optimization.
 Initialization pass.
                           ----------------------------
                           !    Initial Parameters    !
                           ! (Angstroms and Degrees)  !
 --------------------------                            --------------------------
 ! Name  Definition              Value          Derivative Info.                !
 --------------------------------------------------------------------------------
 ! R1    R(1,2)                  1.1994         calculate D2E/DX2 analytically  !
 ! R2    R(2,3)                  1.3427         calculate D2E/DX2 analytically  !
 ! R3    R(2,10)                 1.101          calculate D2E/DX2 analytically  !
 ! R4    R(3,4)                  1.4231         calculate D2E/DX2 analytically  !
 ! R5    R(4,5)                  1.497          calculate D2E/DX2 analytically  !
 ! R6    R(4,9)                  1.5031         calculate D2E/DX2 analytically  !
 ! R7    R(4,11)                 1.0838         calculate D2E/DX2 analytically  !
 ! R8    R(5,6)                  1.5225         calculate D2E/DX2 analytically  !
 ! R9    R(5,9)                  1.523          calculate D2E/DX2 analytically  !
 ! R10   R(5,12)                 1.0841         calculate D2E/DX2 analytically  !
 ! R11   R(6,7)                  1.5486         calculate D2E/DX2 analytically  !
 ! R12   R(6,13)                 1.0963         calculate D2E/DX2 analytically  !
 ! R13   R(6,14)                 1.0952         calculate D2E/DX2 analytically  !
 ! R14   R(7,8)                  1.549          calculate D2E/DX2 analytically  !
 ! R15   R(7,15)                 1.0928         calculate D2E/DX2 analytically  !
 ! R16   R(7,16)                 1.0947         calculate D2E/DX2 analytically  !
 ! R17   R(8,9)                  1.5219         calculate D2E/DX2 analytically  !
 ! R18   R(8,17)                 1.0963         calculate D2E/DX2 analytically  !
 ! R19   R(8,18)                 1.0948         calculate D2E/DX2 analytically  !
 ! R20   R(9,19)                 1.0841         calculate D2E/DX2 analytically  !
 ! A1    A(1,2,3)              126.4529         calculate D2E/DX2 analytically  !
 ! A2    A(1,2,10)             125.2491         calculate D2E/DX2 analytically  !
 ! A3    A(3,2,10)             108.2942         calculate D2E/DX2 analytically  !
 ! A4    A(2,3,4)              116.1939         calculate D2E/DX2 analytically  !
 ! A5    A(3,4,5)              113.7109         calculate D2E/DX2 analytically  !
 ! A6    A(3,4,9)              116.0843         calculate D2E/DX2 analytically  !
 ! A7    A(3,4,11)             112.7697         calculate D2E/DX2 analytically  !
 ! A8    A(5,4,11)             122.6718         calculate D2E/DX2 analytically  !
 ! A9    A(9,4,11)             121.3665         calculate D2E/DX2 analytically  !
 ! A10   A(4,5,6)              117.4001         calculate D2E/DX2 analytically  !
 ! A11   A(4,5,12)             116.7497         calculate D2E/DX2 analytically  !
 ! A12   A(6,5,9)              107.9795         calculate D2E/DX2 analytically  !
 ! A13   A(6,5,12)             119.7715         calculate D2E/DX2 analytically  !
 ! A14   A(9,5,12)             120.8157         calculate D2E/DX2 analytically  !
 ! A15   A(5,6,7)              104.856          calculate D2E/DX2 analytically  !
 ! A16   A(5,6,13)             108.6995         calculate D2E/DX2 analytically  !
 ! A17   A(5,6,14)             113.3597         calculate D2E/DX2 analytically  !
 ! A18   A(7,6,13)             110.5796         calculate D2E/DX2 analytically  !
 ! A19   A(7,6,14)             112.1816         calculate D2E/DX2 analytically  !
 ! A20   A(13,6,14)            107.1553         calculate D2E/DX2 analytically  !
 ! A21   A(6,7,8)              105.5969         calculate D2E/DX2 analytically  !
 ! A22   A(6,7,15)             112.4254         calculate D2E/DX2 analytically  !
 ! A23   A(6,7,16)             109.9101         calculate D2E/DX2 analytically  !
 ! A24   A(8,7,15)             112.4588         calculate D2E/DX2 analytically  !
 ! A25   A(8,7,16)             109.8869         calculate D2E/DX2 analytically  !
 ! A26   A(15,7,16)            106.5892         calculate D2E/DX2 analytically  !
 ! A27   A(7,8,9)              104.803          calculate D2E/DX2 analytically  !
 ! A28   A(7,8,17)             110.5905         calculate D2E/DX2 analytically  !
 ! A29   A(7,8,18)             112.1429         calculate D2E/DX2 analytically  !
 ! A30   A(9,8,17)             108.8155         calculate D2E/DX2 analytically  !
 ! A31   A(9,8,18)             113.227          calculate D2E/DX2 analytically  !
 ! A32   A(17,8,18)            107.2554         calculate D2E/DX2 analytically  !
 ! A33   A(4,9,8)              117.3431         calculate D2E/DX2 analytically  !
 ! A34   A(4,9,19)             116.8108         calculate D2E/DX2 analytically  !
 ! A35   A(5,9,8)              108.1561         calculate D2E/DX2 analytically  !
 ! A36   A(5,9,19)             120.7316         calculate D2E/DX2 analytically  !
 ! A37   A(8,9,19)             119.8443         calculate D2E/DX2 analytically  !
 ! D1    D(1,2,3,4)              0.632          calculate D2E/DX2 analytically  !
 ! D2    D(1,2,3,10)          -179.3187         calculate D2E/DX2 analytically  !
 ! D3    D(10,2,3,4)           179.9506         calculate D2E/DX2 analytically  !
 ! D4    D(2,3,4,5)            175.0059         calculate D2E/DX2 analytically  !
 ! D5    D(2,3,4,9)            106.9828         calculate D2E/DX2 analytically  !
 ! D6    D(2,3,4,11)           -39.5295         calculate D2E/DX2 analytically  !
 ! D7    D(3,4,5,6)            156.4771         calculate D2E/DX2 analytically  !
 ! D8    D(3,4,5,12)             3.9062         calculate D2E/DX2 analytically  !
 ! D9    D(11,4,5,6)            14.8656         calculate D2E/DX2 analytically  !
 ! D10   D(11,4,5,12)         -137.7053         calculate D2E/DX2 analytically  !
 ! D11   D(3,4,9,8)           -160.2846         calculate D2E/DX2 analytically  !
 ! D12   D(3,4,9,19)            -7.5314         calculate D2E/DX2 analytically  !
 ! D13   D(11,4,9,8)           -16.8569         calculate D2E/DX2 analytically  !
 ! D14   D(11,4,9,19)          135.8963         calculate D2E/DX2 analytically  !
 ! D15   D(4,5,6,7)             46.7816         calculate D2E/DX2 analytically  !
 ! D16   D(4,5,6,13)           165.0573         calculate D2E/DX2 analytically  !
 ! D17   D(4,5,6,14)           -75.9047         calculate D2E/DX2 analytically  !
 ! D18   D(9,5,6,7)            -17.7881         calculate D2E/DX2 analytically  !
 ! D19   D(9,5,6,13)           100.4875         calculate D2E/DX2 analytically  !
 ! D20   D(9,5,6,14)          -140.4744         calculate D2E/DX2 analytically  !
 ! D21   D(12,5,6,7)          -161.5062         calculate D2E/DX2 analytically  !
 ! D22   D(12,5,6,13)          -43.2306         calculate D2E/DX2 analytically  !
 ! D23   D(12,5,6,14)           75.8074         calculate D2E/DX2 analytically  !
 ! D24   D(6,5,9,8)              0.2021         calculate D2E/DX2 analytically  !
 ! D25   D(6,5,9,19)          -143.3348         calculate D2E/DX2 analytically  !
 ! D26   D(12,5,9,8)           143.4687         calculate D2E/DX2 analytically  !
 ! D27   D(12,5,9,19)           -0.0682         calculate D2E/DX2 analytically  !
 ! D28   D(5,6,7,8)             28.4993         calculate D2E/DX2 analytically  !
 ! D29   D(5,6,7,15)           151.4742         calculate D2E/DX2 analytically  !
 ! D30   D(5,6,7,16)           -89.9726         calculate D2E/DX2 analytically  !
 ! D31   D(13,6,7,8)           -88.4948         calculate D2E/DX2 analytically  !
 ! D32   D(13,6,7,15)           34.4802         calculate D2E/DX2 analytically  !
 ! D33   D(13,6,7,16)          153.0334         calculate D2E/DX2 analytically  !
 ! D34   D(14,6,7,8)           151.9452         calculate D2E/DX2 analytically  !
 ! D35   D(14,6,7,15)          -85.0799         calculate D2E/DX2 analytically  !
 ! D36   D(14,6,7,16)           33.4734         calculate D2E/DX2 analytically  !
 ! D37   D(6,7,8,9)            -28.355          calculate D2E/DX2 analytically  !
 ! D38   D(6,7,8,17)            88.751          calculate D2E/DX2 analytically  !
 ! D39   D(6,7,8,18)          -151.5804         calculate D2E/DX2 analytically  !
 ! D40   D(15,7,8,9)          -151.3087         calculate D2E/DX2 analytically  !
 ! D41   D(15,7,8,17)          -34.2026         calculate D2E/DX2 analytically  !
 ! D42   D(15,7,8,18)           85.466          calculate D2E/DX2 analytically  !
 ! D43   D(16,7,8,9)            90.1323         calculate D2E/DX2 analytically  !
 ! D44   D(16,7,8,17)         -152.7616         calculate D2E/DX2 analytically  !
 ! D45   D(16,7,8,18)          -33.093          calculate D2E/DX2 analytically  !
 ! D46   D(7,8,9,4)            -46.7296         calculate D2E/DX2 analytically  !
 ! D47   D(7,8,9,5)             17.4578         calculate D2E/DX2 analytically  !
 ! D48   D(7,8,9,19)           161.375          calculate D2E/DX2 analytically  !
 ! D49   D(17,8,9,4)          -165.0459         calculate D2E/DX2 analytically  !
 ! D50   D(17,8,9,5)          -100.8585         calculate D2E/DX2 analytically  !
 ! D51   D(17,8,9,19)           43.0587         calculate D2E/DX2 analytically  !
 ! D52   D(18,8,9,4)            75.7945         calculate D2E/DX2 analytically  !
 ! D53   D(18,8,9,5)           139.9819         calculate D2E/DX2 analytically  !
 ! D54   D(18,8,9,19)          -76.1008         calculate D2E/DX2 analytically  !
 --------------------------------------------------------------------------------
 Trust Radius=3.00D-01 FncErr=1.00D-07 GrdErr=1.00D-07
 Number of steps in this run=      2 maximum allowed number of steps=      2.
 GradGradGradGradGradGradGradGradGradGradGradGradGradGradGradGradGradGrad

                          Input orientation:                          
 ---------------------------------------------------------------------
 Center     Atomic      Atomic             Coordinates (Angstroms)
 Number     Number       Type             X           Y           Z
 ---------------------------------------------------------------------
      1          8           0        0.692804    0.077668   -0.924680
      2          6           0        0.325091   -0.204608    0.181501
      3          8           0       -0.482069    0.528313    0.965234
[...]
 6,-0.01032807,-0.00118847,0.01454390,0.03409069,-0.04787828,-0.0150349
 1,0.03245773,-0.15703055,0.04895040,-0.00347381,0.47047905,0.00205270,
 -0.00152352,-0.00701748,-0.00156904,-0.01461340,0.02357985,-0.00773767
 ,0.06520673,-0.10676838,-0.15026233,-0.09974894,0.38191577,0.00069336,
 0.00066477,-0.00159550,-0.00127062,-0.00000423,0.00172571,-0.00870351,
 0.00690509,0.00369784,-0.10825777,0.04308528,0.06897528,0.28154970,-0.
 00035322,0.00222266,-0.00165370,-0.00244107,-0.00344962,0.00544934,0.0
 1843145,-0.02842006,-0.02345593,0.06016941,-0.08670489,-0.01978651,-0.
 03384405,0.51773984,0.00067836,-0.00191190,0.00132733,0.00045080,0.003
 24420,-0.00399906,-0.00492464,0.01100501,0.01632347,0.10903343,-0.0388
 8181,-0.11837000,-0.09662291,-0.06030356,0.65851861,-0.00021904,-0.000
 57593,0.00102841,0.00107643,0.00107780,-0.00240137,-0.00342988,0.00618
 902,0.00573747,-0.00010015,0.02669414,-0.00605082,-0.07307297,0.015123
 90,0.00463534,0.58495491,-0.00046955,0.00013921,0.00077749,0.00079288,
 -0.00055783,-0.00106265,-0.00259465,0.00281739,0.00077959,0.00306018,-
 0.01225652,-0.00570823,0.01085422,-0.18350816,0.01512711,0.02903862,0.
 48666346,-0.00011376,0.00010981,0.00005426,-0.00017062,-0.00056575,0.0
 0038251,-0.00021001,-0.00127856,-0.00192017,-0.00051869,-0.00906866,0.
 00019234,0.00594359,0.01544605,-0.07802806,-0.01097853,0.07654115,0.46
 664919,-0.00014907,-0.00016588,0.00017711,0.00023075,-0.00010256,-0.00
 024082,-0.00077426,-0.00030098,0.00018348,0.00187225,0.00189672,-0.000
 84426,0.00120822,0.00329987,-0.00891890,-0.07967104,0.00377768,-0.0007
 2901,0.56642119,0.00000125,-0.00003364,-0.00028716,-0.00007060,0.00025
 347,0.00022578,0.00000655,-0.00033812,-0.00035111,0.00133883,-0.001224
 85,0.00154542,-0.00037088,-0.01513147,0.02986737,0.00048328,-0.0718096
 6,0.00910846,-0.05289660,0.53822241,0.00001269,0.00008472,-0.00003848,
 -0.00004432,-0.00024660,0.00014792,-0.00003213,-0.00013677,-0.00085363
 ,-0.00053759,0.00139313,0.00187753,-0.00065748,0.01828800,-0.01474018,
 -0.00135306,0.01209795,-0.15885893,-0.03650136,-0.06326201,0.43174661,
 -0.00060826,-0.00046823,0.00117677,0.00143879,-0.00068377,-0.00250019,
 -0.00619045,0.00147741,-0.00415253,-0.00661115,0.02031299,-0.02054082,
 -0.00056032,-0.00588309,0.00210013,0.00083406,-0.00260501,-0.00798187,
 -0.09629407,-0.03028248,-0.00964832,0.56441982,-0.00030324,0.00019358,
 0.00027320,0.00045251,-0.00047200,-0.00038925,-0.00057713,0.00099724,-
 0.00024190,0.00484842,-0.00397991,0.00552207,0.00078074,0.00833204,0.0
 0169402,-0.00337721,-0.00374744,-0.01227036,-0.03069985,-0.13383148,-0
 .02717157,-0.01569058,0.40077538,0.00054654,0.00035702,-0.00158231,-0.
 00172826,0.00100088,0.00299630,0.00588306,-0.00295488,0.00138456,-0.00
 542314,-0.00494878,-0.00184065,-0.01491611,0.01014276,-0.03465109,-0.0
 1578853,-0.02103067,-0.02381258,-0.01160019,-0.02320774,-0.08116352,-0
 .02092562,0.02370887,0.57344716,0.00074006,-0.00014185,0.00027460,0.00
 019838,-0.00138312,-0.00076565,-0.00996102,0.01031631,-0.00497708,-0.2
 0410514,-0.00649657,-0.02287717,-0.03696288,-0.04085516,-0.05604207,-0
 .00046377,-0.00335644,0.00080490,0.00558921,-0.00922207,0.00542044,-0.
 08799563,0.01707492,-0.02105954,0.46288896,0.00129902,0.00060285,-0.00
 145816,-0.00130168,0.00262942,0.00501620,0.03310877,-0.00334621,0.0209
 9345,-0.03500347,-0.06150952,0.00817559,-0.01701647,-0.08234171,-0.037
 51084,-0.02341700,-0.02422854,-0.01525847,0.00401705,-0.03769400,0.010
 36101,0.02043617,-0.13087243,0.05325988,0.14291718,0.60550860,-0.00191
 285,-0.00042567,0.00264571,0.00401098,-0.00244157,-0.00469265,-0.01593
 151,0.00787352,-0.00922469,-0.05876711,0.02049990,-0.03762967,-0.01780
 562,-0.04766655,-0.14528566,-0.00192177,-0.01633973,-0.00204200,0.0043
 6281,0.00490683,0.00341240,-0.02424457,0.05635161,-0.11554720,0.120820
 56,-0.05248049,0.37637052,0.01844128,-0.00620358,0.01301954,-0.0742833
 5,0.04723549,-0.03301614,-0.00648068,0.02833484,-0.00397548,0.00310077
 ,0.00286167,0.00461425,0.00044157,0.00155485,-0.00098750,-0.00058887,-
 0.00012372,0.00025183,0.00004916,0.00000162,0.00004956,0.00020656,-0.0
 0002072,-0.00002317,0.00005209,-0.00121808,0.00036177,0.05999416,0.003
 01680,0.00306397,0.01646723,0.04838267,-0.21606211,0.09128720,0.019097
 30,-0.02636096,0.00621405,0.00231955,0.00439038,-0.00307623,0.00025161
 ,-0.00060517,0.00031430,0.00029998,0.00024161,-0.00003099,-0.00000258,
 0.00000408,0.00000806,0.00024139,0.00011290,-0.00028655,0.00008149,-0.
 00108447,0.00025063,-0.07335638,0.23647475,0.00187367,0.03459870,-0.02
 580011,-0.03605751,0.09619439,-0.10706479,0.01044146,-0.01726563,0.009
 20669,0.00367113,-0.00045615,-0.00042455,0.00032527,-0.00031090,0.0003
 2745,0.00011355,0.00003016,0.00000072,0.00001693,0.00001250,-0.0000083
 6,0.00018705,-0.00000030,-0.00018095,0.00013377,-0.00081871,0.00005868
 ,0.01969457,-0.11168096,0.12382087,-0.00137560,0.00164989,0.00069832,0
 .00196320,-0.00024974,-0.00080102,0.01047810,0.01162354,-0.00861255,-0
 .19243363,-0.09955324,0.10973105,-0.00732361,-0.00173264,-0.00012598,0
 .00108798,-0.00021012,0.00123454,-0.00063405,-0.00030989,0.00044696,0.
 00203322,-0.00156214,-0.00036374,-0.01394310,-0.00829598,0.01348541,-0
 .00062715,-0.00022143,-0.00021380,0.20242993,0.00147748,0.00172589,-0.
 00467129,-0.00579260,0.00210481,0.00898503,-0.01142857,-0.02831766,0.0
 1621190,-0.09194914,-0.10738304,0.07223783,0.00991687,0.01060838,-0.00
 906235,-0.00116220,0.00128124,0.00022798,0.00083109,-0.00041081,0.0000
 5394,0.00089067,0.00048270,0.00024697,-0.00146928,-0.00275287,0.002595
 08,0.00078451,0.00017726,-0.00024717,0.09558226,0.12417079,-0.00007493
 ,-0.00125087,-0.00004104,0.00167358,-0.00204357,-0.00058753,0.00373044
 ,0.01272359,-0.00801014,0.10826881,0.07586522,-0.12102987,0.01141847,0
 .01230253,-0.00884093,-0.00168034,0.00120231,0.00095751,-0.00010342,0.
 00046206,0.00002254,0.00190117,-0.00031626,0.00098578,-0.00988529,-0.0
 1229522,0.00897463,0.00010847,0.00034101,-0.00006947,-0.11444533,-0.08
 699879,0.12697640,-0.00003448,0.00080533,-0.00058622,-0.00042259,-0.00
 036419,0.00108528,0.00279079,-0.00358864,-0.00352884,-0.00710099,-0.01
 370890,0.02519669,-0.04719648,-0.02187987,0.05309600,-0.00031353,0.000
 49968,-0.00228837,0.00001373,0.00024162,-0.00180662,0.00098006,-0.0010
 4256,-0.00379674,0.00385486,0.01288094,-0.01440420,0.00010289,-0.00006
 420,-0.00008290,-0.00034301,0.00306503,0.00303583,0.04748454,0.0002181
 6,-0.00021104,0.00000383,0.00004948,0.00007779,0.00001812,0.00045568,0
 .00134917,0.00024476,0.00129007,0.00127551,-0.01120067,-0.02228078,-0.
 09611579,0.10949983,-0.00546194,-0.00525752,0.02548629,0.00085762,-0.0
 0528514,-0.00071375,0.00094935,-0.00199550,-0.00181449,0.00445707,0.00
 340230,-0.01140011,-0.00008066,-0.00008062,-0.00000595,-0.00033559,-0.
 00046676,-0.00043598,0.02131277,0.10014325,-0.00000085,0.00004799,0.00
 041650,0.00009604,-0.00037184,-0.00015318,0.00004388,0.00042007,0.0014
 4372,-0.00125963,0.00174356,-0.00927263,0.05262683,0.10561810,-0.27630
 989,-0.00061324,-0.00204054,0.00322767,-0.00028535,-0.00097349,-0.0002
 4741,0.00170516,-0.00120830,-0.00177152,0.00709880,0.00622890,-0.01220
 952,-0.00001986,-0.00006201,-0.00005182,-0.00106172,-0.00021221,-0.000
 17368,-0.05654752,-0.11164877,0.29331717,-0.00008340,0.00004031,0.0001
 6915,0.00032990,-0.00019737,-0.00031133,-0.00022357,0.00060487,0.00035
 484,0.00135828,-0.00012231,-0.00126951,-0.00275963,0.00169593,0.001050
 73,-0.23180590,0.06260609,0.09521855,0.00263054,-0.00184769,-0.0014805
 8,-0.00002307,0.00045543,0.00015039,0.00052975,0.00038952,0.00075039,-
 0.00005286,0.00003324,-0.00000487,0.00005899,-0.00027734,-0.00031915,0
 .00039669,0.00026661,-0.00027436,0.24853448,0.00022394,0.00006818,-0.0
 0052324,-0.00077190,-0.00002160,0.00107515,0.00124755,-0.00233028,-0.0
 0204313,-0.00077233,-0.00370478,0.00391093,0.03046830,-0.01438693,-0.0
 1605259,0.06203586,-0.06850781,-0.03602594,-0.00589279,0.00068575,0.00
 441267,-0.00046302,-0.00045822,-0.00030416,-0.00035652,0.00207038,0.00
 017178,0.00023527,-0.00013737,-0.00002733,-0.00000614,0.00013312,0.000
 17958,-0.00039973,0.00157152,0.00050248,-0.07076209,0.07805097,-0.0000
 2806,-0.00004808,0.00010188,0.00008014,0.00009455,-0.00018100,-0.00021
 558,0.00041891,0.00032831,0.00024856,0.00148027,0.00051027,-0.00531378
 ,0.00187818,0.00277045,0.09528108,-0.03533236,-0.09703441,0.02803777,-
 0.00719361,-0.01509100,0.00034060,0.00008536,-0.00018411,-0.00019109,0
 .00011349,-0.00000642,-0.00004529,0.00001982,0.00000820,-0.00012685,0.
 00000295,-0.00013179,-0.00041538,-0.00059215,0.00035073,-0.10515843,0.
 03569785,0.10700709,0.00008300,-0.00003136,-0.00010857,-0.00017823,0.0
 0010472,0.00020490,0.00033804,-0.00041953,-0.00019400,0.00158056,-0.00
 055116,-0.00049707,0.00436279,0.00234693,0.00262726,-0.20014148,-0.101
 87594,-0.07768046,-0.00071527,0.00037534,0.00151606,0.00101961,0.00085
 196,0.00050817,0.00086205,0.00206373,0.00127032,0.00002791,-0.00004444
 ,-0.00000414,-0.00016751,-0.00056096,-0.00009785,-0.00014816,-0.000485
 72,-0.00017817,-0.02157344,-0.01420302,-0.01064594,0.21304542,0.000153
 04,-0.00006423,-0.00006977,-0.00029989,0.00022049,0.00008461,0.0002398
 3,0.00007180,0.00016880,0.00002155,0.00326578,0.00044017,-0.02298120,-
 0.01697346,-0.01383018,-0.10058263,-0.11473535,-0.05156747,0.00513367,
 0.00377310,0.00240360,-0.00014420,-0.00132690,0.00206018,-0.00165498,-
 0.00550905,0.00194541,-0.00001561,-0.00003121,0.00000227,0.00071189,-0
 .00030451,-0.00060246,-0.00010205,-0.00042945,0.00033207,0.00729952,0.
 00541264,0.00390557,0.11180092,0.12654715,0.00003024,0.00005966,0.0000
 0437,-0.00002585,-0.00004700,0.00004101,0.00025394,-0.00004366,-0.0000
 2184,-0.00080344,-0.00082751,-0.00011316,0.00525619,0.00334298,0.00311
 599,-0.07561814,-0.05131388,-0.08467199,-0.02236440,-0.01672100,-0.011
 57353,-0.00005557,0.00090406,-0.00499368,-0.00017285,0.00135290,-0.001
 44028,-0.00000925,-0.00000822,-0.00000919,-0.00005303,-0.00001843,-0.0
 0003622,0.00002513,-0.00012615,-0.00013683,0.01116222,0.00770111,0.005
 70130,0.08299788,0.05735002,0.09323502,-0.00002427,0.00010724,0.000032
 83,0.00009276,-0.00020623,-0.00001840,0.00035256,0.00030859,-0.0001273
 8,-0.00066104,-0.00053473,0.00014203,-0.00013225,-0.00134932,-0.000027
 68,-0.00094929,0.00005495,0.00112987,-0.12601625,0.11910825,-0.0351985
 9,0.00727184,-0.01276296,0.00427192,-0.00072811,-0.00304138,-0.0003863
 3,-0.00002438,0.00000449,-0.00002056,0.00049698,-0.00006574,-0.0001268
 7,0.00012668,-0.00000641,0.00016235,0.00118342,-0.00053299,0.00002361,
 -0.00006304,0.00011867,-0.00032983,0.13432668,0.00014129,-0.00002840,-
 0.00018361,-0.00032230,0.00025620,0.00031696,0.00052167,-0.00034622,-0
 .00005149,-0.00069387,0.00044629,-0.00054099,-0.00079148,-0.00046122,-
 0.00014972,0.00024747,-0.00031974,-0.00045097,0.11669478,-0.21851769,0
 .05081658,0.01344847,-0.01830186,0.00679226,-0.00195119,-0.00339180,-0
 .00143482,0.00000735,-0.00003985,0.00000118,0.00008406,-0.00010356,0.0
 0007162,0.00025648,-0.00001374,0.00013073,-0.00036150,0.00064660,0.000
 22437,-0.00008015,-0.00021885,0.00039441,-0.12551942,0.23700911,-0.000
 05284,-0.00001512,0.00013846,0.00011395,-0.00003661,-0.00017989,-0.000
 28039,0.00018336,0.00030947,0.00024690,-0.00060588,-0.00082388,-0.0005
 9125,0.00065191,-0.00561622,-0.01608503,0.02574442,-0.00641247,-0.0338
 4568,0.04988185,-0.06048650,0.00728615,-0.00991543,0.00343639,-0.00070
 906,-0.00163748,-0.00206970,-0.00001761,0.00002021,0.00000775,-0.00019
 426,0.00012008,0.00008304,-0.00015982,0.00167733,0.00014119,0.00038750
 ,-0.00023307,0.00211662,-0.00044197,-0.00013410,-0.00095561,0.03687388
 ,-0.05572566,0.06600067,0.00003317,0.00010747,-0.00006691,-0.00007008,
 -0.00011169,0.00013306,0.00058844,0.00023810,-0.00032348,-0.00136650,0
 .00007145,0.00054011,-0.00009417,0.00002236,0.00018305,0.00324277,0.00
 066025,-0.00222671,-0.26449494,-0.02590760,0.09256642,-0.01284000,-0.0
 0168203,0.00349289,-0.00041345,0.00011335,-0.00036453,-0.00001909,-0.0
 0000008,-0.00001493,0.00034836,0.00110172,-0.00058756,0.00008842,-0.00
 005243,0.00002312,0.00137779,0.00010431,-0.00098380,0.00144381,-0.0000
 6612,0.00043473,-0.01701792,-0.00186596,0.00708714,0.28746970,0.000017
 98,0.00015738,-0.00006262,-0.00004337,-0.00016980,0.00013490,0.0002268
 1,0.00024371,-0.00015686,-0.00047161,-0.00063164,0.00067653,-0.0000705
 4,0.00003782,0.00009104,-0.00262257,-0.00076090,-0.00042901,-0.0254185
 6,-0.05231229,0.01376635,-0.02639633,-0.00372921,0.00915861,-0.0004004
 9,0.00030946,-0.00047237,-0.00001544,0.00001489,-0.00003470,0.00102934
 ,-0.00097637,0.00038842,0.00023744,-0.00005138,0.00005410,-0.00005267,
 0.00057998,-0.00022019,0.00035629,0.00053206,-0.00030277,0.02458246,0.
 00331852,-0.01045633,0.03010143,0.05627636,-0.00002392,-0.00005467,-0.
 00004559,-0.00004055,0.00016132,0.00005447,-0.00023627,-0.00027028,0.0
 0020502,0.00083355,0.00048003,-0.00027383,0.00026031,-0.00090398,-0.00
 027904,0.03034654,0.00178301,-0.01571368,0.09222345,0.01394521,-0.0839
 6987,-0.01385272,-0.00295376,0.00320044,-0.00011434,0.00019899,-0.0002
 4034,0.00000837,0.00000205,0.00001105,-0.00054291,0.00043581,0.0004799
 4,-0.00035459,0.00032510,0.00001952,-0.00066409,0.00211166,-0.00599300
 ,-0.00001431,-0.00050239,0.00192229,-0.00707539,-0.00104957,0.00320751
 ,-0.09879344,-0.01138762,0.09644781,-0.00017970,0.00009608,0.00020681,
 0.00043885,-0.00043721,-0.00039481,-0.00082080,0.00047266,-0.00049169,
 0.00220960,0.00154339,0.00028105,0.00028946,-0.00078196,-0.00034969,-0
 .00033659,0.00002971,-0.00043466,-0.01161971,-0.00000133,0.00157305,-0
 .30142652,0.01746015,0.00454125,-0.00947041,0.00192958,-0.00100738,-0.
 00000813,0.00006629,-0.00000174,0.00030482,-0.00002015,0.00023605,-0.0
 0011480,0.00001009,-0.00008874,0.00012638,-0.00009045,-0.00042811,0.00
 014163,-0.00019985,-0.00023490,0.00141007,-0.00013065,0.00017855,0.000
 38323,-0.00193577,-0.00153146,0.32787464,0.00034007,0.00004818,-0.0005
 1325,-0.00078392,0.00053264,0.00100404,0.00208614,-0.00095643,0.001075
 20,-0.00113905,-0.00332096,0.00204293,-0.00037318,0.00072076,-0.000653
 17,-0.00028566,-0.00008859,0.00064480,-0.02986377,-0.00027397,0.001879
 98,0.01768748,-0.04568088,-0.00130250,0.02757039,-0.00335377,0.0015158
 4,-0.00003028,-0.00011927,-0.00004085,-0.00014653,-0.00014832,-0.00027
 825,-0.00000207,0.00009145,0.00006947,0.00014487,0.00026403,-0.0003972
 9,0.00026381,-0.00004748,-0.00030571,0.00030599,0.00178057,0.00085957,
 -0.00281071,-0.00432698,-0.00309308,-0.01890144,0.05454796,-0.00020841
 ,-0.00012639,0.00052615,0.00063445,-0.00036142,-0.00098454,-0.00167940
 ,0.00068962,-0.00067832,0.00062121,0.00319792,-0.00055125,0.00081892,-
 0.00073890,0.00148186,0.00005986,-0.00019805,-0.00029973,-0.00977877,0
 .00150623,0.00015299,0.00464890,-0.00218528,-0.04934119,-0.02410441,0.
 00300789,-0.00165638,0.00002328,0.00007743,0.00005546,-0.00000887,-0.0
 0003326,-0.00008898,-0.00001425,0.00011078,0.00005481,-0.00000160,-0.0
 0044804,-0.00021058,0.00023755,-0.00018940,-0.00014236,0.00041508,0.00
 049580,0.00076843,-0.00079215,-0.00101553,-0.00008698,-0.00236225,-0.0
 0127200,0.05015187,0.00006527,-0.00007031,0.00007559,-0.00002052,0.000
 10658,-0.00002233,0.00020734,-0.00017161,0.00024615,0.00185263,-0.0006
 5474,-0.00001089,-0.00032403,0.00021921,-0.00303837,-0.00064483,-0.001
 70329,-0.00189619,0.00240324,-0.00282435,-0.01322678,-0.07132567,0.016
 62288,0.07492214,0.00250059,-0.00234166,-0.00892411,-0.00001940,-0.000
 03751,0.00001301,-0.00022400,-0.00020076,0.00031803,-0.00052819,-0.000
 23004,-0.00050341,-0.00002141,-0.00008745,-0.00056215,0.00000694,0.000
 02979,-0.00056113,0.00004659,-0.00026955,0.00005035,0.00113003,0.00049
 550,-0.00041361,-0.00998654,0.00638948,0.03077240,0.07483326,-0.000035
 92,-0.00003766,-0.00022573,-0.00018537,0.00013273,0.00026329,-0.000224
 37,-0.00006041,-0.00022723,-0.00075380,0.00122036,-0.00232266,-0.00057
 869,-0.00396113,0.00348156,-0.00221987,-0.00461669,-0.00057143,0.00770
 243,-0.00420182,-0.02545031,0.01570713,-0.05612650,-0.04798558,-0.0062
 4598,0.00571142,0.02425478,0.00003488,0.00001327,0.00000599,0.00059523
 ,0.00011515,-0.00006703,0.00102988,0.00079830,0.00076200,0.00001550,0.
 00011762,-0.00007097,-0.00009607,0.00052075,-0.00128690,-0.00001048,-0
 .00093797,-0.00020211,0.00014608,0.00177135,0.00074931,0.00061962,-0.0
 0039197,-0.00209671,-0.01530535,0.06022330,-0.00005616,-0.00009350,0.0
 0060379,0.00052472,-0.00023632,-0.00089044,-0.00047011,0.00049616,0.00
 049445,0.00016556,-0.00104121,0.00169900,0.00087463,0.00238652,-0.0018
 6503,-0.00048108,0.00001709,-0.00005604,0.00255917,-0.00097676,-0.0067
 1739,0.07228954,-0.04797991,-0.27269297,0.00392428,-0.00317048,-0.0178
 8193,-0.00004945,0.00002056,0.00003342,-0.00074172,0.00004067,-0.00046
 976,-0.00098307,-0.00032539,-0.00052168,0.00009184,-0.00009036,-0.0001
 3712,0.00005172,-0.00004258,-0.00029401,-0.00031240,-0.00052611,-0.000
 37088,-0.00036340,0.00026098,0.00093120,0.00049123,-0.00023708,0.00000
 920,-0.07751584,0.05107882,0.29862031,0.00021870,0.00014267,0.00003932
 ,-0.00056870,0.00063762,0.00019151,0.00496468,0.00065005,0.00298444,-0
 .01566961,-0.02759054,0.00012642,-0.00188685,0.00625648,-0.00281738,0.
 00054119,0.00156445,0.00064560,-0.00004965,0.00217677,-0.00109836,0.00
 567119,0.00917142,0.00130869,-0.11317245,-0.12751957,0.00060774,-0.000
 31247,-0.00006819,-0.00006996,-0.00212990,-0.00072289,-0.00337010,0.00
 036356,-0.00093333,-0.00092334,0.00001705,0.00002319,0.00010270,0.0000
 7538,0.00053764,0.00006805,0.00030895,0.00058452,0.00015349,0.00021045
 ,0.00038009,-0.00001462,0.00078452,-0.00045161,0.00071844,0.00004872,-
 0.00019485,0.00000055,0.12058525,0.00005886,-0.00008058,0.00006144,0.0
 0014267,0.00011475,-0.00051860,-0.00125070,0.00128546,-0.00066564,0.00
 606738,0.00573603,-0.00123705,-0.00461537,-0.00760187,0.00403166,-0.00
 148505,-0.00074817,-0.00004696,0.00113267,-0.00187387,0.00141499,-0.00
 853434,-0.01037151,-0.00289208,-0.12888374,-0.26415005,0.01229594,0.00
 001400,0.00002790,0.00004347,0.00134722,0.00006456,0.00075207,0.000823
 06,0.00119765,0.00060769,0.00006908,-0.00005379,-0.00006668,0.00018464
 ,-0.00070329,-0.00010392,-0.00056098,-0.00077640,-0.00017694,-0.000169
 89,-0.00028297,0.00002287,0.00027123,0.00072302,-0.00042070,0.00003319
 ,-0.00029011,0.00041890,0.13535609,0.27778324,-0.00011623,-0.00012701,
 -0.00020584,-0.00013769,0.00030591,0.00011025,-0.00168326,-0.00000690,
 0.00016783,0.00134479,0.00245951,-0.00565940,-0.01442040,-0.02068634,0
 .00411999,-0.00423034,-0.00107417,-0.00261416,-0.00234856,0.00151118,-
 0.00361118,0.01226675,0.01609314,0.00231114,0.00242118,0.01592156,-0.0
 4153548,0.00001213,0.00012241,0.00007894,0.00169549,0.00008526,0.00099
 955,0.00252962,0.00089737,0.00187686,0.00014830,-0.00001537,0.00007458
 ,0.00044861,-0.00175435,0.00036872,0.00057185,0.00086903,0.00070561,0.
 00005638,0.00000705,0.00012309,-0.00018256,-0.00099866,0.00083956,0.00
 027713,-0.00008912,-0.00049413,0.00134680,-0.01352049,0.04234407\\0.00
 000406,0.00000548,-0.00003501,-0.00005914,0.00001164,0.00008732,0.0000
 4203,-0.00011180,-0.00000818,-0.00006814,0.00013624,-0.00005299,0.0000
 1617,-0.00001286,0.00002597,-0.00001090,-0.00000610,0.00000189,0.00001
 017,0.00001452,-0.00000187,0.00000491,0.00000719,-0.00000270,0.0000032
 3,-0.00002535,-0.00001186,-0.00001032,-0.00001652,-0.00000743,0.000024
 26,-0.00003255,0.00001292,-0.00000706,-0.00000200,-0.00000514,0.000002
 82,0.00000521,-0.00000005,0.00000587,-0.00000664,0.00000345,0.00001216
 ,0.00000624,0.00000254,0.00001096,-0.00000372,0.00000694,0.00001086,0.
 00001192,-0.00000700,0.00001413,0.00001145,-0.00000447,-0.00000609,0.0
 0000765,-0.00000435\\\@


 The impersonal hand of government can
 never replace the helping hand of a neighbor.
                        -- Hubert H. Humphrey
 Job cpu time:       0 days  0 hours 38 minutes 56.6 seconds.
 File lengths (MBytes):  RWF=    152 Int=      0 D2E=      0 Chk=      8 Scr=      1
 Normal termination of Gaussian 09 at Mon Jan 27 14:19:23 2020.
