 Entering Gaussian System, Link 0=/home/puck/opt/gaussian_09/g09
 Input=dsC7O2H10nsd_5955.com
 Output=dsC7O2H10nsd_5955.log
 Initial command:
 /home/puck/opt/gaussian_09/l1.exe "/scratch/puck/g09_4c610d00-bf9f-4de5-8b34-0a4d9a993b89/Gau-3903.inp" -scrdir="/scratch/puck/g09_4c610d00-bf9f-4de5-8b34-0a4d9a993b89/"
 Entering Link 1 = /home/puck/opt/gaussian_09/l1.exe PID=      3928.
  
 Copyright (c) 1988,1990,1992,1993,1995,1998,2003,2009,2013,
            Gaussian, Inc.  All Rights Reserved.
  
 This is part of the Gaussian(R) 09 program.  It is based on
 the Gaussian(R) 03 system (copyright 2003, Gaussian, Inc.),
 the Gaussian(R) 98 system (copyright 1998, Gaussian, Inc.),
 the Gaussian(R) 94 system (copyright 1995, Gaussian, Inc.),
 the Gaussian 92(TM) system (copyright 1992, Gaussian, Inc.),
 the Gaussian 90(TM) system (copyright 1990, Gaussian, Inc.),
 the Gaussian 88(TM) system (copyright 1988, Gaussian, Inc.),
 the Gaussian 86(TM) system (copyright 1986, Carnegie Mellon
 University), and the Gaussian 82(TM) system (copyright 1983,
 Carnegie Mellon University). Gaussian is a federally registered
 trademark of Gaussian, Inc.
  
 This software contains proprietary and confidential information,
 including trade secrets, belonging to Gaussian, Inc.
  
 This software is provided under written license and may be
 used, copied, transmitted, or stored only in accord with that
 written license.
  
 The following legend is applicable only to US Government
 contracts under FAR:
  
                    RESTRICTED RIGHTS LEGEND
  
 Use, reproduction and disclosure by the US Government is
 subject to restrictions as set forth in subparagraphs (a)
 and (c) of the Commercial Computer Software - Restricted
 Rights clause in FAR 52.227-19.
  
 Gaussian, Inc.
 340 Quinnipiac St., Bldg. 40, Wallingford CT 06492
  
  
 ---------------------------------------------------------------
 Warning -- This program may not be used in any manner that
 competes with the business of Gaussian, Inc. or will provide
 assistance to any competitor of Gaussian, Inc.  The licensee
 of this program is prohibited from giving any competitor of
 Gaussian, Inc. access to this program.  By using this program,
 the user acknowledges that Gaussian, Inc. is engaged in the
 business of creating and licensing software in the field of
 computational chemistry and represents and warrants to the
 licensee that it is not a competitor of Gaussian, Inc. and that
 it will not use this program in any manner prohibited above.
 ---------------------------------------------------------------
  

 Cite this work as:
 Gaussian 09, Revision D.01,
 M. J. Frisch, G. W. Trucks, H. B. Schlegel, G. E. Scuseria, 
 M. A. Robb, J. R. Cheeseman, G. Scalmani, V. Barone, B. Mennucci, 
 G. A. Petersson, H. Nakatsuji, M. Caricato, X. Li, H. P. Hratchian, 
 A. F. Izmaylov, J. Bloino, G. Zheng, J. L. Sonnenberg, M. Hada, 
 M. Ehara, K. Toyota, R. Fukuda, J. Hasegawa, M. Ishida, T. Nakajima, 
 Y. Honda, O. Kitao, H. Nakai, T. Vreven, J. A. Montgomery, Jr., 
 J. E. Peralta, F. Ogliaro, M. Bearpark, J. J. Heyd, E. Brothers, 
 K. N. Kudin, V. N. Staroverov, T. Keith, R. Kobayashi, J. Normand, 
 K. Raghavachari, A. Rendell, J. C. Burant, S. S. Iyengar, J. Tomasi, 
 M. Cossi, N. Rega, J. M. Millam, M. Klene, J. E. Knox, J. B. Cross, 
 V. Bakken, C. Adamo, J. Jaramillo, R. Gomperts, R. E. Stratmann, 
 O. Yazyev, A. J. Austin, R. Cammi, C. Pomelli, J. W. Ochterski, 
 R. L. Martin, K. Morokuma, V. G. Zakrzewski, G. A. Voth, 
 P. Salvador, J. J. Dannenberg, S. Dapprich, A. D. Daniels, 
 O. Farkas, J. B. Foresman, J. V. Ortiz, J. Cioslowski, 
 and D. J. Fox, Gaussian, Inc., Wallingford CT, 2013.
 
 ******************************************
 Gaussian 09:  ES64L-G09RevD.01 24-Apr-2013
                28-Jan-2020 
 ******************************************
 -----------------------------
 # b3lyp 6-31G(2df,p) opt Freq
 -----------------------------
 1/14=-1,18=20,19=15,26=3,38=1/1,3;
 2/9=110,12=2,17=6,18=5,40=1/2;
 3/5=1,6=6,7=104,11=2,16=1,25=1,30=1,71=1,74=-5/1,2,3;
 4//1;
 5/5=2,38=5/2;
 6/7=2,8=2,9=2,10=2,28=1/1;
 7//1,2,3,16;
 1/14=-1,18=20,19=15,26=3/3(2);
 2/9=110/2;
 99//99;
 2/9=110/2;
 3/5=1,6=6,7=104,11=2,16=1,25=1,30=1,71=1,74=-5/1,2,3;
 4/5=5,16=3,69=1/1;
 5/5=2,38=5/2;
 7//1,2,3,16;
 1/14=-1,18=20,19=15,26=3/3(-5);
 2/9=110/2;
 6/7=2,8=2,9=2,10=2,19=2,28=1/1;
 99/9=1/99;
 -----
 titel
 -----
 Symbolic Z-matrix:
 Charge =  0 Multiplicity = 1
 C                     4.39473   0.37878   1.06841 
 C                     3.05072   0.95517   0.61813 
 C                     3.20158   2.00919  -0.49103 
 C                     1.88851   2.57349  -0.93395 
 C                     0.92169   3.50009  -0.16549 
 C                     0.5388    4.08968  -1.55771 
 O                    -0.08384   5.04715  -1.90599 
 C                     1.4623    3.10346  -2.26237 
 O                     1.05001   1.7993   -1.79106 
 H                     4.2606   -0.36931   1.85529 
 H                     4.91774  -0.10376   0.23546 
 H                     5.05152   1.16271   1.4618 
 H                     2.40102   0.15091   0.25387 
 H                     2.5348    1.40423   1.47623 
 H                     3.83968   2.82985  -0.13821 
 H                     3.70032   1.56486  -1.36018 
 H                     0.13695   2.99684   0.40224 
 H                     1.40108   4.26679   0.45119 
 H                     1.96904   3.15411  -3.21925 
 

 GradGradGradGradGradGradGradGradGradGradGradGradGradGradGradGradGradGrad
 Berny optimization.
 Initialization pass.
                           ----------------------------
                           !    Initial Parameters    !
                           ! (Angstroms and Degrees)  !
 --------------------------                            --------------------------
 ! Name  Definition              Value          Derivative Info.                !
 --------------------------------------------------------------------------------
 ! R1    R(1,2)                  1.5301         estimate D2E/DX2                !
 ! R2    R(1,10)                 1.094          estimate D2E/DX2                !
 ! R3    R(1,11)                 1.0955         estimate D2E/DX2                !
 ! R4    R(1,12)                 1.0958         estimate D2E/DX2                !
 ! R5    R(2,3)                  1.5375         estimate D2E/DX2                !
 ! R6    R(2,13)                 1.0962         estimate D2E/DX2                !
 ! R7    R(2,14)                 1.0973         estimate D2E/DX2                !
 ! R8    R(3,4)                  1.4963         estimate D2E/DX2                !
 ! R9    R(3,15)                 1.0978         estimate D2E/DX2                !
 ! R10   R(3,16)                 1.0962         estimate D2E/DX2                !
 ! R11   R(4,5)                  1.544          estimate D2E/DX2                !
 ! R12   R(4,8)                  1.4924         estimate D2E/DX2                !
 ! R13   R(4,9)                  1.4273         estimate D2E/DX2                !
 ! R14   R(5,6)                  1.5596         estimate D2E/DX2                !
 ! R15   R(5,17)                 1.0915         estimate D2E/DX2                !
 ! R16   R(5,18)                 1.0945         estimate D2E/DX2                !
 ! R17   R(6,7)                  1.194          estimate D2E/DX2                !
 ! R18   R(6,8)                  1.5238         estimate D2E/DX2                !
 ! R19   R(8,9)                  1.4467         estimate D2E/DX2                !
 ! R20   R(8,19)                 1.084          estimate D2E/DX2                !
 ! A1    A(2,1,10)             111.196          estimate D2E/DX2                !
 ! A2    A(2,1,11)             111.1932         estimate D2E/DX2                !
 ! A3    A(2,1,12)             111.2629         estimate D2E/DX2                !
 ! A4    A(10,1,11)            107.7101         estimate D2E/DX2                !
 ! A5    A(10,1,12)            107.7268         estimate D2E/DX2                !
 ! A6    A(11,1,12)            107.5732         estimate D2E/DX2                !
 ! A7    A(1,2,3)              112.6023         estimate D2E/DX2                !
 ! A8    A(1,2,13)             109.9995         estimate D2E/DX2                !
 ! A9    A(1,2,14)             109.6946         estimate D2E/DX2                !
 ! A10   A(3,2,13)             108.7476         estimate D2E/DX2                !
 ! A11   A(3,2,14)             109.2507         estimate D2E/DX2                !
 ! A12   A(13,2,14)            106.3462         estimate D2E/DX2                !
 ! A13   A(2,3,4)              112.705          estimate D2E/DX2                !
 ! A14   A(2,3,15)             109.7342         estimate D2E/DX2                !
 ! A15   A(2,3,16)             109.801          estimate D2E/DX2                !
 ! A16   A(4,3,15)             108.863          estimate D2E/DX2                !
 ! A17   A(4,3,16)             108.508          estimate D2E/DX2                !
 ! A18   A(15,3,16)            107.061          estimate D2E/DX2                !
 ! A19   A(3,4,5)              128.9416         estimate D2E/DX2                !
 ! A20   A(3,4,8)              130.3949         estimate D2E/DX2                !
 ! A21   A(3,4,9)              119.259          estimate D2E/DX2                !
 ! A22   A(5,4,8)               92.928          estimate D2E/DX2                !
 ! A23   A(5,4,9)              104.8654         estimate D2E/DX2                !
 ! A24   A(4,5,6)               86.3481         estimate D2E/DX2                !
 ! A25   A(4,5,17)             115.618          estimate D2E/DX2                !
 ! A26   A(4,5,18)             115.2491         estimate D2E/DX2                !
 ! A27   A(6,5,17)             117.5224         estimate D2E/DX2                !
 ! A28   A(6,5,18)             110.2226         estimate D2E/DX2                !
 ! A29   A(17,5,18)            110.1706         estimate D2E/DX2                !
 ! A30   A(5,6,7)              133.7498         estimate D2E/DX2                !
 ! A31   A(5,6,8)               91.1085         estimate D2E/DX2                !
 ! A32   A(7,6,8)              134.4371         estimate D2E/DX2                !
 ! A33   A(4,8,6)               89.5011         estimate D2E/DX2                !
 ! A34   A(4,8,19)             131.9793         estimate D2E/DX2                !
 ! A35   A(6,8,9)              105.0742         estimate D2E/DX2                !
 ! A36   A(6,8,19)             131.398          estimate D2E/DX2                !
 ! A37   A(9,8,19)             117.5772         estimate D2E/DX2                !
 ! D1    D(10,1,2,3)          -179.8711         estimate D2E/DX2                !
 ! D2    D(10,1,2,13)          -58.4045         estimate D2E/DX2                !
 ! D3    D(10,1,2,14)           58.2358         estimate D2E/DX2                !
 ! D4    D(11,1,2,3)           -59.8509         estimate D2E/DX2                !
 ! D5    D(11,1,2,13)           61.6156         estimate D2E/DX2                !
 ! D6    D(11,1,2,14)          178.2559         estimate D2E/DX2                !
 ! D7    D(12,1,2,3)            60.0409         estimate D2E/DX2                !
 ! D8    D(12,1,2,13)         -178.4926         estimate D2E/DX2                !
 ! D9    D(12,1,2,14)          -61.8523         estimate D2E/DX2                !
 ! D10   D(1,2,3,4)            179.9486         estimate D2E/DX2                !
 ! D11   D(1,2,3,15)           -58.5561         estimate D2E/DX2                !
 ! D12   D(1,2,3,16)            58.8594         estimate D2E/DX2                !
 ! D13   D(13,2,3,4)            57.7726         estimate D2E/DX2                !
 ! D14   D(13,2,3,15)          179.2679         estimate D2E/DX2                !
 ! D15   D(13,2,3,16)          -63.3166         estimate D2E/DX2                !
 ! D16   D(14,2,3,4)           -57.9073         estimate D2E/DX2                !
 ! D17   D(14,2,3,15)           63.588          estimate D2E/DX2                !
 ! D18   D(14,2,3,16)         -178.9965         estimate D2E/DX2                !
 ! D19   D(2,3,4,5)             69.4659         estimate D2E/DX2                !
 ! D20   D(2,3,4,8)           -149.833          estimate D2E/DX2                !
 ! D21   D(2,3,4,9)            -76.7154         estimate D2E/DX2                !
 ! D22   D(15,3,4,5)           -52.5226         estimate D2E/DX2                !
 ! D23   D(15,3,4,8)            88.1786         estimate D2E/DX2                !
 ! D24   D(15,3,4,9)           161.2961         estimate D2E/DX2                !
 ! D25   D(16,3,4,5)          -168.7107         estimate D2E/DX2                !
 ! D26   D(16,3,4,8)           -28.0095         estimate D2E/DX2                !
 ! D27   D(16,3,4,9)            45.108          estimate D2E/DX2                !
 ! D28   D(3,4,5,6)            148.5653         estimate D2E/DX2                !
 ! D29   D(3,4,5,17)           -92.559          estimate D2E/DX2                !
 ! D30   D(3,4,5,18)            37.903          estimate D2E/DX2                !
 ! D31   D(8,4,5,6)             -2.5532         estimate D2E/DX2                !
 ! D32   D(8,4,5,17)           116.3225         estimate D2E/DX2                !
 ! D33   D(8,4,5,18)          -113.2155         estimate D2E/DX2                !
 ! D34   D(9,4,5,6)            -61.5918         estimate D2E/DX2                !
 ! D35   D(9,4,5,17)            57.2839         estimate D2E/DX2                !
 ! D36   D(9,4,5,18)          -172.2541         estimate D2E/DX2                !
 ! D37   D(3,4,8,6)           -147.8363         estimate D2E/DX2                !
 ! D38   D(3,4,8,19)             4.0188         estimate D2E/DX2                !
 ! D39   D(5,4,8,6)              2.6081         estimate D2E/DX2                !
 ! D40   D(5,4,8,19)           154.4632         estimate D2E/DX2                !
 ! D41   D(4,5,6,7)           -168.5856         estimate D2E/DX2                !
 ! D42   D(4,5,6,8)              2.4977         estimate D2E/DX2                !
 ! D43   D(17,5,6,7)            74.3314         estimate D2E/DX2                !
 ! D44   D(17,5,6,8)          -114.5853         estimate D2E/DX2                !
 ! D45   D(18,5,6,7)           -52.9917         estimate D2E/DX2                !
 ! D46   D(18,5,6,8)           118.0917         estimate D2E/DX2                !
 ! D47   D(5,6,8,4)             -2.579          estimate D2E/DX2                !
 ! D48   D(5,6,8,9)             54.0583         estimate D2E/DX2                !
 ! D49   D(5,6,8,19)          -154.7094         estimate D2E/DX2                !
 ! D50   D(7,6,8,4)            168.3993         estimate D2E/DX2                !
 ! D51   D(7,6,8,9)           -134.9634         estimate D2E/DX2                !
 ! D52   D(7,6,8,19)            16.2688         estimate D2E/DX2                !
 --------------------------------------------------------------------------------
 Trust Radius=3.00D-01 FncErr=1.00D-07 GrdErr=1.00D-06
 Number of steps in this run=    114 maximum allowed number of steps=    114.
 GradGradGradGradGradGradGradGradGradGradGradGradGradGradGradGradGradGrad

                          Input orientation:                          
 ---------------------------------------------------------------------
 Center     Atomic      Atomic             Coordinates (Angstroms)
 Number     Number       Type             X           Y           Z
 ---------------------------------------------------------------------
      1          6           0        4.394727    0.378785    1.068406
      2          6           0        3.050719    0.955165    0.618135
      3          6           0        3.201579    2.009190   -0.491028
      4          6           0        1.888505    2.573488   -0.933953
      5          6           0        0.921685    3.500092   -0.165490
      6          6           0        0.538799    4.089677   -1.557715
      7          8           0       -0.083842    5.047154   -1.905988
      8          6           0        1.462301    3.103458   -2.262366
      9          8           0        1.050012    1.799302   -1.791056
     10          1           0        4.260603   -0.369313    1.855286
     11          1           0        4.917740   -0.103760    0.235460
     12          1           0        5.051523    1.162708    1.461799
     13          1           0        2.401020    0.150911    0.253872
     14          1           0        2.534795    1.404233    1.476231
     15          1           0        3.839682    2.829848   -0.138207
     16          1           0        3.700315    1.564856   -1.360181
     17          1           0        0.136954    2.996838    0.402238
     18          1           0        1.401080    4.266791    0.451185
     19          1           0        1.969042    3.154113   -3.219254
 ---------------------------------------------------------------------
                    Distance matrix (angstroms):
                    1          2          3          4          5
     1  C    0.000000
     2  C    1.530137   0.000000
     3  C    2.552187   1.537520   0.000000
     4  C    3.886813   2.525606   1.496255   0.000000
     5  C    4.829812   3.409326   2.743479   1.543979   0.000000
     6  C    5.961159   4.568285   3.543536   2.123585   1.559648
     7  O    7.120273   5.739429   4.693115   3.309687   2.536498
     8  C    5.207400   3.928806   2.712960   1.492380   2.201470
     9  O    4.624015   3.243392   2.522571   1.427256   2.356187
    10  H    1.093992   2.179129   3.504853   4.697529   5.495835
    11  H    1.095533   2.180260   2.817366   4.208497   5.396014
    12  H    1.095753   2.181298   2.819992   4.211248   5.016671
    13  H    2.165701   1.096184   2.156146   2.746357   3.685282
    14  H    2.162687   1.097346   2.163488   2.755691   3.112876
    15  H    2.787777   2.170012   1.097788   2.122739   2.994107
    16  H    2.790521   2.169661   1.096174   2.116994   3.590711
    17  H    5.042481   3.564416   3.341451   2.243337   1.091504
    18  H    4.945653   3.703518   3.037487   2.241309   1.094502
    19  H    5.654240   4.553125   3.205185   2.359282   3.246864
                    6          7          8          9         10
     6  C    0.000000
     7  O    1.194043   0.000000
     8  C    1.523817   2.509087   0.000000
     9  O    2.358305   3.442002   1.446699   0.000000
    10  H    6.736690   7.896803   6.070065   5.320394   0.000000
    11  H    6.322620   7.492232   5.335302   4.763164   1.768102
    12  H    6.168410   7.266559   5.524349   5.195999   1.768467
    13  H    4.718431   5.900231   3.991262   2.953666   2.508626
    14  H    4.516684   5.618500   4.244375   3.610516   2.503509
    15  H    3.807624   4.841027   3.199821   3.402380   3.792864
    16  H    4.050793   5.171475   2.861808   2.695315   3.793963
    17  H    2.279735   3.095231   2.977923   2.660509   5.517861
    18  H    2.193303   2.893134   2.953041   3.352520   5.625107
    19  H    2.383608   3.085872   1.083968   2.172528   6.589137
                   11         12         13         14         15
    11  H    0.000000
    12  H    1.767978   0.000000
    13  H    2.529640   3.083502   0.000000
    14  H    3.080907   2.528332   1.755812   0.000000
    15  H    3.147681   2.609201   3.065970   2.518237   0.000000
    16  H    2.610071   3.154529   2.508500   3.070744   1.764326
    17  H    5.700653   5.351606   3.639685   3.072376   3.745685
    18  H    5.613836   4.897183   4.240198   3.245037   2.891188
    19  H    5.589598   5.948078   4.611770   5.042790   3.619018
                   16         17         18         19
    16  H    0.000000
    17  H    4.225427   0.000000
    18  H    3.983463   1.792537   0.000000
    19  H    2.996531   4.061586   3.877209   0.000000
 Stoichiometry    C7H10O2
 Framework group  C1[X(C7H10O2)]
 Deg. of freedom    51
 Full point group                 C1      NOp   1
 Largest Abelian subgroup         C1      NOp   1
 Largest concise Abelian subgroup C1      NOp   1
                         Standard orientation:                         
 ---------------------------------------------------------------------
 Center     Atomic      Atomic             Coordinates (Angstroms)
 Number     Number       Type             X           Y           Z
 ---------------------------------------------------------------------
      1          6           0       -3.729841   -0.206778   -0.181909
      2          6           0       -2.313765   -0.267007    0.394649
      3          6           0       -1.245979    0.192459   -0.611677
      4          6           0        0.139605    0.135639   -0.049801
      5          6           0        0.990863   -1.101155    0.310159
      6          6           0        2.230276   -0.235989   -0.074344
      7          8           0        3.384752   -0.481609   -0.254888
      8          6           0        1.340145    0.969581   -0.350541
      9          8           0        0.566288    1.150712    0.858290
     10          1           0       -4.470436   -0.535931    0.552935
     11          1           0       -3.991179    0.813166   -0.484579
     12          1           0       -3.827226   -0.848964   -1.064399
     13          1           0       -2.246778    0.360880    1.290690
     14          1           0       -2.089331   -1.291376    0.717861
     15          1           0       -1.290141   -0.435027   -1.511371
     16          1           0       -1.451589    1.221921   -0.927159
     17          1           0        0.914728   -1.441702    1.344380
     18          1           0        0.894562   -1.949550   -0.374594
     19          1           0        1.481242    1.833253   -0.990189
 ---------------------------------------------------------------------
 Rotational constants (GHZ):      5.0461298      0.8028630      0.7590478
 Standard basis: 6-31G(2df,p) (6D, 7F)
 There are   329 symmetry adapted cartesian basis functions of A   symmetry.
 There are   302 symmetry adapted basis functions of A   symmetry.
   302 basis functions,   466 primitive gaussians,   329 cartesian basis functions
    34 alpha electrons       34 beta electrons
       nuclear repulsion energy       440.9725131751 Hartrees.
 NAtoms=   19 NActive=   19 NUniq=   19 SFac= 1.00D+00 NAtFMM=   60 NAOKFM=F Big=F
 Integral buffers will be    131072 words long.
 Raffenetti 2 integral format.
 Two-electron integral symmetry is turned on.
 One-electron integrals computed using PRISM.
 NBasis=   302 RedAO= T EigKep=  3.39D-04  NBF=   302
 NBsUse=   302 1.00D-06 EigRej= -1.00D+00 NBFU=   302
 ExpMin= 1.61D-01 ExpMax= 5.48D+03 ExpMxC= 8.25D+02 IAcc=1 IRadAn=         1 AccDes= 0.00D+00
 Harris functional with IExCor=  402 and IRadAn=       1 diagonalized for initial guess.
 HarFok:  IExCor=  402 AccDes= 0.00D+00 IRadAn=         1 IDoV= 1 UseB2=F ITyADJ=14
 ICtDFT=  3500011 ScaDFX=  1.000000  1.000000  1.000000  1.000000
 FoFCou: FMM=F IPFlag=           0 FMFlag=      100000 FMFlg1=           0
         NFxFlg=           0 DoJE=T BraDBF=F KetDBF=T FulRan=T
         wScrn=  0.000000 ICntrl=     500 IOpCl=  0 I1Cent=   200000004 NGrid=           0
         NMat0=    1 NMatS0=      1 NMatT0=    0 NMatD0=    1 NMtDS0=    0 NMtDT0=    0
 Petite list used in FoFCou.
 Requested convergence on RMS density matrix=1.00D-08 within 128 cycles.
 Requested convergence on MAX density matrix=1.00D-06.
 Requested convergence on             energy=1.00D-06.
 No special actions if energy rises.
 Integral accuracy reduced to 1.0D-05 until final iterations.
 Initial convergence to 1.0D-05 achieved.  Increase integral accuracy.
 SCF Done:  E(RB3LYP) =  -423.168057976     A.U. after   14 cycles
            NFock= 14  Conv=0.55D-08     -V/T= 2.0075

 **********************************************************************

            Population analysis using the SCF density.

 **********************************************************************

 Orbital symmetries:
       Occupied  (A) (A) (A) (A) (A) (A) (A) (A) (A) (A) (A) (A)
                 (A) (A) (A) (A) (A) (A) (A) (A) (A) (A) (A) (A)
                 (A) (A) (A) (A) (A) (A) (A) (A) (A) (A)
       Virtual   (A) (A) (A) (A) (A) (A) (A) (A) (A) (A) (A) (A)
                 (A) (A) (A) (A) (A) (A) (A) (A) (A) (A) (A) (A)
                 (A) (A) (A) (A) (A) (A) (A) (A) (A) (A) (A) (A)
                 (A) (A) (A) (A) (A) (A) (A) (A) (A) (A) (A) (A)
                 (A) (A) (A) (A) (A) (A) (A) (A) (A) (A) (A) (A)
                 (A) (A) (A) (A) (A) (A) (A) (A) (A) (A) (A) (A)
                 (A) (A) (A) (A) (A) (A) (A) (A) (A) (A) (A) (A)
                 (A) (A) (A) (A) (A) (A) (A) (A) (A) (A) (A) (A)
                 (A) (A) (A) (A) (A) (A) (A) (A) (A) (A) (A) (A)
                 (A) (A) (A) (A) (A) (A) (A) (A) (A) (A) (A) (A)
                 (A) (A) (A) (A) (A) (A) (A) (A) (A) (A) (A) (A)
                 (A) (A) (A) (A) (A) (A) (A) (A) (A) (A) (A) (A)
                 (A) (A) (A) (A) (A) (A) (A) (A) (A) (A) (A) (A)
                 (A) (A) (A) (A) (A) (A) (A) (A) (A) (A) (A) (A)
                 (A) (A) (A) (A) (A) (A) (A) (A) (A) (A) (A) (A)
                 (A) (A) (A) (A) (A) (A) (A) (A) (A) (A) (A) (A)
                 (A) (A) (A) (A) (A) (A) (A) (A) (A) (A) (A) (A)
                 (A) (A) (A) (A) (A) (A) (A) (A) (A) (A) (A) (A)
                 (A) (A) (A) (A) (A) (A) (A) (A) (A) (A) (A) (A)
                 (A) (A) (A) (A) (A) (A) (A) (A) (A) (A) (A) (A)
                 (A) (A) (A) (A) (A) (A) (A) (A) (A) (A) (A) (A)
                 (A) (A) (A) (A) (A) (A) (A) (A) (A) (A) (A) (A)
                 (A) (A) (A) (A)
 The electronic state is 1-A.
 Alpha  occ. eigenvalues --  -19.17044 -19.14454 -10.28049 -10.26102 -10.24762
 Alpha  occ. eigenvalues --  -10.20240 -10.20183 -10.19355 -10.18311  -1.09645
 Alpha  occ. eigenvalues --   -1.05191  -0.81319  -0.79456  -0.71923  -0.67408
 Alpha  occ. eigenvalues --   -0.61476  -0.57155  -0.55080  -0.48990  -0.48808
 Alpha  occ. eigenvalues --   -0.47066  -0.45481  -0.43169  -0.42258  -0.41579
 Alpha  occ. eigenvalues --   -0.40207  -0.37752  -0.36714  -0.36184  -0.35228
 Alpha  occ. eigenvalues --   -0.34067  -0.31542  -0.28243  -0.24221
 Alpha virt. eigenvalues --   -0.02574   0.07089   0.09140   0.10908   0.11730
 Alpha virt. eigenvalues --    0.12840   0.13169   0.13748   0.14414   0.16157
 Alpha virt. eigenvalues --    0.16370   0.17017   0.18063   0.18651   0.22366
 Alpha virt. eigenvalues --    0.23501   0.24147   0.25573   0.27708   0.29294
 Alpha virt. eigenvalues --    0.34710   0.42157   0.43527   0.45024   0.46133
 Alpha virt. eigenvalues --    0.48058   0.49179   0.49655   0.50978   0.52326
 Alpha virt. eigenvalues --    0.53030   0.54953   0.57278   0.58266   0.58773
 Alpha virt. eigenvalues --    0.62109   0.63133   0.64644   0.67431   0.68312
 Alpha virt. eigenvalues --    0.70504   0.71766   0.72253   0.72593   0.73746
 Alpha virt. eigenvalues --    0.74321   0.75165   0.75830   0.76908   0.78013
 Alpha virt. eigenvalues --    0.79981   0.81080   0.81706   0.83000   0.85782
 Alpha virt. eigenvalues --    0.87965   0.90264   0.91597   0.94524   0.94848
 Alpha virt. eigenvalues --    0.96131   0.98487   1.00007   1.03243   1.06492
 Alpha virt. eigenvalues --    1.07337   1.09466   1.11772   1.13635   1.18164
 Alpha virt. eigenvalues --    1.18776   1.21739   1.25080   1.27658   1.28596
 Alpha virt. eigenvalues --    1.30021   1.31228   1.32694   1.34964   1.37691
 Alpha virt. eigenvalues --    1.37925   1.42225   1.45930   1.46873   1.48310
 Alpha virt. eigenvalues --    1.48575   1.50819   1.52631   1.55479   1.56583
 Alpha virt. eigenvalues --    1.57307   1.59533   1.60828   1.65274   1.66574
 Alpha virt. eigenvalues --    1.69251   1.72083   1.73620   1.75037   1.77061
 Alpha virt. eigenvalues --    1.80397   1.82022   1.87222   1.88096   1.89940
 Alpha virt. eigenvalues --    1.92402   1.94742   1.95963   2.01856   2.06800
 Alpha virt. eigenvalues --    2.12094   2.14568   2.17202   2.18811   2.21714
 Alpha virt. eigenvalues --    2.24410   2.30704   2.32773   2.36870   2.37708
 Alpha virt. eigenvalues --    2.39799   2.43013   2.48995   2.53709   2.56664
 Alpha virt. eigenvalues --    2.57591   2.65120   2.66315   2.69812   2.72767
 Alpha virt. eigenvalues --    2.73428   2.76012   2.76727   2.80149   2.81461
 Alpha virt. eigenvalues --    2.83675   2.85647   2.87236   2.87397   2.89751
 Alpha virt. eigenvalues --    2.90467   2.92452   2.94023   2.95546   2.99904
 Alpha virt. eigenvalues --    3.00561   3.05385   3.06682   3.08456   3.11389
 Alpha virt. eigenvalues --    3.12681   3.13887   3.17028   3.19584   3.23115
 Alpha virt. eigenvalues --    3.23471   3.28685   3.30645   3.32933   3.35178
 Alpha virt. eigenvalues --    3.38207   3.41864   3.44489   3.45204   3.46263
 Alpha virt. eigenvalues --    3.50329   3.53082   3.56301   3.59202   3.60647
 Alpha virt. eigenvalues --    3.66281   3.67847   3.71848   3.73897   3.75112
 Alpha virt. eigenvalues --    3.77993   3.80121   3.83265   3.86788   3.89645
 Alpha virt. eigenvalues --    3.90351   3.96750   3.97084   4.04251   4.05149
 Alpha virt. eigenvalues --    4.07246   4.12431   4.15438   4.20541   4.22019
 Alpha virt. eigenvalues --    4.23511   4.28173   4.32371   4.33461   4.36648
 Alpha virt. eigenvalues --    4.38649   4.40949   4.42162   4.44097   4.46617
 Alpha virt. eigenvalues --    4.47707   4.49084   4.51474   4.52839   4.54641
 Alpha virt. eigenvalues --    4.56444   4.56954   4.57835   4.61528   4.62737
 Alpha virt. eigenvalues --    4.64049   4.66162   4.68692   4.69000   4.69526
 Alpha virt. eigenvalues --    4.72265   4.73983   4.76514   4.77926   4.80158
 Alpha virt. eigenvalues --    4.82203   4.84447   4.86610   4.88564   4.90045
 Alpha virt. eigenvalues --    4.92758   4.95124   4.98098   5.01827   5.04742
 Alpha virt. eigenvalues --    5.05316   5.09004   5.11259   5.14976   5.20900
 Alpha virt. eigenvalues --    5.23612   5.29097   5.34598   5.35792   5.38959
 Alpha virt. eigenvalues --    5.42814   5.43414   5.55572   5.57870   5.59872
 Alpha virt. eigenvalues --    5.64977   5.75062   5.83932   5.91577   5.97495
 Alpha virt. eigenvalues --    6.03869   6.04377   6.12960   6.19040   6.30570
 Alpha virt. eigenvalues --    6.40415   6.73384   6.89205   7.00993  10.58227
 Alpha virt. eigenvalues --   11.15894  11.58856  11.64978  11.95015  12.33255
 Alpha virt. eigenvalues --   12.54043  13.16315  13.37871
          Condensed to atoms (all electrons):
               1          2          3          4          5          6
     1  C    4.957394   0.399346  -0.031636   0.000002   0.000021  -0.000002
     2  C    0.399346   4.788946   0.402342  -0.022846  -0.004285  -0.000025
     3  C   -0.031636   0.402342   5.050048   0.411946  -0.068306   0.002009
     4  C    0.000002  -0.022846   0.411946   4.369880   0.343003  -0.017814
     5  C    0.000021  -0.004285  -0.068306   0.343003   5.439958   0.288604
     6  C   -0.000002  -0.000025   0.002009  -0.017814   0.288604   4.309960
     7  O    0.000000   0.000000  -0.000048  -0.000080  -0.054198   0.807374
     8  C   -0.000150   0.003886  -0.026045   0.281106  -0.204977   0.271133
     9  O    0.000093  -0.003057  -0.026627   0.258615  -0.010843  -0.034205
    10  H    0.376291  -0.019985   0.002998  -0.000119   0.000001   0.000000
    11  H    0.379367  -0.028307  -0.004157   0.000365   0.000005   0.000000
    12  H    0.378042  -0.028244  -0.004004   0.000322   0.000003   0.000000
    13  H   -0.034126   0.375817  -0.037199  -0.001328   0.000097  -0.000019
    14  H   -0.034561   0.371928  -0.037896  -0.001266   0.004093   0.000117
    15  H   -0.002724  -0.036377   0.342800  -0.014525  -0.001047   0.000319
    16  H   -0.002985  -0.033587   0.336231  -0.000871   0.005021   0.000266
    17  H   -0.000008   0.000662   0.002518  -0.003543   0.329012  -0.003838
    18  H   -0.000003   0.000058   0.000096  -0.012764   0.337807  -0.012985
    19  H    0.000000   0.000023  -0.002005  -0.025018   0.014087  -0.043308
               7          8          9         10         11         12
     1  C    0.000000  -0.000150   0.000093   0.376291   0.379367   0.378042
     2  C    0.000000   0.003886  -0.003057  -0.019985  -0.028307  -0.028244
     3  C   -0.000048  -0.026045  -0.026627   0.002998  -0.004157  -0.004004
     4  C   -0.000080   0.281106   0.258615  -0.000119   0.000365   0.000322
     5  C   -0.054198  -0.204977  -0.010843   0.000001   0.000005   0.000003
     6  C    0.807374   0.271133  -0.034205   0.000000   0.000000   0.000000
     7  O    7.594549  -0.051538   0.000109   0.000000   0.000000   0.000000
     8  C   -0.051538   5.321335   0.229295   0.000001   0.000000   0.000001
     9  O    0.000109   0.229295   7.879399   0.000000   0.000000  -0.000001
    10  H    0.000000   0.000001   0.000000   0.590905  -0.031648  -0.031903
    11  H    0.000000   0.000000   0.000000  -0.031648   0.593429  -0.033414
    12  H    0.000000   0.000001  -0.000001  -0.031903  -0.033414   0.597930
    13  H    0.000000   0.000185   0.003186  -0.002058  -0.003993   0.005160
    14  H    0.000000  -0.000032  -0.000117  -0.002282   0.005311  -0.004017
    15  H   -0.000006  -0.001424   0.002914  -0.000074  -0.000381   0.004536
    16  H    0.000000  -0.006202   0.000008  -0.000080   0.004480  -0.000342
    17  H    0.000774   0.002153  -0.001452   0.000000   0.000000   0.000000
    18  H   -0.000529   0.003416   0.003156   0.000000   0.000000   0.000001
    19  H    0.000937   0.368551  -0.022083   0.000000   0.000000   0.000000
              13         14         15         16         17         18
     1  C   -0.034126  -0.034561  -0.002724  -0.002985  -0.000008  -0.000003
     2  C    0.375817   0.371928  -0.036377  -0.033587   0.000662   0.000058
     3  C   -0.037199  -0.037896   0.342800   0.336231   0.002518   0.000096
     4  C   -0.001328  -0.001266  -0.014525  -0.000871  -0.003543  -0.012764
     5  C    0.000097   0.004093  -0.001047   0.005021   0.329012   0.337807
     6  C   -0.000019   0.000117   0.000319   0.000266  -0.003838  -0.012985
     7  O    0.000000   0.000000  -0.000006   0.000000   0.000774  -0.000529
     8  C    0.000185  -0.000032  -0.001424  -0.006202   0.002153   0.003416
     9  O    0.003186  -0.000117   0.002914   0.000008  -0.001452   0.003156
    10  H   -0.002058  -0.002282  -0.000074  -0.000080   0.000000   0.000000
    11  H   -0.003993   0.005311  -0.000381   0.004480   0.000000   0.000000
    12  H    0.005160  -0.004017   0.004536  -0.000342   0.000000   0.000001
    13  H    0.614313  -0.039187   0.006102  -0.004864   0.000146   0.000010
    14  H   -0.039187   0.633177  -0.004832   0.005942   0.000088   0.000136
    15  H    0.006102  -0.004832   0.632289  -0.035993  -0.000097   0.001155
    16  H   -0.004864   0.005942  -0.035993   0.618179  -0.000123  -0.000107
    17  H    0.000146   0.000088  -0.000097  -0.000123   0.570885  -0.031818
    18  H    0.000010   0.000136   0.001155  -0.000107  -0.031818   0.581116
    19  H   -0.000002  -0.000001   0.000029   0.000894  -0.000366  -0.000134
              19
     1  C    0.000000
     2  C    0.000023
     3  C   -0.002005
     4  C   -0.025018
     5  C    0.014087
     6  C   -0.043308
     7  O    0.000937
     8  C    0.368551
     9  O   -0.022083
    10  H    0.000000
    11  H    0.000000
    12  H    0.000000
    13  H   -0.000002
    14  H   -0.000001
    15  H    0.000029
    16  H    0.000894
    17  H   -0.000366
    18  H   -0.000134
    19  H    0.589392
 Mulliken charges:
               1
     1  C   -0.384362
     2  C   -0.166296
     3  C   -0.313063
     4  C    0.434937
     5  C   -0.418057
     6  C    0.432411
     7  O   -0.297344
     8  C   -0.190692
     9  O   -0.278389
    10  H    0.117952
    11  H    0.118944
    12  H    0.115930
    13  H    0.117761
    14  H    0.103400
    15  H    0.107335
    16  H    0.114132
    17  H    0.135006
    18  H    0.131390
    19  H    0.119004
 Sum of Mulliken charges =   0.00000
 Mulliken charges with hydrogens summed into heavy atoms:
               1
     1  C   -0.031535
     2  C    0.054865
     3  C   -0.091597
     4  C    0.434937
     5  C   -0.151660
     6  C    0.432411
     7  O   -0.297344
     8  C   -0.071688
     9  O   -0.278389
 Electronic spatial extent (au):  <R**2>=           1538.1504
 Charge=              0.0000 electrons
 Dipole moment (field-independent basis, Debye):
    X=             -3.1563    Y=             -0.3872    Z=             -1.1004  Tot=              3.3650
 Quadrupole moment (field-independent basis, Debye-Ang):
   XX=            -63.9080   YY=            -52.2180   ZZ=            -52.9969
   XY=              2.2365   XZ=              0.1012   YZ=             -2.5353
 Traceless Quadrupole moment (field-independent basis, Debye-Ang):
   XX=             -7.5337   YY=              4.1563   ZZ=              3.3774
   XY=              2.2365   XZ=              0.1012   YZ=             -2.5353
 Octapole moment (field-independent basis, Debye-Ang**2):
  XXX=            -39.0124  YYY=              2.8927  ZZZ=              1.8231  XYY=              5.0004
  XXY=             11.1824  XXZ=              6.4937  XZZ=              4.9227  YZZ=             -1.4275
  YYZ=             -3.6806  XYZ=             -2.5359
 Hexadecapole moment (field-independent basis, Debye-Ang**3):
 XXXX=          -1797.6149 YYYY=           -228.3171 ZZZZ=           -142.2045 XXXY=             30.7810
 XXXZ=              7.4251 YYYX=             -1.0107 YYYZ=             -1.9896 ZZZX=             -3.0651
 ZZZY=              2.3183 XXYY=           -304.4326 XXZZ=           -285.8581 YYZZ=            -60.1378
 XXYZ=             -3.0469 YYXZ=             -3.0518 ZZXY=             -0.9921
 N-N= 4.409725131751D+02 E-N=-1.868070901593D+03  KE= 4.200207487635D+02
 Calling FoFJK, ICntrl=      2127 FMM=F ISym2X=0 I1Cent= 0 IOpClX= 0 NMat=1 NMatS=1 NMatT=0.
 ***** Axes restored to original set *****
 -------------------------------------------------------------------
 Center     Atomic                   Forces (Hartrees/Bohr)
 Number     Number              X              Y              Z
 -------------------------------------------------------------------
      1        6           0.000019073   -0.000010442    0.000008676
      2        6          -0.000021846    0.000032185   -0.000022560
      3        6           0.000017694   -0.000047754    0.000054180
      4        6           0.000038941    0.000037747   -0.000036365
      5        6          -0.000001647   -0.000019601    0.000088638
      6        6          -0.000000786    0.000067719   -0.000081467
      7        8           0.000005463   -0.000019291    0.000009008
      8        6          -0.000032164   -0.000087634    0.000055469
      9        8          -0.000017190    0.000014422   -0.000051049
     10        1          -0.000000821    0.000003504    0.000003614
     11        1          -0.000000557    0.000001914    0.000002721
     12        1          -0.000000751    0.000002214   -0.000002646
     13        1          -0.000000432   -0.000005760    0.000003450
     14        1           0.000000138    0.000003196    0.000007387
     15        1          -0.000008346    0.000016476   -0.000004241
     16        1           0.000004787   -0.000003195   -0.000009757
     17        1           0.000016571   -0.000009221   -0.000012937
     18        1          -0.000004486    0.000013039   -0.000017115
     19        1          -0.000013642    0.000010483    0.000004994
 -------------------------------------------------------------------
 Cartesian Forces:  Max     0.000088638 RMS     0.000029377

 GradGradGradGradGradGradGradGradGradGradGradGradGradGradGradGradGradGrad
 Berny optimization.
 FormGI is forming the generalized inverse of G from B-inverse, IUseBI=4.
 Internal  Forces:  Max     0.000046183 RMS     0.000011369
 Search for a local minimum.
 Step number   1 out of a maximum of  114
 All quantities printed in internal units (Hartrees-Bohrs-Radians)
 Mixed Optimization -- En-DIIS/RFO-DIIS
 Second derivative matrix not updated -- first step.
 ITU=  0
     Eigenvalues ---    0.00270   0.00367   0.00385   0.00815   0.00819
     Eigenvalues ---    0.01793   0.02101   0.03490   0.03684   0.04718
     Eigenvalues ---    0.04794   0.04953   0.05311   0.05480   0.05489
     Eigenvalues ---    0.05972   0.07580   0.08315   0.08430   0.11198
     Eigenvalues ---    0.12194   0.12242   0.12952   0.16000   0.16000
     Eigenvalues ---    0.16000   0.20258   0.21897   0.21929   0.21957
     Eigenvalues ---    0.23622   0.24785   0.25437   0.27089   0.27722
     Eigenvalues ---    0.28740   0.29399   0.29411   0.32773   0.33928
     Eigenvalues ---    0.33977   0.34108   0.34109   0.34156   0.34181
     Eigenvalues ---    0.34298   0.34355   0.34639   0.35519   0.38399
     Eigenvalues ---    1.07874
 RFO step:  Lambda=-9.05161330D-08 EMin= 2.69632946D-03
 Linear search not attempted -- first point.
 Iteration  1 RMS(Cart)=  0.00016017 RMS(Int)=  0.00000002
 Iteration  2 RMS(Cart)=  0.00000003 RMS(Int)=  0.00000001
 Variable       Old X    -DE/DX   Delta X   Delta X   Delta X     New X
                                 (Linear)    (Quad)   (Total)
    R1        2.89154   0.00002   0.00000   0.00007   0.00007   2.89160
    R2        2.06735   0.00000   0.00000   0.00000   0.00000   2.06735
    R3        2.07026   0.00000   0.00000   0.00000   0.00000   2.07025
    R4        2.07067   0.00000   0.00000  -0.00001  -0.00001   2.07067
    R5        2.90549  -0.00002   0.00000  -0.00006  -0.00006   2.90543
    R6        2.07149   0.00000   0.00000   0.00001   0.00001   2.07150
    R7        2.07368   0.00001   0.00000   0.00002   0.00002   2.07370
    R8        2.82751   0.00002   0.00000   0.00007   0.00007   2.82758
    R9        2.07452   0.00001   0.00000   0.00002   0.00002   2.07454
   R10        2.07147   0.00001   0.00000   0.00003   0.00003   2.07150
   R11        2.91770   0.00001   0.00000   0.00004   0.00004   2.91773
   R12        2.82019  -0.00001   0.00000  -0.00004  -0.00004   2.82015
   R13        2.69712   0.00003   0.00000   0.00013   0.00013   2.69725
   R14        2.94731   0.00005   0.00000   0.00019   0.00019   2.94750
   R15        2.06264  -0.00001   0.00000  -0.00004  -0.00004   2.06261
   R16        2.06831   0.00000   0.00000  -0.00001  -0.00001   2.06830
   R17        2.25641  -0.00002   0.00000  -0.00002  -0.00002   2.25640
   R18        2.87960   0.00000   0.00000   0.00000   0.00000   2.87960
   R19        2.73386  -0.00003   0.00000  -0.00013  -0.00013   2.73373
   R20        2.04840  -0.00001   0.00000  -0.00003  -0.00003   2.04837
    A1        1.94074   0.00000   0.00000   0.00000   0.00000   1.94074
    A2        1.94069   0.00000   0.00000   0.00000   0.00000   1.94069
    A3        1.94190   0.00000   0.00000  -0.00002  -0.00002   1.94188
    A4        1.87990   0.00000   0.00000   0.00002   0.00002   1.87991
    A5        1.88019   0.00000   0.00000   0.00001   0.00001   1.88020
    A6        1.87751   0.00000   0.00000  -0.00001  -0.00001   1.87750
    A7        1.96528   0.00000   0.00000  -0.00001  -0.00001   1.96527
    A8        1.91985   0.00000   0.00000  -0.00004  -0.00004   1.91982
    A9        1.91453   0.00000   0.00000  -0.00002  -0.00002   1.91451
   A10        1.89800   0.00000   0.00000   0.00003   0.00003   1.89803
   A11        1.90679   0.00000   0.00000   0.00003   0.00003   1.90681
   A12        1.85609   0.00000   0.00000   0.00001   0.00001   1.85610
   A13        1.96707   0.00000   0.00000  -0.00003  -0.00003   1.96705
   A14        1.91522   0.00001   0.00000   0.00006   0.00006   1.91528
   A15        1.91639   0.00000   0.00000   0.00008   0.00008   1.91647
   A16        1.90002  -0.00001   0.00000  -0.00018  -0.00018   1.89984
   A17        1.89382   0.00000   0.00000   0.00004   0.00004   1.89386
   A18        1.86857   0.00000   0.00000   0.00003   0.00003   1.86860
   A19        2.25046  -0.00003   0.00000  -0.00012  -0.00012   2.25034
   A20        2.27582   0.00003   0.00000   0.00023   0.00023   2.27605
   A21        2.08146   0.00002   0.00000   0.00003   0.00003   2.08150
   A22        1.62190   0.00000   0.00000   0.00004   0.00004   1.62194
   A23        1.83025   0.00000   0.00000  -0.00008  -0.00008   1.83017
   A24        1.50706  -0.00001   0.00000  -0.00006  -0.00006   1.50700
   A25        2.01792  -0.00001   0.00000  -0.00015  -0.00015   2.01776
   A26        2.01148   0.00000   0.00000   0.00013   0.00013   2.01160
   A27        2.05115   0.00000   0.00000   0.00008   0.00008   2.05124
   A28        1.92375   0.00000   0.00000  -0.00015  -0.00015   1.92360
   A29        1.92284   0.00001   0.00000   0.00012   0.00012   1.92295
   A30        2.33437   0.00000   0.00000   0.00002   0.00002   2.33439
   A31        1.59014  -0.00001   0.00000  -0.00003  -0.00003   1.59012
   A32        2.34637   0.00002   0.00000   0.00008   0.00008   2.34646
   A33        1.56209   0.00002   0.00000   0.00002   0.00002   1.56211
   A34        2.30347   0.00001   0.00000   0.00005   0.00005   2.30352
   A35        1.83389   0.00002   0.00000   0.00016   0.00016   1.83405
   A36        2.29333  -0.00003   0.00000  -0.00016  -0.00016   2.29316
   A37        2.05211  -0.00001   0.00000   0.00002   0.00002   2.05213
    D1       -3.13934   0.00000   0.00000  -0.00005  -0.00005  -3.13940
    D2       -1.01935   0.00000   0.00000  -0.00005  -0.00005  -1.01940
    D3        1.01641   0.00000   0.00000  -0.00007  -0.00007   1.01634
    D4       -1.04460   0.00000   0.00000  -0.00003  -0.00003  -1.04463
    D5        1.07539   0.00000   0.00000  -0.00003  -0.00003   1.07537
    D6        3.11115   0.00000   0.00000  -0.00005  -0.00005   3.11111
    D7        1.04791   0.00000   0.00000  -0.00006  -0.00006   1.04785
    D8       -3.11528   0.00000   0.00000  -0.00005  -0.00005  -3.11533
    D9       -1.07953   0.00000   0.00000  -0.00007  -0.00007  -1.07960
   D10        3.14070   0.00000   0.00000   0.00010   0.00010   3.14080
   D11       -1.02200  -0.00001   0.00000  -0.00011  -0.00011  -1.02211
   D12        1.02729   0.00000   0.00000   0.00001   0.00001   1.02730
   D13        1.00832   0.00001   0.00000   0.00013   0.00013   1.00845
   D14        3.12882   0.00000   0.00000  -0.00008  -0.00008   3.12874
   D15       -1.10508   0.00000   0.00000   0.00004   0.00004  -1.10504
   D16       -1.01067   0.00000   0.00000   0.00009   0.00009  -1.01058
   D17        1.10982  -0.00001   0.00000  -0.00012  -0.00012   1.10970
   D18       -3.12408   0.00000   0.00000   0.00000   0.00000  -3.12408
   D19        1.21241   0.00000   0.00000  -0.00028  -0.00028   1.21213
   D20       -2.61508   0.00000   0.00000   0.00008   0.00008  -2.61499
   D21       -1.33894   0.00000   0.00000   0.00009   0.00009  -1.33885
   D22       -0.91669  -0.00001   0.00000  -0.00021  -0.00021  -0.91690
   D23        1.53901   0.00000   0.00000   0.00016   0.00016   1.53916
   D24        2.81515   0.00000   0.00000   0.00016   0.00016   2.81531
   D25       -2.94456   0.00000   0.00000  -0.00017  -0.00017  -2.94473
   D26       -0.48886   0.00000   0.00000   0.00019   0.00019  -0.48866
   D27        0.78728   0.00000   0.00000   0.00020   0.00020   0.78748
   D28        2.59295   0.00001   0.00000   0.00010   0.00010   2.59305
   D29       -1.61546   0.00001   0.00000   0.00014   0.00014  -1.61532
   D30        0.66153   0.00001   0.00000   0.00028   0.00028   0.66181
   D31       -0.04456  -0.00001   0.00000  -0.00025  -0.00025  -0.04481
   D32        2.03021  -0.00001   0.00000  -0.00022  -0.00022   2.02999
   D33       -1.97598   0.00000   0.00000  -0.00007  -0.00007  -1.97605
   D34       -1.07498   0.00001   0.00000  -0.00020  -0.00020  -1.07518
   D35        0.99979   0.00001   0.00000  -0.00016  -0.00016   0.99963
   D36       -3.00640   0.00002   0.00000  -0.00001  -0.00001  -3.00642
   D37       -2.58023   0.00002   0.00000   0.00006   0.00006  -2.58017
   D38        0.07014   0.00000   0.00000  -0.00017  -0.00017   0.06997
   D39        0.04552   0.00001   0.00000   0.00026   0.00026   0.04578
   D40        2.69589  -0.00001   0.00000   0.00003   0.00003   2.69592
   D41       -2.94237   0.00000   0.00000  -0.00025  -0.00025  -2.94262
   D42        0.04359   0.00001   0.00000   0.00024   0.00024   0.04384
   D43        1.29733   0.00001   0.00000  -0.00005  -0.00005   1.29727
   D44       -1.99989   0.00002   0.00000   0.00044   0.00044  -1.99945
   D45       -0.92488   0.00000   0.00000  -0.00015  -0.00015  -0.92503
   D46        2.06109   0.00001   0.00000   0.00034   0.00034   2.06143
   D47       -0.04501  -0.00001   0.00000  -0.00025  -0.00025  -0.04527
   D48        0.94350   0.00001   0.00000  -0.00018  -0.00018   0.94331
   D49       -2.70019  -0.00001   0.00000  -0.00013  -0.00013  -2.70032
   D50        2.93912   0.00000   0.00000   0.00023   0.00023   2.93935
   D51       -2.35556   0.00002   0.00000   0.00030   0.00030  -2.35525
   D52        0.28394   0.00000   0.00000   0.00036   0.00036   0.28430
         Item               Value     Threshold  Converged?
 Maximum Force            0.000046     0.000450     YES
 RMS     Force            0.000011     0.000300     YES
 Maximum Displacement     0.000661     0.001800     YES
 RMS     Displacement     0.000160     0.001200     YES
 Predicted change in Energy=-4.525841D-08
 Optimization completed.
    -- Stationary point found.
                           ----------------------------
                           !   Optimized Parameters   !
                           ! (Angstroms and Degrees)  !
 --------------------------                            --------------------------
 ! Name  Definition              Value          Derivative Info.                !
 --------------------------------------------------------------------------------
 ! R1    R(1,2)                  1.5301         -DE/DX =    0.0                 !
 ! R2    R(1,10)                 1.094          -DE/DX =    0.0                 !
 ! R3    R(1,11)                 1.0955         -DE/DX =    0.0                 !
 ! R4    R(1,12)                 1.0958         -DE/DX =    0.0                 !
 ! R5    R(2,3)                  1.5375         -DE/DX =    0.0                 !
 ! R6    R(2,13)                 1.0962         -DE/DX =    0.0                 !
 ! R7    R(2,14)                 1.0973         -DE/DX =    0.0                 !
 ! R8    R(3,4)                  1.4963         -DE/DX =    0.0                 !
 ! R9    R(3,15)                 1.0978         -DE/DX =    0.0                 !
 ! R10   R(3,16)                 1.0962         -DE/DX =    0.0                 !
 ! R11   R(4,5)                  1.544          -DE/DX =    0.0                 !
 ! R12   R(4,8)                  1.4924         -DE/DX =    0.0                 !
 ! R13   R(4,9)                  1.4273         -DE/DX =    0.0                 !
 ! R14   R(5,6)                  1.5596         -DE/DX =    0.0                 !
 ! R15   R(5,17)                 1.0915         -DE/DX =    0.0                 !
 ! R16   R(5,18)                 1.0945         -DE/DX =    0.0                 !
 ! R17   R(6,7)                  1.194          -DE/DX =    0.0                 !
 ! R18   R(6,8)                  1.5238         -DE/DX =    0.0                 !
 ! R19   R(8,9)                  1.4467         -DE/DX =    0.0                 !
 ! R20   R(8,19)                 1.084          -DE/DX =    0.0                 !
 ! A1    A(2,1,10)             111.196          -DE/DX =    0.0                 !
 ! A2    A(2,1,11)             111.1932         -DE/DX =    0.0                 !
 ! A3    A(2,1,12)             111.2629         -DE/DX =    0.0                 !
 ! A4    A(10,1,11)            107.7101         -DE/DX =    0.0                 !
 ! A5    A(10,1,12)            107.7268         -DE/DX =    0.0                 !
 ! A6    A(11,1,12)            107.5732         -DE/DX =    0.0                 !
 ! A7    A(1,2,3)              112.6023         -DE/DX =    0.0                 !
 ! A8    A(1,2,13)             109.9995         -DE/DX =    0.0                 !
 ! A9    A(1,2,14)             109.6946         -DE/DX =    0.0                 !
 ! A10   A(3,2,13)             108.7476         -DE/DX =    0.0                 !
 ! A11   A(3,2,14)             109.2507         -DE/DX =    0.0                 !
 ! A12   A(13,2,14)            106.3462         -DE/DX =    0.0                 !
 ! A13   A(2,3,4)              112.705          -DE/DX =    0.0                 !
 ! A14   A(2,3,15)             109.7342         -DE/DX =    0.0                 !
 ! A15   A(2,3,16)             109.801          -DE/DX =    0.0                 !
 ! A16   A(4,3,15)             108.863          -DE/DX =    0.0                 !
 ! A17   A(4,3,16)             108.508          -DE/DX =    0.0                 !
 ! A18   A(15,3,16)            107.061          -DE/DX =    0.0                 !
 ! A19   A(3,4,5)              128.9416         -DE/DX =    0.0                 !
 ! A20   A(3,4,8)              130.3949         -DE/DX =    0.0                 !
 ! A21   A(3,4,9)              119.259          -DE/DX =    0.0                 !
 ! A22   A(5,4,8)               92.928          -DE/DX =    0.0                 !
 ! A23   A(5,4,9)              104.8654         -DE/DX =    0.0                 !
 ! A24   A(4,5,6)               86.3481         -DE/DX =    0.0                 !
 ! A25   A(4,5,17)             115.618          -DE/DX =    0.0                 !
 ! A26   A(4,5,18)             115.2491         -DE/DX =    0.0                 !
 ! A27   A(6,5,17)             117.5224         -DE/DX =    0.0                 !
 ! A28   A(6,5,18)             110.2226         -DE/DX =    0.0                 !
 ! A29   A(17,5,18)            110.1706         -DE/DX =    0.0                 !
 ! A30   A(5,6,7)              133.7498         -DE/DX =    0.0                 !
 ! A31   A(5,6,8)               91.1085         -DE/DX =    0.0                 !
 ! A32   A(7,6,8)              134.4371         -DE/DX =    0.0                 !
 ! A33   A(4,8,6)               89.5011         -DE/DX =    0.0                 !
 ! A34   A(4,8,19)             131.9793         -DE/DX =    0.0                 !
 ! A35   A(6,8,9)              105.0742         -DE/DX =    0.0                 !
 ! A36   A(6,8,19)             131.398          -DE/DX =    0.0                 !
 ! A37   A(9,8,19)             117.5772         -DE/DX =    0.0                 !
 ! D1    D(10,1,2,3)          -179.8711         -DE/DX =    0.0                 !
 ! D2    D(10,1,2,13)          -58.4045         -DE/DX =    0.0                 !
 ! D3    D(10,1,2,14)           58.2358         -DE/DX =    0.0                 !
 ! D4    D(11,1,2,3)           -59.8509         -DE/DX =    0.0                 !
 ! D5    D(11,1,2,13)           61.6156         -DE/DX =    0.0                 !
 ! D6    D(11,1,2,14)          178.2559         -DE/DX =    0.0                 !
 ! D7    D(12,1,2,3)            60.0409         -DE/DX =    0.0                 !
 ! D8    D(12,1,2,13)         -178.4926         -DE/DX =    0.0                 !
 ! D9    D(12,1,2,14)          -61.8523         -DE/DX =    0.0                 !
 ! D10   D(1,2,3,4)            179.9486         -DE/DX =    0.0                 !
 ! D11   D(1,2,3,15)           -58.5561         -DE/DX =    0.0                 !
 ! D12   D(1,2,3,16)            58.8594         -DE/DX =    0.0                 !
 ! D13   D(13,2,3,4)            57.7726         -DE/DX =    0.0                 !
 ! D14   D(13,2,3,15)          179.2679         -DE/DX =    0.0                 !
 ! D15   D(13,2,3,16)          -63.3166         -DE/DX =    0.0                 !
 ! D16   D(14,2,3,4)           -57.9073         -DE/DX =    0.0                 !
 ! D17   D(14,2,3,15)           63.588          -DE/DX =    0.0                 !
 ! D18   D(14,2,3,16)         -178.9965         -DE/DX =    0.0                 !
 ! D19   D(2,3,4,5)             69.4659         -DE/DX =    0.0                 !
 ! D20   D(2,3,4,8)           -149.833          -DE/DX =    0.0                 !
 ! D21   D(2,3,4,9)            -76.7154         -DE/DX =    0.0                 !
 ! D22   D(15,3,4,5)           -52.5226         -DE/DX =    0.0                 !
 ! D23   D(15,3,4,8)            88.1786         -DE/DX =    0.0                 !
 ! D24   D(15,3,4,9)           161.2961         -DE/DX =    0.0                 !
 ! D25   D(16,3,4,5)          -168.7107         -DE/DX =    0.0                 !
 ! D26   D(16,3,4,8)           -28.0095         -DE/DX =    0.0                 !
 ! D27   D(16,3,4,9)            45.108          -DE/DX =    0.0                 !
 ! D28   D(3,4,5,6)            148.5653         -DE/DX =    0.0                 !
 ! D29   D(3,4,5,17)           -92.559          -DE/DX =    0.0                 !
 ! D30   D(3,4,5,18)            37.903          -DE/DX =    0.0                 !
 ! D31   D(8,4,5,6)             -2.5532         -DE/DX =    0.0                 !
 ! D32   D(8,4,5,17)           116.3225         -DE/DX =    0.0                 !
 ! D33   D(8,4,5,18)          -113.2155         -DE/DX =    0.0                 !
 ! D34   D(9,4,5,6)            -61.5918         -DE/DX =    0.0                 !
 ! D35   D(9,4,5,17)            57.2839         -DE/DX =    0.0                 !
 ! D36   D(9,4,5,18)          -172.2541         -DE/DX =    0.0                 !
 ! D37   D(3,4,8,6)           -147.8363         -DE/DX =    0.0                 !
 ! D38   D(3,4,8,19)             4.0188         -DE/DX =    0.0                 !
 ! D39   D(5,4,8,6)              2.6081         -DE/DX =    0.0                 !
 ! D40   D(5,4,8,19)           154.4632         -DE/DX =    0.0                 !
 ! D41   D(4,5,6,7)           -168.5856         -DE/DX =    0.0                 !
 ! D42   D(4,5,6,8)              2.4977         -DE/DX =    0.0                 !
 ! D43   D(17,5,6,7)            74.3314         -DE/DX =    0.0                 !
 ! D44   D(17,5,6,8)          -114.5853         -DE/DX =    0.0                 !
 ! D45   D(18,5,6,7)           -52.9917         -DE/DX =    0.0                 !
 ! D46   D(18,5,6,8)           118.0917         -DE/DX =    0.0                 !
 ! D47   D(5,6,8,4)             -2.579          -DE/DX =    0.0                 !
 ! D48   D(5,6,8,9)             54.0583         -DE/DX =    0.0                 !
 ! D49   D(5,6,8,19)          -154.7094         -DE/DX =    0.0                 !
 ! D50   D(7,6,8,4)            168.3993         -DE/DX =    0.0                 !
 ! D51   D(7,6,8,9)           -134.9634         -DE/DX =    0.0                 !
 ! D52   D(7,6,8,19)            16.2688         -DE/DX =    0.0                 !
 --------------------------------------------------------------------------------
 GradGradGradGradGradGradGradGradGradGradGradGradGradGradGradGradGradGrad

                          Input orientation:                          
 ---------------------------------------------------------------------
 Center     Atomic      Atomic             Coordinates (Angstroms)
 Number     Number       Type             X           Y           Z
 ---------------------------------------------------------------------
      1          6           0        4.394727    0.378785    1.068406
      2          6           0        3.050719    0.955165    0.618135
      3          6           0        3.201579    2.009190   -0.491028
      4          6           0        1.888505    2.573488   -0.933953
      5          6           0        0.921685    3.500092   -0.165490
      6          6           0        0.538799    4.089677   -1.557715
      7          8           0       -0.083842    5.047154   -1.905988
      8          6           0        1.462301    3.103458   -2.262366
      9          8           0        1.050012    1.799302   -1.791056
     10          1           0        4.260603   -0.369313    1.855286
     11          1           0        4.917740   -0.103760    0.235460
     12          1           0        5.051523    1.162708    1.461799
     13          1           0        2.401020    0.150911    0.253872
     14          1           0        2.534795    1.404233    1.476231
     15          1           0        3.839682    2.829848   -0.138207
     16          1           0        3.700315    1.564856   -1.360181
     17          1           0        0.136954    2.996838    0.402238
     18          1           0        1.401080    4.266791    0.451185
     19          1           0        1.969042    3.154113   -3.219254
 ---------------------------------------------------------------------
                    Distance matrix (angstroms):
                    1          2          3          4          5
     1  C    0.000000
     2  C    1.530137   0.000000
     3  C    2.552187   1.537520   0.000000
     4  C    3.886813   2.525606   1.496255   0.000000
     5  C    4.829812   3.409326   2.743479   1.543979   0.000000
     6  C    5.961159   4.568285   3.543536   2.123585   1.559648
     7  O    7.120273   5.739429   4.693115   3.309687   2.536498
     8  C    5.207400   3.928806   2.712960   1.492380   2.201470
     9  O    4.624015   3.243392   2.522571   1.427256   2.356187
    10  H    1.093992   2.179129   3.504853   4.697529   5.495835
    11  H    1.095533   2.180260   2.817366   4.208497   5.396014
    12  H    1.095753   2.181298   2.819992   4.211248   5.016671
    13  H    2.165701   1.096184   2.156146   2.746357   3.685282
    14  H    2.162687   1.097346   2.163488   2.755691   3.112876
    15  H    2.787777   2.170012   1.097788   2.122739   2.994107
    16  H    2.790521   2.169661   1.096174   2.116994   3.590711
    17  H    5.042481   3.564416   3.341451   2.243337   1.091504
    18  H    4.945653   3.703518   3.037487   2.241309   1.094502
    19  H    5.654240   4.553125   3.205185   2.359282   3.246864
                    6          7          8          9         10
     6  C    0.000000
     7  O    1.194043   0.000000
     8  C    1.523817   2.509087   0.000000
     9  O    2.358305   3.442002   1.446699   0.000000
    10  H    6.736690   7.896803   6.070065   5.320394   0.000000
    11  H    6.322620   7.492232   5.335302   4.763164   1.768102
    12  H    6.168410   7.266559   5.524349   5.195999   1.768467
    13  H    4.718431   5.900231   3.991262   2.953666   2.508626
    14  H    4.516684   5.618500   4.244375   3.610516   2.503509
    15  H    3.807624   4.841027   3.199821   3.402380   3.792864
    16  H    4.050793   5.171475   2.861808   2.695315   3.793963
    17  H    2.279735   3.095231   2.977923   2.660509   5.517861
    18  H    2.193303   2.893134   2.953041   3.352520   5.625107
    19  H    2.383608   3.085872   1.083968   2.172528   6.589137
                   11         12         13         14         15
    11  H    0.000000
    12  H    1.767978   0.000000
    13  H    2.529640   3.083502   0.000000
    14  H    3.080907   2.528332   1.755812   0.000000
    15  H    3.147681   2.609201   3.065970   2.518237   0.000000
    16  H    2.610071   3.154529   2.508500   3.070744   1.764326
    17  H    5.700653   5.351606   3.639685   3.072376   3.745685
    18  H    5.613836   4.897183   4.240198   3.245037   2.891188
    19  H    5.589598   5.948078   4.611770   5.042790   3.619018
                   16         17         18         19
    16  H    0.000000
    17  H    4.225427   0.000000
    18  H    3.983463   1.792537   0.000000
    19  H    2.996531   4.061586   3.877209   0.000000
 Stoichiometry    C7H10O2
 Framework group  C1[X(C7H10O2)]
 Deg. of freedom    51
 Full point group                 C1      NOp   1
 Largest Abelian subgroup         C1      NOp   1
 Largest concise Abelian subgroup C1      NOp   1
                         Standard orientation:                         
 ---------------------------------------------------------------------
 Center     Atomic      Atomic             Coordinates (Angstroms)
 Number     Number       Type             X           Y           Z
 ---------------------------------------------------------------------
      1          6           0       -3.729841   -0.206778   -0.181909
      2          6           0       -2.313765   -0.267007    0.394649
      3          6           0       -1.245979    0.192459   -0.611677
      4          6           0        0.139605    0.135639   -0.049801
      5          6           0        0.990863   -1.101155    0.310159
      6          6           0        2.230276   -0.235989   -0.074344
      7          8           0        3.384752   -0.481609   -0.254888
      8          6           0        1.340145    0.969581   -0.350541
      9          8           0        0.566288    1.150712    0.858290
     10          1           0       -4.470436   -0.535931    0.552935
     11          1           0       -3.991179    0.813166   -0.484579
     12          1           0       -3.827226   -0.848964   -1.064399
     13          1           0       -2.246778    0.360880    1.290690
     14          1           0       -2.089331   -1.291376    0.717861
     15          1           0       -1.290141   -0.435027   -1.511371
     16          1           0       -1.451589    1.221921   -0.927159
     17          1           0        0.914728   -1.441702    1.344380
     18          1           0        0.894562   -1.949550   -0.374594
     19          1           0        1.481242    1.833253   -0.990189
 ---------------------------------------------------------------------
 Rotational constants (GHZ):      5.0461298      0.8028630      0.7590478
 1\1\GINC-ALCHEMY-MO\FOpt\RB3LYP\6-31G(2df,p)\C7H10O2\PUCK\28-Jan-2020\
 0\\# b3lyp 6-31G(2df,p) opt Freq\\titel\\0,1\C,4.3947272374,0.37878461
 59,1.0684063759\C,3.0507187867,0.9551653947,0.6181347534\C,3.201578730
 1,2.0091895926,-0.4910276689\C,1.8885052099,2.5734882272,-0.9339528196
 \C,0.9216852057,3.5000917104,-0.1654901126\C,0.5387987743,4.0896769807
 ,-1.5577147034\O,-0.0838424465,5.0471539344,-1.905988178\C,1.462300619
 3,3.1034578643,-2.2623657629\O,1.050012295,1.7993020554,-1.7910558541\
 H,4.2606025358,-0.3693129954,1.8552859028\H,4.9177402745,-0.103760449,
 0.2354595903\H,5.0515230606,1.1627080116,1.4617985042\H,2.4010203003,0
 .1509114803,0.2538717509\H,2.5347953626,1.4042334286,1.4762312662\H,3.
 8396821467,2.8298476921,-0.1382071792\H,3.7003152678,1.5648562191,-1.3
 601805788\H,0.1369544906,2.9968381405,0.4022381551\H,1.4010797579,4.26
 67907401,0.451185086\H,1.9690417613,3.1541130663,-3.2192535073\\Versio
 n=ES64L-G09RevD.01\State=1-A\HF=-423.168058\RMSD=5.493e-09\RMSF=2.938e
 -05\Dipole=1.09765,-0.4486491,0.5887251\Quadrupole=-0.5567053,-2.77673
 45,3.3334398,3.2750286,-2.8336806,1.270789\PG=C01 [X(C7H10O2)]\\@


 A MAN IS EXACTLY AS GREAT AS THE TIDE SURGING
 BENEATH HIM.      - BISMARCK
 Job cpu time:       0 days  0 hours  6 minutes 56.3 seconds.
 File lengths (MBytes):  RWF=     52 Int=      0 D2E=      0 Chk=      7 Scr=      1
 Normal termination of Gaussian 09 at Tue Jan 28 14:09:01 2020.
 Link1:  Proceeding to internal job step number  2.
 ----------------------------------------------------------------------
 #N Geom=AllCheck Guess=TCheck SCRF=Check GenChk RB3LYP/6-31G(2df,p) Fr
 eq
 ----------------------------------------------------------------------
 1/10=4,29=7,30=1,38=1,40=1/1,3;
 2/12=2,40=1/2;
 3/5=1,6=6,7=104,11=2,14=-4,16=1,25=1,30=1,70=2,71=2,74=-5,116=1,140=1/1,2,3;
 4/5=101/1;
 5/5=2,98=1/2;
 8/6=4,10=90,11=11/1;
 11/6=1,8=1,9=11,15=111,16=1/1,2,10;
 10/6=1/2;
 6/7=2,8=2,9=2,10=2,18=1,28=1/1;
 7/8=1,10=1,25=1/1,2,3,16;
 1/10=4,30=1/3;
 99//99;
 Structure from the checkpoint file:  "/scratch/puck/g09_4c610d00-bf9f-4de5-8b34-0a4d9a993b89/Gau-3928.chk"
 -----
 titel
 -----
 Charge =  0 Multiplicity = 1
 Redundant internal coordinates found in file.
 C,0,4.3947272374,0.3787846159,1.0684063759
 C,0,3.0507187867,0.9551653947,0.6181347534
 C,0,3.2015787301,2.0091895926,-0.4910276689
 C,0,1.8885052099,2.5734882272,-0.9339528196
 C,0,0.9216852057,3.5000917104,-0.1654901126
 C,0,0.5387987743,4.0896769807,-1.5577147034
 O,0,-0.0838424465,5.0471539344,-1.905988178
 C,0,1.4623006193,3.1034578643,-2.2623657629
 O,0,1.050012295,1.7993020554,-1.7910558541
 H,0,4.2606025358,-0.3693129954,1.8552859028
 H,0,4.9177402745,-0.103760449,0.2354595903
 H,0,5.0515230606,1.1627080116,1.4617985042
 H,0,2.4010203003,0.1509114803,0.2538717509
 H,0,2.5347953626,1.4042334286,1.4762312662
 H,0,3.8396821467,2.8298476921,-0.1382071792
 H,0,3.7003152678,1.5648562191,-1.3601805788
 H,0,0.1369544906,2.9968381405,0.4022381551
 H,0,1.4010797579,4.2667907401,0.451185086
 H,0,1.9690417613,3.1541130663,-3.2192535073
 Recover connectivity data from disk.

 GradGradGradGradGradGradGradGradGradGradGradGradGradGradGradGradGradGrad
 Berny optimization.
 Initialization pass.
                           ----------------------------
                           !    Initial Parameters    !
                           ! (Angstroms and Degrees)  !
 --------------------------                            --------------------------
 ! Name  Definition              Value          Derivative Info.                !
 --------------------------------------------------------------------------------
 ! R1    R(1,2)                  1.5301         calculate D2E/DX2 analytically  !
 ! R2    R(1,10)                 1.094          calculate D2E/DX2 analytically  !
 ! R3    R(1,11)                 1.0955         calculate D2E/DX2 analytically  !
 ! R4    R(1,12)                 1.0958         calculate D2E/DX2 analytically  !
 ! R5    R(2,3)                  1.5375         calculate D2E/DX2 analytically  !
 ! R6    R(2,13)                 1.0962         calculate D2E/DX2 analytically  !
 ! R7    R(2,14)                 1.0973         calculate D2E/DX2 analytically  !
 ! R8    R(3,4)                  1.4963         calculate D2E/DX2 analytically  !
 ! R9    R(3,15)                 1.0978         calculate D2E/DX2 analytically  !
 ! R10   R(3,16)                 1.0962         calculate D2E/DX2 analytically  !
 ! R11   R(4,5)                  1.544          calculate D2E/DX2 analytically  !
 ! R12   R(4,8)                  1.4924         calculate D2E/DX2 analytically  !
 ! R13   R(4,9)                  1.4273         calculate D2E/DX2 analytically  !
 ! R14   R(5,6)                  1.5596         calculate D2E/DX2 analytically  !
 ! R15   R(5,17)                 1.0915         calculate D2E/DX2 analytically  !
 ! R16   R(5,18)                 1.0945         calculate D2E/DX2 analytically  !
 ! R17   R(6,7)                  1.194          calculate D2E/DX2 analytically  !
 ! R18   R(6,8)                  1.5238         calculate D2E/DX2 analytically  !
 ! R19   R(8,9)                  1.4467         calculate D2E/DX2 analytically  !
 ! R20   R(8,19)                 1.084          calculate D2E/DX2 analytically  !
 ! A1    A(2,1,10)             111.196          calculate D2E/DX2 analytically  !
 ! A2    A(2,1,11)             111.1932         calculate D2E/DX2 analytically  !
 ! A3    A(2,1,12)             111.2629         calculate D2E/DX2 analytically  !
 ! A4    A(10,1,11)            107.7101         calculate D2E/DX2 analytically  !
 ! A5    A(10,1,12)            107.7268         calculate D2E/DX2 analytically  !
 ! A6    A(11,1,12)            107.5732         calculate D2E/DX2 analytically  !
 ! A7    A(1,2,3)              112.6023         calculate D2E/DX2 analytically  !
 ! A8    A(1,2,13)             109.9995         calculate D2E/DX2 analytically  !
 ! A9    A(1,2,14)             109.6946         calculate D2E/DX2 analytically  !
 ! A10   A(3,2,13)             108.7476         calculate D2E/DX2 analytically  !
 ! A11   A(3,2,14)             109.2507         calculate D2E/DX2 analytically  !
 ! A12   A(13,2,14)            106.3462         calculate D2E/DX2 analytically  !
 ! A13   A(2,3,4)              112.705          calculate D2E/DX2 analytically  !
 ! A14   A(2,3,15)             109.7342         calculate D2E/DX2 analytically  !
 ! A15   A(2,3,16)             109.801          calculate D2E/DX2 analytically  !
 ! A16   A(4,3,15)             108.863          calculate D2E/DX2 analytically  !
 ! A17   A(4,3,16)             108.508          calculate D2E/DX2 analytically  !
 ! A18   A(15,3,16)            107.061          calculate D2E/DX2 analytically  !
 ! A19   A(3,4,5)              128.9416         calculate D2E/DX2 analytically  !
 ! A20   A(3,4,8)              130.3949         calculate D2E/DX2 analytically  !
 ! A21   A(3,4,9)              119.259          calculate D2E/DX2 analytically  !
 ! A22   A(5,4,8)               92.928          calculate D2E/DX2 analytically  !
 ! A23   A(5,4,9)              104.8654         calculate D2E/DX2 analytically  !
 ! A24   A(4,5,6)               86.3481         calculate D2E/DX2 analytically  !
 ! A25   A(4,5,17)             115.618          calculate D2E/DX2 analytically  !
 ! A26   A(4,5,18)             115.2491         calculate D2E/DX2 analytically  !
 ! A27   A(6,5,17)             117.5224         calculate D2E/DX2 analytically  !
 ! A28   A(6,5,18)             110.2226         calculate D2E/DX2 analytically  !
 ! A29   A(17,5,18)            110.1706         calculate D2E/DX2 analytically  !
 ! A30   A(5,6,7)              133.7498         calculate D2E/DX2 analytically  !
 ! A31   A(5,6,8)               91.1085         calculate D2E/DX2 analytically  !
 ! A32   A(7,6,8)              134.4371         calculate D2E/DX2 analytically  !
 ! A33   A(4,8,6)               89.5011         calculate D2E/DX2 analytically  !
 ! A34   A(4,8,19)             131.9793         calculate D2E/DX2 analytically  !
 ! A35   A(6,8,9)              105.0742         calculate D2E/DX2 analytically  !
 ! A36   A(6,8,19)             131.398          calculate D2E/DX2 analytically  !
 ! A37   A(9,8,19)             117.5772         calculate D2E/DX2 analytically  !
 ! D1    D(10,1,2,3)          -179.8711         calculate D2E/DX2 analytically  !
 ! D2    D(10,1,2,13)          -58.4045         calculate D2E/DX2 analytically  !
 ! D3    D(10,1,2,14)           58.2358         calculate D2E/DX2 analytically  !
 ! D4    D(11,1,2,3)           -59.8509         calculate D2E/DX2 analytically  !
 ! D5    D(11,1,2,13)           61.6156         calculate D2E/DX2 analytically  !
 ! D6    D(11,1,2,14)          178.2559         calculate D2E/DX2 analytically  !
 ! D7    D(12,1,2,3)            60.0409         calculate D2E/DX2 analytically  !
 ! D8    D(12,1,2,13)         -178.4926         calculate D2E/DX2 analytically  !
 ! D9    D(12,1,2,14)          -61.8523         calculate D2E/DX2 analytically  !
 ! D10   D(1,2,3,4)            179.9486         calculate D2E/DX2 analytically  !
 ! D11   D(1,2,3,15)           -58.5561         calculate D2E/DX2 analytically  !
 ! D12   D(1,2,3,16)            58.8594         calculate D2E/DX2 analytically  !
 ! D13   D(13,2,3,4)            57.7726         calculate D2E/DX2 analytically  !
 ! D14   D(13,2,3,15)          179.2679         calculate D2E/DX2 analytically  !
 ! D15   D(13,2,3,16)          -63.3166         calculate D2E/DX2 analytically  !
 ! D16   D(14,2,3,4)           -57.9073         calculate D2E/DX2 analytically  !
 ! D17   D(14,2,3,15)           63.588          calculate D2E/DX2 analytically  !
 ! D18   D(14,2,3,16)         -178.9965         calculate D2E/DX2 analytically  !
 ! D19   D(2,3,4,5)             69.4659         calculate D2E/DX2 analytically  !
 ! D20   D(2,3,4,8)           -149.833          calculate D2E/DX2 analytically  !
 ! D21   D(2,3,4,9)            -76.7154         calculate D2E/DX2 analytically  !
 ! D22   D(15,3,4,5)           -52.5226         calculate D2E/DX2 analytically  !
 ! D23   D(15,3,4,8)            88.1786         calculate D2E/DX2 analytically  !
 ! D24   D(15,3,4,9)           161.2961         calculate D2E/DX2 analytically  !
 ! D25   D(16,3,4,5)          -168.7107         calculate D2E/DX2 analytically  !
 ! D26   D(16,3,4,8)           -28.0095         calculate D2E/DX2 analytically  !
 ! D27   D(16,3,4,9)            45.108          calculate D2E/DX2 analytically  !
 ! D28   D(3,4,5,6)            148.5653         calculate D2E/DX2 analytically  !
 ! D29   D(3,4,5,17)           -92.559          calculate D2E/DX2 analytically  !
 ! D30   D(3,4,5,18)            37.903          calculate D2E/DX2 analytically  !
 ! D31   D(8,4,5,6)             -2.5532         calculate D2E/DX2 analytically  !
 ! D32   D(8,4,5,17)           116.3225         calculate D2E/DX2 analytically  !
 ! D33   D(8,4,5,18)          -113.2155         calculate D2E/DX2 analytically  !
 ! D34   D(9,4,5,6)            -61.5918         calculate D2E/DX2 analytically  !
 ! D35   D(9,4,5,17)            57.2839         calculate D2E/DX2 analytically  !
 ! D36   D(9,4,5,18)          -172.2541         calculate D2E/DX2 analytically  !
 ! D37   D(3,4,8,6)           -147.8363         calculate D2E/DX2 analytically  !
 ! D38   D(3,4,8,19)             4.0188         calculate D2E/DX2 analytically  !
 ! D39   D(5,4,8,6)              2.6081         calculate D2E/DX2 analytically  !
 ! D40   D(5,4,8,19)           154.4632         calculate D2E/DX2 analytically  !
 ! D41   D(4,5,6,7)           -168.5856         calculate D2E/DX2 analytically  !
 ! D42   D(4,5,6,8)              2.4977         calculate D2E/DX2 analytically  !
 ! D43   D(17,5,6,7)            74.3314         calculate D2E/DX2 analytically  !
 ! D44   D(17,5,6,8)          -114.5853         calculate D2E/DX2 analytically  !
 ! D45   D(18,5,6,7)           -52.9917         calculate D2E/DX2 analytically  !
 ! D46   D(18,5,6,8)           118.0917         calculate D2E/DX2 analytically  !
 ! D47   D(5,6,8,4)             -2.579          calculate D2E/DX2 analytically  !
 ! D48   D(5,6,8,9)             54.0583         calculate D2E/DX2 analytically  !
 ! D49   D(5,6,8,19)          -154.7094         calculate D2E/DX2 analytically  !
 ! D50   D(7,6,8,4)            168.3993         calculate D2E/DX2 analytically  !
 ! D51   D(7,6,8,9)           -134.9634         calculate D2E/DX2 analytically  !
 ! D52   D(7,6,8,19)            16.2688         calculate D2E/DX2 analytically  !
 --------------------------------------------------------------------------------
 Trust Radius=3.00D-01 FncErr=1.00D-07 GrdErr=1.00D-07
 Number of steps in this run=      2 maximum allowed number of steps=      2.
 GradGradGradGradGradGradGradGradGradGradGradGradGradGradGradGradGradGrad

                          Input orientation:                          
 ---------------------------------------------------------------------
 Center     Atomic      Atomic             Coordinates (Angstroms)
 Number     Number       Type             X           Y           Z
 ---------------------------------------------------------------------
      1          6           0        4.394727    0.378785    1.068406
      2          6           0        3.050719    0.955165    0.618135
      3          6           0        3.201579    2.009190   -0.491028
      4          6           0        1.888505    2.573488   -0.933953
      5          6           0        0.921685    3.500092   -0.165490
      6          6           0        0.538799    4.089677   -1.557715
      7          8           0       -0.083842    5.047154   -1.905988
      8          6           0        1.462301    3.103458   -2.262366
      9          8           0        1.050012    1.799302   -1.791056
     10          1           0        4.260603   -0.369313    1.855286
     11          1           0        4.917740   -0.103760    0.235460
     12          1           0        5.051523    1.162708    1.461799
     13          1           0        2.401020    0.150911    0.253872
[...]
 .00799423,-0.18636039,0.05930448,-0.02724511,0.54019050,-0.00148041,-0
 .00342189,0.00287107,0.02225007,-0.01146940,0.00940959,0.05611766,-0.0
 9414038,0.00851556,-0.14124286,0.36545821,0.00143349,0.00303415,-0.003
 90257,-0.02606517,0.01372811,-0.01188522,-0.03074872,0.01636287,-0.085
 55448,0.12479767,-0.01261303,0.47703165,0.00009086,-0.00005569,0.00000
 856,0.00046387,-0.00069061,0.00007904,-0.00745026,0.00887436,0.0146164
 9,-0.11866377,0.03030648,0.04239701,0.46516012,0.00010916,0.00016554,-
 0.00008748,-0.00053490,0.00026792,-0.00056041,0.00426178,-0.00148352,-
 0.00291462,0.03048530,-0.09163664,-0.02180684,0.11774772,0.45963779,-0
 .00003499,0.00017499,0.00024708,0.00001413,-0.00081609,0.00088391,-0.0
 0452395,0.00683152,0.00944450,0.03049112,-0.02499637,-0.08550047,-0.06
 896048,0.06321942,0.52886618,-0.00026062,-0.00002654,-0.00010389,0.000
 21367,-0.00007247,-0.00035040,-0.00017618,0.00465100,0.00255819,-0.052
 37894,0.05792897,-0.02732732,-0.06856900,-0.01228383,0.00901384,0.4792
 4294,0.00078529,0.00066713,-0.00052376,-0.00249568,-0.00032781,0.00050
 725,0.00415421,0.00044677,-0.00496584,0.03009940,-0.04474660,0.0265510
 9,-0.01019579,-0.07440765,0.00455202,-0.37230439,0.77239379,0.00032823
 ,0.00043015,-0.00095514,-0.00271684,0.00081654,0.00032696,0.00575991,0
 .00107206,-0.00889722,-0.02615741,0.02696973,0.01493443,-0.02262781,0.
 01336531,-0.11946427,0.08725676,-0.17551592,0.42101601,0.00015743,0.00
 007133,-0.00001570,-0.00031085,-0.00016576,0.00014468,0.00007970,-0.00
 066256,-0.00007431,0.00607982,-0.00093997,-0.00019584,0.00565756,0.017
 00945,-0.01874122,-0.27720769,0.32583511,-0.10247195,0.27178550,-0.000
 53119,-0.00044019,0.00037308,0.00172022,0.00040442,-0.00044301,-0.0027
 7561,-0.00211488,0.00077137,0.00745384,0.00077030,-0.00127047,0.015928
 05,-0.00926354,0.01854706,0.31975426,-0.55554633,0.17396593,-0.3749034
 8,0.59122019,0.00000051,-0.00002945,0.00023437,0.00058887,-0.00049616,
 0.00005135,-0.00153312,0.00060438,0.00348488,-0.00001582,-0.00230398,-
 0.00735444,-0.01385523,0.02880772,0.00063137,-0.10384587,0.17191449,-0
 .16600241,0.12365843,-0.19727464,0.13934856,0.00109453,0.00117517,-0.0
 0135051,-0.00600945,-0.00072898,0.00088150,0.00546726,0.01743551,-0.02
 331392,-0.05438691,0.02466090,-0.03215469,-0.00312242,0.00795283,0.022
 00221,-0.10149543,0.01344024,0.06123919,0.00196855,0.03292199,-0.00422
 077,0.31351917,-0.00069271,-0.00066334,0.00091770,0.00404812,0.0002653
 3,-0.00001036,-0.00634241,-0.00937910,0.00469853,0.05254052,-0.0136112
 5,0.08684088,0.01607599,0.01350114,-0.01201901,0.02286776,-0.07654868,
 -0.03999233,0.02603690,-0.02052944,-0.00083658,-0.06347083,0.32965025,
 0.00042786,0.00012405,0.00018666,-0.00074803,-0.00157861,0.00155518,-0
 .00042797,0.00074178,-0.00376986,-0.06164220,0.04342703,-0.19718049,0.
 03203018,-0.00562188,-0.07211598,0.03495107,-0.02540858,-0.11036112,-0
 .00025919,0.00338194,0.02313006,-0.18040302,-0.06833388,0.68710111,-0.
 00000504,0.00013241,0.00028034,0.00278821,-0.00139705,0.00170835,-0.02
 198151,-0.03110619,-0.01271732,-0.11690804,-0.03841281,-0.07257735,0.0
 1234134,0.00467849,-0.00259255,0.01341276,0.02456640,-0.00373769,-0.00
 473915,-0.00556662,0.00200631,-0.04393436,-0.05965970,0.05294819,0.163
 30958,0.00020633,0.00069570,-0.00013854,-0.00098180,0.00041713,-0.0000
 5291,0.00243194,0.00806508,0.00440278,-0.05382254,-0.10083825,-0.08570
 977,-0.00895817,-0.01376594,-0.01620960,-0.01720411,-0.03897314,0.0080
 6460,0.00604505,-0.00083514,-0.00451616,-0.03987484,-0.18036897,0.0559
 5192,0.11169248,0.32902757,-0.00006261,-0.00008546,0.00039437,0.002209
 53,-0.00127962,0.00099542,-0.01464193,-0.01321377,-0.00771904,-0.03904
 632,-0.04513041,-0.09116253,-0.02118161,-0.03671245,-0.02019640,-0.007
 43677,0.01138172,-0.00492422,-0.00158690,0.00056131,0.00320683,0.02980
 793,0.01715489,-0.04405289,0.03990799,0.03397568,0.16284125,-0.0512198
 5,-0.02565638,0.02688873,0.00442758,0.02145946,-0.02270984,-0.00590862
 ,0.00154354,-0.00073787,0.00089685,0.00115052,-0.00136380,0.00001823,-
 0.00006085,-0.00000552,0.00008391,-0.00040835,-0.00030236,-0.00008463,
 0.00029597,0.00003369,-0.00066142,0.00045840,-0.00005367,0.00010834,-0
 .00015549,0.00014402,0.05567297,-0.02459366,-0.16983084,0.12953313,-0.
 00231100,-0.00854215,0.00761611,0.00302795,0.00004146,-0.00015486,-0.0
 0066683,-0.00009400,0.00072501,0.00000297,0.00003052,0.00003630,-0.000
 10848,0.00027844,0.00012703,0.00009730,-0.00021356,0.00000936,0.000316
 18,-0.00017828,-0.00002792,0.00015850,-0.00000960,0.00005119,0.0253278
 2,0.18241376,0.02579648,0.12965854,-0.18362001,0.00175966,0.00502331,-
 0.00679198,-0.00244930,0.00010164,0.00051938,0.00055937,0.00059065,-0.
 00007620,-0.00008272,-0.00001931,-0.00012969,0.00005607,-0.00022108,-0
 .00003909,-0.00008239,0.00020229,-0.00004078,-0.00018481,0.00014470,0.
 00006460,-0.00005211,-0.00008374,0.00000504,-0.02713435,-0.14339795,0.
 19717002,-0.10254814,0.05222624,0.09234631,-0.01549262,0.01401671,0.02
 366838,0.00099585,-0.00102073,0.00122296,-0.00003974,-0.00029564,-0.00
 001611,0.00006708,-0.00001780,-0.00009564,0.00010206,-0.00011083,0.000
 15396,-0.00006469,0.00009497,-0.00007523,0.00000104,0.00006118,-0.0000
 9124,0.00002276,-0.00008789,-0.00003959,-0.00271313,0.00171302,0.00324
 585,0.11364144,0.05253830,-0.09751891,-0.08745748,0.00578801,-0.006321
 84,-0.00923906,-0.00017884,0.00030145,-0.00142343,0.00000507,0.0001904
 7,0.00024759,-0.00009381,-0.00001635,0.00002137,-0.00003856,0.00000949
 ,-0.00005980,0.00001687,-0.00000807,0.00002048,0.00001949,-0.00002614,
 0.00004552,-0.00007661,-0.00000070,-0.00000062,-0.01085983,0.01068462,
 0.01742924,-0.06070144,0.10252602,0.09324228,-0.08781309,-0.20153908,-
 0.00490790,0.00540055,0.00811505,-0.00028649,0.00005082,0.00133363,-0.
 00016376,-0.00002687,0.00030105,0.00002344,0.00002680,-0.00012066,-0.0
 0003954,0.00009676,0.00005681,0.00001790,-0.00005378,-0.00001266,0.000
 08959,-0.00006379,-0.00002865,0.00001649,-0.00000787,-0.00000376,0.009
 80676,-0.01105379,-0.01752307,-0.10153255,0.09632666,0.21703151,-0.135
 99600,-0.10996910,-0.05397794,-0.01925891,-0.02228393,-0.01134572,0.00
 102433,-0.00132038,0.00099123,-0.00011242,-0.00007630,0.00019336,-0.00
 001853,-0.00005136,-0.00001027,0.00009466,-0.00007054,-0.00004125,-0.0
 0005535,0.00009439,-0.00000429,-0.00004819,0.00008646,-0.00000820,0.00
 033345,0.00018677,0.00018349,-0.00303088,-0.00291922,-0.00130824,0.009
 43271,0.01161625,0.00499809,0.15086830,-0.11090422,-0.18425546,-0.0674
 8636,0.00821861,0.00983273,0.00559141,0.00035047,0.00141388,-0.0000999
 8,0.00014810,0.00029115,-0.00011152,-0.00001920,-0.00001055,-0.0000271
 9,0.00003032,-0.00010191,-0.00001248,-0.00002437,0.00007403,-0.0000130
 5,-0.00008164,0.00004034,-0.00000103,-0.00003270,-0.00011197,0.0000296
 2,-0.01195120,-0.01580586,-0.00889912,-0.00794413,-0.01041880,-0.00376
 286,0.12052520,0.19823306,-0.05407597,-0.06717439,-0.08085447,-0.00555
 362,-0.00674830,-0.00425823,-0.00005820,-0.00134346,0.00023495,-0.0000
 6020,0.00011709,0.00003278,0.00000470,-0.00001030,-0.00000801,0.000006
 00,0.00001229,0.00001755,-0.00000433,0.00000722,-0.00000537,-0.0000171
 1,0.00001961,-0.00002141,0.00024598,0.00010574,0.00010036,0.01442173,0
 .01722450,0.00925479,-0.01546208,-0.01833229,-0.00886118,0.06190927,0.
 07387244,0.08352320,-0.01888833,-0.02132237,-0.01103176,-0.13496235,-0
 .10978303,-0.04950423,-0.00229208,-0.00314708,-0.00075600,0.00020185,0
 .00040742,0.00006605,0.00005770,-0.00000581,0.00001317,-0.00008670,0.0
 0011399,0.00003868,0.00001890,-0.00005224,-0.00000687,0.00006135,-0.00
 004336,0.00003727,0.00028645,0.00025813,0.00016559,0.00125693,0.000172
 34,0.00006552,0.00109198,-0.00036595,0.00077588,-0.00478024,0.00289848
 ,-0.00170533,0.14852559,0.00898548,0.01038432,0.00516811,-0.10962480,-
 0.18650192,-0.06550628,-0.01278028,-0.01972866,-0.00630574,-0.00208804
 ,-0.00075186,-0.00161297,0.00011781,-0.00013123,0.00020481,0.00019926,
 0.00012630,-0.00023399,-0.00008777,0.00001821,0.00009062,-0.00018453,0
 .00011905,0.00005584,0.00138290,0.00126956,0.00048961,-0.00074208,0.00
 073974,-0.00031107,-0.00074952,0.00060129,-0.00012985,0.00329210,0.000
 02391,0.00113249,0.11972575,0.20496395,-0.00596859,-0.00686002,-0.0038
 8063,-0.05043349,-0.06683412,-0.07888596,0.01447290,0.02048097,0.00697
 115,0.00089649,-0.00001920,0.00159940,-0.00011687,-0.00000600,-0.00000
 436,-0.00002188,0.00002448,0.00016707,0.00006009,-0.00006637,-0.000046
 97,0.00029293,-0.00019016,-0.00012122,-0.00046752,-0.00058789,-0.00027
 135,0.00022774,-0.00020722,-0.00006217,0.00033383,0.00057378,0.0005898
 4,-0.00173349,0.00142347,0.00048595,0.05667207,0.06766106,0.08436852,-
 0.01564260,0.01381705,0.02320592,-0.10026915,0.04659358,0.09008094,-0.
 00212187,0.00109480,0.00324528,0.00032437,-0.00031492,-0.00061991,0.00
 014673,0.00005462,0.00017948,-0.00004485,0.00007680,-0.00009609,0.0000
 3556,-0.00010343,0.00005847,0.00013270,-0.00015842,0.00006977,-0.00010
 775,0.00010910,-0.00005266,0.00128966,-0.00023382,-0.00025189,-0.00499
 824,0.00231294,-0.00228522,0.00110223,-0.00087278,0.00037585,0.0089171
 8,-0.00752491,-0.01493436,0.11080365,0.00633248,-0.00605622,-0.0097701
 7,0.04707063,-0.09312762,-0.08398661,-0.01109668,0.00896232,0.02053009
 ,-0.00055264,0.00118461,-0.00043909,0.00037083,0.00009101,-0.00035670,
 0.00004785,-0.00016859,0.00008558,-0.00006604,0.00010389,-0.00005184,-
 0.00021949,0.00022997,-0.00014428,0.00015181,-0.00007932,0.00004196,-0
 .00038549,-0.00003193,-0.00012589,0.00247693,0.00010075,0.00150327,-0.
 00029092,0.00074435,0.00058826,0.01143702,-0.01026298,-0.01903007,-0.0
 5477847,0.10014127,-0.00569436,0.00492820,0.00853861,0.09047070,-0.083
 34596,-0.20246682,0.01056512,-0.00900959,-0.02140477,0.00157608,-0.001
 40145,0.00020542,-0.00040074,0.00009099,0.00053777,-0.00013927,0.00002
 751,-0.00078218,0.00010252,-0.00009743,0.00029756,-0.00038681,0.000048
 65,0.00033479,-0.00031838,0.00048730,-0.00006301,0.00064584,-0.0003544
 8,0.00072170,-0.00254399,0.00118891,0.00057590,0.00070673,-0.00009945,
 0.00048373,0.00491581,-0.00474715,-0.00891331,-0.09932124,0.08769305,0
 .22296756,0.00079970,0.00098993,0.00017244,-0.00276645,-0.00390814,-0.
 00063580,-0.13249249,-0.10611100,-0.04733658,-0.01647303,-0.02323515,-
 0.01079997,0.00086617,0.00003513,0.00062736,0.00077594,-0.00029934,-0.
 00108721,-0.00030532,0.00017569,0.00033549,0.00068219,-0.00046407,0.00
 003693,-0.00552191,0.00224006,-0.00205803,-0.00001158,0.00005988,0.000
 11421,0.00004097,0.00003511,0.00004655,0.00039041,-0.00029371,0.000014
 19,0.00067482,-0.00016087,0.00054833,-0.00008340,-0.00004620,-0.000061
 23,0.14454958,-0.00081288,0.00083172,-0.00130054,-0.01368254,-0.019436
 53,-0.00679613,-0.10714977,-0.18687286,-0.06480730,0.00657148,0.009330
 79,0.00378838,-0.00034714,-0.00005395,-0.00037427,-0.00019593,-0.00003
 141,-0.00011374,0.00004269,0.00011817,-0.00002398,-0.00113811,0.000735
 63,-0.00041128,0.00407649,0.00063574,0.00243758,0.00016637,0.00049509,
 0.00013072,0.00004656,-0.00006458,-0.00000051,0.00100900,0.00014676,0.
 00060403,-0.00018361,-0.00214954,0.00438421,0.00021867,0.00122563,0.00
 009333,0.11904797,0.20494133,0.00099650,-0.00050345,0.00121198,0.01437
 326,0.02044546,0.00700382,-0.04771325,-0.06412428,-0.07400497,-0.00477
 146,-0.00791751,-0.00560456,0.00008956,0.00015995,0.00020331,0.0002876
 2,-0.00020078,-0.00033387,-0.00022833,0.00019392,0.00004506,0.00055789
 ,-0.00077430,0.00031583,-0.00367125,0.00157929,0.00016778,0.00021596,-
 0.00029271,0.00002840,-0.00015699,-0.00005612,-0.00007394,-0.00046532,
 -0.00043731,-0.00004990,0.00035190,0.00408241,-0.00313280,0.00008351,-
 0.00081393,0.00121754,0.05517878,0.06617396,0.08103214,0.00063676,-0.0
 0031806,-0.00092795,-0.00218825,0.00110714,0.00388127,-0.09902404,0.04
 671208,0.08859479,-0.01779551,0.01593182,0.02490416,-0.00256086,-0.000
 21818,-0.00327876,-0.00073434,0.00072178,0.00218928,-0.00000367,0.0003
 1356,-0.00103760,0.00158217,0.00084341,-0.00010085,0.00302682,-0.00212
 285,0.00029029,-0.00005800,-0.00007634,-0.00002562,0.00035954,0.000038
 33,0.00017588,0.00003767,-0.00004721,-0.00005866,-0.00006984,0.0001992
 5,0.00012171,0.00058900,-0.00043588,0.00030947,0.00916648,-0.00770260,
 -0.01496921,0.10753110,-0.00099579,0.00124302,-0.00025765,-0.01035504,
 0.00884379,0.02025873,0.04788389,-0.09067505,-0.08488200,0.00675389,-0
 .00883132,-0.01081430,0.00174599,0.00094506,0.00148135,0.00047494,-0.0
 0010052,-0.00142444,0.00001663,-0.00030447,0.00062092,-0.00072409,0.00
 012291,-0.00067450,-0.00074918,0.00107080,0.00087439,-0.00021496,0.000
 04680,-0.00023507,0.00034617,-0.00008430,-0.00046133,0.00013220,-0.000
 08320,-0.00006782,-0.00006238,0.00113376,-0.00073530,-0.00033112,-0.00
 279476,0.00421018,0.01101071,-0.00985910,-0.01774881,-0.05526319,0.099
 41616,0.00075751,-0.00132049,0.00084987,0.01082940,-0.00900245,-0.0211
 8963,0.09111339,-0.08601541,-0.20762947,-0.00546607,0.00436749,0.00708
 982,-0.00228512,0.00067916,-0.00021953,-0.00005101,0.00018370,0.000721
 68,-0.00006150,0.00001041,-0.00029725,0.00012338,0.00012089,0.00110038
 ,0.00087222,0.00032383,0.00070648,-0.00010448,0.00017274,0.00050557,-0
 .00094317,0.00069517,0.00015974,-0.00006563,0.00002479,-0.00007045,-0.
 00011810,0.00003390,0.00121750,0.00034124,0.00426739,-0.00241223,0.004
 61206,-0.00395017,-0.00818560,-0.09964139,0.08928681,0.22763941,0.0000
 7030,0.00005982,-0.00025114,-0.00014224,-0.00004849,0.00040569,-0.0004
 9052,0.00014203,0.00172123,-0.01232665,-0.01129090,0.00925521,-0.18464
 425,-0.08971255,0.09941936,0.01129027,0.00691667,-0.00038441,-0.002316
 33,-0.00022555,-0.00108950,-0.00338977,-0.00033072,-0.00015449,0.00323
 293,-0.00128175,-0.00329774,-0.00004084,0.00003123,-0.00001982,0.00010
 205,-0.00006073,0.00001947,0.00003712,-0.00000491,0.00003036,-0.000020
 37,0.00011911,-0.00000036,-0.00007980,0.00001495,-0.00045819,0.0002090
 8,-0.00000307,0.00001156,-0.00039182,0.00046827,-0.00025827,0.19641507
 ,-0.00004993,-0.00004401,0.00003196,-0.00004689,0.00015146,0.00025758,
 0.00017638,-0.00033585,-0.00118933,0.01467487,0.01179053,-0.01218108,-
 0.09434669,-0.10840660,0.06820481,-0.01038678,-0.00695008,-0.00143071,
 0.00256630,0.00029045,0.00175834,0.00284068,-0.00001650,-0.00198163,-0
 .00120634,0.00320704,0.00470025,0.00001552,-0.00000568,0.00001134,-0.0
 0002211,0.00002560,-0.00002351,-0.00002412,0.00000500,-0.00000760,0.00
 002266,-0.00011392,-0.00002528,0.00013592,-0.00014302,0.00010601,-0.00
 004508,-0.00000692,0.00001162,0.00044166,-0.00032106,0.00022862,0.1009
 3532,0.10960080,-0.00003423,-0.00008050,0.00004254,0.00019092,0.000081
 12,-0.00001440,-0.00033063,-0.00005860,-0.00000742,0.00525725,0.003731
 61,-0.00759853,0.10255125,0.07087468,-0.11404075,0.01983994,0.00641767
 ,-0.00526990,-0.00248304,0.00057492,-0.00063055,0.00162881,-0.00052419
 ,-0.00571724,-0.00056261,-0.00092228,0.00190980,0.00002464,-0.00000948
 ,0.00001293,0.00000044,0.00000316,0.00000056,-0.00000879,0.00000556,-0
 .00000168,0.00001754,-0.00004280,-0.00003604,-0.00008662,0.00006594,0.
 00005976,0.00012377,0.00003105,0.00006350,0.00007682,0.00010699,0.0000
 0019,-0.11208454,-0.06994166,0.12241599,-0.00000938,0.00000978,-0.0000
 1317,-0.00000532,0.00003652,-0.00007173,0.00069683,-0.00062016,-0.0006
 3852,0.01328576,0.01149396,0.00694897,-0.10154797,-0.08340361,-0.06509
 646,-0.00678854,-0.01022340,-0.00278121,0.00136041,0.00203020,0.000298
 59,0.00190174,-0.00054850,-0.00234659,-0.00093659,0.00502694,0.0063760
 6,0.00000020,-0.00000956,0.00000463,0.00000131,-0.00000045,0.00000377,
 -0.00000740,0.00000654,-0.00000800,-0.00000086,-0.00005665,0.00005147,
 -0.00000037,0.00001078,-0.00000044,-0.00030852,0.00004528,-0.00010725,
 0.00016411,-0.00024375,0.00011175,-0.00844787,-0.01474636,-0.01351406,
 0.10035994,-0.00000528,0.00002155,0.00009933,0.00015054,-0.00015390,-0
 .00015117,-0.00067390,0.00059899,0.00026046,-0.01337775,-0.01033545,-0
 .00489105,-0.07908855,-0.17357495,-0.10383466,0.00777829,0.01174099,0.
 00675554,-0.00112443,-0.00101950,-0.00090326,-0.00266242,-0.00197196,0
 .00144620,0.00346884,-0.00374204,-0.00641707,0.00000838,-0.00000297,-0
 .00000266,-0.00003457,0.00002246,-0.00000287,0.00004547,-0.00000759,0.
 00000434,-0.00003959,0.00018404,0.00001907,-0.00009480,-0.00012419,0.0
 0015186,0.00064872,0.00011792,0.00014950,-0.00001101,0.00024373,-0.000
 07159,-0.00563219,-0.00900677,-0.00890667,0.09139248,0.18643064,-0.000
 01517,-0.00003115,0.00000595,0.00011688,0.00001026,0.00013777,-0.00036
 611,-0.00010417,0.00008820,-0.00646759,-0.00395371,-0.00339887,-0.0668
 7612,-0.11019117,-0.12732258,-0.00914531,-0.01978628,-0.01583079,0.001
 01718,0.00229174,0.00258764,0.00087234,0.00296388,-0.00297417,0.001777
 89,0.00087995,-0.00108632,0.00000914,0.00000112,0.00000500,0.00000211,
 -0.00000135,-0.00000254,0.00000187,0.00000104,0.00000940,0.00000586,0.
 00003233,-0.00006434,0.00000434,-0.00001326,-0.00000485,0.00038789,0.0
 0002952,0.00015705,0.00002485,0.00011280,-0.00002015,0.00734283,0.0120
 3763,0.01054400,0.07055159,0.11661437,0.13716412,0.00004753,0.00002816
 ,-0.00005637,-0.00023001,0.00008219,0.00019501,0.00069477,-0.00087146,
 0.00071352,0.01175955,-0.00295884,-0.00812705,0.00170741,0.00395441,0.
 00157917,0.00252610,-0.01060156,0.00543822,-0.00205575,0.00337501,-0.0
 0129605,-0.11336276,0.00869199,0.12573418,-0.00472827,-0.00370737,0.01
 031925,-0.00002572,0.00001173,-0.00001056,-0.00000220,0.00000587,-0.00
 000063,-0.00001297,-0.00000163,-0.00000459,0.00000801,-0.00002220,-0.0
 0000100,0.00000695,-0.00004149,0.00003240,-0.00019265,-0.00000887,-0.0
 0006348,-0.00026732,0.00010681,0.00023379,0.00093362,-0.00093502,-0.00
 060686,0.00028253,-0.00074823,0.00075554,0.10291119,-0.00000860,0.0000
 4070,0.00006077,0.00006135,-0.00009509,-0.00019970,-0.00008156,0.00100
 511,0.00048774,-0.00149160,-0.00913903,0.00017205,0.00262545,-0.001888
 04,-0.00463978,-0.00111155,0.01223980,-0.01286905,0.00023675,-0.002724
 53,0.00262278,0.00832192,-0.04137096,-0.00099067,-0.01210112,-0.005663
 57,0.03114120,0.00000865,-0.00001555,0.00000346,0.00000287,-0.00000249
 ,-0.00000473,0.00001803,-0.00000987,-0.00000389,-0.00003038,0.00007598
 ,-0.00000542,-0.00000082,0.00000483,0.00002951,0.00032036,-0.00010389,
 0.00007310,-0.00011371,-0.00001223,-0.00003477,-0.00009651,0.00027953,
 -0.00140653,-0.00020005,0.00057900,-0.00089355,0.00364051,0.04680031,0
 .00001131,-0.00001423,-0.00001220,-0.00004578,0.00008471,0.00008668,0.
 00012773,-0.00065173,0.00081441,0.01375285,-0.00163729,-0.00197618,0.0
 0458647,0.00070645,-0.00169139,-0.00550821,0.00495326,-0.00438031,0.00
 120391,-0.00167551,0.00137275,0.12453588,0.00983487,-0.27744558,-0.003
 06698,0.00245768,-0.00084783,-0.00000637,0.00000193,-0.00000446,-0.000
 01725,0.00001827,0.00000143,-0.00001491,0.00000201,-0.00001202,-0.0000
 0305,-0.00006134,0.00001973,0.00000318,-0.00004372,0.00010683,-0.00021
 919,0.00010514,-0.00006079,-0.00052847,0.00034905,0.00003366,-0.000207
 25,-0.00056734,-0.00173278,0.00023061,-0.00031968,0.00000547,-0.134834
 47,-0.01354253,0.28572258\\-0.00001915,0.00001051,-0.00000872,0.000021
 91,-0.00003223,0.00002262,-0.00001739,0.00004759,-0.00005401,-0.000038
 94,-0.00003757,0.00003645,0.00000151,0.00001979,-0.00008860,0.00000064
 ,-0.00006748,0.00008133,-0.00000526,0.00001898,-0.00000889,0.00003208,
 0.00008781,-0.00005560,0.00001705,-0.00001466,0.00005090,0.00000082,-0
 .00000352,-0.00000360,0.00000057,-0.00000192,-0.00000273,0.00000075,-0
 .00000222,0.00000265,0.00000041,0.00000575,-0.00000347,-0.00000015,-0.
 00000318,-0.00000739,0.00000834,-0.00001645,0.00000423,-0.00000479,0.0
 0000320,0.00000972,-0.00001657,0.00000918,0.00001295,0.00000451,-0.000
 01306,0.00001712,0.00001365,-0.00001052,-0.00000496\\\@


 ANYONE WHO IS NOT SHOCKED BY QUANTUM THEORY HAS
 NOT UNDERSTOOD IT. -- NIELS BOHR(1885-1962)
 Job cpu time:       0 days  0 hours 45 minutes  1.9 seconds.
 File lengths (MBytes):  RWF=    152 Int=      0 D2E=      0 Chk=      8 Scr=      1
 Normal termination of Gaussian 09 at Tue Jan 28 14:54:02 2020.
