 Entering Gaussian System, Link 0=/home/puck/opt/gaussian_09/g09
 Input=dsC7O2H10nsd_5125.com
 Output=dsC7O2H10nsd_5125.log
 Initial command:
 /home/puck/opt/gaussian_09/l1.exe "/scratch/puck/g09_a8fe275f-cca1-4ed6-9909-db556147d32a/Gau-132257.inp" -scrdir="/scratch/puck/g09_a8fe275f-cca1-4ed6-9909-db556147d32a/"
 Entering Link 1 = /home/puck/opt/gaussian_09/l1.exe PID=    132258.
  
 Copyright (c) 1988,1990,1992,1993,1995,1998,2003,2009,2013,
            Gaussian, Inc.  All Rights Reserved.
  
 This is part of the Gaussian(R) 09 program.  It is based on
 the Gaussian(R) 03 system (copyright 2003, Gaussian, Inc.),
 the Gaussian(R) 98 system (copyright 1998, Gaussian, Inc.),
 the Gaussian(R) 94 system (copyright 1995, Gaussian, Inc.),
 the Gaussian 92(TM) system (copyright 1992, Gaussian, Inc.),
 the Gaussian 90(TM) system (copyright 1990, Gaussian, Inc.),
 the Gaussian 88(TM) system (copyright 1988, Gaussian, Inc.),
 the Gaussian 86(TM) system (copyright 1986, Carnegie Mellon
 University), and the Gaussian 82(TM) system (copyright 1983,
 Carnegie Mellon University). Gaussian is a federally registered
 trademark of Gaussian, Inc.
  
 This software contains proprietary and confidential information,
 including trade secrets, belonging to Gaussian, Inc.
  
 This software is provided under written license and may be
 used, copied, transmitted, or stored only in accord with that
 written license.
  
 The following legend is applicable only to US Government
 contracts under FAR:
  
                    RESTRICTED RIGHTS LEGEND
  
 Use, reproduction and disclosure by the US Government is
 subject to restrictions as set forth in subparagraphs (a)
 and (c) of the Commercial Computer Software - Restricted
 Rights clause in FAR 52.227-19.
  
 Gaussian, Inc.
 340 Quinnipiac St., Bldg. 40, Wallingford CT 06492
  
  
 ---------------------------------------------------------------
 Warning -- This program may not be used in any manner that
 competes with the business of Gaussian, Inc. or will provide
 assistance to any competitor of Gaussian, Inc.  The licensee
 of this program is prohibited from giving any competitor of
 Gaussian, Inc. access to this program.  By using this program,
 the user acknowledges that Gaussian, Inc. is engaged in the
 business of creating and licensing software in the field of
 computational chemistry and represents and warrants to the
 licensee that it is not a competitor of Gaussian, Inc. and that
 it will not use this program in any manner prohibited above.
 ---------------------------------------------------------------
  

 Cite this work as:
 Gaussian 09, Revision D.01,
 M. J. Frisch, G. W. Trucks, H. B. Schlegel, G. E. Scuseria, 
 M. A. Robb, J. R. Cheeseman, G. Scalmani, V. Barone, B. Mennucci, 
 G. A. Petersson, H. Nakatsuji, M. Caricato, X. Li, H. P. Hratchian, 
 A. F. Izmaylov, J. Bloino, G. Zheng, J. L. Sonnenberg, M. Hada, 
 M. Ehara, K. Toyota, R. Fukuda, J. Hasegawa, M. Ishida, T. Nakajima, 
 Y. Honda, O. Kitao, H. Nakai, T. Vreven, J. A. Montgomery, Jr., 
 J. E. Peralta, F. Ogliaro, M. Bearpark, J. J. Heyd, E. Brothers, 
 K. N. Kudin, V. N. Staroverov, T. Keith, R. Kobayashi, J. Normand, 
 K. Raghavachari, A. Rendell, J. C. Burant, S. S. Iyengar, J. Tomasi, 
 M. Cossi, N. Rega, J. M. Millam, M. Klene, J. E. Knox, J. B. Cross, 
 V. Bakken, C. Adamo, J. Jaramillo, R. Gomperts, R. E. Stratmann, 
 O. Yazyev, A. J. Austin, R. Cammi, C. Pomelli, J. W. Ochterski, 
 R. L. Martin, K. Morokuma, V. G. Zakrzewski, G. A. Voth, 
 P. Salvador, J. J. Dannenberg, S. Dapprich, A. D. Daniels, 
 O. Farkas, J. B. Foresman, J. V. Ortiz, J. Cioslowski, 
 and D. J. Fox, Gaussian, Inc., Wallingford CT, 2013.
 
 ******************************************
 Gaussian 09:  ES64L-G09RevD.01 24-Apr-2013
                28-Jan-2020 
 ******************************************
 -----------------------------
 # b3lyp 6-31G(2df,p) opt Freq
 -----------------------------
 1/14=-1,18=20,19=15,26=3,38=1/1,3;
 2/9=110,12=2,17=6,18=5,40=1/2;
 3/5=1,6=6,7=104,11=2,16=1,25=1,30=1,71=1,74=-5/1,2,3;
 4//1;
 5/5=2,38=5/2;
 6/7=2,8=2,9=2,10=2,28=1/1;
 7//1,2,3,16;
 1/14=-1,18=20,19=15,26=3/3(2);
 2/9=110/2;
 99//99;
 2/9=110/2;
 3/5=1,6=6,7=104,11=2,16=1,25=1,30=1,71=1,74=-5/1,2,3;
 4/5=5,16=3,69=1/1;
 5/5=2,38=5/2;
 7//1,2,3,16;
 1/14=-1,18=20,19=15,26=3/3(-5);
 2/9=110/2;
 6/7=2,8=2,9=2,10=2,19=2,28=1/1;
 99/9=1/99;
 -----
 titel
 -----
 Symbolic Z-matrix:
 Charge =  0 Multiplicity = 1
 O                     1.11802   0.8861    0.20076 
 C                     0.17526  -0.14404   0.46578 
 C                    -1.23677   0.2942    0.21886 
 C                    -2.07943   0.99867   1.24787 
 C                    -2.57782  -0.30595   0.68719 
 C                    -3.16867  -0.16089  -0.73485 
 C                    -3.82413   1.17663  -1.13231 
 O                    -2.52794   1.76243  -1.43228 
 C                    -1.85607   0.5024   -1.18618 
 H                     0.82791   1.66983   0.67979 
 H                     0.45124  -0.96584  -0.20544 
 H                     0.26583  -0.52469   1.49713 
 H                    -1.70632   0.93102   2.26588 
 H                    -2.55459   1.94281   1.00664 
 H                    -2.74131  -1.16302   1.32982 
 H                    -3.54483  -1.07886  -1.18267 
 H                    -4.44703   1.12066  -2.03351 
 H                    -4.36363   1.72979  -0.3547 
 H                    -1.24752   0.17034  -2.03072 
 

 GradGradGradGradGradGradGradGradGradGradGradGradGradGradGradGradGradGrad
 Berny optimization.
 Initialization pass.
                           ----------------------------
                           !    Initial Parameters    !
                           ! (Angstroms and Degrees)  !
 --------------------------                            --------------------------
 ! Name  Definition              Value          Derivative Info.                !
 --------------------------------------------------------------------------------
 ! R1    R(1,2)                  1.4213         estimate D2E/DX2                !
 ! R2    R(1,10)                 0.9633         estimate D2E/DX2                !
 ! R3    R(2,3)                  1.4989         estimate D2E/DX2                !
 ! R4    R(2,11)                 1.0964         estimate D2E/DX2                !
 ! R5    R(2,12)                 1.1031         estimate D2E/DX2                !
 ! R6    R(3,4)                  1.5051         estimate D2E/DX2                !
 ! R7    R(3,5)                  1.5421         estimate D2E/DX2                !
 ! R8    R(3,9)                  1.5495         estimate D2E/DX2                !
 ! R9    R(4,5)                  1.5049         estimate D2E/DX2                !
 ! R10   R(4,13)                 1.0863         estimate D2E/DX2                !
 ! R11   R(4,14)                 1.0841         estimate D2E/DX2                !
 ! R12   R(5,6)                  1.5467         estimate D2E/DX2                !
 ! R13   R(5,15)                 1.0836         estimate D2E/DX2                !
 ! R14   R(6,7)                  1.5416         estimate D2E/DX2                !
 ! R15   R(6,9)                  1.5384         estimate D2E/DX2                !
 ! R16   R(6,16)                 1.0884         estimate D2E/DX2                !
 ! R17   R(7,8)                  1.4537         estimate D2E/DX2                !
 ! R18   R(7,17)                 1.0969         estimate D2E/DX2                !
 ! R19   R(7,18)                 1.0962         estimate D2E/DX2                !
 ! R20   R(8,9)                  1.449          estimate D2E/DX2                !
 ! R21   R(9,19)                 1.0926         estimate D2E/DX2                !
 ! A1    A(2,1,10)             107.2888         estimate D2E/DX2                !
 ! A2    A(1,2,3)              112.4709         estimate D2E/DX2                !
 ! A3    A(1,2,11)             105.197          estimate D2E/DX2                !
 ! A4    A(1,2,12)             111.714          estimate D2E/DX2                !
 ! A5    A(3,2,11)             110.8195         estimate D2E/DX2                !
 ! A6    A(3,2,12)             109.4053         estimate D2E/DX2                !
 ! A7    A(11,2,12)            107.0421         estimate D2E/DX2                !
 ! A8    A(2,3,4)              123.48           estimate D2E/DX2                !
 ! A9    A(2,3,5)              130.9505         estimate D2E/DX2                !
 ! A10   A(2,3,9)              124.4122         estimate D2E/DX2                !
 ! A11   A(4,3,9)              109.4684         estimate D2E/DX2                !
 ! A12   A(5,3,9)               88.86           estimate D2E/DX2                !
 ! A13   A(3,4,13)             114.7871         estimate D2E/DX2                !
 ! A14   A(3,4,14)             120.0586         estimate D2E/DX2                !
 ! A15   A(5,4,13)             114.1343         estimate D2E/DX2                !
 ! A16   A(5,4,14)             121.7968         estimate D2E/DX2                !
 ! A17   A(13,4,14)            114.4109         estimate D2E/DX2                !
 ! A18   A(3,5,6)               90.9446         estimate D2E/DX2                !
 ! A19   A(3,5,15)             128.253          estimate D2E/DX2                !
 ! A20   A(4,5,6)              112.8132         estimate D2E/DX2                !
 ! A21   A(4,5,15)             120.976          estimate D2E/DX2                !
 ! A22   A(6,5,15)             124.1783         estimate D2E/DX2                !
 ! A23   A(5,6,7)              118.74           estimate D2E/DX2                !
 ! A24   A(5,6,9)               89.0965         estimate D2E/DX2                !
 ! A25   A(5,6,16)             115.5425         estimate D2E/DX2                !
 ! A26   A(7,6,9)               85.0122         estimate D2E/DX2                !
 ! A27   A(7,6,16)             118.6015         estimate D2E/DX2                !
 ! A28   A(9,6,16)             122.5337         estimate D2E/DX2                !
 ! A29   A(6,7,8)               91.359          estimate D2E/DX2                !
 ! A30   A(6,7,17)             114.1408         estimate D2E/DX2                !
 ! A31   A(6,7,18)             117.6555         estimate D2E/DX2                !
 ! A32   A(8,7,17)             110.9377         estimate D2E/DX2                !
 ! A33   A(8,7,18)             112.4482         estimate D2E/DX2                !
 ! A34   A(17,7,18)            109.2117         estimate D2E/DX2                !
 ! A35   A(7,8,9)               91.603          estimate D2E/DX2                !
 ! A36   A(3,9,6)               90.9773         estimate D2E/DX2                !
 ! A37   A(3,9,8)              117.1396         estimate D2E/DX2                !
 ! A38   A(3,9,19)             115.9403         estimate D2E/DX2                !
 ! A39   A(6,9,8)               91.6692         estimate D2E/DX2                !
 ! A40   A(6,9,19)             124.8168         estimate D2E/DX2                !
 ! A41   A(8,9,19)             113.032          estimate D2E/DX2                !
 ! D1    D(10,1,2,3)            51.1668         estimate D2E/DX2                !
 ! D2    D(10,1,2,11)          171.8919         estimate D2E/DX2                !
 ! D3    D(10,1,2,12)          -72.3187         estimate D2E/DX2                !
 ! D4    D(1,2,3,4)            -86.1881         estimate D2E/DX2                !
 ! D5    D(1,2,3,5)           -162.3358         estimate D2E/DX2                !
 ! D6    D(1,2,3,9)             73.4342         estimate D2E/DX2                !
 ! D7    D(11,2,3,4)           156.3749         estimate D2E/DX2                !
 ! D8    D(11,2,3,5)            80.2272         estimate D2E/DX2                !
 ! D9    D(11,2,3,9)           -44.0029         estimate D2E/DX2                !
 ! D10   D(12,2,3,4)            38.5753         estimate D2E/DX2                !
 ! D11   D(12,2,3,5)           -37.5724         estimate D2E/DX2                !
 ! D12   D(12,2,3,9)          -161.8024         estimate D2E/DX2                !
 ! D13   D(2,3,4,13)           -16.1413         estimate D2E/DX2                !
 ! D14   D(2,3,4,14)           126.3437         estimate D2E/DX2                !
 ! D15   D(9,3,4,13)          -178.4018         estimate D2E/DX2                !
 ! D16   D(9,3,4,14)           -35.9168         estimate D2E/DX2                !
 ! D17   D(2,3,5,6)           -134.352          estimate D2E/DX2                !
 ! D18   D(2,3,5,15)             2.4061         estimate D2E/DX2                !
 ! D19   D(9,3,5,6)              2.6301         estimate D2E/DX2                !
 ! D20   D(9,3,5,15)           139.3882         estimate D2E/DX2                !
 ! D21   D(2,3,9,6)            138.7046         estimate D2E/DX2                !
 ! D22   D(2,3,9,8)           -128.918          estimate D2E/DX2                !
 ! D23   D(2,3,9,19)             8.6653         estimate D2E/DX2                !
 ! D24   D(4,3,9,6)            -59.2369         estimate D2E/DX2                !
 ! D25   D(4,3,9,8)             33.1406         estimate D2E/DX2                !
 ! D26   D(4,3,9,19)           170.7238         estimate D2E/DX2                !
 ! D27   D(5,3,9,6)             -2.6444         estimate D2E/DX2                !
 ! D28   D(5,3,9,8)             89.733          estimate D2E/DX2                !
 ! D29   D(5,3,9,19)          -132.6837         estimate D2E/DX2                !
 ! D30   D(13,4,5,6)           177.0291         estimate D2E/DX2                !
 ! D31   D(13,4,5,15)           12.5951         estimate D2E/DX2                !
 ! D32   D(14,4,5,6)            32.8753         estimate D2E/DX2                !
 ! D33   D(14,4,5,15)         -131.5588         estimate D2E/DX2                !
 ! D34   D(3,5,6,7)            -86.4593         estimate D2E/DX2                !
 ! D35   D(3,5,6,9)             -2.649          estimate D2E/DX2                !
 ! D36   D(3,5,6,16)           123.4079         estimate D2E/DX2                !
 ! D37   D(4,5,6,7)            -29.7484         estimate D2E/DX2                !
 ! D38   D(4,5,6,9)             54.062          estimate D2E/DX2                !
 ! D39   D(4,5,6,16)          -179.8812         estimate D2E/DX2                !
 ! D40   D(15,5,6,7)           134.1043         estimate D2E/DX2                !
 ! D41   D(15,5,6,9)          -142.0853         estimate D2E/DX2                !
 ! D42   D(15,5,6,16)          -16.0285         estimate D2E/DX2                !
 ! D43   D(5,6,7,8)             81.8342         estimate D2E/DX2                !
 ! D44   D(5,6,7,17)          -164.4411         estimate D2E/DX2                !
 ! D45   D(5,6,7,18)           -34.5029         estimate D2E/DX2                !
 ! D46   D(9,6,7,8)             -4.3866         estimate D2E/DX2                !
 ! D47   D(9,6,7,17)           109.3382         estimate D2E/DX2                !
 ! D48   D(9,6,7,18)          -120.7237         estimate D2E/DX2                !
 ! D49   D(16,6,7,8)          -128.9477         estimate D2E/DX2                !
 ! D50   D(16,6,7,17)          -15.223          estimate D2E/DX2                !
 ! D51   D(16,6,7,18)          114.7152         estimate D2E/DX2                !
 ! D52   D(5,6,9,3)              2.6362         estimate D2E/DX2                !
 ! D53   D(5,6,9,8)           -114.5521         estimate D2E/DX2                !
 ! D54   D(5,6,9,19)           125.6445         estimate D2E/DX2                !
 ! D55   D(7,6,9,3)            121.5897         estimate D2E/DX2                !
 ! D56   D(7,6,9,8)              4.4014         estimate D2E/DX2                !
 ! D57   D(7,6,9,19)          -115.4021         estimate D2E/DX2                !
 ! D58   D(16,6,9,3)          -117.4592         estimate D2E/DX2                !
 ! D59   D(16,6,9,8)           125.3525         estimate D2E/DX2                !
 ! D60   D(16,6,9,19)            5.549          estimate D2E/DX2                !
 ! D61   D(6,7,8,9)              4.6418         estimate D2E/DX2                !
 ! D62   D(17,7,8,9)          -111.9157         estimate D2E/DX2                !
 ! D63   D(18,7,8,9)           125.449          estimate D2E/DX2                !
 ! D64   D(7,8,9,3)            -96.6071         estimate D2E/DX2                !
 ! D65   D(7,8,9,6)             -4.6522         estimate D2E/DX2                !
 ! D66   D(7,8,9,19)           124.6242         estimate D2E/DX2                !
 --------------------------------------------------------------------------------
 Trust Radius=3.00D-01 FncErr=1.00D-07 GrdErr=1.00D-06
 Number of steps in this run=    114 maximum allowed number of steps=    114.
 GradGradGradGradGradGradGradGradGradGradGradGradGradGradGradGradGradGrad

                          Input orientation:                          
 ---------------------------------------------------------------------
 Center     Atomic      Atomic             Coordinates (Angstroms)
 Number     Number       Type             X           Y           Z
 ---------------------------------------------------------------------
      1          8           0        1.118021    0.886101    0.200759
      2          6           0        0.175259   -0.144038    0.465778
      3          6           0       -1.236769    0.294205    0.218864
      4          6           0       -2.079429    0.998673    1.247867
      5          6           0       -2.577819   -0.305954    0.687193
      6          6           0       -3.168673   -0.160886   -0.734848
      7          6           0       -3.824132    1.176630   -1.132313
      8          8           0       -2.527944    1.762430   -1.432284
      9          6           0       -1.856071    0.502402   -1.186183
     10          1           0        0.827906    1.669826    0.679787
     11          1           0        0.451243   -0.965844   -0.205441
     12          1           0        0.265830   -0.524692    1.497134
     13          1           0       -1.706321    0.931016    2.265882
     14          1           0       -2.554594    1.942813    1.006639
     15          1           0       -2.741312   -1.163017    1.329817
     16          1           0       -3.544825   -1.078863   -1.182670
     17          1           0       -4.447025    1.120656   -2.033509
     18          1           0       -4.363628    1.729789   -0.354701
     19          1           0       -1.247519    0.170339   -2.030723
 ---------------------------------------------------------------------
                    Distance matrix (angstroms):
                    1          2          3          4          5
     1  O    0.000000
     2  C    1.421345   0.000000
     3  C    2.428107   1.498949   0.000000
     4  C    3.366422   2.645954   1.505058   0.000000
     5  C    3.913674   2.766710   1.542056   1.504925   0.000000
     6  C    4.510797   3.552981   2.202029   2.542083   1.546724
     7  C    5.127022   4.504796   3.049394   2.956503   2.657434
     8  O    4.089969   3.813734   2.559123   2.822711   2.961905
     9  C    3.303945   2.696880   1.549529   2.494147   2.164231
    10  H    0.963254   1.939549   2.523423   3.037393   3.937349
    11  H    2.009799   1.096388   2.148754   3.517916   3.226061
    12  H    2.096940   1.103085   2.135971   2.807672   2.964826
    13  H    3.499093   2.817172   2.194604   1.086343   2.186747
    14  H    3.905660   3.478445   2.252812   1.084146   2.271461
    15  H    4.513104   3.208001   2.370941   2.262235   1.083629
    16  H    5.245674   4.174962   3.029313   3.517251   2.242516
    17  H    6.001392   5.404757   4.007737   4.048187   3.596021
    18  H    5.573941   4.978545   3.488141   2.884496   2.901535
    19  H    3.329806   2.890614   2.253021   3.482437   3.063270
                    6          7          8          9         10
     6  C    0.000000
     7  C    1.541607   0.000000
     8  O    2.143850   1.453700   0.000000
     9  C    1.538369   2.081045   1.449017   0.000000
    10  H    4.617937   5.016812   3.966252   3.471088   0.000000
    11  H    3.745934   4.871151   4.221869   2.905391   2.805755
    12  H    4.112167   5.151338   4.649473   3.571775   2.408297
    13  H    3.512136   4.011630   3.878498   3.481793   3.079584
    14  H    2.799181   2.602667   2.445730   2.714992   3.409202
    15  H    2.334468   3.564902   4.029015   3.144443   4.602918
    16  H    1.088447   2.273279   3.028085   2.313504   5.490429
    17  H    2.227791   1.096943   2.110975   2.795218   5.957219
    18  H    2.268717   1.096231   2.128846   2.913019   5.293938
    19  H    2.340906   2.908384   2.128937   1.092635   3.728634
                   11         12         13         14         15
    11  H    0.000000
    12  H    1.768546   0.000000
    13  H    3.789537   2.568937   0.000000
    14  H    4.354822   3.779413   1.824553   0.000000
    15  H    3.548000   3.078694   2.516425   3.128176   0.000000
    16  H    4.115375   4.691434   4.394567   3.860590   2.639187
    17  H    5.629240   6.114215   5.102175   3.674199   4.408693
    18  H    5.520117   5.472098   3.816644   2.274033   3.719923
    19  H    2.740138   3.901163   4.387476   3.751757   3.911839
                   16         17         18         19
    16  H    0.000000
    17  H    2.525030   0.000000
    18  H    3.040476   1.787847   0.000000
    19  H    2.749057   3.337657   3.866662   0.000000
 Stoichiometry    C7H10O2
 Framework group  C1[X(C7H10O2)]
 Deg. of freedom    51
 Full point group                 C1      NOp   1
 Largest Abelian subgroup         C1      NOp   1
 Largest concise Abelian subgroup C1      NOp   1
                         Standard orientation:                         
 ---------------------------------------------------------------------
 Center     Atomic      Atomic             Coordinates (Angstroms)
 Number     Number       Type             X           Y           Z
 ---------------------------------------------------------------------
      1          8           0       -2.745459   -0.884367    0.181696
      2          6           0       -2.072512    0.178439   -0.479975
      3          6           0       -0.627002    0.269697   -0.093946
      4          6           0       -0.135253    1.028600    1.109153
      5          6           0        0.389097    1.419611   -0.246195
      6          6           0        1.458089    0.438320   -0.781619
      7          6           0        2.349159   -0.310791    0.229015
      8          8           0        1.313448   -1.304837    0.457969
      9          6           0        0.469042   -0.719681   -0.563902
     10          1           0       -2.563350   -0.796200    1.123461
     11          1           0       -2.177281   -0.036952   -1.549880
     12          1           0       -2.562953    1.149240   -0.296101
     13          1           0       -0.850380    1.730795    1.528269
     14          1           0        0.491375    0.535265    1.843544
     15          1           0        0.222396    2.414075   -0.643062
     16          1           0        1.869624    0.680571   -1.759715
     17          1           0        3.241791   -0.769556   -0.213733
     18          1           0        2.632586    0.217449    1.146813
     19          1           0        0.168557   -1.436226   -1.332097
 ---------------------------------------------------------------------
 Rotational constants (GHZ):      3.3238177      1.2918087      1.1411460
 Standard basis: 6-31G(2df,p) (6D, 7F)
 There are   329 symmetry adapted cartesian basis functions of A   symmetry.
 There are   302 symmetry adapted basis functions of A   symmetry.
   302 basis functions,   466 primitive gaussians,   329 cartesian basis functions
    34 alpha electrons       34 beta electrons
       nuclear repulsion energy       470.1374570143 Hartrees.
 NAtoms=   19 NActive=   19 NUniq=   19 SFac= 1.00D+00 NAtFMM=   60 NAOKFM=F Big=F
 Integral buffers will be    131072 words long.
 Raffenetti 2 integral format.
 Two-electron integral symmetry is turned on.
 One-electron integrals computed using PRISM.
 NBasis=   302 RedAO= T EigKep=  2.51D-04  NBF=   302
 NBsUse=   302 1.00D-06 EigRej= -1.00D+00 NBFU=   302
 ExpMin= 1.61D-01 ExpMax= 5.48D+03 ExpMxC= 8.25D+02 IAcc=1 IRadAn=         1 AccDes= 0.00D+00
 Harris functional with IExCor=  402 and IRadAn=       1 diagonalized for initial guess.
 HarFok:  IExCor=  402 AccDes= 0.00D+00 IRadAn=         1 IDoV= 1 UseB2=F ITyADJ=14
 ICtDFT=  3500011 ScaDFX=  1.000000  1.000000  1.000000  1.000000
 FoFCou: FMM=F IPFlag=           0 FMFlag=      100000 FMFlg1=           0
         NFxFlg=           0 DoJE=T BraDBF=F KetDBF=T FulRan=T
         wScrn=  0.000000 ICntrl=     500 IOpCl=  0 I1Cent=   200000004 NGrid=           0
         NMat0=    1 NMatS0=      1 NMatT0=    0 NMatD0=    1 NMtDS0=    0 NMtDT0=    0
 Petite list used in FoFCou.
 Requested convergence on RMS density matrix=1.00D-08 within 128 cycles.
 Requested convergence on MAX density matrix=1.00D-06.
 Requested convergence on             energy=1.00D-06.
 No special actions if energy rises.
 Integral accuracy reduced to 1.0D-05 until final iterations.
 Initial convergence to 1.0D-05 achieved.  Increase integral accuracy.
 SCF Done:  E(RB3LYP) =  -423.114658442     A.U. after   13 cycles
            NFock= 13  Conv=0.55D-08     -V/T= 2.0074

 **********************************************************************

            Population analysis using the SCF density.

 **********************************************************************

 Orbital symmetries:
       Occupied  (A) (A) (A) (A) (A) (A) (A) (A) (A) (A) (A) (A)
                 (A) (A) (A) (A) (A) (A) (A) (A) (A) (A) (A) (A)
                 (A) (A) (A) (A) (A) (A) (A) (A) (A) (A)
       Virtual   (A) (A) (A) (A) (A) (A) (A) (A) (A) (A) (A) (A)
                 (A) (A) (A) (A) (A) (A) (A) (A) (A) (A) (A) (A)
                 (A) (A) (A) (A) (A) (A) (A) (A) (A) (A) (A) (A)
                 (A) (A) (A) (A) (A) (A) (A) (A) (A) (A) (A) (A)
                 (A) (A) (A) (A) (A) (A) (A) (A) (A) (A) (A) (A)
                 (A) (A) (A) (A) (A) (A) (A) (A) (A) (A) (A) (A)
                 (A) (A) (A) (A) (A) (A) (A) (A) (A) (A) (A) (A)
                 (A) (A) (A) (A) (A) (A) (A) (A) (A) (A) (A) (A)
                 (A) (A) (A) (A) (A) (A) (A) (A) (A) (A) (A) (A)
                 (A) (A) (A) (A) (A) (A) (A) (A) (A) (A) (A) (A)
                 (A) (A) (A) (A) (A) (A) (A) (A) (A) (A) (A) (A)
                 (A) (A) (A) (A) (A) (A) (A) (A) (A) (A) (A) (A)
                 (A) (A) (A) (A) (A) (A) (A) (A) (A) (A) (A) (A)
                 (A) (A) (A) (A) (A) (A) (A) (A) (A) (A) (A) (A)
                 (A) (A) (A) (A) (A) (A) (A) (A) (A) (A) (A) (A)
                 (A) (A) (A) (A) (A) (A) (A) (A) (A) (A) (A) (A)
                 (A) (A) (A) (A) (A) (A) (A) (A) (A) (A) (A) (A)
                 (A) (A) (A) (A) (A) (A) (A) (A) (A) (A) (A) (A)
                 (A) (A) (A) (A) (A) (A) (A) (A) (A) (A) (A) (A)
                 (A) (A) (A) (A) (A) (A) (A) (A) (A) (A) (A) (A)
                 (A) (A) (A) (A) (A) (A) (A) (A) (A) (A) (A) (A)
                 (A) (A) (A) (A) (A) (A) (A) (A) (A) (A) (A) (A)
                 (A) (A) (A) (A)
 The electronic state is 1-A.
 Alpha  occ. eigenvalues --  -19.13224 -19.13192 -10.23360 -10.22981 -10.22975
 Alpha  occ. eigenvalues --  -10.20287 -10.19771 -10.19600 -10.19367  -1.03736
 Alpha  occ. eigenvalues --   -1.01294  -0.88916  -0.73965  -0.70694  -0.68530
 Alpha  occ. eigenvalues --   -0.60502  -0.57445  -0.53410  -0.52250  -0.49050
 Alpha  occ. eigenvalues --   -0.47565  -0.45233  -0.45099  -0.42451  -0.40782
 Alpha  occ. eigenvalues --   -0.39451  -0.36964  -0.33977  -0.33120  -0.30616
 Alpha  occ. eigenvalues --   -0.29101  -0.27762  -0.24780  -0.24319
 Alpha virt. eigenvalues --    0.06105   0.08527   0.08871   0.10225   0.12328
 Alpha virt. eigenvalues --    0.12746   0.13499   0.14305   0.15576   0.16892
 Alpha virt. eigenvalues --    0.17816   0.18529   0.19180   0.20485   0.21212
 Alpha virt. eigenvalues --    0.23267   0.24986   0.26912   0.30346   0.32899
 Alpha virt. eigenvalues --    0.37766   0.41568   0.42129   0.42910   0.44257
 Alpha virt. eigenvalues --    0.45913   0.47464   0.48804   0.50384   0.52700
 Alpha virt. eigenvalues --    0.54046   0.55361   0.55990   0.58186   0.61351
 Alpha virt. eigenvalues --    0.61711   0.64534   0.65964   0.66988   0.68093
 Alpha virt. eigenvalues --    0.69817   0.71072   0.73135   0.74051   0.74855
 Alpha virt. eigenvalues --    0.76202   0.77070   0.78080   0.80731   0.82257
 Alpha virt. eigenvalues --    0.82922   0.84076   0.85570   0.88648   0.90410
 Alpha virt. eigenvalues --    0.93019   0.94535   0.96819   0.97174   0.98352
 Alpha virt. eigenvalues --    1.01144   1.01650   1.04156   1.07769   1.09312
 Alpha virt. eigenvalues --    1.11597   1.16068   1.18873   1.20290   1.20737
 Alpha virt. eigenvalues --    1.25707   1.26749   1.28887   1.29864   1.33355
 Alpha virt. eigenvalues --    1.36177   1.37694   1.38614   1.41467   1.41728
 Alpha virt. eigenvalues --    1.42367   1.44299   1.46199   1.47595   1.49059
 Alpha virt. eigenvalues --    1.50284   1.53181   1.54871   1.56770   1.60130
 Alpha virt. eigenvalues --    1.62474   1.62920   1.65570   1.67214   1.68826
 Alpha virt. eigenvalues --    1.69871   1.71676   1.74005   1.77524   1.78218
 Alpha virt. eigenvalues --    1.79082   1.83063   1.87052   1.89518   1.91637
 Alpha virt. eigenvalues --    1.92943   2.00974   2.05765   2.11222   2.13984
 Alpha virt. eigenvalues --    2.18345   2.23396   2.24981   2.28389   2.28867
 Alpha virt. eigenvalues --    2.32256   2.34918   2.36304   2.41685   2.43242
 Alpha virt. eigenvalues --    2.49228   2.50212   2.53364   2.53604   2.55241
 Alpha virt. eigenvalues --    2.63152   2.64261   2.66182   2.70254   2.75242
 Alpha virt. eigenvalues --    2.78621   2.79544   2.81420   2.81763   2.84257
 Alpha virt. eigenvalues --    2.85094   2.86865   2.90134   2.90493   2.93593
 Alpha virt. eigenvalues --    2.94037   2.96999   2.99462   3.01625   3.02239
 Alpha virt. eigenvalues --    3.05857   3.08607   3.09545   3.10153   3.15345
 Alpha virt. eigenvalues --    3.17379   3.18729   3.21583   3.23136   3.24677
 Alpha virt. eigenvalues --    3.28528   3.29561   3.31425   3.35427   3.36487
 Alpha virt. eigenvalues --    3.36729   3.41468   3.42055   3.43524   3.44830
 Alpha virt. eigenvalues --    3.47898   3.49586   3.52097   3.55292   3.57708
 Alpha virt. eigenvalues --    3.61633   3.66611   3.68893   3.73112   3.76305
 Alpha virt. eigenvalues --    3.82167   3.85141   3.86366   3.92971   3.97520
 Alpha virt. eigenvalues --    4.02703   4.06269   4.09796   4.14928   4.15831
 Alpha virt. eigenvalues --    4.19168   4.20188   4.24559   4.26535   4.29320
 Alpha virt. eigenvalues --    4.30279   4.33891   4.35255   4.38759   4.41132
 Alpha virt. eigenvalues --    4.43159   4.43853   4.45739   4.47175   4.48888
 Alpha virt. eigenvalues --    4.50031   4.52563   4.55450   4.56339   4.57551
 Alpha virt. eigenvalues --    4.59323   4.63186   4.66198   4.67571   4.69073
 Alpha virt. eigenvalues --    4.71535   4.73024   4.74042   4.75244   4.77153
 Alpha virt. eigenvalues --    4.79837   4.82873   4.84195   4.85070   4.86314
 Alpha virt. eigenvalues --    4.90959   4.93017   4.93443   4.99624   5.01723
 Alpha virt. eigenvalues --    5.02857   5.06563   5.09126   5.14601   5.17141
 Alpha virt. eigenvalues --    5.21949   5.23073   5.26495   5.29942   5.34676
 Alpha virt. eigenvalues --    5.38030   5.42029   5.45282   5.48004   5.50515
 Alpha virt. eigenvalues --    5.56210   5.59157   5.62462   5.64176   5.67669
 Alpha virt. eigenvalues --    5.73099   5.77275   5.85094   5.88495   5.95876
 Alpha virt. eigenvalues --    5.99219   6.04603   6.06625   6.14052   6.23576
 Alpha virt. eigenvalues --    6.49409   7.01330   7.07689   7.54322  10.59750
 Alpha virt. eigenvalues --   11.27602  11.53307  11.72741  11.95730  12.43813
 Alpha virt. eigenvalues --   12.93672  13.17321  13.64136
          Condensed to atoms (all electrons):
               1          2          3          4          5          6
     1  O    7.844112   0.351638  -0.051608  -0.002786   0.004483  -0.000051
     2  C    0.351638   5.004267   0.393530  -0.063596  -0.041852   0.010746
     3  C   -0.051608   0.393530   4.767759   0.309159   0.138415   0.012673
     4  C   -0.002786  -0.063596   0.309159   5.113932   0.318840  -0.006255
     5  C    0.004483  -0.041852   0.138415   0.318840   5.111689   0.293290
     6  C   -0.000051   0.010746   0.012673  -0.006255   0.293290   4.926900
     7  C    0.000004  -0.000153  -0.013471  -0.011416   0.018296   0.305188
     8  O   -0.000079   0.001678  -0.030893  -0.004997  -0.003819  -0.056718
     9  C    0.006300  -0.054791   0.306636  -0.000015  -0.010395   0.338538
    10  H    0.309441  -0.070560   0.001086   0.006678   0.000130  -0.000047
    11  H   -0.021149   0.337339  -0.011281   0.006541   0.000287  -0.000054
    12  H   -0.028797   0.328793  -0.021061  -0.012135   0.002138  -0.000119
    13  H    0.000021  -0.005396  -0.016562   0.366416  -0.020292   0.003232
    14  H    0.000220   0.002032  -0.026126   0.363189  -0.005635  -0.014537
    15  H    0.000008  -0.004161  -0.029256  -0.043966   0.380626  -0.042160
    16  H    0.000001  -0.000093   0.009003   0.004164  -0.049917   0.368050
    17  H    0.000000   0.000019  -0.000547   0.000420   0.002389  -0.013568
    18  H    0.000000   0.000014   0.005692   0.003493  -0.014230  -0.008718
    19  H    0.000746  -0.008207  -0.076567   0.006041   0.018137  -0.050056
               7          8          9         10         11         12
     1  O    0.000004  -0.000079   0.006300   0.309441  -0.021149  -0.028797
     2  C   -0.000153   0.001678  -0.054791  -0.070560   0.337339   0.328793
     3  C   -0.013471  -0.030893   0.306636   0.001086  -0.011281  -0.021061
     4  C   -0.011416  -0.004997  -0.000015   0.006678   0.006541  -0.012135
     5  C    0.018296  -0.003819  -0.010395   0.000130   0.000287   0.002138
     6  C    0.305188  -0.056718   0.338538  -0.000047  -0.000054  -0.000119
     7  C    4.913408   0.326343  -0.107587   0.000005  -0.000010   0.000003
     8  O    0.326343   7.833068   0.300855  -0.000007  -0.000008  -0.000057
     9  C   -0.107587   0.300855   4.831665  -0.000495  -0.008294   0.005857
    10  H    0.000005  -0.000007  -0.000495   0.465037   0.008016  -0.003205
    11  H   -0.000010  -0.000008  -0.008294   0.008016   0.629369  -0.051352
    12  H    0.000003  -0.000057   0.005857  -0.003205  -0.051352   0.690896
    13  H   -0.000101   0.000354   0.002908   0.000150  -0.000019   0.004758
    14  H    0.005972   0.014590  -0.008921  -0.000345  -0.000106  -0.000104
    15  H    0.002335  -0.000380   0.007316   0.000036   0.000480   0.001477
    16  H   -0.042530   0.006681  -0.028626  -0.000001  -0.000086   0.000027
    17  H    0.354437  -0.024765   0.000629   0.000000   0.000000   0.000000
    18  H    0.348291  -0.027305  -0.000590   0.000000  -0.000001   0.000000
    19  H    0.010272  -0.036219   0.370573   0.000090   0.003369  -0.000126
              13         14         15         16         17         18
     1  O    0.000021   0.000220   0.000008   0.000001   0.000000   0.000000
     2  C   -0.005396   0.002032  -0.004161  -0.000093   0.000019   0.000014
     3  C   -0.016562  -0.026126  -0.029256   0.009003  -0.000547   0.005692
     4  C    0.366416   0.363189  -0.043966   0.004164   0.000420   0.003493
     5  C   -0.020292  -0.005635   0.380626  -0.049917   0.002389  -0.014230
     6  C    0.003232  -0.014537  -0.042160   0.368050  -0.013568  -0.008718
     7  C   -0.000101   0.005972   0.002335  -0.042530   0.354437   0.348291
     8  O    0.000354   0.014590  -0.000380   0.006681  -0.024765  -0.027305
     9  C    0.002908  -0.008921   0.007316  -0.028626   0.000629  -0.000590
    10  H    0.000150  -0.000345   0.000036  -0.000001   0.000000   0.000000
    11  H   -0.000019  -0.000106   0.000480  -0.000086   0.000000  -0.000001
    12  H    0.004758  -0.000104   0.001477   0.000027   0.000000   0.000000
    13  H    0.596336  -0.037584  -0.005179  -0.000043  -0.000003  -0.000180
    14  H   -0.037584   0.573145   0.001932  -0.000080   0.000306  -0.001956
    15  H   -0.005179   0.001932   0.643850  -0.004978  -0.000118   0.000112
    16  H   -0.000043  -0.000080  -0.004978   0.663169  -0.004696   0.004161
    17  H   -0.000003   0.000306  -0.000118  -0.004696   0.636939  -0.055821
    18  H   -0.000180  -0.001956   0.000112   0.004161  -0.055821   0.644517
    19  H   -0.000066   0.000370  -0.000314  -0.005851   0.000669  -0.000988
              19
     1  O    0.000746
     2  C   -0.008207
     3  C   -0.076567
     4  C    0.006041
     5  C    0.018137
     6  C   -0.050056
     7  C    0.010272
     8  O   -0.036219
     9  C    0.370573
    10  H    0.000090
    11  H    0.003369
    12  H   -0.000126
    13  H   -0.000066
    14  H    0.000370
    15  H   -0.000314
    16  H   -0.005851
    17  H    0.000669
    18  H   -0.000988
    19  H    0.686066
 Mulliken charges:
               1
     1  O   -0.412504
     2  C   -0.181246
     3  C    0.333420
     4  C   -0.353704
     5  C   -0.142580
     6  C   -0.066333
     7  C   -0.109287
     8  O   -0.298321
     9  C    0.048439
    10  H    0.283990
    11  H    0.106959
    12  H    0.083008
    13  H    0.111251
    14  H    0.133638
    15  H    0.092342
    16  H    0.081646
    17  H    0.103712
    18  H    0.103509
    19  H    0.082062
 Sum of Mulliken charges =   0.00000
 Mulliken charges with hydrogens summed into heavy atoms:
               1
     1  O   -0.128515
     2  C    0.008721
     3  C    0.333420
     4  C   -0.108815
     5  C   -0.050239
     6  C    0.015313
     7  C    0.097934
     8  O   -0.298321
     9  C    0.130501
 Electronic spatial extent (au):  <R**2>=           1125.0275
 Charge=              0.0000 electrons
 Dipole moment (field-independent basis, Debye):
    X=              0.9323    Y=              2.3631    Z=             -0.3276  Tot=              2.5614
 Quadrupole moment (field-independent basis, Debye-Ang):
   XX=            -55.4711   YY=            -56.2107   ZZ=            -49.6387
   XY=             -1.8112   XZ=             -3.2496   YZ=              0.8811
 Traceless Quadrupole moment (field-independent basis, Debye-Ang):
   XX=             -1.6976   YY=             -2.4372   ZZ=              4.1348
   XY=             -1.8112   XZ=             -3.2496   YZ=              0.8811
 Octapole moment (field-independent basis, Debye-Ang**2):
  XXX=             20.4970  YYY=             -1.8426  ZZZ=              4.6902  XYY=             -4.6326
  XXY=              7.1558  XXZ=              5.6515  XZZ=             -7.4061  YZZ=             -4.3336
  YYZ=             -2.0647  XYZ=              2.5188
 Hexadecapole moment (field-independent basis, Debye-Ang**3):
 XXXX=           -950.1403 YYYY=           -315.8617 ZZZZ=           -195.4254 XXXY=            -29.3660
 XXXZ=            -17.7562 YYYX=              2.0756 YYYZ=             -3.2423 ZZZX=             -7.2425
 ZZZY=             -3.7472 XXYY=           -217.3069 XXZZ=           -163.8517 YYZZ=            -84.2245
 XXYZ=             -4.4048 YYXZ=             -8.7269 ZZXY=              7.8938
 N-N= 4.701374570143D+02 E-N=-1.927118098515D+03  KE= 4.200158722873D+02
 Calling FoFJK, ICntrl=      2127 FMM=F ISym2X=0 I1Cent= 0 IOpClX= 0 NMat=1 NMatS=1 NMatT=0.
 ***** Axes restored to original set *****
 -------------------------------------------------------------------
 Center     Atomic                   Forces (Hartrees/Bohr)
 Number     Number              X              Y              Z
 -------------------------------------------------------------------
      1        8           0.000010935    0.000017941   -0.000007558
      2        6          -0.000006391   -0.000007925   -0.000013739
      3        6          -0.000025328   -0.000018028    0.000052352
      4        6           0.000011943   -0.000023923   -0.000012165
      5        6           0.000018885    0.000032901   -0.000018772
      6        6          -0.000004733   -0.000009351    0.000002932
      7        6          -0.000013618    0.000005096   -0.000001354
      8        8          -0.000002671   -0.000000204   -0.000001061
      9        6           0.000005572   -0.000004330   -0.000014012
     10        1          -0.000002955    0.000000168   -0.000008516
     11        1           0.000000722    0.000004864   -0.000005362
     12        1           0.000007394    0.000000127   -0.000007420
     13        1           0.000001021    0.000010566    0.000001940
     14        1           0.000001839    0.000001613    0.000006250
     15        1           0.000004909   -0.000002882    0.000004830
     16        1          -0.000003332   -0.000001285    0.000003360
     17        1          -0.000003226   -0.000003064    0.000008725
     18        1          -0.000000546   -0.000006843    0.000009563
     19        1          -0.000000422    0.000004558    0.000000007
 -------------------------------------------------------------------
 Cartesian Forces:  Max     0.000052352 RMS     0.000012197

 GradGradGradGradGradGradGradGradGradGradGradGradGradGradGradGradGradGrad
 Berny optimization.
 FormGI is forming the generalized inverse of G from B-inverse, IUseBI=4.
 Internal  Forces:  Max     0.000015260 RMS     0.000004251
 Search for a local minimum.
 Step number   1 out of a maximum of  114
 All quantities printed in internal units (Hartrees-Bohrs-Radians)
 Mixed Optimization -- En-DIIS/RFO-DIIS
 Second derivative matrix not updated -- first step.
 ITU=  0
     Eigenvalues ---    0.00532   0.00780   0.01357   0.01409   0.01795
     Eigenvalues ---    0.01903   0.02508   0.03118   0.03249   0.03761
     Eigenvalues ---    0.04149   0.05010   0.05019   0.05148   0.05505
     Eigenvalues ---    0.06024   0.06212   0.07183   0.08401   0.09587
     Eigenvalues ---    0.10272   0.10702   0.10900   0.11519   0.11717
     Eigenvalues ---    0.12793   0.13994   0.16000   0.18115   0.19038
     Eigenvalues ---    0.19780   0.22008   0.23973   0.25157   0.27076
     Eigenvalues ---    0.27807   0.30325   0.32488   0.33343   0.34022
     Eigenvalues ---    0.34085   0.34102   0.34341   0.34510   0.34993
     Eigenvalues ---    0.35239   0.35498   0.35559   0.35948   0.42258
     Eigenvalues ---    0.54779
 RFO step:  Lambda=-1.77328571D-08 EMin= 5.31880083D-03
 Linear search not attempted -- first point.
 Iteration  1 RMS(Cart)=  0.00006936 RMS(Int)=  0.00000000
 Iteration  2 RMS(Cart)=  0.00000000 RMS(Int)=  0.00000000
 Variable       Old X    -DE/DX   Delta X   Delta X   Delta X     New X
                                 (Linear)    (Quad)   (Total)
    R1        2.68595   0.00001   0.00000   0.00004   0.00004   2.68599
    R2        1.82029   0.00000   0.00000   0.00000   0.00000   1.82028
    R3        2.83260   0.00000   0.00000  -0.00001  -0.00001   2.83260
    R4        2.07187   0.00000   0.00000  -0.00001  -0.00001   2.07187
    R5        2.08453   0.00000   0.00000   0.00000   0.00000   2.08452
    R6        2.84415  -0.00001   0.00000  -0.00004  -0.00004   2.84410
    R7        2.91406  -0.00002   0.00000  -0.00008  -0.00008   2.91398
    R8        2.92818   0.00001   0.00000   0.00004   0.00004   2.92822
    R9        2.84390  -0.00001   0.00000  -0.00001  -0.00001   2.84389
   R10        2.05289   0.00000   0.00000   0.00000   0.00000   2.05289
   R11        2.04874   0.00000   0.00000   0.00000   0.00000   2.04874
   R12        2.92288   0.00000   0.00000   0.00001   0.00001   2.92289
   R13        2.04776   0.00000   0.00000   0.00001   0.00001   2.04777
   R14        2.91322   0.00000   0.00000   0.00000   0.00000   2.91322
   R15        2.90710   0.00000   0.00000   0.00001   0.00001   2.90711
   R16        2.05687   0.00000   0.00000   0.00000   0.00000   2.05687
   R17        2.74710   0.00000   0.00000   0.00001   0.00001   2.74711
   R18        2.07292   0.00000   0.00000  -0.00001  -0.00001   2.07291
   R19        2.07158   0.00000   0.00000   0.00000   0.00000   2.07158
   R20        2.73824   0.00000   0.00000   0.00001   0.00001   2.73825
   R21        2.06478   0.00000   0.00000   0.00000   0.00000   2.06478
    A1        1.87254  -0.00001   0.00000  -0.00003  -0.00003   1.87251
    A2        1.96299  -0.00001   0.00000  -0.00005  -0.00005   1.96294
    A3        1.83603   0.00000   0.00000   0.00000   0.00000   1.83604
    A4        1.94978   0.00000   0.00000   0.00000   0.00000   1.94978
    A5        1.93416   0.00000   0.00000   0.00001   0.00001   1.93417
    A6        1.90948   0.00001   0.00000   0.00004   0.00004   1.90952
    A7        1.86824   0.00000   0.00000   0.00000   0.00000   1.86824
    A8        2.15513   0.00000   0.00000   0.00005   0.00005   2.15518
    A9        2.28552   0.00001   0.00000   0.00012   0.00012   2.28564
   A10        2.17140  -0.00001   0.00000  -0.00009  -0.00009   2.17131
   A11        1.91058   0.00000   0.00000   0.00000   0.00000   1.91058
   A12        1.55090   0.00000   0.00000   0.00001   0.00001   1.55091
   A13        2.00341   0.00000   0.00000   0.00005   0.00005   2.00346
   A14        2.09542   0.00000   0.00000   0.00000   0.00000   2.09542
   A15        1.99202   0.00001   0.00000   0.00006   0.00006   1.99208
   A16        2.12576   0.00000   0.00000   0.00000   0.00000   2.12576
   A17        1.99685  -0.00001   0.00000  -0.00006  -0.00006   1.99679
   A18        1.58728   0.00001   0.00000   0.00002   0.00002   1.58731
   A19        2.23844   0.00000   0.00000  -0.00001  -0.00001   2.23843
   A20        1.96896   0.00001   0.00000   0.00003   0.00003   1.96899
   A21        2.11143   0.00000   0.00000  -0.00002  -0.00002   2.11141
   A22        2.16732  -0.00001   0.00000  -0.00001  -0.00001   2.16731
   A23        2.07240   0.00000   0.00000  -0.00004  -0.00004   2.07236
   A24        1.55503   0.00000   0.00000  -0.00001  -0.00001   1.55501
   A25        2.01660   0.00000   0.00000   0.00002   0.00002   2.01662
   A26        1.48374   0.00000   0.00000   0.00002   0.00002   1.48376
   A27        2.06999   0.00000   0.00000   0.00000   0.00000   2.06999
   A28        2.13862   0.00000   0.00000   0.00003   0.00003   2.13864
   A29        1.59451   0.00000   0.00000  -0.00001  -0.00001   1.59450
   A30        1.99213   0.00000   0.00000   0.00001   0.00001   1.99214
   A31        2.05348   0.00000   0.00000  -0.00005  -0.00005   2.05342
   A32        1.93623   0.00000   0.00000   0.00002   0.00002   1.93625
   A33        1.96259   0.00000   0.00000   0.00002   0.00002   1.96261
   A34        1.90610   0.00000   0.00000   0.00002   0.00002   1.90613
   A35        1.59877   0.00000   0.00000   0.00002   0.00002   1.59879
   A36        1.58785   0.00000   0.00000  -0.00002  -0.00002   1.58783
   A37        2.04447   0.00000   0.00000   0.00002   0.00002   2.04449
   A38        2.02354   0.00000   0.00000  -0.00002  -0.00002   2.02352
   A39        1.59993   0.00000   0.00000  -0.00001  -0.00001   1.59991
   A40        2.17846   0.00000   0.00000   0.00005   0.00005   2.17852
   A41        1.97278   0.00000   0.00000  -0.00001  -0.00001   1.97277
    D1        0.89303   0.00000   0.00000  -0.00012  -0.00012   0.89290
    D2        3.00008   0.00000   0.00000  -0.00014  -0.00014   2.99994
    D3       -1.26220   0.00000   0.00000  -0.00014  -0.00014  -1.26234
    D4       -1.50427   0.00001   0.00000   0.00018   0.00018  -1.50409
    D5       -2.83329   0.00000   0.00000   0.00006   0.00006  -2.83324
    D6        1.28167   0.00000   0.00000   0.00001   0.00001   1.28168
    D7        2.72926   0.00001   0.00000   0.00021   0.00021   2.72946
    D8        1.40023   0.00000   0.00000   0.00008   0.00008   1.40031
    D9       -0.76800   0.00000   0.00000   0.00004   0.00004  -0.76796
   D10        0.67327   0.00000   0.00000   0.00018   0.00018   0.67344
   D11       -0.65576   0.00000   0.00000   0.00005   0.00005  -0.65571
   D12       -2.82399   0.00000   0.00000   0.00001   0.00001  -2.82398
   D13       -0.28172   0.00000   0.00000  -0.00010  -0.00010  -0.28182
   D14        2.20511  -0.00001   0.00000  -0.00014  -0.00014   2.20497
   D15       -3.11370   0.00001   0.00000   0.00006   0.00006  -3.11364
   D16       -0.62687   0.00000   0.00000   0.00003   0.00003  -0.62684
   D17       -2.34488   0.00001   0.00000   0.00006   0.00006  -2.34482
   D18        0.04199   0.00001   0.00000   0.00007   0.00007   0.04206
   D19        0.04590   0.00000   0.00000   0.00004   0.00004   0.04594
   D20        2.43278   0.00000   0.00000   0.00004   0.00004   2.43282
   D21        2.42085   0.00001   0.00000   0.00008   0.00007   2.42093
   D22       -2.25004   0.00000   0.00000   0.00005   0.00005  -2.24999
   D23        0.15124   0.00000   0.00000   0.00003   0.00003   0.15127
   D24       -1.03388   0.00000   0.00000  -0.00006  -0.00006  -1.03394
   D25        0.57841   0.00000   0.00000  -0.00009  -0.00009   0.57832
   D26        2.97969   0.00000   0.00000  -0.00011  -0.00011   2.97959
   D27       -0.04615   0.00000   0.00000  -0.00004  -0.00004  -0.04619
   D28        1.56614   0.00000   0.00000  -0.00006  -0.00006   1.56608
   D29       -2.31577   0.00000   0.00000  -0.00008  -0.00008  -2.31585
   D30        3.08974   0.00000   0.00000  -0.00003  -0.00003   3.08971
   D31        0.21983   0.00000   0.00000  -0.00002  -0.00002   0.21980
   D32        0.57378   0.00000   0.00000  -0.00002  -0.00002   0.57376
   D33       -2.29613   0.00000   0.00000  -0.00001  -0.00001  -2.29614
   D34       -1.50900   0.00000   0.00000  -0.00005  -0.00005  -1.50905
   D35       -0.04623   0.00000   0.00000  -0.00004  -0.00004  -0.04627
   D36        2.15387   0.00000   0.00000  -0.00001  -0.00001   2.15387
   D37       -0.51921   0.00000   0.00000  -0.00004  -0.00004  -0.51925
   D38        0.94356   0.00000   0.00000  -0.00003  -0.00003   0.94353
   D39       -3.13952   0.00000   0.00000   0.00000   0.00000  -3.13952
   D40        2.34056   0.00000   0.00000  -0.00006  -0.00006   2.34051
   D41       -2.47986   0.00000   0.00000  -0.00004  -0.00004  -2.47990
   D42       -0.27975   0.00000   0.00000  -0.00001  -0.00001  -0.27976
   D43        1.42828   0.00000   0.00000   0.00002   0.00002   1.42829
   D44       -2.87004   0.00000   0.00000   0.00004   0.00004  -2.87000
   D45       -0.60219   0.00000   0.00000   0.00002   0.00002  -0.60217
   D46       -0.07656   0.00000   0.00000   0.00002   0.00002  -0.07654
   D47        1.90831   0.00000   0.00000   0.00004   0.00004   1.90835
   D48       -2.10703   0.00000   0.00000   0.00002   0.00002  -2.10700
   D49       -2.25056   0.00000   0.00000  -0.00002  -0.00002  -2.25058
   D50       -0.26569   0.00000   0.00000   0.00000   0.00000  -0.26570
   D51        2.00216   0.00000   0.00000  -0.00002  -0.00002   2.00214
   D52        0.04601   0.00000   0.00000   0.00003   0.00003   0.04604
   D53       -1.99931   0.00000   0.00000   0.00002   0.00002  -1.99929
   D54        2.19291   0.00000   0.00000   0.00002   0.00002   2.19293
   D55        2.12214   0.00000   0.00000  -0.00001  -0.00001   2.12213
   D56        0.07682   0.00000   0.00000  -0.00002  -0.00002   0.07680
   D57       -2.01415   0.00000   0.00000  -0.00002  -0.00002  -2.01416
   D58       -2.05005   0.00000   0.00000   0.00001   0.00001  -2.05004
   D59        2.18781   0.00000   0.00000   0.00000   0.00000   2.18781
   D60        0.09685   0.00000   0.00000   0.00000   0.00000   0.09685
   D61        0.08101   0.00000   0.00000  -0.00002  -0.00002   0.08099
   D62       -1.95330   0.00000   0.00000  -0.00003  -0.00003  -1.95332
   D63        2.18950  -0.00001   0.00000  -0.00008  -0.00008   2.18942
   D64       -1.68611   0.00000   0.00000   0.00005   0.00005  -1.68606
   D65       -0.08120   0.00000   0.00000   0.00002   0.00002  -0.08118
   D66        2.17510   0.00000   0.00000   0.00007   0.00007   2.17517
         Item               Value     Threshold  Converged?
 Maximum Force            0.000015     0.000450     YES
 RMS     Force            0.000004     0.000300     YES
 Maximum Displacement     0.000413     0.001800     YES
 RMS     Displacement     0.000069     0.001200     YES
 Predicted change in Energy=-8.866610D-09
 Optimization completed.
    -- Stationary point found.
                           ----------------------------
                           !   Optimized Parameters   !
                           ! (Angstroms and Degrees)  !
 --------------------------                            --------------------------
 ! Name  Definition              Value          Derivative Info.                !
 --------------------------------------------------------------------------------
 ! R1    R(1,2)                  1.4213         -DE/DX =    0.0                 !
 ! R2    R(1,10)                 0.9633         -DE/DX =    0.0                 !
 ! R3    R(2,3)                  1.4989         -DE/DX =    0.0                 !
 ! R4    R(2,11)                 1.0964         -DE/DX =    0.0                 !
 ! R5    R(2,12)                 1.1031         -DE/DX =    0.0                 !
 ! R6    R(3,4)                  1.5051         -DE/DX =    0.0                 !
 ! R7    R(3,5)                  1.5421         -DE/DX =    0.0                 !
 ! R8    R(3,9)                  1.5495         -DE/DX =    0.0                 !
 ! R9    R(4,5)                  1.5049         -DE/DX =    0.0                 !
 ! R10   R(4,13)                 1.0863         -DE/DX =    0.0                 !
 ! R11   R(4,14)                 1.0841         -DE/DX =    0.0                 !
 ! R12   R(5,6)                  1.5467         -DE/DX =    0.0                 !
 ! R13   R(5,15)                 1.0836         -DE/DX =    0.0                 !
 ! R14   R(6,7)                  1.5416         -DE/DX =    0.0                 !
 ! R15   R(6,9)                  1.5384         -DE/DX =    0.0                 !
 ! R16   R(6,16)                 1.0884         -DE/DX =    0.0                 !
 ! R17   R(7,8)                  1.4537         -DE/DX =    0.0                 !
 ! R18   R(7,17)                 1.0969         -DE/DX =    0.0                 !
 ! R19   R(7,18)                 1.0962         -DE/DX =    0.0                 !
 ! R20   R(8,9)                  1.449          -DE/DX =    0.0                 !
 ! R21   R(9,19)                 1.0926         -DE/DX =    0.0                 !
 ! A1    A(2,1,10)             107.2888         -DE/DX =    0.0                 !
 ! A2    A(1,2,3)              112.4709         -DE/DX =    0.0                 !
 ! A3    A(1,2,11)             105.197          -DE/DX =    0.0                 !
 ! A4    A(1,2,12)             111.714          -DE/DX =    0.0                 !
 ! A5    A(3,2,11)             110.8195         -DE/DX =    0.0                 !
 ! A6    A(3,2,12)             109.4053         -DE/DX =    0.0                 !
 ! A7    A(11,2,12)            107.0421         -DE/DX =    0.0                 !
 ! A8    A(2,3,4)              123.48           -DE/DX =    0.0                 !
 ! A9    A(2,3,5)              130.9505         -DE/DX =    0.0                 !
 ! A10   A(2,3,9)              124.4122         -DE/DX =    0.0                 !
 ! A11   A(4,3,9)              109.4684         -DE/DX =    0.0                 !
 ! A12   A(5,3,9)               88.86           -DE/DX =    0.0                 !
 ! A13   A(3,4,13)             114.7871         -DE/DX =    0.0                 !
 ! A14   A(3,4,14)             120.0586         -DE/DX =    0.0                 !
 ! A15   A(5,4,13)             114.1343         -DE/DX =    0.0                 !
 ! A16   A(5,4,14)             121.7968         -DE/DX =    0.0                 !
 ! A17   A(13,4,14)            114.4109         -DE/DX =    0.0                 !
 ! A18   A(3,5,6)               90.9446         -DE/DX =    0.0                 !
 ! A19   A(3,5,15)             128.253          -DE/DX =    0.0                 !
 ! A20   A(4,5,6)              112.8132         -DE/DX =    0.0                 !
 ! A21   A(4,5,15)             120.976          -DE/DX =    0.0                 !
 ! A22   A(6,5,15)             124.1783         -DE/DX =    0.0                 !
 ! A23   A(5,6,7)              118.74           -DE/DX =    0.0                 !
 ! A24   A(5,6,9)               89.0965         -DE/DX =    0.0                 !
 ! A25   A(5,6,16)             115.5425         -DE/DX =    0.0                 !
 ! A26   A(7,6,9)               85.0122         -DE/DX =    0.0                 !
 ! A27   A(7,6,16)             118.6015         -DE/DX =    0.0                 !
 ! A28   A(9,6,16)             122.5337         -DE/DX =    0.0                 !
 ! A29   A(6,7,8)               91.359          -DE/DX =    0.0                 !
 ! A30   A(6,7,17)             114.1408         -DE/DX =    0.0                 !
 ! A31   A(6,7,18)             117.6555         -DE/DX =    0.0                 !
 ! A32   A(8,7,17)             110.9377         -DE/DX =    0.0                 !
 ! A33   A(8,7,18)             112.4482         -DE/DX =    0.0                 !
 ! A34   A(17,7,18)            109.2117         -DE/DX =    0.0                 !
 ! A35   A(7,8,9)               91.603          -DE/DX =    0.0                 !
 ! A36   A(3,9,6)               90.9773         -DE/DX =    0.0                 !
 ! A37   A(3,9,8)              117.1396         -DE/DX =    0.0                 !
 ! A38   A(3,9,19)             115.9403         -DE/DX =    0.0                 !
 ! A39   A(6,9,8)               91.6692         -DE/DX =    0.0                 !
 ! A40   A(6,9,19)             124.8168         -DE/DX =    0.0                 !
 ! A41   A(8,9,19)             113.032          -DE/DX =    0.0                 !
 ! D1    D(10,1,2,3)            51.1668         -DE/DX =    0.0                 !
 ! D2    D(10,1,2,11)          171.8919         -DE/DX =    0.0                 !
 ! D3    D(10,1,2,12)          -72.3187         -DE/DX =    0.0                 !
 ! D4    D(1,2,3,4)            -86.1881         -DE/DX =    0.0                 !
 ! D5    D(1,2,3,5)           -162.3358         -DE/DX =    0.0                 !
 ! D6    D(1,2,3,9)             73.4342         -DE/DX =    0.0                 !
 ! D7    D(11,2,3,4)           156.3749         -DE/DX =    0.0                 !
 ! D8    D(11,2,3,5)            80.2272         -DE/DX =    0.0                 !
 ! D9    D(11,2,3,9)           -44.0029         -DE/DX =    0.0                 !
 ! D10   D(12,2,3,4)            38.5753         -DE/DX =    0.0                 !
 ! D11   D(12,2,3,5)           -37.5724         -DE/DX =    0.0                 !
 ! D12   D(12,2,3,9)          -161.8024         -DE/DX =    0.0                 !
 ! D13   D(2,3,4,13)           -16.1413         -DE/DX =    0.0                 !
 ! D14   D(2,3,4,14)           126.3437         -DE/DX =    0.0                 !
 ! D15   D(9,3,4,13)          -178.4018         -DE/DX =    0.0                 !
 ! D16   D(9,3,4,14)           -35.9168         -DE/DX =    0.0                 !
 ! D17   D(2,3,5,6)           -134.352          -DE/DX =    0.0                 !
 ! D18   D(2,3,5,15)             2.4061         -DE/DX =    0.0                 !
 ! D19   D(9,3,5,6)              2.6301         -DE/DX =    0.0                 !
 ! D20   D(9,3,5,15)           139.3882         -DE/DX =    0.0                 !
 ! D21   D(2,3,9,6)            138.7046         -DE/DX =    0.0                 !
 ! D22   D(2,3,9,8)           -128.918          -DE/DX =    0.0                 !
 ! D23   D(2,3,9,19)             8.6653         -DE/DX =    0.0                 !
 ! D24   D(4,3,9,6)            -59.2369         -DE/DX =    0.0                 !
 ! D25   D(4,3,9,8)             33.1406         -DE/DX =    0.0                 !
 ! D26   D(4,3,9,19)           170.7238         -DE/DX =    0.0                 !
 ! D27   D(5,3,9,6)             -2.6444         -DE/DX =    0.0                 !
 ! D28   D(5,3,9,8)             89.733          -DE/DX =    0.0                 !
 ! D29   D(5,3,9,19)          -132.6837         -DE/DX =    0.0                 !
 ! D30   D(13,4,5,6)           177.0291         -DE/DX =    0.0                 !
 ! D31   D(13,4,5,15)           12.5951         -DE/DX =    0.0                 !
 ! D32   D(14,4,5,6)            32.8753         -DE/DX =    0.0                 !
 ! D33   D(14,4,5,15)         -131.5588         -DE/DX =    0.0                 !
 ! D34   D(3,5,6,7)            -86.4593         -DE/DX =    0.0                 !
 ! D35   D(3,5,6,9)             -2.649          -DE/DX =    0.0                 !
 ! D36   D(3,5,6,16)           123.4079         -DE/DX =    0.0                 !
 ! D37   D(4,5,6,7)            -29.7484         -DE/DX =    0.0                 !
 ! D38   D(4,5,6,9)             54.062          -DE/DX =    0.0                 !
 ! D39   D(4,5,6,16)          -179.8812         -DE/DX =    0.0                 !
 ! D40   D(15,5,6,7)           134.1043         -DE/DX =    0.0                 !
 ! D41   D(15,5,6,9)          -142.0853         -DE/DX =    0.0                 !
 ! D42   D(15,5,6,16)          -16.0285         -DE/DX =    0.0                 !
 ! D43   D(5,6,7,8)             81.8342         -DE/DX =    0.0                 !
 ! D44   D(5,6,7,17)          -164.4411         -DE/DX =    0.0                 !
 ! D45   D(5,6,7,18)           -34.5029         -DE/DX =    0.0                 !
 ! D46   D(9,6,7,8)             -4.3866         -DE/DX =    0.0                 !
 ! D47   D(9,6,7,17)           109.3382         -DE/DX =    0.0                 !
 ! D48   D(9,6,7,18)          -120.7237         -DE/DX =    0.0                 !
 ! D49   D(16,6,7,8)          -128.9477         -DE/DX =    0.0                 !
 ! D50   D(16,6,7,17)          -15.223          -DE/DX =    0.0                 !
 ! D51   D(16,6,7,18)          114.7152         -DE/DX =    0.0                 !
 ! D52   D(5,6,9,3)              2.6362         -DE/DX =    0.0                 !
 ! D53   D(5,6,9,8)           -114.5521         -DE/DX =    0.0                 !
 ! D54   D(5,6,9,19)           125.6445         -DE/DX =    0.0                 !
 ! D55   D(7,6,9,3)            121.5897         -DE/DX =    0.0                 !
 ! D56   D(7,6,9,8)              4.4014         -DE/DX =    0.0                 !
 ! D57   D(7,6,9,19)          -115.4021         -DE/DX =    0.0                 !
 ! D58   D(16,6,9,3)          -117.4592         -DE/DX =    0.0                 !
 ! D59   D(16,6,9,8)           125.3525         -DE/DX =    0.0                 !
 ! D60   D(16,6,9,19)            5.549          -DE/DX =    0.0                 !
 ! D61   D(6,7,8,9)              4.6418         -DE/DX =    0.0                 !
 ! D62   D(17,7,8,9)          -111.9157         -DE/DX =    0.0                 !
 ! D63   D(18,7,8,9)           125.449          -DE/DX =    0.0                 !
 ! D64   D(7,8,9,3)            -96.6071         -DE/DX =    0.0                 !
 ! D65   D(7,8,9,6)             -4.6522         -DE/DX =    0.0                 !
 ! D66   D(7,8,9,19)           124.6242         -DE/DX =    0.0                 !
 --------------------------------------------------------------------------------
 GradGradGradGradGradGradGradGradGradGradGradGradGradGradGradGradGradGrad

                          Input orientation:                          
 ---------------------------------------------------------------------
 Center     Atomic      Atomic             Coordinates (Angstroms)
 Number     Number       Type             X           Y           Z
 ---------------------------------------------------------------------
      1          8           0        1.118021    0.886101    0.200759
      2          6           0        0.175259   -0.144038    0.465778
      3          6           0       -1.236769    0.294205    0.218864
      4          6           0       -2.079429    0.998673    1.247867
      5          6           0       -2.577819   -0.305954    0.687193
      6          6           0       -3.168673   -0.160886   -0.734848
      7          6           0       -3.824132    1.176630   -1.132313
      8          8           0       -2.527944    1.762430   -1.432284
      9          6           0       -1.856071    0.502402   -1.186183
     10          1           0        0.827906    1.669826    0.679787
     11          1           0        0.451243   -0.965844   -0.205441
     12          1           0        0.265830   -0.524692    1.497134
     13          1           0       -1.706321    0.931016    2.265882
     14          1           0       -2.554594    1.942813    1.006639
     15          1           0       -2.741312   -1.163017    1.329817
     16          1           0       -3.544825   -1.078863   -1.182670
     17          1           0       -4.447025    1.120656   -2.033509
     18          1           0       -4.363628    1.729789   -0.354701
     19          1           0       -1.247519    0.170339   -2.030723
 ---------------------------------------------------------------------
                    Distance matrix (angstroms):
                    1          2          3          4          5
     1  O    0.000000
     2  C    1.421345   0.000000
     3  C    2.428107   1.498949   0.000000
     4  C    3.366422   2.645954   1.505058   0.000000
     5  C    3.913674   2.766710   1.542056   1.504925   0.000000
     6  C    4.510797   3.552981   2.202029   2.542083   1.546724
     7  C    5.127022   4.504796   3.049394   2.956503   2.657434
     8  O    4.089969   3.813734   2.559123   2.822711   2.961905
     9  C    3.303945   2.696880   1.549529   2.494147   2.164231
    10  H    0.963254   1.939549   2.523423   3.037393   3.937349
    11  H    2.009799   1.096388   2.148754   3.517916   3.226061
    12  H    2.096940   1.103085   2.135971   2.807672   2.964826
    13  H    3.499093   2.817172   2.194604   1.086343   2.186747
    14  H    3.905660   3.478445   2.252812   1.084146   2.271461
    15  H    4.513104   3.208001   2.370941   2.262235   1.083629
    16  H    5.245674   4.174962   3.029313   3.517251   2.242516
    17  H    6.001392   5.404757   4.007737   4.048187   3.596021
    18  H    5.573941   4.978545   3.488141   2.884496   2.901535
    19  H    3.329806   2.890614   2.253021   3.482437   3.063270
                    6          7          8          9         10
     6  C    0.000000
     7  C    1.541607   0.000000
     8  O    2.143850   1.453700   0.000000
     9  C    1.538369   2.081045   1.449017   0.000000
    10  H    4.617937   5.016812   3.966252   3.471088   0.000000
    11  H    3.745934   4.871151   4.221869   2.905391   2.805755
    12  H    4.112167   5.151338   4.649473   3.571775   2.408297
    13  H    3.512136   4.011630   3.878498   3.481793   3.079584
    14  H    2.799181   2.602667   2.445730   2.714992   3.409202
    15  H    2.334468   3.564902   4.029015   3.144443   4.602918
    16  H    1.088447   2.273279   3.028085   2.313504   5.490429
    17  H    2.227791   1.096943   2.110975   2.795218   5.957219
    18  H    2.268717   1.096231   2.128846   2.913019   5.293938
    19  H    2.340906   2.908384   2.128937   1.092635   3.728634
                   11         12         13         14         15
    11  H    0.000000
    12  H    1.768546   0.000000
    13  H    3.789537   2.568937   0.000000
    14  H    4.354822   3.779413   1.824553   0.000000
    15  H    3.548000   3.078694   2.516425   3.128176   0.000000
    16  H    4.115375   4.691434   4.394567   3.860590   2.639187
    17  H    5.629240   6.114215   5.102175   3.674199   4.408693
    18  H    5.520117   5.472098   3.816644   2.274033   3.719923
    19  H    2.740138   3.901163   4.387476   3.751757   3.911839
                   16         17         18         19
    16  H    0.000000
    17  H    2.525030   0.000000
    18  H    3.040476   1.787847   0.000000
    19  H    2.749057   3.337657   3.866662   0.000000
 Stoichiometry    C7H10O2
 Framework group  C1[X(C7H10O2)]
 Deg. of freedom    51
 Full point group                 C1      NOp   1
 Largest Abelian subgroup         C1      NOp   1
 Largest concise Abelian subgroup C1      NOp   1
                         Standard orientation:                         
 ---------------------------------------------------------------------
 Center     Atomic      Atomic             Coordinates (Angstroms)
 Number     Number       Type             X           Y           Z
 ---------------------------------------------------------------------
      1          8           0       -2.745459   -0.884367    0.181696
      2          6           0       -2.072512    0.178439   -0.479975
      3          6           0       -0.627002    0.269697   -0.093946
      4          6           0       -0.135253    1.028600    1.109153
      5          6           0        0.389097    1.419611   -0.246195
      6          6           0        1.458089    0.438320   -0.781619
      7          6           0        2.349159   -0.310791    0.229015
      8          8           0        1.313448   -1.304837    0.457969
      9          6           0        0.469042   -0.719681   -0.563902
     10          1           0       -2.563350   -0.796200    1.123461
     11          1           0       -2.177281   -0.036952   -1.549880
     12          1           0       -2.562953    1.149240   -0.296101
     13          1           0       -0.850380    1.730795    1.528269
     14          1           0        0.491375    0.535265    1.843544
     15          1           0        0.222396    2.414075   -0.643062
     16          1           0        1.869624    0.680571   -1.759715
     17          1           0        3.241791   -0.769556   -0.213733
     18          1           0        2.632586    0.217449    1.146813
     19          1           0        0.168557   -1.436226   -1.332097
 ---------------------------------------------------------------------
 Rotational constants (GHZ):      3.3238177      1.2918087      1.1411460
 1\1\GINC-ALCHEMY-LI\FOpt\RB3LYP\6-31G(2df,p)\C7H10O2\PUCK\28-Jan-2020\
 0\\# b3lyp 6-31G(2df,p) opt Freq\\titel\\0,1\O,1.118020792,0.886101254
 7,0.2007590374\C,0.1752594901,-0.1440382248,0.4657775681\C,-1.23676883
 54,0.2942049264,0.2188644727\C,-2.0794292612,0.998673474,1.2478667707\
 C,-2.5778188974,-0.3059539606,0.6871933064\C,-3.1686734824,-0.16088594
 4,-0.7348477093\C,-3.8241315144,1.1766301899,-1.1323132462\O,-2.527944
 3721,1.7624298218,-1.4322841393\C,-1.8560710404,0.502402174,-1.1861825
 935\H,0.8279057359,1.6698258174,0.6797873112\H,0.4512430012,-0.9658438
 852,-0.2054410824\H,0.2658304504,-0.5246923888,1.4971342264\H,-1.70632
 06816,0.9310157008,2.2658817869\H,-2.554594421,1.9428126276,1.00663878
 18\H,-2.7413121363,-1.163016573,1.3298167263\H,-3.5448250301,-1.078863
 0184,-1.1826703305\H,-4.4470252014,1.1206558358,-2.0335090566\H,-4.363
 6278447,1.7297886246,-0.3547005013\H,-1.2475186413,0.170338778,-2.0307
 231789\\Version=ES64L-G09RevD.01\State=1-A\HF=-423.1146584\RMSD=5.478e
 -09\RMSF=1.220e-05\Dipole=-0.6613246,-0.5381994,0.5371674\Quadrupole=-
 2.5706338,0.9377466,1.6328871,0.7525833,1.6434546,2.626515\PG=C01 [X(C
 7H10O2)]\\@


 THERE'S NOTHING WRONG WITH FOLLOWING A TRAIN OF THOUGHT...
 AS LONG AS IT ULTIMATELY PULLS INTO THE STATION.
 Job cpu time:       0 days  0 hours  6 minutes 46.7 seconds.
 File lengths (MBytes):  RWF=     52 Int=      0 D2E=      0 Chk=      7 Scr=      1
 Normal termination of Gaussian 09 at Tue Jan 28 09:40:18 2020.
 Link1:  Proceeding to internal job step number  2.
 ----------------------------------------------------------------------
 #N Geom=AllCheck Guess=TCheck SCRF=Check GenChk RB3LYP/6-31G(2df,p) Fr
 eq
 ----------------------------------------------------------------------
 1/10=4,29=7,30=1,38=1,40=1/1,3;
 2/12=2,40=1/2;
 3/5=1,6=6,7=104,11=2,14=-4,16=1,25=1,30=1,70=2,71=2,74=-5,116=1,140=1/1,2,3;
 4/5=101/1;
 5/5=2,98=1/2;
 8/6=4,10=90,11=11/1;
 11/6=1,8=1,9=11,15=111,16=1/1,2,10;
 10/6=1/2;
 6/7=2,8=2,9=2,10=2,18=1,28=1/1;
 7/8=1,10=1,25=1/1,2,3,16;
 1/10=4,30=1/3;
 99//99;
 Structure from the checkpoint file:  "/scratch/puck/g09_a8fe275f-cca1-4ed6-9909-db556147d32a/Gau-132258.chk"
 -----
 titel
 -----
 Charge =  0 Multiplicity = 1
 Redundant internal coordinates found in file.
 O,0,1.118020792,0.8861012547,0.2007590374
 C,0,0.1752594901,-0.1440382248,0.4657775681
 C,0,-1.2367688354,0.2942049264,0.2188644727
 C,0,-2.0794292612,0.998673474,1.2478667707
 C,0,-2.5778188974,-0.3059539606,0.6871933064
 C,0,-3.1686734824,-0.160885944,-0.7348477093
 C,0,-3.8241315144,1.1766301899,-1.1323132462
 O,0,-2.5279443721,1.7624298218,-1.4322841393
 C,0,-1.8560710404,0.502402174,-1.1861825935
 H,0,0.8279057359,1.6698258174,0.6797873112
 H,0,0.4512430012,-0.9658438852,-0.2054410824
 H,0,0.2658304504,-0.5246923888,1.4971342264
 H,0,-1.7063206816,0.9310157008,2.2658817869
 H,0,-2.554594421,1.9428126276,1.0066387818
 H,0,-2.7413121363,-1.163016573,1.3298167263
 H,0,-3.5448250301,-1.0788630184,-1.1826703305
 H,0,-4.4470252014,1.1206558358,-2.0335090566
 H,0,-4.3636278447,1.7297886246,-0.3547005013
 H,0,-1.2475186413,0.170338778,-2.0307231789
 Recover connectivity data from disk.

 GradGradGradGradGradGradGradGradGradGradGradGradGradGradGradGradGradGrad
 Berny optimization.
 Initialization pass.
                           ----------------------------
                           !    Initial Parameters    !
                           ! (Angstroms and Degrees)  !
 --------------------------                            --------------------------
 ! Name  Definition              Value          Derivative Info.                !
 --------------------------------------------------------------------------------
 ! R1    R(1,2)                  1.4213         calculate D2E/DX2 analytically  !
 ! R2    R(1,10)                 0.9633         calculate D2E/DX2 analytically  !
 ! R3    R(2,3)                  1.4989         calculate D2E/DX2 analytically  !
 ! R4    R(2,11)                 1.0964         calculate D2E/DX2 analytically  !
 ! R5    R(2,12)                 1.1031         calculate D2E/DX2 analytically  !
 ! R6    R(3,4)                  1.5051         calculate D2E/DX2 analytically  !
 ! R7    R(3,5)                  1.5421         calculate D2E/DX2 analytically  !
 ! R8    R(3,9)                  1.5495         calculate D2E/DX2 analytically  !
 ! R9    R(4,5)                  1.5049         calculate D2E/DX2 analytically  !
 ! R10   R(4,13)                 1.0863         calculate D2E/DX2 analytically  !
 ! R11   R(4,14)                 1.0841         calculate D2E/DX2 analytically  !
 ! R12   R(5,6)                  1.5467         calculate D2E/DX2 analytically  !
 ! R13   R(5,15)                 1.0836         calculate D2E/DX2 analytically  !
 ! R14   R(6,7)                  1.5416         calculate D2E/DX2 analytically  !
 ! R15   R(6,9)                  1.5384         calculate D2E/DX2 analytically  !
 ! R16   R(6,16)                 1.0884         calculate D2E/DX2 analytically  !
 ! R17   R(7,8)                  1.4537         calculate D2E/DX2 analytically  !
 ! R18   R(7,17)                 1.0969         calculate D2E/DX2 analytically  !
 ! R19   R(7,18)                 1.0962         calculate D2E/DX2 analytically  !
 ! R20   R(8,9)                  1.449          calculate D2E/DX2 analytically  !
 ! R21   R(9,19)                 1.0926         calculate D2E/DX2 analytically  !
 ! A1    A(2,1,10)             107.2888         calculate D2E/DX2 analytically  !
 ! A2    A(1,2,3)              112.4709         calculate D2E/DX2 analytically  !
 ! A3    A(1,2,11)             105.197          calculate D2E/DX2 analytically  !
 ! A4    A(1,2,12)             111.714          calculate D2E/DX2 analytically  !
 ! A5    A(3,2,11)             110.8195         calculate D2E/DX2 analytically  !
 ! A6    A(3,2,12)             109.4053         calculate D2E/DX2 analytically  !
 ! A7    A(11,2,12)            107.0421         calculate D2E/DX2 analytically  !
 ! A8    A(2,3,4)              123.48           calculate D2E/DX2 analytically  !
 ! A9    A(2,3,5)              130.9505         calculate D2E/DX2 analytically  !
 ! A10   A(2,3,9)              124.4122         calculate D2E/DX2 analytically  !
 ! A11   A(4,3,9)              109.4684         calculate D2E/DX2 analytically  !
 ! A12   A(5,3,9)               88.86           calculate D2E/DX2 analytically  !
 ! A13   A(3,4,13)             114.7871         calculate D2E/DX2 analytically  !
 ! A14   A(3,4,14)             120.0586         calculate D2E/DX2 analytically  !
 ! A15   A(5,4,13)             114.1343         calculate D2E/DX2 analytically  !
 ! A16   A(5,4,14)             121.7968         calculate D2E/DX2 analytically  !
 ! A17   A(13,4,14)            114.4109         calculate D2E/DX2 analytically  !
 ! A18   A(3,5,6)               90.9446         calculate D2E/DX2 analytically  !
 ! A19   A(3,5,15)             128.253          calculate D2E/DX2 analytically  !
 ! A20   A(4,5,6)              112.8132         calculate D2E/DX2 analytically  !
 ! A21   A(4,5,15)             120.976          calculate D2E/DX2 analytically  !
 ! A22   A(6,5,15)             124.1783         calculate D2E/DX2 analytically  !
 ! A23   A(5,6,7)              118.74           calculate D2E/DX2 analytically  !
 ! A24   A(5,6,9)               89.0965         calculate D2E/DX2 analytically  !
 ! A25   A(5,6,16)             115.5425         calculate D2E/DX2 analytically  !
 ! A26   A(7,6,9)               85.0122         calculate D2E/DX2 analytically  !
 ! A27   A(7,6,16)             118.6015         calculate D2E/DX2 analytically  !
 ! A28   A(9,6,16)             122.5337         calculate D2E/DX2 analytically  !
 ! A29   A(6,7,8)               91.359          calculate D2E/DX2 analytically  !
 ! A30   A(6,7,17)             114.1408         calculate D2E/DX2 analytically  !
 ! A31   A(6,7,18)             117.6555         calculate D2E/DX2 analytically  !
 ! A32   A(8,7,17)             110.9377         calculate D2E/DX2 analytically  !
 ! A33   A(8,7,18)             112.4482         calculate D2E/DX2 analytically  !
 ! A34   A(17,7,18)            109.2117         calculate D2E/DX2 analytically  !
 ! A35   A(7,8,9)               91.603          calculate D2E/DX2 analytically  !
 ! A36   A(3,9,6)               90.9773         calculate D2E/DX2 analytically  !
 ! A37   A(3,9,8)              117.1396         calculate D2E/DX2 analytically  !
 ! A38   A(3,9,19)             115.9403         calculate D2E/DX2 analytically  !
 ! A39   A(6,9,8)               91.6692         calculate D2E/DX2 analytically  !
 ! A40   A(6,9,19)             124.8168         calculate D2E/DX2 analytically  !
 ! A41   A(8,9,19)             113.032          calculate D2E/DX2 analytically  !
 ! D1    D(10,1,2,3)            51.1668         calculate D2E/DX2 analytically  !
 ! D2    D(10,1,2,11)          171.8919         calculate D2E/DX2 analytically  !
 ! D3    D(10,1,2,12)          -72.3187         calculate D2E/DX2 analytically  !
 ! D4    D(1,2,3,4)            -86.1881         calculate D2E/DX2 analytically  !
 ! D5    D(1,2,3,5)           -162.3358         calculate D2E/DX2 analytically  !
 ! D6    D(1,2,3,9)             73.4342         calculate D2E/DX2 analytically  !
 ! D7    D(11,2,3,4)           156.3749         calculate D2E/DX2 analytically  !
 ! D8    D(11,2,3,5)            80.2272         calculate D2E/DX2 analytically  !
 ! D9    D(11,2,3,9)           -44.0029         calculate D2E/DX2 analytically  !
 ! D10   D(12,2,3,4)            38.5753         calculate D2E/DX2 analytically  !
 ! D11   D(12,2,3,5)           -37.5724         calculate D2E/DX2 analytically  !
[...]
 5612,-0.00051473,0.00237818,0.00055615,-0.00072508,-0.01171419,-0.0067
 4998,0.08890546,-0.06787381,-0.06071545,-0.14689121,0.57794121,-0.0008
 2023,0.00091977,-0.00007053,0.00326424,0.00529600,0.00272257,0.0574576
 6,-0.03188322,-0.12900140,0.11956408,0.02067614,0.59332824,-0.00216249
 ,0.00305792,-0.00138492,-0.01119404,-0.01781846,0.00551829,-0.13580565
 ,-0.01848516,0.04583311,-0.03981699,-0.06774371,-0.05013839,0.30952595
 ,0.00138965,0.00208742,-0.00012251,0.00827027,0.00655016,-0.00463136,-
 0.06398694,-0.05546223,0.04531092,-0.02301279,-0.18918714,-0.04555234,
 0.13453265,0.56341840,-0.00392442,-0.00083362,0.00147444,0.00177152,-0
 .00693903,-0.00397520,0.02241575,0.01776412,-0.02835478,-0.02518206,-0
 .02651811,-0.07491768,0.03177648,-0.15986060,0.48003694,-0.00023539,0.
 00028305,0.00031511,-0.00196321,-0.00258369,-0.00271251,-0.05773932,-0
 .02057046,-0.02688304,-0.00442776,-0.00239080,0.00246126,-0.04834041,0
 .00936163,-0.03759000,0.42269670,0.00119840,0.00031429,-0.00011280,0.0
 0018054,0.00174739,-0.00224066,-0.00918139,0.00353874,0.01061693,-0.01
 480114,0.00543943,-0.02292385,0.00672687,-0.08567457,0.00858494,0.0956
 2882,0.61740954,0.00087483,-0.00012810,0.00062869,-0.00112176,-0.00015
 461,-0.00352425,-0.02450735,-0.00632706,-0.02000052,-0.01404155,-0.004
 57558,-0.01443171,-0.05321368,0.01188380,-0.15114684,0.07790549,0.0509
 6115,0.42423919,-0.00022848,-0.00003368,0.00028865,-0.00173048,-0.0017
 0015,0.00137648,-0.00137504,0.00009619,-0.00231586,0.00169903,0.000937
 52,-0.00053880,-0.00829686,0.00076145,-0.00361766,-0.05626536,0.034326
 88,-0.01491585,0.51646793,-0.00030866,-0.00006325,-0.00001299,-0.00051
 438,-0.00101802,0.00033502,-0.00037400,-0.00365445,0.00426807,-0.00047
 102,0.00234908,-0.00140846,0.00679623,0.00508026,0.00714472,0.05638585
 ,-0.14403367,0.00397493,-0.09179166,0.42262547,-0.00081759,-0.00011875
 ,0.00008325,0.00025851,-0.00098521,-0.00012961,-0.00253282,0.00393658,
 -0.00321676,0.00053620,0.00194287,0.00089846,-0.01788651,0.02240421,-0
 .00456053,-0.02266019,0.01540199,-0.08453940,0.03142153,0.07780423,0.5
 6960601,-0.00054193,-0.00071980,0.00017461,0.00340540,0.00284906,-0.00
 404923,-0.00724939,0.01886255,-0.00907804,-0.00251714,-0.00075601,0.00
 270604,-0.00364460,-0.00030366,-0.00238545,-0.02350804,-0.01976070,0.0
 1135800,-0.14774530,-0.06843707,0.02386169,0.30996146,0.00078971,0.001
 33707,-0.00053135,-0.00347281,-0.00220678,0.00209014,0.00652621,-0.006
 65024,0.01639660,0.00356011,0.00029904,-0.00143656,0.00325760,-0.00142
 379,0.00253599,-0.01518159,-0.09182077,0.02226894,-0.02285118,-0.08381
 606,0.00397055,0.01164032,0.33987851,-0.00045592,-0.00075524,0.0006426
 8,0.00243969,0.00279609,-0.00295676,-0.01038615,0.02117121,-0.00312665
 ,-0.00127469,-0.00091503,-0.00045286,-0.00133179,-0.00085795,-0.002225
 16,0.01387712,0.03062395,0.00624076,0.01237691,0.01276291,-0.06789474,
 -0.02376376,-0.06890046,0.11149348,0.00205620,-0.00052598,0.00229732,-
 0.00599386,0.00421342,-0.02249475,-0.07187357,0.02315174,-0.03783951,0
 .00741500,-0.00428553,0.00523732,-0.01246134,-0.01359208,0.00894066,-0
 .14306641,-0.04195839,0.05024699,-0.09162639,0.03485054,0.01037297,-0.
 06944445,0.00581332,0.00299518,0.52627173,-0.00059126,-0.00072881,-0.0
 0023923,0.00180969,-0.00371603,0.00770905,0.01953056,-0.05707522,-0.02
 062570,-0.01067509,0.00399638,-0.02264737,-0.01796740,-0.00763995,0.03
 630801,-0.06247238,-0.06283091,0.00574702,0.03046416,-0.00871691,-0.00
 642295,0.06399609,-0.15476723,0.01382470,-0.04661188,0.37750297,0.0005
 0485,0.00022122,-0.00047948,-0.00635212,-0.00341160,0.00375614,-0.0264
 8616,0.00190165,-0.14270673,0.00474089,0.00757035,-0.02717640,0.023071
 65,0.01836810,-0.05540046,0.03634207,-0.01029183,-0.06002136,0.0060879
 0,-0.00189669,0.00878674,-0.00806444,0.01196695,-0.06514679,-0.1324144
 6,0.03478104,0.55123630,-0.08097759,0.13720938,0.10168929,0.00366296,-
 0.03131751,-0.01512933,0.00203628,-0.00267881,-0.00254010,-0.00068457,
 0.00133037,0.00172601,0.00056834,0.00082669,-0.00017990,0.00000130,0.0
 0009059,-0.00018181,-0.00029785,-0.00005026,0.00007634,0.00037209,-0.0
 0009050,0.00029372,-0.00040163,-0.00003223,-0.00093972,0.07841919,0.09
 441496,-0.33731045,-0.18365350,0.00926380,-0.03242280,-0.01856259,0.00
 061752,0.00379198,-0.00056937,-0.00133522,0.00041028,-0.00010711,0.000
 81390,0.00006227,0.00072059,0.00010775,-0.00004928,-0.00011205,0.00000
 754,0.00003373,0.00012071,0.00016713,-0.00043471,0.00014668,-0.0002577
 4,0.00034266,-0.00037366,-0.10101643,0.36778761,0.08588782,-0.21133574
 ,-0.13829476,0.00048425,0.00998646,0.00170811,0.00087883,0.00009474,0.
 00054779,-0.00062544,-0.00014995,0.00042534,0.00006293,0.00059295,0.00
 006030,0.00002327,-0.00008817,-0.00015689,-0.00026959,-0.00003691,0.00
 012966,0.00033006,0.00022019,-0.00005308,-0.00020221,-0.00053293,-0.00
 034141,-0.08701618,0.19956966,0.13499472,0.00320976,-0.02621713,-0.013
 24335,-0.06514948,0.05541934,0.04367885,-0.01199183,0.02323319,0.02114
 084,-0.00319144,0.00364924,-0.00305537,0.00161177,-0.00118847,0.000105
 74,0.00019731,0.00014124,0.00021091,-0.00010908,0.00004277,0.00005552,
 0.00030150,-0.00003201,-0.00040166,0.00069820,-0.00035936,0.00123989,-
 0.00297126,-0.00433610,-0.00012598,0.07637301,-0.00146563,-0.03215661,
 -0.01464081,0.04890834,-0.17887403,-0.11147194,0.00453840,-0.00530258,
 -0.00605497,0.00056153,0.00084186,0.00094521,0.00106486,-0.00001349,-0
 .00040724,-0.00001161,-0.00002001,-0.00009762,0.00001486,0.00001899,0.
 00005453,-0.00017439,0.00001651,0.00023951,-0.00023113,0.00002704,-0.0
 0108351,-0.00458196,-0.00288951,0.00015858,-0.04721818,0.20975533,-0.0
 0205023,0.00554270,0.00744664,0.04009839,-0.11917119,-0.15421132,-0.00
 162478,0.00486172,0.00417794,-0.00117186,0.00013237,0.00047955,0.00061
 084,0.00000497,0.00021423,0.00019341,0.00007704,0.00011017,-0.00017119
 ,-0.00001043,0.00006673,0.00022409,-0.00031706,-0.00003684,-0.00010224
 ,0.00080690,0.00067229,0.00066304,0.00275022,0.00123164,-0.04582259,0.
 12648609,0.15819443,-0.00328764,-0.01851660,0.02494961,-0.05233033,0.0
 1117434,-0.02670902,-0.00594528,0.01102710,-0.03256826,0.00129753,-0.0
 0049423,-0.00087826,0.00110934,-0.00087105,0.00001780,0.00011824,-0.00
 092514,-0.00043736,0.00090997,0.00030121,-0.00007586,-0.00189603,0.001
 13051,-0.00121209,-0.00274943,0.00195532,0.00279642,0.00010185,0.00138
 113,0.00013973,0.00270652,-0.00152557,0.00876353,0.06071843,-0.0110898
 0,-0.01811736,0.02682818,0.01142890,-0.07151045,0.06151676,0.00516778,
 -0.00260938,0.01192782,-0.00125020,0.00005208,0.00119046,0.00048145,0.
 00062716,0.00028316,0.00036404,0.00029398,0.00024642,-0.00005061,0.000
 07541,0.00001730,0.00010907,-0.00020865,0.00010658,0.00057762,0.000705
 14,-0.00140012,0.00014564,0.00080134,0.00146951,-0.00235493,0.00836502
 ,-0.02124014,-0.00427153,0.08183349,0.00769912,0.01040037,0.00104670,-
 0.02667489,0.06440751,-0.25975810,-0.00095712,0.00050881,-0.00819356,0
 .00072077,-0.00036602,0.00094164,-0.00037592,-0.00018127,-0.00013341,-
 0.00028033,-0.00014130,-0.00012844,0.00019865,0.00007972,-0.00003074,-
 0.00064719,0.00000325,0.00014401,0.00036581,0.00032776,0.00168854,0.00
 075870,-0.00023766,0.00051958,-0.00356202,0.00508365,-0.01922939,0.023
 65802,-0.08023975,0.28171637,-0.00035457,0.00005597,-0.00014036,0.0010
 3472,-0.00256541,-0.00011389,0.00935685,-0.00170194,0.02529273,-0.0717
 7048,0.01388431,-0.09719615,-0.00770003,0.00271101,-0.01982332,-0.0002
 1817,-0.00394874,-0.00096242,-0.00038002,-0.00041423,0.00042703,0.0000
 5766,-0.00075409,-0.00078280,-0.00301836,0.00445255,0.00236291,-0.0002
 3357,-0.00010497,0.00028948,0.00051543,-0.00010144,-0.00027568,-0.0001
 4863,0.00030246,-0.00049225,0.07512494,0.00015217,-0.00030465,0.000076
 89,0.00024299,0.00108965,-0.00145531,-0.00233961,-0.00208033,-0.003677
 20,0.01522414,-0.04899936,0.02167634,-0.00746832,0.00068515,-0.0249224
 2,0.00132063,-0.00425076,-0.00157422,-0.00040623,-0.00058486,0.0002401
 7,-0.00013167,0.00156901,0.00152838,-0.00000714,-0.00239307,0.00048862
 ,-0.00011078,0.00002208,0.00013104,0.00006781,-0.00010272,0.00007726,-
 0.00000346,-0.00018486,0.00029587,-0.01212728,0.05139271,0.00071410,0.
 00022454,0.00040197,-0.00184553,0.00171471,0.00071156,-0.00760934,0.00
 025392,-0.01797862,-0.09574073,0.01772124,-0.29338376,0.00105260,0.000
 81350,-0.00242752,0.00063962,0.00035817,0.00046994,0.00054434,-0.00003
 284,0.00022615,-0.00000093,-0.00002411,0.00036959,0.00153684,-0.002786
 89,-0.00050415,0.00025555,0.00010645,-0.00054285,-0.00029868,-0.000019
 11,0.00042448,0.00077016,-0.00060055,0.00067746,0.10105031,-0.01641550
 ,0.31500755,-0.00000584,-0.00056087,0.00005966,0.00123185,0.00425190,0
 .00235788,-0.00915211,0.01581430,-0.00803301,-0.09691459,0.11255500,-0
 .03506548,0.00899593,-0.01528514,0.01033039,0.00051336,0.00158643,0.00
 093522,0.00094463,-0.00059972,-0.00212745,-0.00013493,-0.00161163,-0.0
 0073559,-0.00083820,0.00016562,-0.00236748,-0.00017475,0.00012083,-0.0
 0014321,-0.00165934,0.00004999,0.00015083,0.00024519,-0.00008794,0.000
 16610,-0.00405073,0.00718360,-0.00058017,0.10190937,0.00040061,0.00014
 486,0.00008645,-0.00101838,0.00024278,0.00029617,-0.00043342,-0.005212
 64,-0.00466817,0.11244485,-0.25982538,0.05863455,0.00945381,-0.0165561
 8,0.00289585,-0.00001205,0.00059615,0.00251757,0.00004335,0.00017149,-
 0.00093191,-0.00044217,0.00154586,0.00205144,0.00185381,-0.00147663,0.
 00077576,-0.00002024,0.00001005,-0.00004689,-0.00022526,0.00022129,0.0
 0020349,0.00007514,-0.00004989,0.00013386,-0.00138542,0.00181576,-0.00
 081269,-0.12115266,0.27885370,0.00032547,0.00036134,0.00010265,-0.0014
 4303,-0.00181819,-0.00194602,0.00810032,-0.01741888,0.00440719,-0.0362
 3368,0.06159193,-0.06254501,0.00350755,-0.00664598,-0.00214780,0.00023
 715,-0.00058014,0.00045494,-0.00223830,-0.00089244,-0.00168510,-0.0007
 8368,0.00166927,-0.00102000,0.00105980,-0.00104304,0.00195948,0.000025
 53,0.00006796,-0.00004090,0.00108208,-0.00010349,0.00021266,0.00007430
 ,-0.00022623,0.00018111,-0.01110082,0.02360412,-0.00349593,0.03759230,
 -0.05949536,0.06555736,-0.00044425,0.00054930,-0.00032174,0.00317805,0
 .00074895,0.00075709,0.00454867,-0.01951938,0.00962476,-0.00491945,-0.
 00010479,-0.00180352,-0.04979375,-0.03626122,0.01624401,0.00242533,0.0
 1366320,-0.00128195,-0.00098156,-0.00104998,-0.00260605,0.00165889,-0.
 00089262,0.00143403,-0.00156910,-0.00194439,-0.00136678,0.00039356,0.0
 0008103,0.00016675,-0.00065238,0.00013655,0.00005487,-0.00031052,0.000
 19905,-0.00048495,0.00028382,-0.00111318,0.00013881,0.00073246,0.00157
 853,0.00006285,0.04422701,0.00020952,0.00010811,-0.00000207,-0.0003975
 8,0.00079558,0.00057531,-0.00045672,-0.00072844,-0.00480323,-0.0038758
 7,-0.01561009,0.01433305,-0.03742357,-0.22490685,0.14252377,0.00039330
 ,0.00196322,-0.00457952,0.00036411,-0.00042487,0.00012428,0.00028950,0
 .00092112,-0.00010235,-0.00056839,0.00029512,-0.00083776,0.00025852,-0
 .00006078,-0.00001355,-0.00034382,0.00008486,-0.00011030,-0.00019374,0
 .00000518,-0.00008106,0.00156429,0.00153549,-0.00051217,-0.00266776,-0
 .00134849,0.00027346,0.04278682,0.23703500,-0.00010713,0.00001939,0.00
 004227,-0.00114586,-0.00048146,0.00111876,-0.00263551,0.00327347,-0.00
 613467,-0.00181622,-0.01473088,0.01017810,0.01919050,0.14406701,-0.147
 14856,0.00613403,0.01501763,-0.00644176,0.00108868,-0.00237823,-0.0016
 2356,0.00100181,0.00171347,0.00025744,0.00015932,0.00127212,-0.0051963
 0,0.00010109,-0.00004346,-0.00008314,0.00005210,0.00008878,0.00000168,
 0.00055702,-0.00016690,0.00018696,0.00165928,0.00097026,0.00051423,-0.
 00244470,-0.00198978,0.00008771,-0.02161836,-0.14743859,0.15341841,-0.
 00011797,0.00000397,0.00006801,0.00028726,-0.00012370,-0.00120618,-0.0
 0406445,-0.00145310,0.00225795,-0.00021494,0.00150823,0.00033117,-0.00
 105558,-0.00404955,-0.00196951,-0.08211121,-0.07962935,-0.04094815,0.0
 0559443,0.01085825,0.01238035,0.00374947,-0.00295315,-0.00038168,-0.00
 215689,-0.01343396,-0.01790032,0.00008297,0.00005754,0.00002825,-0.000
 05900,0.00002433,0.00008786,-0.00037918,0.00017474,-0.00007509,0.00001
 443,0.00005134,0.00020797,-0.00012564,-0.00007909,-0.00006646,0.000720
 10,-0.00003019,-0.00027399,0.07749569,-0.00003143,0.00003614,-0.000022
 01,0.00025148,-0.00006968,-0.00011706,-0.00056424,-0.00072476,-0.00025
 945,0.00059240,0.00017106,0.00132181,0.00222768,0.00572082,0.00310965,
 -0.07906447,-0.24458717,-0.09802890,-0.01003440,-0.01063390,-0.0109701
 4,-0.00350156,-0.00536933,0.00316965,0.00338145,-0.00519278,-0.0016135
 5,0.00003299,0.00000327,0.00004736,-0.00001439,0.00003342,0.00003351,-
 0.00005961,0.00001245,-0.00000519,0.00014254,0.00036211,0.00009335,0.0
 0010921,0.00011940,0.00012483,-0.00044484,0.00046047,-0.00049720,0.086
 59667,0.25921116,-0.00036867,-0.00004808,0.00005764,0.00021944,-0.0004
 7523,0.00031783,0.00085229,0.00068610,0.00036097,-0.00212583,0.0022578
 0,-0.00480161,-0.00716457,-0.02691844,-0.00929224,-0.03959570,-0.09853
 128,-0.09401663,0.00287164,0.00501987,0.00121510,0.00128705,0.00635622
 ,-0.00228737,-0.00254206,0.01041438,0.00795135,0.00012021,0.00006703,-
 0.00003792,-0.00012292,0.00003470,0.00006754,0.00015547,-0.00000410,0.
 00003702,-0.00136713,-0.00127616,0.00010636,0.00042560,0.00022158,-0.0
 0007666,0.00086880,0.00064918,0.00130472,0.04722922,0.10236334,0.09752
 311,-0.00021600,-0.00003555,-0.00005323,0.00021334,-0.00007742,-0.0003
 4587,-0.00080898,0.00078905,0.00040847,0.00015142,-0.00001811,0.000271
 91,0.00051686,0.00103005,0.00152826,-0.00173352,0.00197531,-0.00743822
 ,-0.11617497,-0.00351397,-0.11212610,-0.03175740,-0.00596334,-0.016926
 68,-0.00020865,-0.00553720,-0.00017018,0.00008414,0.00002702,0.0000731
 7,0.00002849,-0.00000318,0.00002772,-0.00013504,0.00006621,-0.00010961
 ,0.00009176,-0.00004974,-0.00006626,-0.00030862,-0.00025781,0.00020233
 ,-0.00005886,0.00001196,-0.00024935,0.00111596,0.00030836,-0.00011096,
 0.13958858,0.00037868,0.00007344,-0.00005079,0.00008860,0.00066903,-0.
 00023364,0.00062219,0.00077505,0.00012644,-0.00094218,-0.00086578,0.00
 001531,0.00280349,-0.00349228,-0.00094853,0.01262904,0.00249215,0.0251
 1105,-0.00032645,-0.05112501,-0.00965824,-0.01599308,0.00291293,-0.009
 49053,0.00001325,-0.00419383,-0.00097517,-0.00000886,-0.00005709,0.000
 01608,0.00000036,-0.00000843,-0.00000633,-0.00014960,-0.00000690,-0.00
 003289,0.00000604,0.00012910,-0.00001525,-0.00004965,0.00037600,0.0001
 0532,0.00099262,-0.00003790,0.00055733,-0.00162063,0.00151346,0.000078
 00,0.00897248,0.04892284,-0.00030544,-0.00008879,0.00001489,0.00020710
 ,-0.00014873,0.00010590,-0.00086633,-0.00017720,-0.00001137,0.00056907
 ,0.00032039,0.00018217,-0.00070112,0.00067152,0.00050749,-0.00214284,-
 0.00181284,-0.00609927,-0.11404435,-0.01074628,-0.23332048,0.00492056,
 -0.00095725,0.01496023,0.00064370,0.00113632,-0.00081275,0.00008110,0.
 00004746,0.00001018,-0.00006594,0.00002779,0.00002669,0.00002749,0.000
 00588,-0.00001998,-0.00015254,0.00010795,-0.00004170,0.00035893,0.0002
 3405,0.00014924,-0.00037119,0.00009357,-0.00010922,0.00021255,0.000299
 49,0.00076172,0.12406874,0.01150895,0.24225763,0.00000221,0.00000158,-
 0.00007396,0.00005279,-0.00002810,-0.00036030,0.00004145,0.00022064,0.
 00030833,-0.00034876,0.00051675,-0.00025113,0.00045844,0.00038765,0.00
 015082,-0.00252412,0.00520182,0.00383586,-0.09974664,0.05644483,0.0802
 8254,-0.02236276,0.01082838,0.01893984,-0.00159563,-0.00146727,0.00369
 884,-0.00000593,0.00000642,0.00005489,0.00013171,-0.00007125,-0.000010
 51,-0.00013925,0.00002488,-0.00008756,0.00030500,-0.00030988,-0.000031
 11,-0.00109431,-0.00067599,-0.00045354,0.00000153,-0.00009883,-0.00021
 381,-0.00099828,0.00031349,0.00013049,0.01018436,-0.00742717,-0.012343
 47,0.11908696,0.00005062,0.00004338,0.00002146,-0.00017142,0.00007105,
 0.00019601,-0.00076878,-0.00013115,0.00009442,0.00013278,0.00066663,0.
 00083876,-0.00203639,0.00090888,-0.00062911,0.00967936,-0.00901821,-0.
 02008662,0.06209361,-0.12187222,-0.09593368,-0.01051308,0.01040228,0.0
 1071385,0.00130232,-0.00390100,0.00121992,-0.00000517,-0.00001297,-0.0
 0001143,-0.00005482,0.00002189,-0.00000117,0.00004934,-0.00003030,0.00
 004019,-0.00001476,0.00029350,0.00005139,0.00026101,0.00047717,-0.0000
 0184,0.00002138,0.00001407,0.00018181,0.00258330,-0.00201076,0.0002269
 8,0.00204820,0.00181910,-0.00054982,-0.06541962,0.12056612,0.00011342,
 0.00002123,0.00001839,-0.00012249,0.00009972,0.00003882,0.00006392,0.0
 0003293,-0.00010594,-0.00053130,-0.00027833,0.00012646,0.00025026,-0.0
 0062064,0.00016543,-0.00490984,0.00374733,0.00948436,0.08214456,-0.094
 46588,-0.18320862,0.00832111,0.00100759,0.00052286,-0.00231161,0.00251
 312,-0.00147482,-0.00003981,-0.00002312,-0.00002421,-0.00003421,0.0000
 0238,-0.00004704,0.00003316,-0.00000513,0.00002346,0.00015185,-0.00000
 928,0.00004928,-0.00063097,0.00003326,-0.00038748,0.00014029,0.0000513
 8,0.00019496,-0.00043776,0.00088819,-0.00002174,0.01112441,-0.01609881
 ,-0.01857652,-0.09323490,0.10371873,0.19304304,0.00028845,-0.00006457,
 0.00018777,0.00107381,-0.00006115,0.00051009,0.00940142,-0.00710596,-0
 .01156171,-0.00168215,0.00063734,-0.00327238,-0.00251490,-0.00072015,0
 .00139088,-0.00381932,0.00948475,0.01368279,-0.00065797,0.00184527,0.0
 0115988,-0.00870450,0.01025675,0.00529633,-0.12943722,0.03871844,0.115
 21623,0.00002447,-0.00001611,-0.00003684,0.00001009,0.00008549,0.00035
 449,0.00011426,0.00006316,0.00017977,0.00108996,-0.00017540,-0.0007375
 3,-0.00011372,-0.00014763,0.00004985,0.00056046,0.00017846,0.00056111,
 0.00222282,-0.00024134,-0.00076238,-0.00057287,0.00001088,-0.00009603,
 -0.00144877,0.00076211,-0.00009007,0.13416569,0.00019653,-0.00012253,0
 .00034574,0.00001603,0.00108442,-0.00009977,0.00181355,0.00294927,-0.0
 0003320,0.00033038,-0.00046947,0.00011151,-0.00227348,-0.00078404,-0.0
 0081213,-0.00386642,0.00849047,0.01295341,-0.00191528,-0.00441118,-0.0
 0099656,0.02281946,-0.01218477,-0.01811339,0.03288079,-0.07023693,-0.0
 5540971,0.00001857,-0.00002767,-0.00007100,-0.00020949,-0.00001880,-0.
 00011962,-0.00008358,-0.00005347,0.00000416,-0.00000090,0.00000604,-0.
 00011818,-0.00008251,-0.00010530,0.00042735,0.00057297,-0.00010080,0.0
 0056522,0.00151436,0.00094461,-0.00112189,0.00022766,0.00010411,0.0000
 2754,0.00155169,0.00169253,-0.00061467,-0.05351034,0.07324350,-0.00073
 128,-0.00023976,0.00066197,0.00210033,-0.00072798,0.00061472,0.0137903
 6,-0.00981118,-0.01504130,-0.00208100,0.00223010,-0.00250159,0.0013226
 9,0.00127412,-0.00072864,-0.00135407,0.00133375,-0.00112098,-0.0002877
 3,0.00049166,-0.00080255,-0.00541228,0.00196763,0.01056919,0.11405091,
 -0.06054233,-0.21679017,0.00023628,0.00008576,-0.00005216,-0.00083321,
 0.00075747,0.00019791,-0.00006186,0.00029085,0.00033077,0.00117376,0.0
 0013321,-0.00058405,-0.00024885,-0.00013924,0.00023255,0.00036226,-0.0
 0014341,-0.00056805,0.00045581,0.00006233,0.00083080,-0.00010855,-0.00
 000831,0.00001513,-0.00034131,-0.00008986,0.00017930,-0.12203225,0.063
 07518,0.22455716\\-0.00001095,-0.00001795,0.00000754,0.00000651,0.0000
 0792,0.00001377,0.00002540,0.00001805,-0.00005223,-0.00001195,0.000023
 97,0.00001223,-0.00001891,-0.00003289,0.00001887,0.00000464,0.00000939
 ,-0.00000303,0.00001367,-0.00000509,0.00000133,0.00000257,0.00000025,0
 .00000107,-0.00000561,0.00000428,0.00001386,0.00000295,-0.00000017,0.0
 0000852,-0.00000073,-0.00000487,0.00000535,-0.00000741,-0.00000013,0.0
 0000740,-0.00000102,-0.00001057,-0.00000197,-0.00000184,-0.00000163,-0
 .00000626,-0.00000491,0.00000285,-0.00000482,0.00000334,0.00000127,-0.
 00000336,0.00000326,0.00000306,-0.00000869,0.00000056,0.00000683,-0.00
 000957,0.00000044,-0.00000457,-0.00000002\\\@


 KNOWLEDGE IS OF TWO KINDS:  WE KNOW A SUBJECT OURSELVES OR WE KNOW 
 WHERE WE CAN FIND INFORMATION UPON IT.

                                    -- SAMUEL JOHNSON
 Job cpu time:       0 days  0 hours 43 minutes 56.6 seconds.
 File lengths (MBytes):  RWF=    152 Int=      0 D2E=      0 Chk=      8 Scr=      1
 Normal termination of Gaussian 09 at Tue Jan 28 10:24:12 2020.
