 Entering Gaussian System, Link 0=/home/puck/opt/gaussian_09/g09
 Input=dsC7O2H10nsd_1920.com
 Output=dsC7O2H10nsd_1920.log
 Initial command:
 /home/puck/opt/gaussian_09/l1.exe "/scratch/puck/g09_f1af038d-b4fe-4d29-a381-14e3662858f8/Gau-32732.inp" -scrdir="/scratch/puck/g09_f1af038d-b4fe-4d29-a381-14e3662858f8/"
 Entering Link 1 = /home/puck/opt/gaussian_09/l1.exe PID=     32733.
  
 Copyright (c) 1988,1990,1992,1993,1995,1998,2003,2009,2013,
            Gaussian, Inc.  All Rights Reserved.
  
 This is part of the Gaussian(R) 09 program.  It is based on
 the Gaussian(R) 03 system (copyright 2003, Gaussian, Inc.),
 the Gaussian(R) 98 system (copyright 1998, Gaussian, Inc.),
 the Gaussian(R) 94 system (copyright 1995, Gaussian, Inc.),
 the Gaussian 92(TM) system (copyright 1992, Gaussian, Inc.),
 the Gaussian 90(TM) system (copyright 1990, Gaussian, Inc.),
 the Gaussian 88(TM) system (copyright 1988, Gaussian, Inc.),
 the Gaussian 86(TM) system (copyright 1986, Carnegie Mellon
 University), and the Gaussian 82(TM) system (copyright 1983,
 Carnegie Mellon University). Gaussian is a federally registered
 trademark of Gaussian, Inc.
  
 This software contains proprietary and confidential information,
 including trade secrets, belonging to Gaussian, Inc.
  
 This software is provided under written license and may be
 used, copied, transmitted, or stored only in accord with that
 written license.
  
 The following legend is applicable only to US Government
 contracts under FAR:
  
                    RESTRICTED RIGHTS LEGEND
  
 Use, reproduction and disclosure by the US Government is
 subject to restrictions as set forth in subparagraphs (a)
 and (c) of the Commercial Computer Software - Restricted
 Rights clause in FAR 52.227-19.
  
 Gaussian, Inc.
 340 Quinnipiac St., Bldg. 40, Wallingford CT 06492
  
  
 ---------------------------------------------------------------
 Warning -- This program may not be used in any manner that
 competes with the business of Gaussian, Inc. or will provide
 assistance to any competitor of Gaussian, Inc.  The licensee
 of this program is prohibited from giving any competitor of
 Gaussian, Inc. access to this program.  By using this program,
 the user acknowledges that Gaussian, Inc. is engaged in the
 business of creating and licensing software in the field of
 computational chemistry and represents and warrants to the
 licensee that it is not a competitor of Gaussian, Inc. and that
 it will not use this program in any manner prohibited above.
 ---------------------------------------------------------------
  

 Cite this work as:
 Gaussian 09, Revision D.01,
 M. J. Frisch, G. W. Trucks, H. B. Schlegel, G. E. Scuseria, 
 M. A. Robb, J. R. Cheeseman, G. Scalmani, V. Barone, B. Mennucci, 
 G. A. Petersson, H. Nakatsuji, M. Caricato, X. Li, H. P. Hratchian, 
 A. F. Izmaylov, J. Bloino, G. Zheng, J. L. Sonnenberg, M. Hada, 
 M. Ehara, K. Toyota, R. Fukuda, J. Hasegawa, M. Ishida, T. Nakajima, 
 Y. Honda, O. Kitao, H. Nakai, T. Vreven, J. A. Montgomery, Jr., 
 J. E. Peralta, F. Ogliaro, M. Bearpark, J. J. Heyd, E. Brothers, 
 K. N. Kudin, V. N. Staroverov, T. Keith, R. Kobayashi, J. Normand, 
 K. Raghavachari, A. Rendell, J. C. Burant, S. S. Iyengar, J. Tomasi, 
 M. Cossi, N. Rega, J. M. Millam, M. Klene, J. E. Knox, J. B. Cross, 
 V. Bakken, C. Adamo, J. Jaramillo, R. Gomperts, R. E. Stratmann, 
 O. Yazyev, A. J. Austin, R. Cammi, C. Pomelli, J. W. Ochterski, 
 R. L. Martin, K. Morokuma, V. G. Zakrzewski, G. A. Voth, 
 P. Salvador, J. J. Dannenberg, S. Dapprich, A. D. Daniels, 
 O. Farkas, J. B. Foresman, J. V. Ortiz, J. Cioslowski, 
 and D. J. Fox, Gaussian, Inc., Wallingford CT, 2013.
 
 ******************************************
 Gaussian 09:  ES64L-G09RevD.01 24-Apr-2013
                27-Jan-2020 
 ******************************************
 -----------------------------
 # b3lyp 6-31G(2df,p) opt Freq
 -----------------------------
 1/14=-1,18=20,19=15,26=3,38=1/1,3;
 2/9=110,12=2,17=6,18=5,40=1/2;
 3/5=1,6=6,7=104,11=2,16=1,25=1,30=1,71=1,74=-5/1,2,3;
 4//1;
 5/5=2,38=5/2;
 6/7=2,8=2,9=2,10=2,28=1/1;
 7//1,2,3,16;
 1/14=-1,18=20,19=15,26=3/3(2);
 2/9=110/2;
 99//99;
 2/9=110/2;
 3/5=1,6=6,7=104,11=2,16=1,25=1,30=1,71=1,74=-5/1,2,3;
 4/5=5,16=3,69=1/1;
 5/5=2,38=5/2;
 7//1,2,3,16;
 1/14=-1,18=20,19=15,26=3/3(-5);
 2/9=110/2;
 6/7=2,8=2,9=2,10=2,19=2,28=1/1;
 99/9=1/99;
 -----
 titel
 -----
 Symbolic Z-matrix:
 Charge =  0 Multiplicity = 1
 C                     4.07946  -0.06787  -2.13882 
 C                     2.68865   0.17482  -1.65316 
 C                     1.75118   1.25518  -2.08374 
 C                     2.05504   1.07294  -0.60651 
 C                     1.36559  -0.20381  -0.09867 
 C                    -0.14137  -0.28391   0.01422 
 O                     1.92783  -0.96579  -1.21469 
 C                     2.07161  -0.67048   1.17221 
 O                     1.59068  -0.6357    2.27389 
 H                     4.67295  -0.60468  -1.39247 
 H                     4.06244  -0.66845  -3.05524 
 H                     4.57568   0.87981  -2.36593 
 H                     2.21946   2.13409  -2.51666 
 H                     0.77784   1.00428  -2.49423 
 H                     2.46869   1.85551   0.01562 
 H                    -0.4634    0.20178   0.93873 
 H                    -0.63006   0.19381  -0.83708 
 H                    -0.45839  -1.33043   0.0555 
 H                     3.10193  -1.04584   0.98472 
 

 GradGradGradGradGradGradGradGradGradGradGradGradGradGradGradGradGradGrad
 Berny optimization.
 Initialization pass.
                           ----------------------------
                           !    Initial Parameters    !
                           ! (Angstroms and Degrees)  !
 --------------------------                            --------------------------
 ! Name  Definition              Value          Derivative Info.                !
 --------------------------------------------------------------------------------
 ! R1    R(1,2)                  1.493          estimate D2E/DX2                !
 ! R2    R(1,10)                 1.0943         estimate D2E/DX2                !
 ! R3    R(1,11)                 1.0958         estimate D2E/DX2                !
 ! R4    R(1,12)                 1.0936         estimate D2E/DX2                !
 ! R5    R(2,3)                  1.4938         estimate D2E/DX2                !
 ! R6    R(2,4)                  1.5177         estimate D2E/DX2                !
 ! R7    R(2,7)                  1.4395         estimate D2E/DX2                !
 ! R8    R(3,4)                  1.5191         estimate D2E/DX2                !
 ! R9    R(3,13)                 1.0859         estimate D2E/DX2                !
 ! R10   R(3,14)                 1.0857         estimate D2E/DX2                !
 ! R11   R(4,5)                  1.5373         estimate D2E/DX2                !
 ! R12   R(4,15)                 1.0819         estimate D2E/DX2                !
 ! R13   R(5,6)                  1.5133         estimate D2E/DX2                !
 ! R14   R(5,7)                  1.4636         estimate D2E/DX2                !
 ! R15   R(5,8)                  1.5269         estimate D2E/DX2                !
 ! R16   R(6,16)                 1.0929         estimate D2E/DX2                !
 ! R17   R(6,17)                 1.0917         estimate D2E/DX2                !
 ! R18   R(6,18)                 1.0943         estimate D2E/DX2                !
 ! R19   R(8,9)                  1.2026         estimate D2E/DX2                !
 ! R20   R(8,19)                 1.1125         estimate D2E/DX2                !
 ! A1    A(2,1,10)             111.2915         estimate D2E/DX2                !
 ! A2    A(2,1,11)             110.2835         estimate D2E/DX2                !
 ! A3    A(2,1,12)             110.4495         estimate D2E/DX2                !
 ! A4    A(10,1,11)            108.0566         estimate D2E/DX2                !
 ! A5    A(10,1,12)            108.7021         estimate D2E/DX2                !
 ! A6    A(11,1,12)            107.9578         estimate D2E/DX2                !
 ! A7    A(1,2,3)              127.4749         estimate D2E/DX2                !
 ! A8    A(1,2,4)              135.1859         estimate D2E/DX2                !
 ! A9    A(1,2,7)              117.5571         estimate D2E/DX2                !
 ! A10   A(3,2,7)              109.2189         estimate D2E/DX2                !
 ! A11   A(4,2,7)               92.1882         estimate D2E/DX2                !
 ! A12   A(2,3,13)             115.4457         estimate D2E/DX2                !
 ! A13   A(2,3,14)             120.2949         estimate D2E/DX2                !
 ! A14   A(4,3,13)             113.4856         estimate D2E/DX2                !
 ! A15   A(4,3,14)             121.2812         estimate D2E/DX2                !
 ! A16   A(13,3,14)            115.0175         estimate D2E/DX2                !
 ! A17   A(2,4,5)               85.6175         estimate D2E/DX2                !
 ! A18   A(2,4,15)             131.6787         estimate D2E/DX2                !
 ! A19   A(3,4,5)              109.3391         estimate D2E/DX2                !
 ! A20   A(3,4,15)             123.2892         estimate D2E/DX2                !
 ! A21   A(5,4,15)             125.6068         estimate D2E/DX2                !
 ! A22   A(4,5,6)              121.011          estimate D2E/DX2                !
 ! A23   A(4,5,7)               90.4702         estimate D2E/DX2                !
 ! A24   A(4,5,8)              108.7486         estimate D2E/DX2                !
 ! A25   A(6,5,7)              114.3212         estimate D2E/DX2                !
 ! A26   A(6,5,8)              112.4689         estimate D2E/DX2                !
 ! A27   A(7,5,8)              107.3323         estimate D2E/DX2                !
 ! A28   A(5,6,16)             109.4522         estimate D2E/DX2                !
 ! A29   A(5,6,17)             111.3726         estimate D2E/DX2                !
 ! A30   A(5,6,18)             109.9947         estimate D2E/DX2                !
 ! A31   A(16,6,17)            109.469          estimate D2E/DX2                !
 ! A32   A(16,6,18)            107.9245         estimate D2E/DX2                !
 ! A33   A(17,6,18)            108.5566         estimate D2E/DX2                !
 ! A34   A(2,7,5)               91.3048         estimate D2E/DX2                !
 ! A35   A(5,8,9)              124.6625         estimate D2E/DX2                !
 ! A36   A(5,8,19)             113.0223         estimate D2E/DX2                !
 ! A37   A(9,8,19)             122.3124         estimate D2E/DX2                !
 ! D1    D(10,1,2,3)           155.122          estimate D2E/DX2                !
 ! D2    D(10,1,2,4)            71.2364         estimate D2E/DX2                !
 ! D3    D(10,1,2,7)           -54.661          estimate D2E/DX2                !
 ! D4    D(11,1,2,3)           -84.9649         estimate D2E/DX2                !
 ! D5    D(11,1,2,4)          -168.8506         estimate D2E/DX2                !
 ! D6    D(11,1,2,7)            65.252          estimate D2E/DX2                !
 ! D7    D(12,1,2,3)            34.2849         estimate D2E/DX2                !
 ! D8    D(12,1,2,4)           -49.6008         estimate D2E/DX2                !
 ! D9    D(12,1,2,7)          -175.4982         estimate D2E/DX2                !
 ! D10   D(1,2,3,13)           -22.6771         estimate D2E/DX2                !
 ! D11   D(1,2,3,14)           122.446          estimate D2E/DX2                !
 ! D12   D(7,2,3,13)          -174.879          estimate D2E/DX2                !
 ! D13   D(7,2,3,14)           -29.756          estimate D2E/DX2                !
 ! D14   D(1,2,4,5)           -129.2294         estimate D2E/DX2                !
 ! D15   D(1,2,4,15)             6.2979         estimate D2E/DX2                !
 ! D16   D(7,2,4,5)              4.8241         estimate D2E/DX2                !
 ! D17   D(7,2,4,15)           140.3514         estimate D2E/DX2                !
 ! D18   D(1,2,7,5)            140.1009         estimate D2E/DX2                !
 ! D19   D(3,2,7,5)            -64.5742         estimate D2E/DX2                !
 ! D20   D(4,2,7,5)             -5.054          estimate D2E/DX2                !
 ! D21   D(13,3,4,5)          -179.1795         estimate D2E/DX2                !
 ! D22   D(13,3,4,15)           15.2155         estimate D2E/DX2                !
 ! D23   D(14,3,4,5)            37.3533         estimate D2E/DX2                !
 ! D24   D(14,3,4,15)         -128.2517         estimate D2E/DX2                !
 ! D25   D(2,4,5,6)           -123.7853         estimate D2E/DX2                !
 ! D26   D(2,4,5,7)             -4.741          estimate D2E/DX2                !
 ! D27   D(2,4,5,8)            103.765          estimate D2E/DX2                !
 ! D28   D(3,4,5,6)            -68.9172         estimate D2E/DX2                !
 ! D29   D(3,4,5,7)             50.127          estimate D2E/DX2                !
 ! D30   D(3,4,5,8)            158.633          estimate D2E/DX2                !
 ! D31   D(15,4,5,6)            96.2735         estimate D2E/DX2                !
 ! D32   D(15,4,5,7)          -144.6823         estimate D2E/DX2                !
 ! D33   D(15,4,5,8)           -36.1763         estimate D2E/DX2                !
 ! D34   D(4,5,6,16)           -80.8103         estimate D2E/DX2                !
 ! D35   D(4,5,6,17)            40.3739         estimate D2E/DX2                !
 ! D36   D(4,5,6,18)           160.7757         estimate D2E/DX2                !
 ! D37   D(7,5,6,16)           172.7986         estimate D2E/DX2                !
 ! D38   D(7,5,6,17)           -66.0172         estimate D2E/DX2                !
 ! D39   D(7,5,6,18)            54.3846         estimate D2E/DX2                !
 ! D40   D(8,5,6,16)            50.0667         estimate D2E/DX2                !
 ! D41   D(8,5,6,17)           171.251          estimate D2E/DX2                !
 ! D42   D(8,5,6,18)           -68.3473         estimate D2E/DX2                !
 ! D43   D(4,5,7,2)              4.986          estimate D2E/DX2                !
 ! D44   D(6,5,7,2)            129.6741         estimate D2E/DX2                !
 ! D45   D(8,5,7,2)           -104.8469         estimate D2E/DX2                !
 ! D46   D(4,5,8,9)            110.6881         estimate D2E/DX2                !
 ! D47   D(4,5,8,19)           -68.7049         estimate D2E/DX2                !
 ! D48   D(6,5,8,9)            -26.1268         estimate D2E/DX2                !
 ! D49   D(6,5,8,19)           154.4801         estimate D2E/DX2                !
 ! D50   D(7,5,8,9)           -152.7077         estimate D2E/DX2                !
 ! D51   D(7,5,8,19)            27.8993         estimate D2E/DX2                !
 --------------------------------------------------------------------------------
 Trust Radius=3.00D-01 FncErr=1.00D-07 GrdErr=1.00D-06
 Number of steps in this run=    114 maximum allowed number of steps=    114.
 GradGradGradGradGradGradGradGradGradGradGradGradGradGradGradGradGradGrad

                          Input orientation:                          
 ---------------------------------------------------------------------
 Center     Atomic      Atomic             Coordinates (Angstroms)
 Number     Number       Type             X           Y           Z
 ---------------------------------------------------------------------
      1          6           0        4.079455   -0.067875   -2.138825
      2          6           0        2.688649    0.174823   -1.653164
      3          6           0        1.751184    1.255179   -2.083739
      4          6           0        2.055044    1.072939   -0.606515
      5          6           0        1.365593   -0.203810   -0.098671
      6          6           0       -0.141371   -0.283915    0.014223
      7          8           0        1.927830   -0.965794   -1.214688
      8          6           0        2.071615   -0.670480    1.172211
      9          8           0        1.590684   -0.635703    2.273888
     10          1           0        4.672953   -0.604679   -1.392469
     11          1           0        4.062444   -0.668454   -3.055243
     12          1           0        4.575682    0.879811   -2.365932
     13          1           0        2.219461    2.134091   -2.516663
     14          1           0        0.777842    1.004278   -2.494231
     15          1           0        2.468686    1.855513    0.015622
     16          1           0       -0.463403    0.201783    0.938731
     17          1           0       -0.630058    0.193812   -0.837083
     18          1           0       -0.458388   -1.330431    0.055499
     19          1           0        3.101929   -1.045842    0.984718
 ---------------------------------------------------------------------
                    Distance matrix (angstroms):
                    1          2          3          4          5
     1  C    0.000000
     2  C    1.493020   0.000000
     3  C    2.678498   1.493789   0.000000
     4  C    2.783464   1.517743   1.519123   0.000000
     5  C    3.397904   2.076124   2.493557   1.537315   0.000000
     6  C    4.743170   3.316570   3.217456   2.655298   1.513309
     7  O    2.507944   1.439484   2.391480   2.131313   1.463634
     8  C    3.918866   3.012974   3.796321   2.490713   1.526888
     9  O    5.097886   4.157429   4.752905   3.381096   2.422030
    10  H    1.094279   2.147800   3.531807   3.207114   3.573967
    11  H    1.095814   2.136412   3.160081   3.613638   4.028675
    12  H    1.093585   2.136806   2.863271   3.080010   4.076687
    13  H    2.907059   2.191917   1.085906   2.191287   3.470094
    14  H    3.489481   2.246459   1.085749   2.280227   2.746569
    15  H    3.306907   2.378645   2.298375   1.081931   2.338950
    16  H    5.493781   4.080941   3.892219   3.080467   2.141480
    17  H    4.893110   3.417626   2.889804   2.834749   2.164713
    18  H    5.196260   3.884477   4.017950   3.540027   2.149407
    19  H    3.415919   2.935855   4.066281   2.849075   2.213054
                    6          7          8          9         10
     6  C    0.000000
     7  O    2.501354   0.000000
     8  C    2.527385   2.409392   0.000000
     9  O    2.868772   3.520339   1.202579   0.000000
    10  H    5.025872   2.774475   3.653611   4.789940   0.000000
    11  H    5.219345   2.834191   4.672770   5.874548   1.772458
    12  H    5.410174   3.426769   4.603500   5.721445   1.777865
    13  H    4.222045   3.374830   4.636299   5.569245   3.845035
    14  H    2.965930   2.615509   4.233375   5.107368   4.355975
    15  H    3.374841   3.125054   2.806422   3.475171   3.590830
    16  H    1.092850   3.423221   2.691036   2.589073   5.697985
    17  H    1.091678   2.833736   3.476104   3.911257   5.391472
    18  H    1.094257   2.727704   2.843149   3.098805   5.380891
    19  H    3.470070   2.494454   1.112473   2.028308   2.883360
                   11         12         13         14         15
    11  H    0.000000
    12  H    1.770787   0.000000
    13  H    3.397192   2.673521   0.000000
    14  H    3.728455   3.802044   1.831733   0.000000
    15  H    4.282603   3.326142   2.559723   3.143711   0.000000
    16  H    6.098561   6.064066   4.782397   3.737636   3.490574
    17  H    5.261494   5.468794   3.834766   2.320599   3.618090
    18  H    5.527464   6.007525   5.078366   3.671547   4.326614
    19  H    4.169689   4.136055   4.811485   4.659127   3.123781
                   16         17         18         19
    16  H    0.000000
    17  H    1.783635   0.000000
    18  H    1.768560   1.774680   0.000000
    19  H    3.777602   4.333985   3.690568   0.000000
 Stoichiometry    C7H10O2
 Framework group  C1[X(C7H10O2)]
 Deg. of freedom    51
 Full point group                 C1      NOp   1
 Largest Abelian subgroup         C1      NOp   1
 Largest concise Abelian subgroup C1      NOp   1
                         Standard orientation:                         
 ---------------------------------------------------------------------
 Center     Atomic      Atomic             Coordinates (Angstroms)
 Number     Number       Type             X           Y           Z
 ---------------------------------------------------------------------
      1          6           0        2.425570   -1.152643   -0.197800
      2          6           0        1.380643   -0.092720   -0.080335
      3          6           0        1.520141    1.255398    0.547776
      4          6           0        0.396732    0.334939    0.993244
      5          6           0       -0.665818    0.255261   -0.114896
      6          6           0       -1.531883    1.449592   -0.451955
      7          8           0        0.371663   -0.035752   -1.105435
      8          6           0       -1.481362   -1.021083    0.078030
      9          8           0       -2.633604   -1.051210    0.421000
     10          1           0        1.975570   -2.146193   -0.286144
     11          1           0        3.043973   -0.979687   -1.085759
     12          1           0        3.081390   -1.141279    0.677243
     13          1           0        2.317999    1.349421    1.278375
     14          1           0        1.318523    2.152314   -0.029929
     15          1           0        0.264208    0.012273    2.017402
     16          1           0       -2.352977    1.517938    0.265997
     17          1           0       -0.955457    2.376523   -0.434806
     18          1           0       -1.965703    1.327687   -1.449120
     19          1           0       -0.896137   -1.945764   -0.122154
 ---------------------------------------------------------------------
 Rotational constants (GHZ):      2.9769745      1.3006030      1.1067515
 Standard basis: 6-31G(2df,p) (6D, 7F)
 There are   329 symmetry adapted cartesian basis functions of A   symmetry.
 There are   302 symmetry adapted basis functions of A   symmetry.
   302 basis functions,   466 primitive gaussians,   329 cartesian basis functions
    34 alpha electrons       34 beta electrons
       nuclear repulsion energy       464.0955933470 Hartrees.
 NAtoms=   19 NActive=   19 NUniq=   19 SFac= 1.00D+00 NAtFMM=   60 NAOKFM=F Big=F
 Integral buffers will be    131072 words long.
 Raffenetti 2 integral format.
 Two-electron integral symmetry is turned on.
 One-electron integrals computed using PRISM.
 NBasis=   302 RedAO= T EigKep=  5.72D-04  NBF=   302
 NBsUse=   302 1.00D-06 EigRej= -1.00D+00 NBFU=   302
 ExpMin= 1.61D-01 ExpMax= 5.48D+03 ExpMxC= 8.25D+02 IAcc=1 IRadAn=         1 AccDes= 0.00D+00
 Harris functional with IExCor=  402 and IRadAn=       1 diagonalized for initial guess.
 HarFok:  IExCor=  402 AccDes= 0.00D+00 IRadAn=         1 IDoV= 1 UseB2=F ITyADJ=14
 ICtDFT=  3500011 ScaDFX=  1.000000  1.000000  1.000000  1.000000
 FoFCou: FMM=F IPFlag=           0 FMFlag=      100000 FMFlg1=           0
         NFxFlg=           0 DoJE=T BraDBF=F KetDBF=T FulRan=T
         wScrn=  0.000000 ICntrl=     500 IOpCl=  0 I1Cent=   200000004 NGrid=           0
         NMat0=    1 NMatS0=      1 NMatT0=    0 NMatD0=    1 NMtDS0=    0 NMtDT0=    0
 Petite list used in FoFCou.
 Requested convergence on RMS density matrix=1.00D-08 within 128 cycles.
 Requested convergence on MAX density matrix=1.00D-06.
 Requested convergence on             energy=1.00D-06.
 No special actions if energy rises.
 Integral accuracy reduced to 1.0D-05 until final iterations.
 Initial convergence to 1.0D-05 achieved.  Increase integral accuracy.
 SCF Done:  E(RB3LYP) =  -423.160582230     A.U. after   14 cycles
            NFock= 14  Conv=0.62D-08     -V/T= 2.0075

 **********************************************************************

            Population analysis using the SCF density.

 **********************************************************************

 Orbital symmetries:
       Occupied  (A) (A) (A) (A) (A) (A) (A) (A) (A) (A) (A) (A)
                 (A) (A) (A) (A) (A) (A) (A) (A) (A) (A) (A) (A)
                 (A) (A) (A) (A) (A) (A) (A) (A) (A) (A)
       Virtual   (A) (A) (A) (A) (A) (A) (A) (A) (A) (A) (A) (A)
                 (A) (A) (A) (A) (A) (A) (A) (A) (A) (A) (A) (A)
                 (A) (A) (A) (A) (A) (A) (A) (A) (A) (A) (A) (A)
                 (A) (A) (A) (A) (A) (A) (A) (A) (A) (A) (A) (A)
                 (A) (A) (A) (A) (A) (A) (A) (A) (A) (A) (A) (A)
                 (A) (A) (A) (A) (A) (A) (A) (A) (A) (A) (A) (A)
                 (A) (A) (A) (A) (A) (A) (A) (A) (A) (A) (A) (A)
                 (A) (A) (A) (A) (A) (A) (A) (A) (A) (A) (A) (A)
                 (A) (A) (A) (A) (A) (A) (A) (A) (A) (A) (A) (A)
                 (A) (A) (A) (A) (A) (A) (A) (A) (A) (A) (A) (A)
                 (A) (A) (A) (A) (A) (A) (A) (A) (A) (A) (A) (A)
                 (A) (A) (A) (A) (A) (A) (A) (A) (A) (A) (A) (A)
                 (A) (A) (A) (A) (A) (A) (A) (A) (A) (A) (A) (A)
                 (A) (A) (A) (A) (A) (A) (A) (A) (A) (A) (A) (A)
                 (A) (A) (A) (A) (A) (A) (A) (A) (A) (A) (A) (A)
                 (A) (A) (A) (A) (A) (A) (A) (A) (A) (A) (A) (A)
                 (A) (A) (A) (A) (A) (A) (A) (A) (A) (A) (A) (A)
                 (A) (A) (A) (A) (A) (A) (A) (A) (A) (A) (A) (A)
                 (A) (A) (A) (A) (A) (A) (A) (A) (A) (A) (A) (A)
                 (A) (A) (A) (A) (A) (A) (A) (A) (A) (A) (A) (A)
                 (A) (A) (A) (A) (A) (A) (A) (A) (A) (A) (A) (A)
                 (A) (A) (A) (A) (A) (A) (A) (A) (A) (A) (A) (A)
                 (A) (A) (A) (A)
 The electronic state is 1-A.
 Alpha  occ. eigenvalues --  -19.14802 -19.14672 -10.27089 -10.25428 -10.25296
 Alpha  occ. eigenvalues --  -10.20682 -10.19770 -10.19284 -10.17977  -1.06498
 Alpha  occ. eigenvalues --   -1.04979  -0.84345  -0.77919  -0.72993  -0.67803
 Alpha  occ. eigenvalues --   -0.60979  -0.56721  -0.53378  -0.51093  -0.50517
 Alpha  occ. eigenvalues --   -0.46135  -0.44320  -0.43063  -0.42120  -0.40896
 Alpha  occ. eigenvalues --   -0.40524  -0.38986  -0.38579  -0.37084  -0.33997
 Alpha  occ. eigenvalues --   -0.32226  -0.29285  -0.26279  -0.23782
 Alpha virt. eigenvalues --   -0.03032   0.07921   0.09282   0.10458   0.11410
 Alpha virt. eigenvalues --    0.12302   0.13542   0.14581   0.15626   0.16536
 Alpha virt. eigenvalues --    0.16989   0.18660   0.19608   0.20535   0.21988
 Alpha virt. eigenvalues --    0.23549   0.25708   0.26708   0.27478   0.31009
 Alpha virt. eigenvalues --    0.34484   0.40393   0.42890   0.44424   0.46667
 Alpha virt. eigenvalues --    0.48243   0.49424   0.50536   0.51688   0.52310
 Alpha virt. eigenvalues --    0.52506   0.53914   0.54868   0.57833   0.59773
 Alpha virt. eigenvalues --    0.61098   0.62817   0.64246   0.67144   0.68314
 Alpha virt. eigenvalues --    0.70375   0.70900   0.71809   0.72814   0.73174
 Alpha virt. eigenvalues --    0.73850   0.75413   0.76555   0.78189   0.78687
 Alpha virt. eigenvalues --    0.81969   0.82634   0.84236   0.85951   0.87187
 Alpha virt. eigenvalues --    0.89074   0.91032   0.92771   0.93234   0.95159
 Alpha virt. eigenvalues --    0.99891   1.02099   1.03732   1.05556   1.07448
 Alpha virt. eigenvalues --    1.11230   1.12710   1.16745   1.17467   1.20760
 Alpha virt. eigenvalues --    1.21350   1.25362   1.28058   1.29237   1.31281
 Alpha virt. eigenvalues --    1.32042   1.35401   1.36273   1.38381   1.40094
 Alpha virt. eigenvalues --    1.40757   1.42931   1.43624   1.48668   1.49165
 Alpha virt. eigenvalues --    1.49685   1.53160   1.54230   1.55385   1.57179
 Alpha virt. eigenvalues --    1.59872   1.61499   1.62689   1.64171   1.67464
 Alpha virt. eigenvalues --    1.69373   1.71370   1.73233   1.75691   1.76588
 Alpha virt. eigenvalues --    1.79517   1.81375   1.82423   1.86833   1.89286
 Alpha virt. eigenvalues --    1.94101   1.94827   1.95656   1.98149   2.03372
 Alpha virt. eigenvalues --    2.09666   2.12357   2.17415   2.18379   2.25749
 Alpha virt. eigenvalues --    2.29233   2.30811   2.33216   2.36090   2.36561
 Alpha virt. eigenvalues --    2.42194   2.44640   2.48005   2.50712   2.54526
 Alpha virt. eigenvalues --    2.56085   2.63875   2.67335   2.68979   2.74725
 Alpha virt. eigenvalues --    2.77448   2.79810   2.80819   2.81422   2.84814
 Alpha virt. eigenvalues --    2.85243   2.87341   2.89705   2.91554   2.92042
 Alpha virt. eigenvalues --    2.95406   2.95737   2.96955   2.99925   3.01573
 Alpha virt. eigenvalues --    3.02201   3.04722   3.05934   3.09689   3.11340
 Alpha virt. eigenvalues --    3.13976   3.15444   3.17995   3.22769   3.24730
 Alpha virt. eigenvalues --    3.26636   3.29002   3.32828   3.34623   3.35867
 Alpha virt. eigenvalues --    3.37816   3.39355   3.42817   3.43513   3.44583
 Alpha virt. eigenvalues --    3.46972   3.50579   3.52091   3.57004   3.59550
 Alpha virt. eigenvalues --    3.60925   3.66317   3.68659   3.73851   3.76265
 Alpha virt. eigenvalues --    3.79720   3.82735   3.86767   3.88124   3.91485
 Alpha virt. eigenvalues --    3.93942   3.95902   4.01678   4.03663   4.08041
 Alpha virt. eigenvalues --    4.09482   4.13200   4.16416   4.18866   4.21769
 Alpha virt. eigenvalues --    4.24439   4.26834   4.29619   4.31978   4.32629
 Alpha virt. eigenvalues --    4.35722   4.38447   4.40931   4.41993   4.44564
 Alpha virt. eigenvalues --    4.46577   4.50252   4.53051   4.53750   4.54906
 Alpha virt. eigenvalues --    4.58724   4.60447   4.62032   4.63412   4.64025
 Alpha virt. eigenvalues --    4.66452   4.69585   4.70396   4.73056   4.74430
 Alpha virt. eigenvalues --    4.75798   4.77284   4.78069   4.79601   4.81461
 Alpha virt. eigenvalues --    4.82892   4.84041   4.87001   4.91064   4.92974
 Alpha virt. eigenvalues --    4.95519   5.02349   5.02577   5.06538   5.08437
 Alpha virt. eigenvalues --    5.08717   5.09743   5.16600   5.20699   5.24809
 Alpha virt. eigenvalues --    5.30402   5.33711   5.39591   5.45145   5.46260
 Alpha virt. eigenvalues --    5.53340   5.55354   5.58656   5.63773   5.71931
 Alpha virt. eigenvalues --    5.76992   5.77882   5.85619   5.88826   5.98420
 Alpha virt. eigenvalues --    6.02678   6.05147   6.13210   6.17310   6.31435
 Alpha virt. eigenvalues --    6.44676   6.55952   6.85339   7.25463  10.74784
 Alpha virt. eigenvalues --   11.10827  11.55560  11.64075  12.08517  12.31024
 Alpha virt. eigenvalues --   12.48219  12.97784  13.69280
          Condensed to atoms (all electrons):
               1          2          3          4          5          6
     1  C    5.158166   0.411965  -0.070636  -0.043651   0.006642  -0.000334
     2  C    0.411965   4.268962   0.348340   0.316699  -0.091936  -0.004822
     3  C   -0.070636   0.348340   5.142532   0.279114   0.007102  -0.006197
     4  C   -0.043651   0.316699   0.279114   5.136605   0.309279  -0.031596
     5  C    0.006642  -0.091936   0.007102   0.309279   4.884096   0.369790
     6  C   -0.000334  -0.004822  -0.006197  -0.031596   0.369790   5.098536
     7  O   -0.040539   0.349206  -0.029321  -0.060058   0.240774  -0.024541
     8  C    0.000853   0.008002   0.000327  -0.027583   0.252159  -0.035861
     9  O    0.000002   0.000041  -0.000019  -0.000518  -0.062776  -0.004815
    10  H    0.356359  -0.015098   0.006145  -0.003998  -0.001266  -0.000020
    11  H    0.359192  -0.015483  -0.003503   0.005335  -0.000109   0.000022
    12  H    0.357494  -0.009236  -0.000645  -0.002321  -0.000097   0.000009
    13  H   -0.002813  -0.014761   0.358265  -0.013342   0.001777   0.000147
    14  H    0.002041  -0.009730   0.353488  -0.014727  -0.008268   0.001151
    15  H   -0.002552  -0.020108  -0.036390   0.373020  -0.039724   0.002576
    16  H    0.000010   0.000231  -0.000013  -0.000041  -0.021647   0.360704
    17  H   -0.000001   0.000814   0.002541  -0.010053  -0.012838   0.363739
    18  H    0.000024   0.000532   0.000026   0.004264  -0.014107   0.360748
    19  H   -0.000706   0.002708   0.000006   0.004180  -0.117889   0.007868
               7          8          9         10         11         12
     1  C   -0.040539   0.000853   0.000002   0.356359   0.359192   0.357494
     2  C    0.349206   0.008002   0.000041  -0.015098  -0.015483  -0.009236
     3  C   -0.029321   0.000327  -0.000019   0.006145  -0.003503  -0.000645
     4  C   -0.060058  -0.027583  -0.000518  -0.003998   0.005335  -0.002321
     5  C    0.240774   0.252159  -0.062776  -0.001266  -0.000109  -0.000097
     6  C   -0.024541  -0.035861  -0.004815  -0.000020   0.000022   0.000009
     7  O    7.924636  -0.016235   0.001113   0.001701  -0.000748   0.002207
     8  C   -0.016235   4.560665   0.764394  -0.000109  -0.000014  -0.000012
     9  O    0.001113   0.764394   7.596546  -0.000003   0.000000   0.000000
    10  H    0.001701  -0.000109  -0.000003   0.586330  -0.034286  -0.028291
    11  H   -0.000748  -0.000014   0.000000  -0.034286   0.580677  -0.029113
    12  H    0.002207  -0.000012   0.000000  -0.028291  -0.029113   0.580837
    13  H    0.002321  -0.000061   0.000000  -0.000058   0.000317   0.001689
    14  H   -0.001352   0.000281  -0.000002  -0.000131   0.000485  -0.000086
    15  H    0.005787  -0.001808   0.000466   0.000630  -0.000051   0.000205
    16  H    0.002242   0.001093   0.009258   0.000000   0.000000   0.000000
    17  H   -0.000484   0.003706   0.000260  -0.000002   0.000000   0.000000
    18  H   -0.001002   0.000562   0.000752   0.000001  -0.000002   0.000000
    19  H    0.010389   0.346176  -0.050851   0.002530   0.000022   0.000025
              13         14         15         16         17         18
     1  C   -0.002813   0.002041  -0.002552   0.000010  -0.000001   0.000024
     2  C   -0.014761  -0.009730  -0.020108   0.000231   0.000814   0.000532
     3  C    0.358265   0.353488  -0.036390  -0.000013   0.002541   0.000026
     4  C   -0.013342  -0.014727   0.373020  -0.000041  -0.010053   0.004264
     5  C    0.001777  -0.008268  -0.039724  -0.021647  -0.012838  -0.014107
     6  C    0.000147   0.001151   0.002576   0.360704   0.363739   0.360748
     7  O    0.002321  -0.001352   0.005787   0.002242  -0.000484  -0.001002
     8  C   -0.000061   0.000281  -0.001808   0.001093   0.003706   0.000562
     9  O    0.000000  -0.000002   0.000466   0.009258   0.000260   0.000752
    10  H   -0.000058  -0.000131   0.000630   0.000000  -0.000002   0.000001
    11  H    0.000317   0.000485  -0.000051   0.000000   0.000000  -0.000002
    12  H    0.001689  -0.000086   0.000205   0.000000   0.000000   0.000000
    13  H    0.586241  -0.034219  -0.004088  -0.000006  -0.000082  -0.000001
    14  H   -0.034219   0.586684   0.001414   0.000030   0.004388  -0.000261
    15  H   -0.004088   0.001414   0.610721   0.000064  -0.000156  -0.000107
    16  H   -0.000006   0.000030   0.000064   0.558432  -0.027958  -0.026200
    17  H   -0.000082   0.004388  -0.000156  -0.027958   0.587950  -0.031374
    18  H   -0.000001  -0.000261  -0.000107  -0.026200  -0.031374   0.571726
    19  H    0.000002  -0.000008   0.001112   0.000519  -0.000146   0.000130
              19
     1  C   -0.000706
     2  C    0.002708
     3  C    0.000006
     4  C    0.004180
     5  C   -0.117889
     6  C    0.007868
     7  O    0.010389
     8  C    0.346176
     9  O   -0.050851
    10  H    0.002530
    11  H    0.000022
    12  H    0.000025
    13  H    0.000002
    14  H   -0.000008
    15  H    0.001112
    16  H    0.000519
    17  H   -0.000146
    18  H    0.000130
    19  H    0.707694
 Mulliken charges:
               1
     1  C   -0.491515
     2  C    0.473673
     3  C   -0.351163
     4  C   -0.220604
     5  C    0.299039
     6  C   -0.457103
     7  O   -0.366095
     8  C    0.143466
     9  O   -0.253846
    10  H    0.129566
    11  H    0.137258
    12  H    0.127335
    13  H    0.118672
    14  H    0.118822
    15  H    0.108989
    16  H    0.143283
    17  H    0.119695
    18  H    0.134289
    19  H    0.086237
 Sum of Mulliken charges =   0.00000
 Mulliken charges with hydrogens summed into heavy atoms:
               1
     1  C   -0.097355
     2  C    0.473673
     3  C   -0.113668
     4  C   -0.111616
     5  C    0.299039
     6  C   -0.059836
     7  O   -0.366095
     8  C    0.229703
     9  O   -0.253846
 Electronic spatial extent (au):  <R**2>=           1165.8126
 Charge=              0.0000 electrons
 Dipole moment (field-independent basis, Debye):
    X=              2.6655    Y=              0.5669    Z=              0.9208  Tot=              2.8765
 Quadrupole moment (field-independent basis, Debye-Ang):
   XX=            -57.4594   YY=            -52.0584   ZZ=            -54.0148
   XY=             -3.6160   XZ=              3.2782   YZ=              0.2928
 Traceless Quadrupole moment (field-independent basis, Debye-Ang):
   XX=             -2.9485   YY=              2.4524   ZZ=              0.4961
   XY=             -3.6160   XZ=              3.2782   YZ=              0.2928
 Octapole moment (field-independent basis, Debye-Ang**2):
  XXX=             24.2147  YYY=             -3.5285  ZZZ=              2.2212  XYY=              1.1286
  XXY=              8.3436  XXZ=             -5.7599  XZZ=             -2.5211  YZZ=             -1.8702
  YYZ=             -3.5338  XYZ=             -1.0115
 Hexadecapole moment (field-independent basis, Debye-Ang**3):
 XXXX=           -976.6002 YYYY=           -388.4244 ZZZZ=           -180.6491 XXXY=            -25.4123
 XXXZ=             13.3605 YYYX=              9.3890 YYYZ=             -2.6566 ZZZX=             -1.6969
 ZZZY=             -3.7434 XXYY=           -229.9624 XXZZ=           -173.8001 YYZZ=            -99.7884
 XXYZ=              8.9197 YYXZ=              0.0917 ZZXY=              2.0692
 N-N= 4.640955933470D+02 E-N=-1.914476303519D+03  KE= 4.200184736916D+02
 Calling FoFJK, ICntrl=      2127 FMM=F ISym2X=0 I1Cent= 0 IOpClX= 0 NMat=1 NMatS=1 NMatT=0.
 ***** Axes restored to original set *****
 -------------------------------------------------------------------
 Center     Atomic                   Forces (Hartrees/Bohr)
 Number     Number              X              Y              Z
 -------------------------------------------------------------------
      1        6           0.000012387    0.000001857    0.000011398
      2        6          -0.000011502    0.000023662   -0.000009212
      3        6           0.000026128   -0.000005069    0.000017137
      4        6           0.000007844   -0.000002658    0.000019460
      5        6          -0.000036849   -0.000055684   -0.000004672
      6        6           0.000009649    0.000003811   -0.000016438
      7        8          -0.000003790    0.000010981    0.000001350
      8        6          -0.000002004    0.000002937   -0.000001116
      9        8          -0.000002681   -0.000002665   -0.000005814
     10        1           0.000001507    0.000008581    0.000003591
     11        1           0.000003472    0.000005917    0.000003878
     12        1          -0.000000123    0.000007005    0.000002903
     13        1          -0.000009903    0.000010556    0.000002502
     14        1           0.000001205    0.000006348   -0.000001661
     15        1           0.000001799    0.000002714   -0.000004953
     16        1          -0.000000463   -0.000007782   -0.000003834
     17        1           0.000001290   -0.000004913   -0.000006377
     18        1          -0.000001227   -0.000005240   -0.000003479
     19        1           0.000003261   -0.000000361   -0.000004665
 -------------------------------------------------------------------
 Cartesian Forces:  Max     0.000055684 RMS     0.000012059

 GradGradGradGradGradGradGradGradGradGradGradGradGradGradGradGradGradGrad
 Berny optimization.
 FormGI is forming the generalized inverse of G from B-inverse, IUseBI=4.
 Internal  Forces:  Max     0.000019081 RMS     0.000004987
 Search for a local minimum.
 Step number   1 out of a maximum of  114
 All quantities printed in internal units (Hartrees-Bohrs-Radians)
 Mixed Optimization -- En-DIIS/RFO-DIIS
 Second derivative matrix not updated -- first step.
 ITU=  0
     Eigenvalues ---    0.00410   0.00411   0.00590   0.00858   0.00953
     Eigenvalues ---    0.01817   0.02713   0.03093   0.03187   0.03703
     Eigenvalues ---    0.05281   0.05685   0.05713   0.05845   0.05919
     Eigenvalues ---    0.05975   0.07637   0.08899   0.10731   0.10975
     Eigenvalues ---    0.11883   0.16000   0.16000   0.16000   0.16000
     Eigenvalues ---    0.16000   0.16000   0.16000   0.16935   0.19729
     Eigenvalues ---    0.22000   0.22091   0.24041   0.26563   0.29713
     Eigenvalues ---    0.30600   0.31020   0.32340   0.33121   0.34030
     Eigenvalues ---    0.34149   0.34323   0.34325   0.34402   0.34485
     Eigenvalues ---    0.34619   0.35290   0.35309   0.35762   0.36803
     Eigenvalues ---    1.03538
 RFO step:  Lambda=-4.80619054D-08 EMin= 4.10268497D-03
 Linear search not attempted -- first point.
 Iteration  1 RMS(Cart)=  0.00022978 RMS(Int)=  0.00000012
 Iteration  2 RMS(Cart)=  0.00000011 RMS(Int)=  0.00000006
 Variable       Old X    -DE/DX   Delta X   Delta X   Delta X     New X
                                 (Linear)    (Quad)   (Total)
    R1        2.82140   0.00000   0.00000   0.00001   0.00001   2.82141
    R2        2.06789   0.00000   0.00000  -0.00001  -0.00001   2.06788
    R3        2.07079   0.00000   0.00000   0.00000   0.00000   2.07079
    R4        2.06658   0.00000   0.00000   0.00000   0.00000   2.06657
    R5        2.82285  -0.00001   0.00000  -0.00003  -0.00003   2.82283
    R6        2.86812  -0.00001   0.00000  -0.00002  -0.00002   2.86810
    R7        2.72023   0.00001   0.00000   0.00002   0.00002   2.72025
    R8        2.87073  -0.00001   0.00000  -0.00002  -0.00002   2.87071
    R9        2.05207   0.00000   0.00000   0.00000   0.00000   2.05207
   R10        2.05177   0.00000   0.00000   0.00000   0.00000   2.05177
   R11        2.90510   0.00001   0.00000   0.00005   0.00005   2.90515
   R12        2.04455   0.00000   0.00000   0.00000   0.00000   2.04455
   R13        2.85974  -0.00001   0.00000  -0.00005  -0.00005   2.85969
   R14        2.76587  -0.00001   0.00000  -0.00003  -0.00003   2.76584
   R15        2.88540  -0.00001   0.00000  -0.00002  -0.00002   2.88538
   R16        2.06519   0.00000   0.00000   0.00000   0.00000   2.06519
   R17        2.06297   0.00000   0.00000   0.00000   0.00000   2.06297
   R18        2.06785   0.00000   0.00000   0.00000   0.00000   2.06785
   R19        2.27254   0.00000   0.00000   0.00000   0.00000   2.27254
   R20        2.10227   0.00000   0.00000   0.00001   0.00001   2.10228
    A1        1.94240   0.00000   0.00000   0.00000   0.00000   1.94241
    A2        1.92481   0.00000   0.00000  -0.00002  -0.00002   1.92479
    A3        1.92771   0.00000   0.00000   0.00000   0.00000   1.92771
    A4        1.88594   0.00000   0.00000   0.00001   0.00001   1.88595
    A5        1.89721   0.00000   0.00000   0.00001   0.00001   1.89722
    A6        1.88422   0.00000   0.00000   0.00000   0.00000   1.88422
    A7        2.22486   0.00000   0.00000   0.00003   0.00003   2.22489
    A8        2.35944   0.00000   0.00000  -0.00002  -0.00002   2.35942
    A9        2.05176   0.00000   0.00000  -0.00002  -0.00002   2.05174
   A10        1.90623   0.00000   0.00000   0.00001   0.00001   1.90624
   A11        1.60899   0.00000   0.00000  -0.00001  -0.00001   1.60898
   A12        2.01491   0.00001   0.00000   0.00010   0.00010   2.01501
   A13        2.09954   0.00000   0.00000   0.00001   0.00001   2.09955
   A14        1.98070   0.00000   0.00000   0.00000   0.00000   1.98069
   A15        2.11676   0.00000   0.00000  -0.00002  -0.00002   2.11674
   A16        2.00743  -0.00001   0.00000  -0.00006  -0.00006   2.00738
   A17        1.49431   0.00000   0.00000   0.00000   0.00000   1.49431
   A18        2.29823   0.00000   0.00000  -0.00005  -0.00005   2.29817
   A19        1.90833   0.00000   0.00000   0.00000   0.00000   1.90833
   A20        2.15180   0.00000   0.00000  -0.00006  -0.00006   2.15174
   A21        2.19225   0.00001   0.00000   0.00007   0.00007   2.19232
   A22        2.11204   0.00000   0.00000  -0.00002  -0.00002   2.11202
   A23        1.57900   0.00000   0.00000  -0.00002  -0.00002   1.57899
   A24        1.89802  -0.00002   0.00000  -0.00019  -0.00019   1.89783
   A25        1.99528   0.00000   0.00000   0.00005   0.00005   1.99533
   A26        1.96295   0.00001   0.00000   0.00009   0.00009   1.96304
   A27        1.87330   0.00000   0.00000   0.00008   0.00008   1.87338
   A28        1.91030   0.00000   0.00000  -0.00004  -0.00004   1.91026
   A29        1.94382   0.00000   0.00000   0.00000   0.00000   1.94382
   A30        1.91977   0.00000   0.00000   0.00002   0.00002   1.91979
   A31        1.91059   0.00000   0.00000   0.00002   0.00002   1.91061
   A32        1.88364   0.00000   0.00000  -0.00002  -0.00002   1.88362
   A33        1.89467   0.00000   0.00000   0.00002   0.00002   1.89469
   A34        1.59357   0.00000   0.00000   0.00002   0.00002   1.59359
   A35        2.17577   0.00000   0.00000   0.00000   0.00000   2.17577
   A36        1.97261   0.00000   0.00000  -0.00003  -0.00003   1.97258
   A37        2.13475   0.00000   0.00000   0.00002   0.00002   2.13477
    D1        2.70739   0.00000   0.00000  -0.00028  -0.00028   2.70711
    D2        1.24331   0.00000   0.00000  -0.00030  -0.00030   1.24301
    D3       -0.95401   0.00000   0.00000  -0.00023  -0.00023  -0.95425
    D4       -1.48292   0.00000   0.00000  -0.00029  -0.00029  -1.48320
    D5       -2.94700   0.00000   0.00000  -0.00031  -0.00031  -2.94731
    D6        1.13886   0.00000   0.00000  -0.00024  -0.00024   1.13863
    D7        0.59838   0.00000   0.00000  -0.00030  -0.00030   0.59809
    D8       -0.86570   0.00000   0.00000  -0.00032  -0.00032  -0.86602
    D9       -3.06302   0.00000   0.00000  -0.00025  -0.00025  -3.06327
   D10       -0.39579   0.00000   0.00000  -0.00003  -0.00003  -0.39582
   D11        2.13709   0.00000   0.00000   0.00005   0.00005   2.13713
   D12       -3.05222   0.00000   0.00000  -0.00006  -0.00006  -3.05228
   D13       -0.51934   0.00000   0.00000   0.00001   0.00001  -0.51933
   D14       -2.25548   0.00000   0.00000   0.00005   0.00005  -2.25543
   D15        0.10992   0.00001   0.00000   0.00011   0.00011   0.11003
   D16        0.08420   0.00000   0.00000  -0.00002  -0.00002   0.08418
   D17        2.44959   0.00000   0.00000   0.00005   0.00005   2.44964
   D18        2.44522   0.00000   0.00000  -0.00003  -0.00003   2.44519
   D19       -1.12703   0.00000   0.00000   0.00001   0.00001  -1.12702
   D20       -0.08821   0.00000   0.00000   0.00001   0.00001  -0.08820
   D21       -3.12727   0.00000   0.00000  -0.00013  -0.00013  -3.12740
   D22        0.26556  -0.00001   0.00000  -0.00017  -0.00017   0.26539
   D23        0.65194   0.00000   0.00000   0.00001   0.00001   0.65195
   D24       -2.23841   0.00000   0.00000  -0.00004  -0.00004  -2.23845
   D25       -2.16046   0.00000   0.00000  -0.00003  -0.00003  -2.16049
   D26       -0.08275   0.00000   0.00000   0.00001   0.00001  -0.08273
   D27        1.81104   0.00000   0.00000   0.00007   0.00007   1.81111
   D28       -1.20283   0.00000   0.00000  -0.00003  -0.00003  -1.20287
   D29        0.87488   0.00000   0.00000   0.00001   0.00001   0.87489
   D30        2.76867   0.00000   0.00000   0.00007   0.00007   2.76873
   D31        1.68029   0.00000   0.00000  -0.00001  -0.00001   1.68028
   D32       -2.52518   0.00000   0.00000   0.00004   0.00004  -2.52515
   D33       -0.63140   0.00000   0.00000   0.00009   0.00009  -0.63130
   D34       -1.41041   0.00000   0.00000   0.00031   0.00031  -1.41010
   D35        0.70466   0.00000   0.00000   0.00031   0.00031   0.70497
   D36        2.80607   0.00001   0.00000   0.00035   0.00035   2.80641
   D37        3.01590   0.00000   0.00000   0.00030   0.00030   3.01621
   D38       -1.15222   0.00000   0.00000   0.00030   0.00030  -1.15191
   D39        0.94919   0.00001   0.00000   0.00034   0.00034   0.94953
   D40        0.87383  -0.00001   0.00000   0.00009   0.00009   0.87392
   D41        2.98889  -0.00001   0.00000   0.00009   0.00009   2.98898
   D42       -1.19288   0.00000   0.00000   0.00012   0.00012  -1.19276
   D43        0.08702   0.00000   0.00000  -0.00002  -0.00002   0.08701
   D44        2.26324   0.00000   0.00000  -0.00003  -0.00003   2.26321
   D45       -1.82992   0.00002   0.00000   0.00018   0.00018  -1.82974
   D46        1.93187   0.00000   0.00000  -0.00095  -0.00095   1.93092
   D47       -1.19913   0.00000   0.00000   0.00064   0.00064  -1.19849
   D48       -0.45600   0.00000   0.00000  -0.00082  -0.00082  -0.45682
   D49        2.69619   0.00001   0.00000   0.00077   0.00077   2.69696
   D50       -2.66525  -0.00001   0.00000  -0.00100  -0.00100  -2.66626
   D51        0.48693   0.00000   0.00000   0.00058   0.00058   0.48752
         Item               Value     Threshold  Converged?
 Maximum Force            0.000019     0.000450     YES
 RMS     Force            0.000005     0.000300     YES
 Maximum Displacement     0.001163     0.001800     YES
 RMS     Displacement     0.000230     0.001200     YES
 Predicted change in Energy=-2.403061D-08
 Optimization completed.
    -- Stationary point found.
                           ----------------------------
                           !   Optimized Parameters   !
                           ! (Angstroms and Degrees)  !
 --------------------------                            --------------------------
 ! Name  Definition              Value          Derivative Info.                !
 --------------------------------------------------------------------------------
 ! R1    R(1,2)                  1.493          -DE/DX =    0.0                 !
 ! R2    R(1,10)                 1.0943         -DE/DX =    0.0                 !
 ! R3    R(1,11)                 1.0958         -DE/DX =    0.0                 !
 ! R4    R(1,12)                 1.0936         -DE/DX =    0.0                 !
 ! R5    R(2,3)                  1.4938         -DE/DX =    0.0                 !
 ! R6    R(2,4)                  1.5177         -DE/DX =    0.0                 !
 ! R7    R(2,7)                  1.4395         -DE/DX =    0.0                 !
 ! R8    R(3,4)                  1.5191         -DE/DX =    0.0                 !
 ! R9    R(3,13)                 1.0859         -DE/DX =    0.0                 !
 ! R10   R(3,14)                 1.0857         -DE/DX =    0.0                 !
 ! R11   R(4,5)                  1.5373         -DE/DX =    0.0                 !
 ! R12   R(4,15)                 1.0819         -DE/DX =    0.0                 !
 ! R13   R(5,6)                  1.5133         -DE/DX =    0.0                 !
 ! R14   R(5,7)                  1.4636         -DE/DX =    0.0                 !
 ! R15   R(5,8)                  1.5269         -DE/DX =    0.0                 !
 ! R16   R(6,16)                 1.0929         -DE/DX =    0.0                 !
 ! R17   R(6,17)                 1.0917         -DE/DX =    0.0                 !
 ! R18   R(6,18)                 1.0943         -DE/DX =    0.0                 !
 ! R19   R(8,9)                  1.2026         -DE/DX =    0.0                 !
 ! R20   R(8,19)                 1.1125         -DE/DX =    0.0                 !
 ! A1    A(2,1,10)             111.2915         -DE/DX =    0.0                 !
 ! A2    A(2,1,11)             110.2835         -DE/DX =    0.0                 !
 ! A3    A(2,1,12)             110.4495         -DE/DX =    0.0                 !
 ! A4    A(10,1,11)            108.0566         -DE/DX =    0.0                 !
 ! A5    A(10,1,12)            108.7021         -DE/DX =    0.0                 !
 ! A6    A(11,1,12)            107.9578         -DE/DX =    0.0                 !
 ! A7    A(1,2,3)              127.4749         -DE/DX =    0.0                 !
 ! A8    A(1,2,4)              135.1859         -DE/DX =    0.0                 !
 ! A9    A(1,2,7)              117.5571         -DE/DX =    0.0                 !
 ! A10   A(3,2,7)              109.2189         -DE/DX =    0.0                 !
 ! A11   A(4,2,7)               92.1882         -DE/DX =    0.0                 !
 ! A12   A(2,3,13)             115.4457         -DE/DX =    0.0                 !
 ! A13   A(2,3,14)             120.2949         -DE/DX =    0.0                 !
 ! A14   A(4,3,13)             113.4856         -DE/DX =    0.0                 !
 ! A15   A(4,3,14)             121.2812         -DE/DX =    0.0                 !
 ! A16   A(13,3,14)            115.0175         -DE/DX =    0.0                 !
 ! A17   A(2,4,5)               85.6175         -DE/DX =    0.0                 !
 ! A18   A(2,4,15)             131.6787         -DE/DX =    0.0                 !
 ! A19   A(3,4,5)              109.3391         -DE/DX =    0.0                 !
 ! A20   A(3,4,15)             123.2892         -DE/DX =    0.0                 !
 ! A21   A(5,4,15)             125.6068         -DE/DX =    0.0                 !
 ! A22   A(4,5,6)              121.011          -DE/DX =    0.0                 !
 ! A23   A(4,5,7)               90.4702         -DE/DX =    0.0                 !
 ! A24   A(4,5,8)              108.7486         -DE/DX =    0.0                 !
 ! A25   A(6,5,7)              114.3212         -DE/DX =    0.0                 !
 ! A26   A(6,5,8)              112.4689         -DE/DX =    0.0                 !
 ! A27   A(7,5,8)              107.3323         -DE/DX =    0.0                 !
 ! A28   A(5,6,16)             109.4522         -DE/DX =    0.0                 !
 ! A29   A(5,6,17)             111.3726         -DE/DX =    0.0                 !
 ! A30   A(5,6,18)             109.9947         -DE/DX =    0.0                 !
 ! A31   A(16,6,17)            109.469          -DE/DX =    0.0                 !
 ! A32   A(16,6,18)            107.9245         -DE/DX =    0.0                 !
 ! A33   A(17,6,18)            108.5566         -DE/DX =    0.0                 !
 ! A34   A(2,7,5)               91.3048         -DE/DX =    0.0                 !
 ! A35   A(5,8,9)              124.6625         -DE/DX =    0.0                 !
 ! A36   A(5,8,19)             113.0223         -DE/DX =    0.0                 !
 ! A37   A(9,8,19)             122.3124         -DE/DX =    0.0                 !
 ! D1    D(10,1,2,3)           155.122          -DE/DX =    0.0                 !
 ! D2    D(10,1,2,4)            71.2364         -DE/DX =    0.0                 !
 ! D3    D(10,1,2,7)           -54.661          -DE/DX =    0.0                 !
 ! D4    D(11,1,2,3)           -84.9649         -DE/DX =    0.0                 !
 ! D5    D(11,1,2,4)          -168.8506         -DE/DX =    0.0                 !
 ! D6    D(11,1,2,7)            65.252          -DE/DX =    0.0                 !
 ! D7    D(12,1,2,3)            34.2849         -DE/DX =    0.0                 !
 ! D8    D(12,1,2,4)           -49.6008         -DE/DX =    0.0                 !
 ! D9    D(12,1,2,7)          -175.4982         -DE/DX =    0.0                 !
 ! D10   D(1,2,3,13)           -22.6771         -DE/DX =    0.0                 !
 ! D11   D(1,2,3,14)           122.446          -DE/DX =    0.0                 !
 ! D12   D(7,2,3,13)          -174.879          -DE/DX =    0.0                 !
 ! D13   D(7,2,3,14)           -29.756          -DE/DX =    0.0                 !
 ! D14   D(1,2,4,5)           -129.2294         -DE/DX =    0.0                 !
 ! D15   D(1,2,4,15)             6.2979         -DE/DX =    0.0                 !
 ! D16   D(7,2,4,5)              4.8241         -DE/DX =    0.0                 !
 ! D17   D(7,2,4,15)           140.3514         -DE/DX =    0.0                 !
 ! D18   D(1,2,7,5)            140.1009         -DE/DX =    0.0                 !
 ! D19   D(3,2,7,5)            -64.5742         -DE/DX =    0.0                 !
 ! D20   D(4,2,7,5)             -5.054          -DE/DX =    0.0                 !
 ! D21   D(13,3,4,5)          -179.1795         -DE/DX =    0.0                 !
 ! D22   D(13,3,4,15)           15.2155         -DE/DX =    0.0                 !
 ! D23   D(14,3,4,5)            37.3533         -DE/DX =    0.0                 !
 ! D24   D(14,3,4,15)         -128.2517         -DE/DX =    0.0                 !
 ! D25   D(2,4,5,6)           -123.7853         -DE/DX =    0.0                 !
 ! D26   D(2,4,5,7)             -4.741          -DE/DX =    0.0                 !
 ! D27   D(2,4,5,8)            103.765          -DE/DX =    0.0                 !
 ! D28   D(3,4,5,6)            -68.9172         -DE/DX =    0.0                 !
 ! D29   D(3,4,5,7)             50.127          -DE/DX =    0.0                 !
 ! D30   D(3,4,5,8)            158.633          -DE/DX =    0.0                 !
 ! D31   D(15,4,5,6)            96.2735         -DE/DX =    0.0                 !
 ! D32   D(15,4,5,7)          -144.6823         -DE/DX =    0.0                 !
 ! D33   D(15,4,5,8)           -36.1763         -DE/DX =    0.0                 !
 ! D34   D(4,5,6,16)           -80.8103         -DE/DX =    0.0                 !
 ! D35   D(4,5,6,17)            40.3739         -DE/DX =    0.0                 !
 ! D36   D(4,5,6,18)           160.7757         -DE/DX =    0.0                 !
 ! D37   D(7,5,6,16)           172.7986         -DE/DX =    0.0                 !
 ! D38   D(7,5,6,17)           -66.0172         -DE/DX =    0.0                 !
 ! D39   D(7,5,6,18)            54.3846         -DE/DX =    0.0                 !
 ! D40   D(8,5,6,16)            50.0667         -DE/DX =    0.0                 !
 ! D41   D(8,5,6,17)           171.251          -DE/DX =    0.0                 !
 ! D42   D(8,5,6,18)           -68.3473         -DE/DX =    0.0                 !
 ! D43   D(4,5,7,2)              4.986          -DE/DX =    0.0                 !
 ! D44   D(6,5,7,2)            129.6741         -DE/DX =    0.0                 !
 ! D45   D(8,5,7,2)           -104.8469         -DE/DX =    0.0                 !
 ! D46   D(4,5,8,9)            110.6881         -DE/DX =    0.0                 !
 ! D47   D(4,5,8,19)           -68.7049         -DE/DX =    0.0                 !
 ! D48   D(6,5,8,9)            -26.1268         -DE/DX =    0.0                 !
 ! D49   D(6,5,8,19)           154.4801         -DE/DX =    0.0                 !
 ! D50   D(7,5,8,9)           -152.7077         -DE/DX =    0.0                 !
 ! D51   D(7,5,8,19)            27.8993         -DE/DX =    0.0                 !
 --------------------------------------------------------------------------------
 GradGradGradGradGradGradGradGradGradGradGradGradGradGradGradGradGradGrad

                          Input orientation:                          
 ---------------------------------------------------------------------
 Center     Atomic      Atomic             Coordinates (Angstroms)
 Number     Number       Type             X           Y           Z
 ---------------------------------------------------------------------
      1          6           0        4.079455   -0.067875   -2.138825
      2          6           0        2.688649    0.174823   -1.653164
      3          6           0        1.751184    1.255179   -2.083739
      4          6           0        2.055044    1.072939   -0.606515
      5          6           0        1.365593   -0.203810   -0.098671
      6          6           0       -0.141371   -0.283915    0.014223
      7          8           0        1.927830   -0.965794   -1.214688
      8          6           0        2.071615   -0.670480    1.172211
      9          8           0        1.590684   -0.635703    2.273888
     10          1           0        4.672953   -0.604679   -1.392469
     11          1           0        4.062444   -0.668454   -3.055243
     12          1           0        4.575682    0.879811   -2.365932
     13          1           0        2.219461    2.134091   -2.516663
     14          1           0        0.777842    1.004278   -2.494231
     15          1           0        2.468686    1.855513    0.015622
     16          1           0       -0.463403    0.201783    0.938731
     17          1           0       -0.630058    0.193812   -0.837083
     18          1           0       -0.458388   -1.330431    0.055499
     19          1           0        3.101929   -1.045842    0.984718
 ---------------------------------------------------------------------
                    Distance matrix (angstroms):
                    1          2          3          4          5
     1  C    0.000000
     2  C    1.493020   0.000000
     3  C    2.678498   1.493789   0.000000
     4  C    2.783464   1.517743   1.519123   0.000000
     5  C    3.397904   2.076124   2.493557   1.537315   0.000000
     6  C    4.743170   3.316570   3.217456   2.655298   1.513309
     7  O    2.507944   1.439484   2.391480   2.131313   1.463634
     8  C    3.918866   3.012974   3.796321   2.490713   1.526888
     9  O    5.097886   4.157429   4.752905   3.381096   2.422030
    10  H    1.094279   2.147800   3.531807   3.207114   3.573967
    11  H    1.095814   2.136412   3.160081   3.613638   4.028675
    12  H    1.093585   2.136806   2.863271   3.080010   4.076687
    13  H    2.907059   2.191917   1.085906   2.191287   3.470094
    14  H    3.489481   2.246459   1.085749   2.280227   2.746569
    15  H    3.306907   2.378645   2.298375   1.081931   2.338950
    16  H    5.493781   4.080941   3.892219   3.080467   2.141480
    17  H    4.893110   3.417626   2.889804   2.834749   2.164713
    18  H    5.196260   3.884477   4.017950   3.540027   2.149407
    19  H    3.415919   2.935855   4.066281   2.849075   2.213054
                    6          7          8          9         10
     6  C    0.000000
     7  O    2.501354   0.000000
     8  C    2.527385   2.409392   0.000000
     9  O    2.868772   3.520339   1.202579   0.000000
    10  H    5.025872   2.774475   3.653611   4.789940   0.000000
    11  H    5.219345   2.834191   4.672770   5.874548   1.772458
    12  H    5.410174   3.426769   4.603500   5.721445   1.777865
    13  H    4.222045   3.374830   4.636299   5.569245   3.845035
    14  H    2.965930   2.615509   4.233375   5.107368   4.355975
    15  H    3.374841   3.125054   2.806422   3.475171   3.590830
    16  H    1.092850   3.423221   2.691036   2.589073   5.697985
    17  H    1.091678   2.833736   3.476104   3.911257   5.391472
    18  H    1.094257   2.727704   2.843149   3.098805   5.380891
    19  H    3.470070   2.494454   1.112473   2.028308   2.883360
                   11         12         13         14         15
    11  H    0.000000
    12  H    1.770787   0.000000
    13  H    3.397192   2.673521   0.000000
    14  H    3.728455   3.802044   1.831733   0.000000
    15  H    4.282603   3.326142   2.559723   3.143711   0.000000
    16  H    6.098561   6.064066   4.782397   3.737636   3.490574
    17  H    5.261494   5.468794   3.834766   2.320599   3.618090
    18  H    5.527464   6.007525   5.078366   3.671547   4.326614
    19  H    4.169689   4.136055   4.811485   4.659127   3.123781
                   16         17         18         19
    16  H    0.000000
    17  H    1.783635   0.000000
    18  H    1.768560   1.774680   0.000000
    19  H    3.777602   4.333985   3.690568   0.000000
 Stoichiometry    C7H10O2
 Framework group  C1[X(C7H10O2)]
 Deg. of freedom    51
 Full point group                 C1      NOp   1
 Largest Abelian subgroup         C1      NOp   1
 Largest concise Abelian subgroup C1      NOp   1
                         Standard orientation:                         
 ---------------------------------------------------------------------
 Center     Atomic      Atomic             Coordinates (Angstroms)
 Number     Number       Type             X           Y           Z
 ---------------------------------------------------------------------
      1          6           0        2.425570   -1.152643   -0.197800
      2          6           0        1.380643   -0.092720   -0.080335
      3          6           0        1.520141    1.255398    0.547776
      4          6           0        0.396732    0.334939    0.993244
      5          6           0       -0.665818    0.255261   -0.114896
      6          6           0       -1.531883    1.449592   -0.451955
      7          8           0        0.371663   -0.035752   -1.105435
      8          6           0       -1.481362   -1.021083    0.078030
      9          8           0       -2.633604   -1.051210    0.421000
     10          1           0        1.975570   -2.146193   -0.286144
     11          1           0        3.043973   -0.979687   -1.085759
     12          1           0        3.081390   -1.141279    0.677243
     13          1           0        2.317999    1.349421    1.278375
     14          1           0        1.318523    2.152314   -0.029929
     15          1           0        0.264208    0.012273    2.017402
     16          1           0       -2.352977    1.517938    0.265997
     17          1           0       -0.955457    2.376523   -0.434806
     18          1           0       -1.965703    1.327687   -1.449120
     19          1           0       -0.896137   -1.945764   -0.122154
 ---------------------------------------------------------------------
 Rotational constants (GHZ):      2.9769745      1.3006030      1.1067515
 1\1\GINC-ALCHEMY-V\FOpt\RB3LYP\6-31G(2df,p)\C7H10O2\PUCK\27-Jan-2020\0
 \\# b3lyp 6-31G(2df,p) opt Freq\\titel\\0,1\C,4.0794550305,-0.06787468
 5,-2.1388248361\C,2.6886493831,0.1748225038,-1.6531641248\C,1.75118406
 2,1.2551790698,-2.0837392102\C,2.0550442093,1.072939476,-0.6065148906\
 C,1.3655934751,-0.2038097023,-0.0986706458\C,-0.1413708482,-0.28391475
 88,0.0142233251\O,1.9278296737,-0.965794452,-1.2146878533\C,2.07161481
 32,-0.6704798429,1.1722110692\O,1.590683687,-0.6357025922,2.2738878416
 \H,4.6729532148,-0.6046794836,-1.3924691524\H,4.0624444342,-0.66845400
 92,-3.055243399\H,4.5756820686,0.8798113299,-2.3659322194\H,2.21946131
 19,2.1340907981,-2.5166625784\H,0.7778419553,1.0042780342,-2.494231476
 2\H,2.4686864002,1.855513171,0.0156216161\H,-0.4634032506,0.2017830692
 ,0.9387309991\H,-0.6300583283,0.1938115072,-0.837083472\H,-0.458387615
 4,-1.3304308288,0.0554988656\H,3.1019285037,-1.0458422543,0.9847182614
 \\Version=ES64L-G09RevD.01\State=1-A\HF=-423.1605822\RMSD=6.247e-09\RM
 SF=1.206e-05\Dipole=0.4101784,0.6488338,-0.8315692\Quadrupole=3.443533
 5,1.1335827,-4.5771162,0.3807443,0.1751198,-0.3549478\PG=C01 [X(C7H10O
 2)]\\@


 IN NATURE THERE ARE NEITHER REWARDS OR
 PUNISHMENTS -- THERE ARE CONSEQUENCES.

                            -- ROBERT GREEN INGERSOLL
 Job cpu time:       0 days  0 hours  7 minutes 21.6 seconds.
 File lengths (MBytes):  RWF=     52 Int=      0 D2E=      0 Chk=      7 Scr=      1
 Normal termination of Gaussian 09 at Mon Jan 27 17:26:07 2020.
 Link1:  Proceeding to internal job step number  2.
 ----------------------------------------------------------------------
 #N Geom=AllCheck Guess=TCheck SCRF=Check GenChk RB3LYP/6-31G(2df,p) Fr
 eq
 ----------------------------------------------------------------------
 1/10=4,29=7,30=1,38=1,40=1/1,3;
 2/12=2,40=1/2;
 3/5=1,6=6,7=104,11=2,14=-4,16=1,25=1,30=1,70=2,71=2,74=-5,116=1,140=1/1,2,3;
 4/5=101/1;
 5/5=2,98=1/2;
 8/6=4,10=90,11=11/1;
 11/6=1,8=1,9=11,15=111,16=1/1,2,10;
 10/6=1/2;
 6/7=2,8=2,9=2,10=2,18=1,28=1/1;
 7/8=1,10=1,25=1/1,2,3,16;
 1/10=4,30=1/3;
 99//99;
 Structure from the checkpoint file:  "/scratch/puck/g09_f1af038d-b4fe-4d29-a381-14e3662858f8/Gau-32733.chk"
 -----
 titel
 -----
 Charge =  0 Multiplicity = 1
 Redundant internal coordinates found in file.
 C,0,4.0794550305,-0.067874685,-2.1388248361
 C,0,2.6886493831,0.1748225038,-1.6531641248
 C,0,1.751184062,1.2551790698,-2.0837392102
 C,0,2.0550442093,1.072939476,-0.6065148906
 C,0,1.3655934751,-0.2038097023,-0.0986706458
 C,0,-0.1413708482,-0.2839147588,0.0142233251
 O,0,1.9278296737,-0.965794452,-1.2146878533
 C,0,2.0716148132,-0.6704798429,1.1722110692
 O,0,1.590683687,-0.6357025922,2.2738878416
 H,0,4.6729532148,-0.6046794836,-1.3924691524
 H,0,4.0624444342,-0.6684540092,-3.055243399
 H,0,4.5756820686,0.8798113299,-2.3659322194
 H,0,2.2194613119,2.1340907981,-2.5166625784
 H,0,0.7778419553,1.0042780342,-2.4942314762
 H,0,2.4686864002,1.855513171,0.0156216161
 H,0,-0.4634032506,0.2017830692,0.9387309991
 H,0,-0.6300583283,0.1938115072,-0.837083472
 H,0,-0.4583876154,-1.3304308288,0.0554988656
 H,0,3.1019285037,-1.0458422543,0.9847182614
 Recover connectivity data from disk.

 GradGradGradGradGradGradGradGradGradGradGradGradGradGradGradGradGradGrad
 Berny optimization.
 Initialization pass.
                           ----------------------------
                           !    Initial Parameters    !
                           ! (Angstroms and Degrees)  !
 --------------------------                            --------------------------
 ! Name  Definition              Value          Derivative Info.                !
 --------------------------------------------------------------------------------
 ! R1    R(1,2)                  1.493          calculate D2E/DX2 analytically  !
 ! R2    R(1,10)                 1.0943         calculate D2E/DX2 analytically  !
 ! R3    R(1,11)                 1.0958         calculate D2E/DX2 analytically  !
 ! R4    R(1,12)                 1.0936         calculate D2E/DX2 analytically  !
 ! R5    R(2,3)                  1.4938         calculate D2E/DX2 analytically  !
 ! R6    R(2,4)                  1.5177         calculate D2E/DX2 analytically  !
 ! R7    R(2,7)                  1.4395         calculate D2E/DX2 analytically  !
 ! R8    R(3,4)                  1.5191         calculate D2E/DX2 analytically  !
 ! R9    R(3,13)                 1.0859         calculate D2E/DX2 analytically  !
 ! R10   R(3,14)                 1.0857         calculate D2E/DX2 analytically  !
 ! R11   R(4,5)                  1.5373         calculate D2E/DX2 analytically  !
 ! R12   R(4,15)                 1.0819         calculate D2E/DX2 analytically  !
 ! R13   R(5,6)                  1.5133         calculate D2E/DX2 analytically  !
 ! R14   R(5,7)                  1.4636         calculate D2E/DX2 analytically  !
 ! R15   R(5,8)                  1.5269         calculate D2E/DX2 analytically  !
 ! R16   R(6,16)                 1.0929         calculate D2E/DX2 analytically  !
 ! R17   R(6,17)                 1.0917         calculate D2E/DX2 analytically  !
 ! R18   R(6,18)                 1.0943         calculate D2E/DX2 analytically  !
 ! R19   R(8,9)                  1.2026         calculate D2E/DX2 analytically  !
 ! R20   R(8,19)                 1.1125         calculate D2E/DX2 analytically  !
 ! A1    A(2,1,10)             111.2915         calculate D2E/DX2 analytically  !
 ! A2    A(2,1,11)             110.2835         calculate D2E/DX2 analytically  !
 ! A3    A(2,1,12)             110.4495         calculate D2E/DX2 analytically  !
 ! A4    A(10,1,11)            108.0566         calculate D2E/DX2 analytically  !
 ! A5    A(10,1,12)            108.7021         calculate D2E/DX2 analytically  !
 ! A6    A(11,1,12)            107.9578         calculate D2E/DX2 analytically  !
 ! A7    A(1,2,3)              127.4749         calculate D2E/DX2 analytically  !
 ! A8    A(1,2,4)              135.1859         calculate D2E/DX2 analytically  !
 ! A9    A(1,2,7)              117.5571         calculate D2E/DX2 analytically  !
 ! A10   A(3,2,7)              109.2189         calculate D2E/DX2 analytically  !
 ! A11   A(4,2,7)               92.1882         calculate D2E/DX2 analytically  !
 ! A12   A(2,3,13)             115.4457         calculate D2E/DX2 analytically  !
 ! A13   A(2,3,14)             120.2949         calculate D2E/DX2 analytically  !
 ! A14   A(4,3,13)             113.4856         calculate D2E/DX2 analytically  !
 ! A15   A(4,3,14)             121.2812         calculate D2E/DX2 analytically  !
 ! A16   A(13,3,14)            115.0175         calculate D2E/DX2 analytically  !
 ! A17   A(2,4,5)               85.6175         calculate D2E/DX2 analytically  !
 ! A18   A(2,4,15)             131.6787         calculate D2E/DX2 analytically  !
 ! A19   A(3,4,5)              109.3391         calculate D2E/DX2 analytically  !
 ! A20   A(3,4,15)             123.2892         calculate D2E/DX2 analytically  !
 ! A21   A(5,4,15)             125.6068         calculate D2E/DX2 analytically  !
 ! A22   A(4,5,6)              121.011          calculate D2E/DX2 analytically  !
 ! A23   A(4,5,7)               90.4702         calculate D2E/DX2 analytically  !
 ! A24   A(4,5,8)              108.7486         calculate D2E/DX2 analytically  !
 ! A25   A(6,5,7)              114.3212         calculate D2E/DX2 analytically  !
 ! A26   A(6,5,8)              112.4689         calculate D2E/DX2 analytically  !
 ! A27   A(7,5,8)              107.3323         calculate D2E/DX2 analytically  !
 ! A28   A(5,6,16)             109.4522         calculate D2E/DX2 analytically  !
 ! A29   A(5,6,17)             111.3726         calculate D2E/DX2 analytically  !
 ! A30   A(5,6,18)             109.9947         calculate D2E/DX2 analytically  !
 ! A31   A(16,6,17)            109.469          calculate D2E/DX2 analytically  !
 ! A32   A(16,6,18)            107.9245         calculate D2E/DX2 analytically  !
 ! A33   A(17,6,18)            108.5566         calculate D2E/DX2 analytically  !
 ! A34   A(2,7,5)               91.3048         calculate D2E/DX2 analytically  !
 ! A35   A(5,8,9)              124.6625         calculate D2E/DX2 analytically  !
 ! A36   A(5,8,19)             113.0223         calculate D2E/DX2 analytically  !
 ! A37   A(9,8,19)             122.3124         calculate D2E/DX2 analytically  !
 ! D1    D(10,1,2,3)           155.122          calculate D2E/DX2 analytically  !
 ! D2    D(10,1,2,4)            71.2364         calculate D2E/DX2 analytically  !
 ! D3    D(10,1,2,7)           -54.661          calculate D2E/DX2 analytically  !
 ! D4    D(11,1,2,3)           -84.9649         calculate D2E/DX2 analytically  !
 ! D5    D(11,1,2,4)          -168.8506         calculate D2E/DX2 analytically  !
 ! D6    D(11,1,2,7)            65.252          calculate D2E/DX2 analytically  !
 ! D7    D(12,1,2,3)            34.2849         calculate D2E/DX2 analytically  !
 ! D8    D(12,1,2,4)           -49.6008         calculate D2E/DX2 analytically  !
 ! D9    D(12,1,2,7)          -175.4982         calculate D2E/DX2 analytically  !
 ! D10   D(1,2,3,13)           -22.6771         calculate D2E/DX2 analytically  !
 ! D11   D(1,2,3,14)           122.446          calculate D2E/DX2 analytically  !
 ! D12   D(7,2,3,13)          -174.879          calculate D2E/DX2 analytically  !
 ! D13   D(7,2,3,14)           -29.756          calculate D2E/DX2 analytically  !
 ! D14   D(1,2,4,5)           -129.2294         calculate D2E/DX2 analytically  !
 ! D15   D(1,2,4,15)             6.2979         calculate D2E/DX2 analytically  !
 ! D16   D(7,2,4,5)              4.8241         calculate D2E/DX2 analytically  !
 ! D17   D(7,2,4,15)           140.3514         calculate D2E/DX2 analytically  !
 ! D18   D(1,2,7,5)            140.1009         calculate D2E/DX2 analytically  !
 ! D19   D(3,2,7,5)            -64.5742         calculate D2E/DX2 analytically  !
 ! D20   D(4,2,7,5)             -5.054          calculate D2E/DX2 analytically  !
 ! D21   D(13,3,4,5)          -179.1795         calculate D2E/DX2 analytically  !
 ! D22   D(13,3,4,15)           15.2155         calculate D2E/DX2 analytically  !
 ! D23   D(14,3,4,5)            37.3533         calculate D2E/DX2 analytically  !
 ! D24   D(14,3,4,15)         -128.2517         calculate D2E/DX2 analytically  !
 ! D25   D(2,4,5,6)           -123.7853         calculate D2E/DX2 analytically  !
 ! D26   D(2,4,5,7)             -4.741          calculate D2E/DX2 analytically  !
 ! D27   D(2,4,5,8)            103.765          calculate D2E/DX2 analytically  !
 ! D28   D(3,4,5,6)            -68.9172         calculate D2E/DX2 analytically  !
 ! D29   D(3,4,5,7)             50.127          calculate D2E/DX2 analytically  !
 ! D30   D(3,4,5,8)            158.633          calculate D2E/DX2 analytically  !
 ! D31   D(15,4,5,6)            96.2735         calculate D2E/DX2 analytically  !
 ! D32   D(15,4,5,7)          -144.6823         calculate D2E/DX2 analytically  !
 ! D33   D(15,4,5,8)           -36.1763         calculate D2E/DX2 analytically  !
 ! D34   D(4,5,6,16)           -80.8103         calculate D2E/DX2 analytically  !
 ! D35   D(4,5,6,17)            40.3739         calculate D2E/DX2 analytically  !
 ! D36   D(4,5,6,18)           160.7757         calculate D2E/DX2 analytically  !
 ! D37   D(7,5,6,16)           172.7986         calculate D2E/DX2 analytically  !
 ! D38   D(7,5,6,17)           -66.0172         calculate D2E/DX2 analytically  !
 ! D39   D(7,5,6,18)            54.3846         calculate D2E/DX2 analytically  !
 ! D40   D(8,5,6,16)            50.0667         calculate D2E/DX2 analytically  !
 ! D41   D(8,5,6,17)           171.251          calculate D2E/DX2 analytically  !
 ! D42   D(8,5,6,18)           -68.3473         calculate D2E/DX2 analytically  !
 ! D43   D(4,5,7,2)              4.986          calculate D2E/DX2 analytically  !
 ! D44   D(6,5,7,2)            129.6741         calculate D2E/DX2 analytically  !
 ! D45   D(8,5,7,2)           -104.8469         calculate D2E/DX2 analytically  !
 ! D46   D(4,5,8,9)            110.6881         calculate D2E/DX2 analytically  !
 ! D47   D(4,5,8,19)           -68.7049         calculate D2E/DX2 analytically  !
 ! D48   D(6,5,8,9)            -26.1268         calculate D2E/DX2 analytically  !
 ! D49   D(6,5,8,19)           154.4801         calculate D2E/DX2 analytically  !
 ! D50   D(7,5,8,9)           -152.7077         calculate D2E/DX2 analytically  !
 ! D51   D(7,5,8,19)            27.8993         calculate D2E/DX2 analytically  !
 --------------------------------------------------------------------------------
 Trust Radius=3.00D-01 FncErr=1.00D-07 GrdErr=1.00D-07
 Number of steps in this run=      2 maximum allowed number of steps=      2.
 GradGradGradGradGradGradGradGradGradGradGradGradGradGradGradGradGradGrad

                          Input orientation:                          
 ---------------------------------------------------------------------
 Center     Atomic      Atomic             Coordinates (Angstroms)
 Number     Number       Type             X           Y           Z
 ---------------------------------------------------------------------
      1          6           0        4.079455   -0.067875   -2.138825
      2          6           0        2.688649    0.174823   -1.653164
      3          6           0        1.751184    1.255179   -2.083739
      4          6           0        2.055044    1.072939   -0.606515
      5          6           0        1.365593   -0.203810   -0.098671
      6          6           0       -0.141371   -0.283915    0.014223
      7          8           0        1.927830   -0.965794   -1.214688
      8          6           0        2.071615   -0.670480    1.172211
      9          8           0        1.590684   -0.635703    2.273888
     10          1           0        4.672953   -0.604679   -1.392469
     11          1           0        4.062444   -0.668454   -3.055243
     12          1           0        4.575682    0.879811   -2.365932
     13          1           0        2.219461    2.134091   -2.516663
     14          1           0        0.777842    1.004278   -2.494231
     15          1           0        2.468686    1.855513    0.015622
     16          1           0       -0.463403    0.201783    0.938731
     17          1           0       -0.630058    0.193812   -0.837083
[...]
 64024,0.04020554,-0.07558733,-0.04963526,-0.02903543,-0.04567860,-0.00
 208848,0.14336258,0.54469295,-0.00090758,0.00113365,-0.00371012,0.0634
 0403,-0.09132999,-0.09495451,-0.06565640,0.03099765,-0.18962373,0.0455
 4419,0.14932323,0.54494859,-0.00152899,-0.00126153,0.00374885,-0.04674
 220,-0.01673880,0.06287420,0.01092816,0.01392974,-0.00596042,-0.077215
 90,-0.04760500,0.00598897,0.53920790,-0.00173924,-0.00616163,-0.001130
 22,-0.00555246,0.00968275,0.01171150,-0.01500998,-0.01456575,0.0142209
 8,-0.04322368,-0.12413127,0.04827864,0.02167737,0.36373738,-0.00067202
 ,-0.00206996,-0.00088777,0.04183210,0.00827265,-0.04144421,0.01658026,
 0.02094982,-0.01412122,-0.00940295,0.02211771,-0.07135620,-0.01906125,
 -0.04654595,0.46115092,0.00004019,0.00001178,0.00008128,-0.00215894,-0
 .00101896,0.00002916,0.00062389,0.00099486,-0.00051562,-0.01077408,-0.
 00388495,0.00407674,-0.19336196,-0.00744759,0.00367329,0.47447141,0.00
 099430,0.00217222,0.00125205,-0.00352191,-0.00568001,0.00184014,0.0006
 3432,0.00180078,-0.00327372,-0.02744354,0.00179398,0.00222475,-0.01023
 663,-0.07836820,0.00183826,-0.01083894,0.56714532,0.00034851,0.0018503
 4,-0.00085995,0.00245843,-0.00413601,-0.00148355,0.00061315,0.00024557
 ,0.00000691,0.00668825,0.00284652,0.00108805,-0.00714696,-0.00100863,-
 0.07709391,0.02072050,-0.00417796,0.58288957,-0.01365707,-0.03096368,0
 .00807494,-0.09055267,-0.05818460,0.01136883,0.00709426,0.00662850,0.0
 0369604,-0.00605671,-0.01739572,0.00448325,-0.07076503,0.02765949,0.02
 246508,-0.01013088,0.02040140,0.03211440,0.17305959,-0.00060237,0.0031
 7559,0.00185170,-0.03780051,-0.15970761,0.01352326,-0.01373474,-0.0284
 6230,0.01171843,-0.01632157,-0.09160724,-0.03837635,0.00353202,-0.0873
 8251,-0.02876153,0.00308906,0.00105541,-0.00139779,0.05689162,0.363367
 76,0.00743767,0.01653213,-0.00234978,0.01898499,0.04493930,-0.06254936
 ,0.01903459,0.02805899,-0.00823638,0.00787896,-0.03614364,-0.01359431,
 0.00235424,-0.06143889,-0.11105312,0.00560170,-0.00454168,-0.00835572,
 -0.07921674,0.03870458,0.24329816,0.00099771,-0.00072048,0.00102910,0.
 00405145,0.00465176,0.00104318,-0.00389632,-0.00522513,0.00086114,0.01
 033467,-0.00251522,0.00870529,-0.12523707,0.01531185,-0.05513707,-0.02
 225471,0.01286234,-0.03095299,-0.00213867,0.00215111,0.02175683,0.5986
 1955,-0.00030203,0.00076717,-0.00053811,-0.00321947,-0.00658228,-0.002
 01238,-0.00222867,-0.00291030,0.00025548,0.00954776,-0.01432534,0.0305
 0402,0.02169886,-0.08827280,0.03363283,0.00134879,0.00227972,-0.000287
 22,-0.00029143,0.00583656,-0.03355044,-0.11899222,0.25615125,0.0004401
 0,-0.00014984,0.00032311,0.00049693,-0.00283457,-0.00698961,-0.0016315
 7,-0.00440461,0.00167223,0.00638654,0.01570788,-0.00860100,-0.04317192
 ,0.01544993,-0.09881842,-0.01008609,0.00242679,0.00429738,-0.00209812,
 0.00087960,-0.04198374,-0.22024333,-0.01063246,0.88253623,-0.00041160,
 0.00025971,-0.00038998,-0.00029836,-0.00009509,-0.00136441,0.00053890,
 0.00040414,-0.00003938,-0.00033947,0.00166437,-0.00218131,0.01905212,-
 0.00067945,0.00143559,-0.00144876,0.00098911,0.00147113,0.00319114,-0.
 00121870,-0.00488309,-0.21692577,0.02387555,0.25862709,0.20494794,0.00
 008163,-0.00035208,0.00017739,0.00169213,0.00234857,0.00075770,0.00006
 107,0.00047976,0.00050051,-0.00224261,0.00058341,-0.00380523,-0.003986
 06,0.02081579,0.00814615,0.00119012,-0.00107703,-0.00040483,-0.0005218
 4,-0.00184084,0.00797611,0.02487627,-0.06923894,-0.01466061,-0.0288591
 3,0.02953372,0.00012572,0.00034169,-0.00013597,-0.00315135,-0.00478462
 ,0.00326316,0.00198517,0.00349165,0.00009744,-0.00649633,-0.00303157,-
 0.00185428,0.01472050,0.01017905,-0.04901359,0.00402532,-0.00012255,0.
 00007305,0.00136115,0.00037062,-0.00889431,0.25694050,-0.01519364,-0.6
 8048133,-0.29535538,0.01351732,0.75437025,-0.12045751,0.06709605,-0.09
 557622,-0.02053888,0.01924735,-0.02257818,-0.00383723,-0.00228007,0.00
 088337,0.00206947,0.00024902,0.00070623,0.00020321,0.00042845,0.000192
 19,-0.00000996,-0.00019060,-0.00014055,0.00293333,-0.00100936,-0.00003
 088,-0.00155361,0.00049033,0.00014674,0.00062833,-0.00018328,-0.000296
 73,0.13292358,0.06812565,-0.10944838,0.08858017,0.00341063,-0.00570883
 ,0.00362868,0.00125362,0.00138193,0.00036801,-0.00043987,-0.00000202,0
 .00017928,-0.00001564,0.00020472,0.00018268,-0.00000952,-0.00002516,-0
 .00006266,0.00000370,0.00100502,-0.00109550,0.00050286,-0.00015902,0.0
 0010628,-0.00020293,0.00005447,-0.00003139,-0.07797847,0.11558594,-0.0
 9694468,0.08942138,-0.17367563,0.00706941,-0.00678224,0.00919163,0.003
 27120,-0.00021270,0.00049482,-0.00127218,0.00040236,0.00116635,-0.0001
 0060,0.00015735,0.00019726,0.00005457,-0.00005010,0.00006543,-0.000959
 01,-0.00063976,0.00023616,0.00022279,-0.00008075,-0.00030012,-0.000082
 76,0.00001914,0.00013390,0.10481540,-0.09724156,0.18547699,-0.04654090
 ,-0.00407195,-0.00700669,-0.00111542,0.02224063,0.03105653,0.00173701,
 -0.00068976,-0.00079227,-0.00370188,-0.00128846,0.00134475,-0.00034419
 ,0.00155900,0.00020792,-0.00008037,-0.00076571,-0.00008766,0.00172898,
 -0.00144923,-0.00227259,-0.00042052,0.00012691,-0.00027698,0.00015274,
 -0.00000823,0.00002157,-0.00075476,-0.01023817,-0.01365590,0.05055939,
 -0.00388082,-0.12362320,-0.11881504,0.00101373,-0.00505798,-0.00512142
 ,-0.00024643,-0.00016335,0.00027952,-0.00036589,0.00154302,0.00062666,
 0.00051282,0.00012950,0.00027509,-0.00000221,0.00017170,-0.00013530,0.
 00093904,0.00080405,-0.00047005,0.00024230,-0.00010054,0.00012930,-0.0
 0009392,0.00003302,-0.00001096,-0.00000604,0.00912773,0.01414410,0.001
 72341,0.13183692,-0.00758786,-0.11924034,-0.22849995,0.00297367,-0.007
 13428,-0.01087179,0.00086265,0.00007076,0.00061808,-0.00019274,0.00098
 850,0.00154106,0.00019863,-0.00036728,-0.00017626,0.00002456,0.0002754
 2,0.00006852,-0.00028531,0.00089434,0.00087083,-0.00027291,0.00009517,
 0.00034317,0.00014665,-0.00005140,-0.00017457,-0.00077237,-0.01260823,
 -0.01821756,0.00490439,0.13276098,0.24769307,-0.10171188,-0.10196298,0
 .02465058,-0.01155857,-0.02994415,0.00419846,0.00099233,-0.00033174,-0
 .00050089,0.00123469,0.00023351,0.00071723,-0.00012230,-0.00160564,-0.
 00099455,-0.00005764,0.00043035,0.00055003,-0.00533490,0.00201694,0.00
 346605,-0.00036416,0.00043300,-0.00009613,0.00009827,-0.00015701,0.000
 18707,0.00863765,0.01550606,-0.00256999,-0.00084834,-0.00000982,-0.000
 40756,0.10963356,-0.10475813,-0.24804297,0.04852234,0.00292892,0.00409
 874,-0.00093376,0.00012383,0.00002573,0.00022907,-0.00045530,0.0002260
 8,0.00010783,-0.00011989,0.00016242,-0.00018070,-0.00002266,0.00003822
 ,0.00010693,0.00205551,0.00172882,-0.00096837,0.00024539,-0.00009086,-
 0.00013785,-0.00010566,0.00003596,0.00010192,-0.00675125,-0.01227973,0
 .00147143,-0.00718524,-0.01458594,0.00462883,0.11398423,0.26825446,0.0
 2485322,0.04778411,-0.05545181,0.00380004,0.01024898,-0.00473362,-0.00
 028085,-0.00002399,0.00027601,-0.00071579,0.00003059,0.00016212,-0.000
 03642,0.00079054,0.00077243,0.00007001,-0.00031419,-0.00022555,0.00322
 388,-0.00042869,-0.00057473,-0.00030882,0.00011693,0.00014897,0.000137
 29,-0.00003200,-0.00014521,0.01115583,0.01854716,-0.00447137,-0.013079
 44,-0.02357581,0.00657954,-0.02895404,-0.05274370,0.05746151,0.0008466
 6,-0.00016609,0.00117421,0.00939541,0.01270154,-0.00724166,-0.10526260
 ,-0.10688288,0.04391492,-0.00265482,-0.00217085,0.00047192,-0.00111147
 ,0.00122279,0.00134120,0.00002364,0.00019037,-0.00005462,0.00051020,0.
 00425624,-0.00422589,-0.00012926,-0.00040801,0.00013174,0.00012957,0.0
 0012299,0.00009165,0.00027851,-0.00025378,-0.00004026,-0.00018082,0.00
 018185,0.00008188,-0.00048647,0.00024146,-0.00010240,0.10430840,-0.001
 45408,0.00100125,-0.00124582,-0.01400027,-0.01534807,0.00833654,-0.103
 18993,-0.22983774,0.09801879,0.00432313,0.00621801,-0.00454315,0.00065
 453,0.00005872,-0.00439032,-0.00019163,-0.00007568,0.00002509,0.001350
 99,-0.00523504,0.00578810,0.00063503,0.00109480,0.00020080,-0.00012978
 ,-0.00036833,-0.00023958,-0.00022243,0.00046682,0.00002597,0.00018922,
 -0.00008336,-0.00002511,0.00091000,0.00035428,-0.00011644,0.11075674,0
 .24468335,-0.00015601,0.00094067,-0.00037502,-0.00232792,-0.00450339,-
 0.00109470,0.04234499,0.09446836,-0.08220946,0.01244755,0.02696146,-0.
 01277886,-0.00398161,0.00216194,-0.00619980,-0.00055677,-0.00031905,0.
 00011310,0.00051255,-0.00407379,0.00230350,0.00140333,0.00150897,0.001
 89673,-0.00008859,-0.00035574,-0.00104219,-0.00016973,0.00008238,-0.00
 001093,-0.00013040,-0.00011462,0.00007942,0.00003826,-0.00010393,0.000
 16613,-0.04695838,-0.10453457,0.09185998,-0.00042767,0.00068406,-0.002
 63449,-0.01410816,-0.00906607,-0.00677456,-0.27581116,-0.06593515,-0.0
 9486472,0.00340130,0.00684717,-0.00107800,-0.00003803,-0.00082178,-0.0
 0086817,0.00001126,0.00049640,0.00046531,0.00326534,-0.00091639,0.0024
 0277,-0.00017844,0.00036205,0.00052394,0.00013146,-0.00007146,-0.00018
 561,-0.00075899,0.00043664,0.00039188,-0.00010825,0.00001979,0.0002044
 5,0.00023003,-0.00000288,0.00001626,-0.00731093,0.00009784,-0.00369466
 ,0.29146629,0.00019024,-0.00116264,0.00288590,0.02148987,0.00729494,0.
 00947575,-0.06795931,-0.06276601,-0.02282778,-0.00177542,-0.00533318,0
 .00326324,0.00066473,0.00092218,0.00132801,-0.00016365,0.00000043,0.00
 030982,-0.00167225,0.00305479,-0.00359052,0.00029683,-0.00034723,0.000
 04953,-0.00005477,0.00010184,-0.00001228,0.00119175,-0.00031635,-0.000
 53290,0.00000544,-0.00000526,-0.00031263,0.00008737,0.00005524,-0.0000
 5480,-0.01983914,-0.00292559,-0.01012107,0.06868308,0.06037154,0.00089
 598,-0.00079475,0.00151931,0.00276867,0.00536221,-0.00566550,-0.093802
 87,-0.02211457,-0.07788734,-0.02525452,-0.00590788,-0.00930245,-0.0002
 8783,-0.00273670,0.00166888,-0.00022768,0.00097390,-0.00047275,-0.0001
 8873,0.00124235,0.00019872,-0.00018781,-0.00052699,-0.00000559,0.00019
 820,-0.00000218,0.00000117,0.00061761,-0.00049353,-0.00012671,-0.00016
 104,-0.00002329,0.00015140,-0.00027117,-0.00010144,0.00006753,0.012177
 46,0.00174283,0.00534040,0.10416591,0.02104249,0.08553950,0.00111190,-
 0.00122068,-0.00154886,0.01227245,0.00419703,0.00476474,-0.00696327,-0
 .00799176,0.00075115,-0.08588695,-0.09225030,-0.06269951,-0.00603317,0
 .00073240,-0.00797072,-0.00010657,-0.00142285,0.00020656,0.00648531,0.
 00413359,-0.00099772,0.00103543,0.00042758,-0.00199162,-0.00041428,0.0
 0029912,0.00071858,-0.00038308,0.00010812,-0.00012976,-0.00010189,-0.0
 0001996,0.00001026,-0.00026386,-0.00009291,0.00011040,0.00100981,0.000
 45767,0.00143060,0.00030746,-0.00094660,-0.00247234,0.07870555,-0.0000
 5688,0.00135529,0.00082907,-0.00971454,-0.00536413,0.00204282,0.007424
 87,0.00922962,0.00573177,-0.09044330,-0.19975294,-0.12395007,0.0013437
 6,-0.00564205,-0.01019802,0.00039086,-0.00081040,0.00010924,-0.0018172
 6,-0.00890866,-0.00387807,-0.00122794,0.00059454,-0.00245475,0.0000063
 8,0.00001713,0.00131787,0.00013160,-0.00004362,-0.00013246,-0.00012955
 ,-0.00003068,0.00009759,0.00043377,0.00004121,-0.00018954,0.00030514,0
 .00013761,-0.00154509,-0.00037161,0.00092577,0.00255738,0.09393643,0.2
 0847457,0.00013468,-0.00022764,0.00192613,-0.00689122,0.00274304,-0.00
 877051,-0.00465749,-0.01634533,-0.01218876,-0.06124205,-0.12417558,-0.
 14318121,0.00413942,0.00472182,0.00840953,-0.00033112,0.00099606,-0.00
 024228,-0.00237701,0.00335245,0.00354911,0.00017635,-0.00017030,0.0017
 2201,-0.00000260,-0.00027763,-0.00007472,0.00065730,-0.00013088,-0.000
 05222,-0.00013253,0.00009456,0.00002845,0.00007141,0.00004752,-0.00011
 073,-0.00102227,0.00099521,0.00186926,0.00148268,-0.00110877,-0.001621
 48,0.06933430,0.12946777,0.14893133,-0.00026947,-0.00079386,0.00012155
 ,0.00022275,0.00240471,-0.00008838,-0.00044196,-0.00021680,-0.00004879
 ,0.00084963,-0.00124208,-0.00058301,-0.00605231,0.01683114,0.02787123,
 -0.07032644,0.03422384,0.06492502,-0.00795816,-0.00090538,0.00151139,0
 .00001838,0.00019399,0.00266954,0.00108632,-0.00075820,-0.00186895,0.0
 0005537,0.00002080,0.00000479,0.00010773,0.00003029,-0.00005477,-0.000
 21993,-0.00002082,0.00009970,0.00005942,-0.00005022,0.00005246,0.00015
 922,0.00007911,-0.00007422,-0.00017660,-0.00020931,0.00010066,0.075602
 82,-0.00006248,0.00008784,-0.00012887,0.00061211,-0.00003861,-0.000156
 22,0.00014882,-0.00014143,0.00039645,0.00071337,-0.00001490,-0.0001993
 5,-0.00079484,-0.00119731,0.00259072,0.03548387,-0.09899704,-0.1008017
 0,-0.00081461,0.00182601,0.00043485,0.00066974,0.00029578,-0.00188399,
 -0.00147696,-0.00013369,0.00067650,0.00000303,-0.00000333,0.00000152,0
 .00003330,-0.00001490,-0.00000581,0.00003368,-0.00001799,-0.00001226,-
 0.00013511,0.00002477,-0.00000693,-0.00015022,-0.00004325,-0.00014559,
 -0.00011443,0.00007181,-0.00002803,-0.03819442,0.10432989,0.00004523,0
 .00007594,0.00004042,-0.00013566,-0.00042391,0.00002907,-0.00011676,0.
 00006777,-0.00035656,0.00007319,0.00031087,0.00038475,0.00275748,-0.00
 144033,-0.00270155,0.06664567,-0.10295745,-0.23857565,-0.00040556,0.00
 103619,0.00094306,0.00050760,0.00025549,-0.00082557,-0.00217921,0.0005
 9084,-0.00072032,-0.00000629,-0.00000303,0.00000599,-0.00003447,0.0000
 0287,-0.00000429,0.00001634,-0.00000319,-0.00000861,0.00014625,-0.0000
 1292,0.00004777,0.00013372,-0.00003779,0.00019831,0.00016057,0.0000412
 0,0.00001307,-0.07416578,0.11242643,0.25817399,-0.00001888,-0.00014764
 ,0.00001323,0.00043793,0.00065836,-0.00078626,-0.00049984,-0.00064508,
 0.00026035,0.00190034,0.00060294,-0.00050330,-0.01752294,0.01407715,-0
 .02920209,-0.09717956,0.05151503,-0.09094788,0.00214319,-0.00068509,0.
 00090438,-0.00597334,-0.00090322,0.00398525,0.00163069,0.00004123,-0.0
 0040925,0.00012048,-0.00005965,-0.00000209,0.00003934,-0.00001965,-0.0
 0001418,-0.00003213,0.00000243,0.00001443,0.00046610,0.00001027,0.0002
 2339,-0.00034552,-0.00023586,0.00143924,0.00007564,-0.00007903,0.00009
 850,0.00414323,-0.00570544,0.00746837,0.10775315,-0.00004220,-0.000042
 88,-0.00004577,0.00022381,0.00031239,0.00006244,-0.00002084,-0.0000501
 5,0.00051870,-0.00028357,0.00027831,-0.00088392,-0.00064516,0.00001435
 ,-0.00254878,0.05280869,-0.09952434,0.09409298,-0.00036307,-0.00017905
 ,0.00006414,-0.00127250,0.00084361,-0.00035610,-0.00023391,0.00017530,
 0.00005002,0.00000831,-0.00000594,0.00000401,0.00004071,-0.00001408,-0
 .00002288,-0.00001100,-0.00000448,0.00000614,-0.00008216,-0.00005953,-
 0.00014819,-0.00037568,0.00016333,0.00016815,-0.00002659,0.00005101,-0
 .00006387,-0.00783146,0.00681758,-0.01163510,-0.05591015,0.10349242,0.
 00000984,-0.00014207,0.00009542,0.00002288,0.00052311,-0.00017191,0.00
 102307,-0.00001628,0.00028052,0.00001552,0.00050078,-0.00082081,0.0026
 4981,-0.00327954,0.00198152,-0.09337798,0.09310272,-0.21193489,-0.0007
 5506,-0.00011023,0.00142926,0.00118248,0.00041463,-0.00078416,-0.00119
 023,0.00013387,0.00075487,0.00004633,-0.00001038,-0.00002560,0.0000055
 2,0.00000291,0.00000540,-0.00003064,-0.00000452,0.00001035,-0.00006498
 ,0.00004488,0.00009254,0.00064896,0.00028241,-0.00013463,-0.00010543,0
 .00003734,0.00003995,-0.01171759,0.01288328,-0.01844847,0.10107229,-0.
 10353416,0.22826624,0.00029216,0.00054262,0.00046484,-0.00097255,-0.00
 165892,0.00002190,0.00059827,0.00016547,-0.00069745,-0.00545375,0.0015
 1789,-0.00034924,-0.01084113,-0.03490529,0.00062690,-0.06749193,-0.070
 04136,0.00153253,0.00305003,0.00132562,-0.00074098,0.00033491,-0.00052
 721,0.00186033,0.00048268,0.00007505,-0.00078751,-0.00005333,-0.000012
 41,-0.00002886,-0.00025216,0.00006270,0.00010713,0.00011017,-0.0000030
 4,-0.00008383,0.00001643,0.00003546,0.00004323,0.00012507,0.00004040,0
 .00039470,-0.00066876,-0.00029477,0.00053580,0.00264066,0.00991063,-0.
 00123413,0.00391865,0.01409086,0.00052234,0.07418558,0.00004570,0.0001
 1809,0.00011881,-0.00021109,0.00010887,0.00015107,0.00015866,0.0000401
 8,-0.00034667,0.00056261,0.00119123,-0.00034371,-0.00087456,-0.0014493
 3,-0.00036901,-0.07147948,-0.29049882,0.00985449,-0.00066602,0.0008730
 5,0.00043477,-0.00021422,0.00016347,0.00115299,0.00041066,0.00037446,-
 0.00068129,-0.00002215,0.00000855,-0.00001154,-0.00005754,0.00000158,0
 .00002197,0.00002079,-0.00001426,-0.00001072,-0.00005604,0.00000088,-0
 .00000542,0.00009221,0.00000026,-0.00015656,-0.00005904,-0.00002458,0.
 00004017,-0.00369514,-0.01296364,0.00169933,-0.00350592,-0.01236284,-0
 .00064669,0.07969568,0.31447729,-0.00001778,-0.00025403,-0.00001143,0.
 00026686,0.00109587,0.00000684,0.00023113,-0.00013526,0.00060870,0.001
 29294,0.00071530,-0.00022388,0.00172727,0.00185305,-0.00211852,0.00085
 655,0.00947184,-0.04542355,-0.00133198,-0.00000422,0.00080665,-0.00039
 589,-0.00069977,0.00055441,0.00030793,0.00073224,-0.00018025,0.0000321
 5,-0.00000374,-0.00000721,0.00004734,-0.00002172,-0.00003272,-0.000067
 22,-0.00001505,0.00002849,0.00006070,-0.00001199,0.00004023,-0.0002959
 5,-0.00006376,0.00036073,0.00026724,-0.00002900,-0.00010914,-0.0087786
 3,-0.02624409,0.00179287,0.00788175,0.02443848,-0.00075651,-0.00210327
 ,-0.01077549,0.04470166,-0.00030242,0.00007398,-0.00016887,-0.00045882
 ,0.00004282,-0.00027622,0.00082822,0.00116971,-0.00008192,-0.00153568,
 0.00024716,-0.00148426,-0.01247471,0.01148547,0.00708308,0.00021142,0.
 00172409,-0.00276316,0.00313272,-0.00275288,0.00103431,-0.23632022,0.0
 6836745,0.00432754,-0.01223191,0.00834820,0.02837387,0.00049744,-0.000
 15763,-0.00004395,0.00012431,-0.00008122,0.00007340,0.00006349,-0.0000
 6398,0.00008053,0.00009223,-0.00018256,-0.00043231,-0.00001030,-0.0000
 8183,0.00027046,-0.00000511,0.00037138,-0.00007480,0.00049935,-0.00016
 005,0.00032344,-0.00105651,-0.00007411,0.00004286,-0.00002101,-0.00014
 510,0.00001887,0.25896751,0.00002093,-0.00020370,0.00021163,0.00046244
 ,0.00054440,0.00078561,0.00018106,0.00071762,0.00003524,-0.00122162,0.
 00131593,-0.00320718,0.01826428,0.01144304,-0.00426965,-0.00025843,-0.
 00140109,0.00297112,-0.00323978,0.00059620,0.00274417,0.06772222,-0.08
 599958,0.00141167,0.00554038,0.01845749,-0.00593877,-0.00020224,0.0001
 5719,0.00003676,-0.00003478,0.00003178,-0.00006559,-0.00006737,0.00001
 504,-0.00002231,0.00001492,-0.00010713,-0.00029198,-0.00000800,0.00000
 920,-0.00008584,-0.00014683,-0.00032151,0.00006941,0.00013382,0.000112
 41,0.00000681,0.00098930,0.00009500,-0.00018206,-0.00001938,-0.0000444
 3,-0.00004866,-0.08813091,0.05458212,-0.00012644,0.00003328,-0.0003772
 2,0.00025749,0.00092861,-0.00055674,0.00017473,-0.00015888,-0.00002230
 ,-0.00028725,-0.00056303,0.00071045,-0.02141237,0.00842275,0.00080402,
 -0.00076410,0.00135477,-0.00393420,0.00031741,0.00021885,0.00395599,0.
 01367022,-0.00309145,-0.05470470,0.04543306,-0.01296166,-0.01597711,0.
 00031780,0.00000626,-0.00008117,0.00004194,-0.00002780,-0.00000177,-0.
 00000323,-0.00002336,0.00004855,0.00011855,-0.00005830,-0.00009808,-0.
 00003972,0.00002514,0.00017050,0.00016154,0.00014494,-0.00013778,0.000
 02382,0.00020311,0.00001171,-0.00149614,-0.00016631,0.00012089,-0.0000
 8442,-0.00012652,-0.00003738,-0.03630288,0.00583960,0.07010637\\-0.000
 01253,-0.00000186,-0.00001135,0.00001154,-0.00002365,0.00000914,-0.000
 02606,0.00000499,-0.00001721,-0.00000785,0.00000263,-0.00001953,0.0000
 3670,0.00005563,0.00000479,-0.00000958,-0.00000381,0.00001638,0.000003
 83,-0.00001091,-0.00000136,0.00000219,-0.00000294,0.00000077,0.0000025
 6,0.00000267,0.00000608,-0.00000150,-0.00000858,-0.00000360,-0.0000034
 6,-0.00000590,-0.00000386,0.00000013,-0.00000700,-0.00000291,0.0000098
 9,-0.00001057,-0.00000248,-0.00000119,-0.00000633,0.00000169,-0.000001
 78,-0.00000265,0.00000500,0.00000045,0.00000779,0.00000385,-0.00000128
 ,0.00000490,0.00000640,0.00000123,0.00000525,0.00000348,-0.00000329,0.
 00000035,0.00000470\\\@


 ADVERTISING--  HE WHO HAS SOMETHING TO SELL AND GOES AND WHISPERS
                IN A WELL, IS NOT SO APT TO GET THE DOLLARS AS HE
                WHO CLIMBS A TREE AND HOLLERS.

                   -- FROM THE BACK OF A SUGAR PACKET
 Job cpu time:       0 days  0 hours 44 minutes 56.8 seconds.
 File lengths (MBytes):  RWF=    152 Int=      0 D2E=      0 Chk=      8 Scr=      1
 Normal termination of Gaussian 09 at Mon Jan 27 18:11:02 2020.
