 Entering Gaussian System, Link 0=/home/puck/opt/gaussian_09/g09
 Input=dsC7O2H10nsd_5427.com
 Output=dsC7O2H10nsd_5427.log
 Initial command:
 /home/puck/opt/gaussian_09/l1.exe "/scratch/puck/g09_7235fa7a-b5fe-4659-9c4d-85a02c9274da/Gau-1368.inp" -scrdir="/scratch/puck/g09_7235fa7a-b5fe-4659-9c4d-85a02c9274da/"
 Entering Link 1 = /home/puck/opt/gaussian_09/l1.exe PID=      1445.
  
 Copyright (c) 1988,1990,1992,1993,1995,1998,2003,2009,2013,
            Gaussian, Inc.  All Rights Reserved.
  
 This is part of the Gaussian(R) 09 program.  It is based on
 the Gaussian(R) 03 system (copyright 2003, Gaussian, Inc.),
 the Gaussian(R) 98 system (copyright 1998, Gaussian, Inc.),
 the Gaussian(R) 94 system (copyright 1995, Gaussian, Inc.),
 the Gaussian 92(TM) system (copyright 1992, Gaussian, Inc.),
 the Gaussian 90(TM) system (copyright 1990, Gaussian, Inc.),
 the Gaussian 88(TM) system (copyright 1988, Gaussian, Inc.),
 the Gaussian 86(TM) system (copyright 1986, Carnegie Mellon
 University), and the Gaussian 82(TM) system (copyright 1983,
 Carnegie Mellon University). Gaussian is a federally registered
 trademark of Gaussian, Inc.
  
 This software contains proprietary and confidential information,
 including trade secrets, belonging to Gaussian, Inc.
  
 This software is provided under written license and may be
 used, copied, transmitted, or stored only in accord with that
 written license.
  
 The following legend is applicable only to US Government
 contracts under FAR:
  
                    RESTRICTED RIGHTS LEGEND
  
 Use, reproduction and disclosure by the US Government is
 subject to restrictions as set forth in subparagraphs (a)
 and (c) of the Commercial Computer Software - Restricted
 Rights clause in FAR 52.227-19.
  
 Gaussian, Inc.
 340 Quinnipiac St., Bldg. 40, Wallingford CT 06492
  
  
 ---------------------------------------------------------------
 Warning -- This program may not be used in any manner that
 competes with the business of Gaussian, Inc. or will provide
 assistance to any competitor of Gaussian, Inc.  The licensee
 of this program is prohibited from giving any competitor of
 Gaussian, Inc. access to this program.  By using this program,
 the user acknowledges that Gaussian, Inc. is engaged in the
 business of creating and licensing software in the field of
 computational chemistry and represents and warrants to the
 licensee that it is not a competitor of Gaussian, Inc. and that
 it will not use this program in any manner prohibited above.
 ---------------------------------------------------------------
  

 Cite this work as:
 Gaussian 09, Revision D.01,
 M. J. Frisch, G. W. Trucks, H. B. Schlegel, G. E. Scuseria, 
 M. A. Robb, J. R. Cheeseman, G. Scalmani, V. Barone, B. Mennucci, 
 G. A. Petersson, H. Nakatsuji, M. Caricato, X. Li, H. P. Hratchian, 
 A. F. Izmaylov, J. Bloino, G. Zheng, J. L. Sonnenberg, M. Hada, 
 M. Ehara, K. Toyota, R. Fukuda, J. Hasegawa, M. Ishida, T. Nakajima, 
 Y. Honda, O. Kitao, H. Nakai, T. Vreven, J. A. Montgomery, Jr., 
 J. E. Peralta, F. Ogliaro, M. Bearpark, J. J. Heyd, E. Brothers, 
 K. N. Kudin, V. N. Staroverov, T. Keith, R. Kobayashi, J. Normand, 
 K. Raghavachari, A. Rendell, J. C. Burant, S. S. Iyengar, J. Tomasi, 
 M. Cossi, N. Rega, J. M. Millam, M. Klene, J. E. Knox, J. B. Cross, 
 V. Bakken, C. Adamo, J. Jaramillo, R. Gomperts, R. E. Stratmann, 
 O. Yazyev, A. J. Austin, R. Cammi, C. Pomelli, J. W. Ochterski, 
 R. L. Martin, K. Morokuma, V. G. Zakrzewski, G. A. Voth, 
 P. Salvador, J. J. Dannenberg, S. Dapprich, A. D. Daniels, 
 O. Farkas, J. B. Foresman, J. V. Ortiz, J. Cioslowski, 
 and D. J. Fox, Gaussian, Inc., Wallingford CT, 2013.
 
 ******************************************
 Gaussian 09:  ES64L-G09RevD.01 24-Apr-2013
                28-Jan-2020 
 ******************************************
 -----------------------------
 # b3lyp 6-31G(2df,p) opt Freq
 -----------------------------
 1/14=-1,18=20,19=15,26=3,38=1/1,3;
 2/9=110,12=2,17=6,18=5,40=1/2;
 3/5=1,6=6,7=104,11=2,16=1,25=1,30=1,71=1,74=-5/1,2,3;
 4//1;
 5/5=2,38=5/2;
 6/7=2,8=2,9=2,10=2,28=1/1;
 7//1,2,3,16;
 1/14=-1,18=20,19=15,26=3/3(2);
 2/9=110/2;
 99//99;
 2/9=110/2;
 3/5=1,6=6,7=104,11=2,16=1,25=1,30=1,71=1,74=-5/1,2,3;
 4/5=5,16=3,69=1/1;
 5/5=2,38=5/2;
 7//1,2,3,16;
 1/14=-1,18=20,19=15,26=3/3(-5);
 2/9=110/2;
 6/7=2,8=2,9=2,10=2,19=2,28=1/1;
 99/9=1/99;
 -----
 titel
 -----
 Symbolic Z-matrix:
 Charge =  0 Multiplicity = 1
 C                     1.3381    0.05621  -0.18196 
 O                    -0.07275   0.03765  -0.05154 
 C                    -0.52305   0.63276   1.11107 
 C                    -1.8899    1.25164   1.08118 
 O                    -2.59823   1.29685  -0.10553 
 C                    -3.23799   0.06724  -0.41494 
 C                    -0.67663   2.16403   1.14727 
 C                    -0.36826   2.91008   2.32724 
 C                    -0.10589   3.51748   3.3325 
 H                     1.82484  -0.48069   0.6452 
 H                     1.57793  -0.4433   -1.12287 
 H                     1.72474   1.08403  -0.20633 
 H                    -0.19454   0.16177   2.0391 
 H                    -2.49427   1.15756   1.98496 
 H                    -3.95795  -0.21766   0.36664 
 H                    -3.7777    0.2216   -1.35181 
 H                    -2.507    -0.73944  -0.54188 
 H                    -0.46641   2.63845   0.19257 
 H                     0.12403   4.06275   4.21377 
 

 GradGradGradGradGradGradGradGradGradGradGradGradGradGradGradGradGradGrad
 Berny optimization.
 Initialization pass.
                           ----------------------------
                           !    Initial Parameters    !
                           ! (Angstroms and Degrees)  !
 --------------------------                            --------------------------
 ! Name  Definition              Value          Derivative Info.                !
 --------------------------------------------------------------------------------
 ! R1    R(1,2)                  1.417          estimate D2E/DX2                !
 ! R2    R(1,10)                 1.0997         estimate D2E/DX2                !
 ! R3    R(1,11)                 1.0919         estimate D2E/DX2                !
 ! R4    R(1,12)                 1.0984         estimate D2E/DX2                !
 ! R5    R(2,3)                  1.3815         estimate D2E/DX2                !
 ! R6    R(3,4)                  1.5007         estimate D2E/DX2                !
 ! R7    R(3,7)                  1.5394         estimate D2E/DX2                !
 ! R8    R(3,13)                 1.0913         estimate D2E/DX2                !
 ! R9    R(4,5)                  1.3828         estimate D2E/DX2                !
 ! R10   R(4,7)                  1.5195         estimate D2E/DX2                !
 ! R11   R(4,14)                 1.0913         estimate D2E/DX2                !
 ! R12   R(5,6)                  1.4202         estimate D2E/DX2                !
 ! R13   R(6,15)                 1.1002         estimate D2E/DX2                !
 ! R14   R(6,16)                 1.0922         estimate D2E/DX2                !
 ! R15   R(6,17)                 1.096          estimate D2E/DX2                !
 ! R16   R(7,8)                  1.4297         estimate D2E/DX2                !
 ! R17   R(7,18)                 1.0866         estimate D2E/DX2                !
 ! R18   R(8,9)                  1.2035         estimate D2E/DX2                !
 ! R19   R(9,19)                 1.0615         estimate D2E/DX2                !
 ! A1    A(2,1,10)             111.4117         estimate D2E/DX2                !
 ! A2    A(2,1,11)             106.9775         estimate D2E/DX2                !
 ! A3    A(2,1,12)             111.3933         estimate D2E/DX2                !
 ! A4    A(10,1,11)            109.1222         estimate D2E/DX2                !
 ! A5    A(10,1,12)            108.5263         estimate D2E/DX2                !
 ! A6    A(11,1,12)            109.3671         estimate D2E/DX2                !
 ! A7    A(1,2,3)              113.3496         estimate D2E/DX2                !
 ! A8    A(2,3,4)              117.2416         estimate D2E/DX2                !
 ! A9    A(2,3,7)              118.7379         estimate D2E/DX2                !
 ! A10   A(2,3,13)             115.5691         estimate D2E/DX2                !
 ! A11   A(4,3,13)             117.9745         estimate D2E/DX2                !
 ! A12   A(7,3,13)             116.0623         estimate D2E/DX2                !
 ! A13   A(3,4,5)              119.8106         estimate D2E/DX2                !
 ! A14   A(3,4,14)             116.8951         estimate D2E/DX2                !
 ! A15   A(5,4,7)              115.2592         estimate D2E/DX2                !
 ! A16   A(5,4,14)             115.4594         estimate D2E/DX2                !
 ! A17   A(7,4,14)             117.2546         estimate D2E/DX2                !
 ! A18   A(4,5,6)              112.9184         estimate D2E/DX2                !
 ! A19   A(5,6,15)             111.3597         estimate D2E/DX2                !
 ! A20   A(5,6,16)             106.6856         estimate D2E/DX2                !
 ! A21   A(5,6,17)             111.2252         estimate D2E/DX2                !
 ! A22   A(15,6,16)            108.8214         estimate D2E/DX2                !
 ! A23   A(15,6,17)            109.157          estimate D2E/DX2                !
 ! A24   A(16,6,17)            109.5275         estimate D2E/DX2                !
 ! A25   A(3,7,8)              121.1287         estimate D2E/DX2                !
 ! A26   A(3,7,18)             113.2255         estimate D2E/DX2                !
 ! A27   A(4,7,8)              121.4297         estimate D2E/DX2                !
 ! A28   A(4,7,18)             112.2365         estimate D2E/DX2                !
 ! A29   A(8,7,18)             117.1022         estimate D2E/DX2                !
 ! A30   L(7,8,9,13,-1)        178.8658         estimate D2E/DX2                !
 ! A31   L(8,9,19,10,-1)       180.4094         estimate D2E/DX2                !
 ! A32   L(7,8,9,13,-2)        180.1692         estimate D2E/DX2                !
 ! A33   L(8,9,19,10,-2)       179.3533         estimate D2E/DX2                !
 ! D1    D(10,1,2,3)            60.3299         estimate D2E/DX2                !
 ! D2    D(11,1,2,3)           179.5143         estimate D2E/DX2                !
 ! D3    D(12,1,2,3)           -61.014          estimate D2E/DX2                !
 ! D4    D(1,2,3,4)            151.6234         estimate D2E/DX2                !
 ! D5    D(1,2,3,7)             82.7143         estimate D2E/DX2                !
 ! D6    D(1,2,3,13)           -62.1532         estimate D2E/DX2                !
 ! D7    D(2,3,4,5)             -4.793          estimate D2E/DX2                !
 ! D8    D(2,3,4,14)           143.0002         estimate D2E/DX2                !
 ! D9    D(13,3,4,5)          -150.1919         estimate D2E/DX2                !
 ! D10   D(13,3,4,14)           -2.3987         estimate D2E/DX2                !
 ! D11   D(2,3,7,8)           -143.1334         estimate D2E/DX2                !
 ! D12   D(2,3,7,18)             3.8283         estimate D2E/DX2                !
 ! D13   D(13,3,7,8)             1.5657         estimate D2E/DX2                !
 ! D14   D(13,3,7,18)          148.5274         estimate D2E/DX2                !
 ! D15   D(3,4,5,6)             80.201          estimate D2E/DX2                !
 ! D16   D(7,4,5,6)            150.2037         estimate D2E/DX2                !
 ! D17   D(14,4,5,6)           -68.033          estimate D2E/DX2                !
 ! D18   D(5,4,7,8)            138.6415         estimate D2E/DX2                !
 ! D19   D(5,4,7,18)            -7.1154         estimate D2E/DX2                !
 ! D20   D(14,4,7,8)            -2.4119         estimate D2E/DX2                !
 ! D21   D(14,4,7,18)         -148.1688         estimate D2E/DX2                !
 ! D22   D(4,5,6,15)            60.318          estimate D2E/DX2                !
 ! D23   D(4,5,6,16)           178.9293         estimate D2E/DX2                !
 ! D24   D(4,5,6,17)           -61.6801         estimate D2E/DX2                !
 --------------------------------------------------------------------------------
 Trust Radius=3.00D-01 FncErr=1.00D-07 GrdErr=1.00D-06
 Number of steps in this run=     86 maximum allowed number of steps=    114.
 GradGradGradGradGradGradGradGradGradGradGradGradGradGradGradGradGradGrad

                          Input orientation:                          
 ---------------------------------------------------------------------
 Center     Atomic      Atomic             Coordinates (Angstroms)
 Number     Number       Type             X           Y           Z
 ---------------------------------------------------------------------
      1          6           0        1.338103    0.056205   -0.181958
      2          8           0       -0.072755    0.037645   -0.051543
      3          6           0       -0.523049    0.632760    1.111072
      4          6           0       -1.889902    1.251640    1.081179
      5          8           0       -2.598233    1.296850   -0.105531
      6          6           0       -3.237993    0.067235   -0.414941
      7          6           0       -0.676632    2.164032    1.147265
      8          6           0       -0.368261    2.910082    2.327241
      9          6           0       -0.105887    3.517483    3.332496
     10          1           0        1.824837   -0.480689    0.645198
     11          1           0        1.577929   -0.443302   -1.122873
     12          1           0        1.724737    1.084032   -0.206334
     13          1           0       -0.194544    0.161765    2.039097
     14          1           0       -2.494273    1.157564    1.984959
     15          1           0       -3.957950   -0.217659    0.366636
     16          1           0       -3.777698    0.221596   -1.351811
     17          1           0       -2.507003   -0.739438   -0.541884
     18          1           0       -0.466411    2.638454    0.192573
     19          1           0        0.124027    4.062746    4.213769
 ---------------------------------------------------------------------
                    Distance matrix (angstroms):
                    1          2          3          4          5
     1  C    0.000000
     2  O    1.416994   0.000000
     3  C    2.338425   1.381521   0.000000
     4  C    3.666688   2.461477   1.500731   0.000000
     5  O    4.127927   2.822508   2.495501   1.382772   0.000000
     6  C    4.582036   3.186168   3.165352   2.336352   1.420204
     7  C    3.204516   2.514623   1.539380   1.519491   2.452357
     8  C    4.165618   3.741234   2.586353   2.572642   3.673373
     9  C    5.139741   4.854079   3.664747   3.658576   4.791975
    10  H    1.099706   2.086857   2.639958   4.121933   4.825639
    11  H    1.091946   2.025788   3.250005   4.444832   4.637181
    12  H    1.098411   2.085632   2.644191   3.840756   4.329379
    13  H    2.700599   2.097859   1.091321   2.231518   3.415489
    14  H    4.538240   3.356384   2.219194   1.091298   2.097703
    15  H    5.331429   3.915967   3.616067   2.635570   2.089380
    16  H    5.250460   3.930794   4.102144   3.247184   2.024975
    17  H    3.943023   2.601894   2.924254   2.641881   2.084513
    18  H    3.172468   2.641735   2.206730   2.176970   2.536421
    19  H    6.070319   5.867968   4.670143   4.665977   5.806654
                    6          7          8          9         10
     6  C    0.000000
     7  C    3.660276   0.000000
     8  C    4.882284   1.429694   0.000000
     9  C    5.979764   2.633023   1.203459   0.000000
    10  H    5.201574   3.674774   4.374503   5.189860   0.000000
    11  H    4.894377   4.127320   5.190003   6.194624   1.785620
    12  H    5.070117   2.960609   3.759535   4.668639   1.784230
    13  H    3.910731   2.244291   2.768835   3.597441   2.536455
    14  H    2.738879   2.240207   2.776400   3.617935   4.809735
    15  H    1.100166   4.129029   5.149038   6.130741   5.795465
    16  H    1.092170   4.431146   5.691014   6.803513   5.989128
    17  H    1.095985   3.825391   5.111270   6.236789   4.498994
    18  H    3.829087   1.086603   2.154117   3.280516   3.896632
    19  H    6.977983   3.694538   2.264944   1.061515   6.022479
                   11         12         13         14         15
    11  H    0.000000
    12  H    1.787273   0.000000
    13  H    3.675027   3.094540   0.000000
    14  H    5.366957   4.754705   2.506651   0.000000
    15  H    5.737204   5.857954   4.135735   2.579255   0.000000
    16  H    5.401597   5.686186   4.933642   3.695572   1.782834
    17  H    4.136655   4.620093   3.580655   3.159701   1.789667
    18  H    3.925169   2.715969   3.101217   3.085110   4.514257
    19  H    7.134287   5.565278   4.477537   4.501463   7.055837
                   16         17         18         19
    16  H    0.000000
    17  H    1.787243   0.000000
    18  H    4.380747   4.014174   0.000000
    19  H    7.807277   7.252552   4.306651   0.000000
 Stoichiometry    C7H10O2
 Framework group  C1[X(C7H10O2)]
 Deg. of freedom    51
 Full point group                 C1      NOp   1
 Largest Abelian subgroup         C1      NOp   1
 Largest concise Abelian subgroup C1      NOp   1
                         Standard orientation:                         
 ---------------------------------------------------------------------
 Center     Atomic      Atomic             Coordinates (Angstroms)
 Number     Number       Type             X           Y           Z
 ---------------------------------------------------------------------
      1          6           0        0.379820    2.686576   -0.156348
      2          8           0        0.918814    1.400880    0.097311
      3          6           0       -0.016305    0.497526    0.564328
      4          6           0        0.217121   -0.952975    0.258137
      5          8           0        1.278136   -1.323385   -0.547532
      6          6           0        2.515879   -1.355653    0.148120
      7          6           0       -0.914820   -0.229808   -0.452208
      8          6           0       -2.284005   -0.515987   -0.156470
      9          6           0       -3.432980   -0.749390    0.114992
     10          1           0       -0.045963    3.130401    0.755288
     11          1           0        1.201784    3.313007   -0.508919
     12          1           0       -0.404176    2.647899   -0.924698
     13          1           0       -0.480183    0.750975    1.519086
     14          1           0       -0.056962   -1.671320    1.032599
     15          1           0        2.489779   -2.076065    0.979198
     16          1           0        3.272077   -1.675696   -0.571999
     17          1           0        2.777563   -0.365546    0.538497
     18          1           0       -0.669722    0.003601   -1.484755
     19          1           0       -4.448059   -0.958948    0.344154
 ---------------------------------------------------------------------
 Rotational constants (GHZ):      1.9902102      1.2601891      0.8270802
 Standard basis: 6-31G(2df,p) (6D, 7F)
 There are   329 symmetry adapted cartesian basis functions of A   symmetry.
 There are   302 symmetry adapted basis functions of A   symmetry.
   302 basis functions,   466 primitive gaussians,   329 cartesian basis functions
    34 alpha electrons       34 beta electrons
       nuclear repulsion energy       440.4677765537 Hartrees.
 NAtoms=   19 NActive=   19 NUniq=   19 SFac= 1.00D+00 NAtFMM=   60 NAOKFM=F Big=F
 Integral buffers will be    131072 words long.
 Raffenetti 2 integral format.
 Two-electron integral symmetry is turned on.
 One-electron integrals computed using PRISM.
 NBasis=   302 RedAO= T EigKep=  1.45D-04  NBF=   302
 NBsUse=   302 1.00D-06 EigRej= -1.00D+00 NBFU=   302
 ExpMin= 1.61D-01 ExpMax= 5.48D+03 ExpMxC= 8.25D+02 IAcc=1 IRadAn=         1 AccDes= 0.00D+00
 Harris functional with IExCor=  402 and IRadAn=       1 diagonalized for initial guess.
 HarFok:  IExCor=  402 AccDes= 0.00D+00 IRadAn=         1 IDoV= 1 UseB2=F ITyADJ=14
 ICtDFT=  3500011 ScaDFX=  1.000000  1.000000  1.000000  1.000000
 FoFCou: FMM=F IPFlag=           0 FMFlag=      100000 FMFlg1=           0
         NFxFlg=           0 DoJE=T BraDBF=F KetDBF=T FulRan=T
         wScrn=  0.000000 ICntrl=     500 IOpCl=  0 I1Cent=   200000004 NGrid=           0
         NMat0=    1 NMatS0=      1 NMatT0=    0 NMatD0=    1 NMtDS0=    0 NMtDT0=    0
 Petite list used in FoFCou.
 Requested convergence on RMS density matrix=1.00D-08 within 128 cycles.
 Requested convergence on MAX density matrix=1.00D-06.
 Requested convergence on             energy=1.00D-06.
 No special actions if energy rises.
 Integral accuracy reduced to 1.0D-05 until final iterations.
 Initial convergence to 1.0D-05 achieved.  Increase integral accuracy.
 SCF Done:  E(RB3LYP) =  -423.101409745     A.U. after   14 cycles
            NFock= 14  Conv=0.41D-08     -V/T= 2.0074

 **********************************************************************

            Population analysis using the SCF density.

 **********************************************************************

 Orbital symmetries:
       Occupied  (A) (A) (A) (A) (A) (A) (A) (A) (A) (A) (A) (A)
                 (A) (A) (A) (A) (A) (A) (A) (A) (A) (A) (A) (A)
                 (A) (A) (A) (A) (A) (A) (A) (A) (A) (A)
       Virtual   (A) (A) (A) (A) (A) (A) (A) (A) (A) (A) (A) (A)
                 (A) (A) (A) (A) (A) (A) (A) (A) (A) (A) (A) (A)
                 (A) (A) (A) (A) (A) (A) (A) (A) (A) (A) (A) (A)
                 (A) (A) (A) (A) (A) (A) (A) (A) (A) (A) (A) (A)
                 (A) (A) (A) (A) (A) (A) (A) (A) (A) (A) (A) (A)
                 (A) (A) (A) (A) (A) (A) (A) (A) (A) (A) (A) (A)
                 (A) (A) (A) (A) (A) (A) (A) (A) (A) (A) (A) (A)
                 (A) (A) (A) (A) (A) (A) (A) (A) (A) (A) (A) (A)
                 (A) (A) (A) (A) (A) (A) (A) (A) (A) (A) (A) (A)
                 (A) (A) (A) (A) (A) (A) (A) (A) (A) (A) (A) (A)
                 (A) (A) (A) (A) (A) (A) (A) (A) (A) (A) (A) (A)
                 (A) (A) (A) (A) (A) (A) (A) (A) (A) (A) (A) (A)
                 (A) (A) (A) (A) (A) (A) (A) (A) (A) (A) (A) (A)
                 (A) (A) (A) (A) (A) (A) (A) (A) (A) (A) (A) (A)
                 (A) (A) (A) (A) (A) (A) (A) (A) (A) (A) (A) (A)
                 (A) (A) (A) (A) (A) (A) (A) (A) (A) (A) (A) (A)
                 (A) (A) (A) (A) (A) (A) (A) (A) (A) (A) (A) (A)
                 (A) (A) (A) (A) (A) (A) (A) (A) (A) (A) (A) (A)
                 (A) (A) (A) (A) (A) (A) (A) (A) (A) (A) (A) (A)
                 (A) (A) (A) (A) (A) (A) (A) (A) (A) (A) (A) (A)
                 (A) (A) (A) (A) (A) (A) (A) (A) (A) (A) (A) (A)
                 (A) (A) (A) (A) (A) (A) (A) (A) (A) (A) (A) (A)
                 (A) (A) (A) (A)
 The electronic state is 1-A.
 Alpha  occ. eigenvalues --  -19.15684 -19.14858 -10.24418 -10.24380 -10.23113
 Alpha  occ. eigenvalues --  -10.22254 -10.21017 -10.18041 -10.16874  -1.05891
 Alpha  occ. eigenvalues --   -1.03712  -0.85932  -0.74313  -0.70457  -0.68666
 Alpha  occ. eigenvalues --   -0.62611  -0.58247  -0.55107  -0.51686  -0.50308
 Alpha  occ. eigenvalues --   -0.46893  -0.46519  -0.45101  -0.43266  -0.42887
 Alpha  occ. eigenvalues --   -0.41725  -0.35933  -0.35629  -0.33556  -0.30433
 Alpha  occ. eigenvalues --   -0.28474  -0.27365  -0.24775  -0.23122
 Alpha virt. eigenvalues --    0.04931   0.05079   0.08164   0.10544   0.12489
 Alpha virt. eigenvalues --    0.13044   0.13357   0.14026   0.14988   0.15680
 Alpha virt. eigenvalues --    0.16584   0.17814   0.17889   0.18894   0.19456
 Alpha virt. eigenvalues --    0.23517   0.25618   0.28582   0.31660   0.34688
 Alpha virt. eigenvalues --    0.38028   0.41645   0.42205   0.43042   0.45477
 Alpha virt. eigenvalues --    0.47591   0.48418   0.50670   0.51957   0.52461
 Alpha virt. eigenvalues --    0.53217   0.54910   0.55444   0.57641   0.59422
 Alpha virt. eigenvalues --    0.61521   0.62821   0.66465   0.67817   0.68599
 Alpha virt. eigenvalues --    0.69607   0.70491   0.72430   0.72853   0.73072
 Alpha virt. eigenvalues --    0.73852   0.74357   0.74865   0.77219   0.78114
 Alpha virt. eigenvalues --    0.79396   0.80048   0.80633   0.81406   0.82783
 Alpha virt. eigenvalues --    0.87055   0.88199   0.90333   0.92041   0.92356
 Alpha virt. eigenvalues --    0.96738   0.98829   0.99996   1.05013   1.05836
 Alpha virt. eigenvalues --    1.08076   1.09970   1.10621   1.13564   1.15582
 Alpha virt. eigenvalues --    1.19391   1.21849   1.22185   1.24782   1.27650
 Alpha virt. eigenvalues --    1.29039   1.29779   1.32698   1.33923   1.36226
 Alpha virt. eigenvalues --    1.40055   1.40471   1.41447   1.42722   1.45675
 Alpha virt. eigenvalues --    1.47722   1.49135   1.50217   1.52748   1.54550
 Alpha virt. eigenvalues --    1.55181   1.57959   1.62020   1.65124   1.68481
 Alpha virt. eigenvalues --    1.70437   1.72228   1.76090   1.78050   1.80466
 Alpha virt. eigenvalues --    1.80872   1.81974   1.87751   1.88730   1.93103
 Alpha virt. eigenvalues --    1.93805   1.95854   1.97532   2.04691   2.12757
 Alpha virt. eigenvalues --    2.13263   2.22349   2.24183   2.26536   2.31895
 Alpha virt. eigenvalues --    2.32594   2.36905   2.38960   2.39715   2.41187
 Alpha virt. eigenvalues --    2.43221   2.45492   2.48862   2.55586   2.57841
 Alpha virt. eigenvalues --    2.59533   2.63301   2.66633   2.67259   2.68544
 Alpha virt. eigenvalues --    2.69241   2.72748   2.74430   2.76584   2.77128
 Alpha virt. eigenvalues --    2.78182   2.81664   2.84763   2.86416   2.87930
 Alpha virt. eigenvalues --    2.90200   2.90908   2.92182   2.93499   2.99495
 Alpha virt. eigenvalues --    3.01597   3.02897   3.03829   3.06242   3.06909
 Alpha virt. eigenvalues --    3.09875   3.10658   3.12617   3.13999   3.15801
 Alpha virt. eigenvalues --    3.20784   3.22406   3.25375   3.27384   3.32245
 Alpha virt. eigenvalues --    3.33956   3.36081   3.38564   3.42145   3.43474
 Alpha virt. eigenvalues --    3.45458   3.47672   3.48239   3.50187   3.51691
 Alpha virt. eigenvalues --    3.51909   3.56174   3.56527   3.58262   3.64621
 Alpha virt. eigenvalues --    3.67004   3.67500   3.68449   3.72833   3.80633
 Alpha virt. eigenvalues --    3.83626   3.86496   3.90339   3.91476   3.96225
 Alpha virt. eigenvalues --    3.96969   3.98757   4.04396   4.05706   4.13278
 Alpha virt. eigenvalues --    4.16396   4.19491   4.21732   4.24779   4.25909
 Alpha virt. eigenvalues --    4.29754   4.33778   4.36607   4.37165   4.37360
 Alpha virt. eigenvalues --    4.38644   4.40752   4.41761   4.43237   4.44252
 Alpha virt. eigenvalues --    4.45691   4.47659   4.48961   4.49490   4.53453
 Alpha virt. eigenvalues --    4.56136   4.57598   4.61054   4.66026   4.66288
 Alpha virt. eigenvalues --    4.68849   4.72397   4.72934   4.74360   4.76937
 Alpha virt. eigenvalues --    4.80057   4.81970   4.83319   4.86751   4.90622
 Alpha virt. eigenvalues --    4.93090   4.98897   5.05320   5.06791   5.10275
 Alpha virt. eigenvalues --    5.12250   5.23320   5.26734   5.27168   5.28836
 Alpha virt. eigenvalues --    5.30579   5.36234   5.37427   5.41160   5.45170
 Alpha virt. eigenvalues --    5.49512   5.56647   5.56842   5.66585   5.75613
 Alpha virt. eigenvalues --    5.87808   5.89244   5.94775   6.01845   6.05517
 Alpha virt. eigenvalues --    6.08024   6.11438   6.23813   6.29876   6.36821
 Alpha virt. eigenvalues --    6.41841   6.97509   7.15808   7.25687   9.64209
 Alpha virt. eigenvalues --   10.79487  11.20398  11.23636  11.61375  12.18534
 Alpha virt. eigenvalues --   12.36930  13.45349  13.71411
          Condensed to atoms (all electrons):
               1          2          3          4          5          6
     1  C    4.849855   0.373355  -0.113348   0.006454  -0.000171  -0.000071
     2  O    0.373355   7.622736   0.383405  -0.015908   0.001802  -0.000907
     3  C   -0.113348   0.383405   4.939156   0.233125  -0.034792  -0.001173
     4  C    0.006454  -0.015908   0.233125   4.826131   0.399875  -0.100842
     5  O   -0.000171   0.001802  -0.034792   0.399875   7.622680   0.365282
     6  C   -0.000071  -0.000907  -0.001173  -0.100842   0.365282   4.851424
     7  C   -0.002712  -0.025193   0.262253   0.308788  -0.009155   0.005982
     8  C   -0.000417   0.002737  -0.012775  -0.019799   0.002285   0.000025
     9  C   -0.000003   0.000034   0.000100  -0.001188   0.000018   0.000000
    10  H    0.372359  -0.030734  -0.005671  -0.000528   0.000002   0.000008
    11  H    0.384440  -0.019345   0.004794  -0.000145   0.000007   0.000014
    12  H    0.367402  -0.032615   0.001595   0.000372   0.000028  -0.000018
    13  H   -0.004035  -0.036819   0.366411  -0.038034   0.001407   0.000465
    14  H   -0.000091   0.000792  -0.054444   0.372679  -0.034927  -0.003378
    15  H   -0.000004   0.000236  -0.002890  -0.005259  -0.032007   0.366865
    16  H    0.000002  -0.000004   0.000153   0.004050  -0.019498   0.383366
    17  H    0.000028   0.007448   0.006413  -0.001771  -0.029899   0.369307
    18  H    0.002487  -0.000078  -0.031253  -0.033818   0.002950   0.000128
    19  H    0.000000   0.000000   0.000048   0.000048   0.000000   0.000000
               7          8          9         10         11         12
     1  C   -0.002712  -0.000417  -0.000003   0.372359   0.384440   0.367402
     2  O   -0.025193   0.002737   0.000034  -0.030734  -0.019345  -0.032615
     3  C    0.262253  -0.012775   0.000100  -0.005671   0.004794   0.001595
     4  C    0.308788  -0.019799  -0.001188  -0.000528  -0.000145   0.000372
     5  O   -0.009155   0.002285   0.000018   0.000002   0.000007   0.000028
     6  C    0.005982   0.000025   0.000000   0.000008   0.000014  -0.000018
     7  C    5.264445   0.309373  -0.083961  -0.002344   0.000165   0.009525
     8  C    0.309373   4.547302   0.876181   0.000533   0.000003  -0.001435
     9  C   -0.083961   0.876181   5.270383   0.000053   0.000000  -0.000175
    10  H   -0.002344   0.000533   0.000053   0.625088  -0.034282  -0.047803
    11  H    0.000165   0.000003   0.000000  -0.034282   0.566596  -0.033763
    12  H    0.009525  -0.001435  -0.000175  -0.047803  -0.033763   0.619517
    13  H   -0.058813   0.006495   0.003416   0.010690  -0.000179  -0.001903
    14  H   -0.046124   0.006953   0.003214  -0.000006   0.000004   0.000017
    15  H   -0.000012   0.000089   0.000003   0.000000   0.000000   0.000000
    16  H   -0.000223  -0.000002   0.000000   0.000000   0.000000   0.000000
    17  H   -0.000055  -0.000059  -0.000001   0.000003  -0.000057   0.000032
    18  H    0.379959  -0.031927  -0.001996   0.000080  -0.000097   0.000612
    19  H   -0.000781  -0.002221   0.377773   0.000000   0.000000  -0.000001
              13         14         15         16         17         18
     1  C   -0.004035  -0.000091  -0.000004   0.000002   0.000028   0.002487
     2  O   -0.036819   0.000792   0.000236  -0.000004   0.007448  -0.000078
     3  C    0.366411  -0.054444  -0.002890   0.000153   0.006413  -0.031253
     4  C   -0.038034   0.372679  -0.005259   0.004050  -0.001771  -0.033818
     5  O    0.001407  -0.034927  -0.032007  -0.019498  -0.029899   0.002950
     6  C    0.000465  -0.003378   0.366865   0.383366   0.369307   0.000128
     7  C   -0.058813  -0.046124  -0.000012  -0.000223  -0.000055   0.379959
     8  C    0.006495   0.006953   0.000089  -0.000002  -0.000059  -0.031927
     9  C    0.003416   0.003214   0.000003   0.000000  -0.000001  -0.001996
    10  H    0.010690  -0.000006   0.000000   0.000000   0.000003   0.000080
    11  H   -0.000179   0.000004   0.000000   0.000000  -0.000057  -0.000097
    12  H   -0.001903   0.000017   0.000000   0.000000   0.000032   0.000612
    13  H    0.652677  -0.004759  -0.000008   0.000000  -0.000372   0.003048
    14  H   -0.004759   0.646721   0.010313  -0.000142  -0.001333   0.003250
    15  H   -0.000008   0.010313   0.638786  -0.034525  -0.046334   0.000029
    16  H    0.000000  -0.000142  -0.034525   0.570500  -0.032418   0.000002
    17  H   -0.000372  -0.001333  -0.046334  -0.032418   0.597579   0.000047
    18  H    0.003048   0.003250   0.000029   0.000002   0.000047   0.577243
    19  H    0.000013   0.000014   0.000000   0.000000   0.000000  -0.000063
              19
     1  C    0.000000
     2  O    0.000000
     3  C    0.000048
     4  C    0.000048
     5  O    0.000000
     6  C    0.000000
     7  C   -0.000781
     8  C   -0.002221
     9  C    0.377773
    10  H    0.000000
    11  H    0.000000
    12  H   -0.000001
    13  H    0.000013
    14  H    0.000014
    15  H    0.000000
    16  H    0.000000
    17  H    0.000000
    18  H   -0.000063
    19  H    0.431540
 Mulliken charges:
               1
     1  C   -0.235531
     2  O   -0.230943
     3  C    0.058893
     4  C    0.065769
     5  O   -0.235886
     6  C   -0.236477
     7  C   -0.311118
     8  C    0.316658
     9  C   -0.443851
    10  H    0.112553
    11  H    0.131845
    12  H    0.118612
    13  H    0.100300
    14  H    0.101247
    15  H    0.104719
    16  H    0.128737
    17  H    0.131443
    18  H    0.129396
    19  H    0.193631
 Sum of Mulliken charges =   0.00000
 Mulliken charges with hydrogens summed into heavy atoms:
               1
     1  C    0.127480
     2  O   -0.230943
     3  C    0.159193
     4  C    0.167017
     5  O   -0.235886
     6  C    0.128423
     7  C   -0.181722
     8  C    0.316658
     9  C   -0.250220
 Electronic spatial extent (au):  <R**2>=           1412.6767
 Charge=              0.0000 electrons
 Dipole moment (field-independent basis, Debye):
    X=              0.2912    Y=              1.0501    Z=              1.1211  Tot=              1.5634
 Quadrupole moment (field-independent basis, Debye-Ang):
   XX=            -49.6206   YY=            -50.3684   ZZ=            -53.0296
   XY=             -0.8570   XZ=             -0.3622   YZ=             -2.4959
 Traceless Quadrupole moment (field-independent basis, Debye-Ang):
   XX=              1.3856   YY=              0.6378   ZZ=             -2.0234
   XY=             -0.8570   XZ=             -0.3622   YZ=             -2.4959
 Octapole moment (field-independent basis, Debye-Ang**2):
  XXX=             -0.9164  YYY=             18.3147  ZZZ=             -2.2223  XYY=              9.6216
  XXY=            -12.3398  XXZ=              5.0494  XZZ=              4.9007  YZZ=              2.5094
  YYZ=              1.7583  XYZ=             -0.6435
 Hexadecapole moment (field-independent basis, Debye-Ang**3):
 XXXX=           -867.0942 YYYY=           -641.3426 ZZZZ=           -117.6343 XXXY=             24.3431
 XXXZ=            -38.3259 YYYX=              0.2592 YYYZ=             -7.2328 ZZZX=             -2.6339
 ZZZY=              2.9458 XXYY=           -284.3815 XXZZ=           -207.3439 YYZZ=           -131.4108
 XXYZ=             -6.5289 YYXZ=             -4.0073 ZZXY=             -3.7953
 N-N= 4.404677765537D+02 E-N=-1.867413279089D+03  KE= 4.199927936194D+02
 Calling FoFJK, ICntrl=      2127 FMM=F ISym2X=0 I1Cent= 0 IOpClX= 0 NMat=1 NMatS=1 NMatT=0.
 ***** Axes restored to original set *****
 -------------------------------------------------------------------
 Center     Atomic                   Forces (Hartrees/Bohr)
 Number     Number              X              Y              Z
 -------------------------------------------------------------------
      1        6          -0.000035961    0.000009348    0.000000322
      2        8           0.000039234   -0.000039903   -0.000046250
      3        6          -0.000026324    0.000073883    0.000033323
      4        6           0.000035446   -0.000018233    0.000005308
      5        8          -0.000024760    0.000032973   -0.000041076
      6        6           0.000032940   -0.000003604    0.000002165
      7        6          -0.000012818   -0.000055702    0.000016035
      8        6          -0.000001358    0.000015677    0.000015744
      9        6           0.000003269    0.000005580    0.000026141
     10        1           0.000011407    0.000000406    0.000005136
     11        1           0.000002421    0.000000135    0.000002296
     12        1           0.000010168    0.000003317    0.000008167
     13        1          -0.000004825   -0.000006349   -0.000003701
     14        1           0.000008802   -0.000001246    0.000001546
     15        1          -0.000015307   -0.000003386   -0.000006662
     16        1          -0.000001972    0.000010807    0.000000310
     17        1           0.000000705    0.000002932   -0.000001194
     18        1          -0.000011740   -0.000013451   -0.000007714
     19        1          -0.000009325   -0.000013185   -0.000009895
 -------------------------------------------------------------------
 Cartesian Forces:  Max     0.000073883 RMS     0.000021534

 GradGradGradGradGradGradGradGradGradGradGradGradGradGradGradGradGradGrad
 Berny optimization.
 FormGI is forming the generalized inverse of G from B-inverse, IUseBI=4.
 Internal  Forces:  Max     0.000052950 RMS     0.000011762
 Search for a local minimum.
 Step number   1 out of a maximum of   86
 All quantities printed in internal units (Hartrees-Bohrs-Radians)
 Mixed Optimization -- En-DIIS/RFO-DIIS
 Second derivative matrix not updated -- first step.
 ITU=  0
     Eigenvalues ---    0.00612   0.00612   0.01425   0.01467   0.01920
     Eigenvalues ---    0.01936   0.01961   0.02908   0.03012   0.03506
     Eigenvalues ---    0.04370   0.04418   0.04689   0.04689   0.10073
     Eigenvalues ---    0.10088   0.10542   0.10579   0.10784   0.11162
     Eigenvalues ---    0.11892   0.16000   0.16000   0.16000   0.16000
     Eigenvalues ---    0.16000   0.16000   0.18916   0.19082   0.20385
     Eigenvalues ---    0.25000   0.25000   0.25288   0.27920   0.30909
     Eigenvalues ---    0.33664   0.33715   0.33858   0.34130   0.34563
     Eigenvalues ---    0.34589   0.34660   0.34663   0.35208   0.38323
     Eigenvalues ---    0.41033   0.42430   0.42916   0.48599   0.48825
     Eigenvalues ---    1.03104
 RFO step:  Lambda=-6.12977247D-08 EMin= 6.11626316D-03
 Linear search not attempted -- first point.
 Iteration  1 RMS(Cart)=  0.00029693 RMS(Int)=  0.00000008
 Iteration  2 RMS(Cart)=  0.00000010 RMS(Int)=  0.00000000
 Variable       Old X    -DE/DX   Delta X   Delta X   Delta X     New X
                                 (Linear)    (Quad)   (Total)
    R1        2.67773  -0.00002   0.00000  -0.00004  -0.00004   2.67769
    R2        2.07814   0.00001   0.00000   0.00002   0.00002   2.07817
    R3        2.06348   0.00000   0.00000   0.00000   0.00000   2.06348
    R4        2.07570   0.00000   0.00000   0.00001   0.00001   2.07571
    R5        2.61070   0.00005   0.00000   0.00011   0.00011   2.61081
    R6        2.83597  -0.00001   0.00000  -0.00001  -0.00001   2.83596
    R7        2.90901  -0.00003   0.00000  -0.00011  -0.00011   2.90889
    R8        2.06230   0.00000   0.00000  -0.00001  -0.00001   2.06229
    R9        2.61306   0.00003   0.00000   0.00006   0.00006   2.61312
   R10        2.87142  -0.00003   0.00000  -0.00010  -0.00010   2.87132
   R11        2.06225   0.00000   0.00000  -0.00001  -0.00001   2.06225
   R12        2.68380  -0.00001   0.00000  -0.00002  -0.00002   2.68378
   R13        2.07901   0.00001   0.00000   0.00003   0.00003   2.07905
   R14        2.06390   0.00000   0.00000   0.00000   0.00000   2.06390
   R15        2.07111   0.00000   0.00000  -0.00001  -0.00001   2.07111
   R16        2.70173   0.00003   0.00000   0.00006   0.00006   2.70179
   R17        2.05338   0.00000   0.00000   0.00000   0.00000   2.05338
   R18        2.27421   0.00001   0.00000   0.00001   0.00001   2.27421
   R19        2.00597  -0.00002   0.00000  -0.00005  -0.00005   2.00593
    A1        1.94450   0.00001   0.00000   0.00006   0.00006   1.94456
    A2        1.86711   0.00000   0.00000  -0.00002  -0.00002   1.86709
    A3        1.94418   0.00001   0.00000   0.00006   0.00006   1.94424
    A4        1.90454   0.00000   0.00000  -0.00003  -0.00003   1.90451
    A5        1.89414  -0.00001   0.00000  -0.00007  -0.00007   1.89407
    A6        1.90882   0.00000   0.00000   0.00001   0.00001   1.90883
    A7        1.97832  -0.00001   0.00000  -0.00005  -0.00005   1.97827
    A8        2.04625   0.00000   0.00000   0.00008   0.00008   2.04633
    A9        2.07237   0.00001   0.00000   0.00006   0.00006   2.07242
   A10        2.01706  -0.00001   0.00000  -0.00006  -0.00006   2.01700
   A11        2.05904   0.00000   0.00000  -0.00005  -0.00005   2.05900
   A12        2.02567   0.00000   0.00000   0.00003   0.00003   2.02569
   A13        2.09109   0.00001   0.00000   0.00016   0.00016   2.09125
   A14        2.04020   0.00000   0.00000  -0.00007  -0.00007   2.04014
   A15        2.01165   0.00000   0.00000  -0.00012  -0.00012   2.01153
   A16        2.01515   0.00000   0.00000   0.00004   0.00004   2.01519
   A17        2.04648  -0.00001   0.00000  -0.00004  -0.00004   2.04644
   A18        1.97080  -0.00003   0.00000  -0.00011  -0.00011   1.97069
   A19        1.94359   0.00001   0.00000   0.00006   0.00006   1.94365
   A20        1.86202  -0.00001   0.00000  -0.00008  -0.00008   1.86193
   A21        1.94125   0.00000   0.00000   0.00003   0.00003   1.94128
   A22        1.89929  -0.00001   0.00000  -0.00009  -0.00009   1.89920
   A23        1.90515   0.00000   0.00000   0.00002   0.00002   1.90517
   A24        1.91162   0.00001   0.00000   0.00006   0.00006   1.91167
   A25        2.11409   0.00000   0.00000   0.00011   0.00011   2.11420
   A26        1.97616  -0.00001   0.00000  -0.00006  -0.00006   1.97610
   A27        2.11935   0.00000   0.00000   0.00003   0.00003   2.11938
   A28        1.95890  -0.00002   0.00000  -0.00020  -0.00020   1.95870
   A29        2.04382   0.00001   0.00000   0.00005   0.00005   2.04387
   A30        3.12180   0.00000   0.00000   0.00006   0.00006   3.12186
   A31        3.14874   0.00000   0.00000   0.00056   0.00056   3.14930
   A32        3.14455   0.00000   0.00000  -0.00004  -0.00004   3.14451
   A33        3.13031   0.00000   0.00000  -0.00032  -0.00032   3.12998
    D1        1.05296   0.00000   0.00000  -0.00003  -0.00003   1.05293
    D2        3.13312   0.00000   0.00000  -0.00005  -0.00005   3.13307
    D3       -1.06490   0.00000   0.00000  -0.00002  -0.00002  -1.06491
    D4        2.64633   0.00000   0.00000  -0.00010  -0.00010   2.64623
    D5        1.44364   0.00000   0.00000  -0.00013  -0.00013   1.44351
    D6       -1.08478   0.00000   0.00000  -0.00017  -0.00017  -1.08495
    D7       -0.08365  -0.00001   0.00000  -0.00025  -0.00025  -0.08391
    D8        2.49582   0.00000   0.00000   0.00000   0.00000   2.49583
    D9       -2.62134  -0.00001   0.00000  -0.00018  -0.00018  -2.62152
   D10       -0.04187   0.00000   0.00000   0.00008   0.00008  -0.04179
   D11       -2.49815   0.00001   0.00000   0.00007   0.00007  -2.49808
   D12        0.06682   0.00001   0.00000   0.00026   0.00026   0.06708
   D13        0.02733   0.00000   0.00000   0.00008   0.00008   0.02741
   D14        2.59229   0.00001   0.00000   0.00027   0.00027   2.59256
   D15        1.39977   0.00000   0.00000   0.00009   0.00009   1.39986
   D16        2.62155   0.00000   0.00000   0.00006   0.00006   2.62161
   D17       -1.18740  -0.00001   0.00000  -0.00013  -0.00013  -1.18753
   D18        2.41975  -0.00001   0.00000  -0.00037  -0.00037   2.41938
   D19       -0.12419  -0.00001   0.00000  -0.00019  -0.00019  -0.12437
   D20       -0.04210  -0.00001   0.00000  -0.00021  -0.00021  -0.04231
   D21       -2.58603   0.00000   0.00000  -0.00003  -0.00003  -2.58606
   D22        1.05275   0.00001   0.00000   0.00026   0.00026   1.05301
   D23        3.12291   0.00000   0.00000   0.00013   0.00013   3.12304
   D24       -1.07652   0.00000   0.00000   0.00017   0.00017  -1.07635
         Item               Value     Threshold  Converged?
 Maximum Force            0.000053     0.000450     YES
 RMS     Force            0.000012     0.000300     YES
 Maximum Displacement     0.001124     0.001800     YES
 RMS     Displacement     0.000297     0.001200     YES
 Predicted change in Energy=-3.064950D-08
 Optimization completed.
    -- Stationary point found.
                           ----------------------------
                           !   Optimized Parameters   !
                           ! (Angstroms and Degrees)  !
 --------------------------                            --------------------------
 ! Name  Definition              Value          Derivative Info.                !
 --------------------------------------------------------------------------------
 ! R1    R(1,2)                  1.417          -DE/DX =    0.0                 !
 ! R2    R(1,10)                 1.0997         -DE/DX =    0.0                 !
 ! R3    R(1,11)                 1.0919         -DE/DX =    0.0                 !
 ! R4    R(1,12)                 1.0984         -DE/DX =    0.0                 !
 ! R5    R(2,3)                  1.3815         -DE/DX =    0.0001              !
 ! R6    R(3,4)                  1.5007         -DE/DX =    0.0                 !
 ! R7    R(3,7)                  1.5394         -DE/DX =    0.0                 !
 ! R8    R(3,13)                 1.0913         -DE/DX =    0.0                 !
 ! R9    R(4,5)                  1.3828         -DE/DX =    0.0                 !
 ! R10   R(4,7)                  1.5195         -DE/DX =    0.0                 !
 ! R11   R(4,14)                 1.0913         -DE/DX =    0.0                 !
 ! R12   R(5,6)                  1.4202         -DE/DX =    0.0                 !
 ! R13   R(6,15)                 1.1002         -DE/DX =    0.0                 !
 ! R14   R(6,16)                 1.0922         -DE/DX =    0.0                 !
 ! R15   R(6,17)                 1.096          -DE/DX =    0.0                 !
 ! R16   R(7,8)                  1.4297         -DE/DX =    0.0                 !
 ! R17   R(7,18)                 1.0866         -DE/DX =    0.0                 !
 ! R18   R(8,9)                  1.2035         -DE/DX =    0.0                 !
 ! R19   R(9,19)                 1.0615         -DE/DX =    0.0                 !
 ! A1    A(2,1,10)             111.4117         -DE/DX =    0.0                 !
 ! A2    A(2,1,11)             106.9775         -DE/DX =    0.0                 !
 ! A3    A(2,1,12)             111.3933         -DE/DX =    0.0                 !
 ! A4    A(10,1,11)            109.1222         -DE/DX =    0.0                 !
 ! A5    A(10,1,12)            108.5263         -DE/DX =    0.0                 !
 ! A6    A(11,1,12)            109.3671         -DE/DX =    0.0                 !
 ! A7    A(1,2,3)              113.3496         -DE/DX =    0.0                 !
 ! A8    A(2,3,4)              117.2416         -DE/DX =    0.0                 !
 ! A9    A(2,3,7)              118.7379         -DE/DX =    0.0                 !
 ! A10   A(2,3,13)             115.5691         -DE/DX =    0.0                 !
 ! A11   A(4,3,13)             117.9745         -DE/DX =    0.0                 !
 ! A12   A(7,3,13)             116.0623         -DE/DX =    0.0                 !
 ! A13   A(3,4,5)              119.8106         -DE/DX =    0.0                 !
 ! A14   A(3,4,14)             116.8951         -DE/DX =    0.0                 !
 ! A15   A(5,4,7)              115.2592         -DE/DX =    0.0                 !
 ! A16   A(5,4,14)             115.4594         -DE/DX =    0.0                 !
 ! A17   A(7,4,14)             117.2546         -DE/DX =    0.0                 !
 ! A18   A(4,5,6)              112.9184         -DE/DX =    0.0                 !
 ! A19   A(5,6,15)             111.3597         -DE/DX =    0.0                 !
 ! A20   A(5,6,16)             106.6856         -DE/DX =    0.0                 !
 ! A21   A(5,6,17)             111.2252         -DE/DX =    0.0                 !
 ! A22   A(15,6,16)            108.8214         -DE/DX =    0.0                 !
 ! A23   A(15,6,17)            109.157          -DE/DX =    0.0                 !
 ! A24   A(16,6,17)            109.5275         -DE/DX =    0.0                 !
 ! A25   A(3,7,8)              121.1287         -DE/DX =    0.0                 !
 ! A26   A(3,7,18)             113.2255         -DE/DX =    0.0                 !
 ! A27   A(4,7,8)              121.4297         -DE/DX =    0.0                 !
 ! A28   A(4,7,18)             112.2365         -DE/DX =    0.0                 !
 ! A29   A(8,7,18)             117.1022         -DE/DX =    0.0                 !
 ! A30   L(7,8,9,13,-1)        178.8658         -DE/DX =    0.0                 !
 ! A31   L(8,9,19,10,-1)       180.4094         -DE/DX =    0.0                 !
 ! A32   L(7,8,9,13,-2)        180.1692         -DE/DX =    0.0                 !
 ! A33   L(8,9,19,10,-2)       179.3533         -DE/DX =    0.0                 !
 ! D1    D(10,1,2,3)            60.3299         -DE/DX =    0.0                 !
 ! D2    D(11,1,2,3)           179.5143         -DE/DX =    0.0                 !
 ! D3    D(12,1,2,3)           -61.014          -DE/DX =    0.0                 !
 ! D4    D(1,2,3,4)            151.6234         -DE/DX =    0.0                 !
 ! D5    D(1,2,3,7)             82.7143         -DE/DX =    0.0                 !
 ! D6    D(1,2,3,13)           -62.1532         -DE/DX =    0.0                 !
 ! D7    D(2,3,4,5)             -4.793          -DE/DX =    0.0                 !
 ! D8    D(2,3,4,14)           143.0002         -DE/DX =    0.0                 !
 ! D9    D(13,3,4,5)          -150.1919         -DE/DX =    0.0                 !
 ! D10   D(13,3,4,14)           -2.3987         -DE/DX =    0.0                 !
 ! D11   D(2,3,7,8)           -143.1334         -DE/DX =    0.0                 !
 ! D12   D(2,3,7,18)             3.8283         -DE/DX =    0.0                 !
 ! D13   D(13,3,7,8)             1.5657         -DE/DX =    0.0                 !
 ! D14   D(13,3,7,18)          148.5274         -DE/DX =    0.0                 !
 ! D15   D(3,4,5,6)             80.201          -DE/DX =    0.0                 !
 ! D16   D(7,4,5,6)            150.2037         -DE/DX =    0.0                 !
 ! D17   D(14,4,5,6)           -68.033          -DE/DX =    0.0                 !
 ! D18   D(5,4,7,8)            138.6415         -DE/DX =    0.0                 !
 ! D19   D(5,4,7,18)            -7.1154         -DE/DX =    0.0                 !
 ! D20   D(14,4,7,8)            -2.4119         -DE/DX =    0.0                 !
 ! D21   D(14,4,7,18)         -148.1688         -DE/DX =    0.0                 !
 ! D22   D(4,5,6,15)            60.318          -DE/DX =    0.0                 !
 ! D23   D(4,5,6,16)           178.9293         -DE/DX =    0.0                 !
 ! D24   D(4,5,6,17)           -61.6801         -DE/DX =    0.0                 !
 --------------------------------------------------------------------------------
 GradGradGradGradGradGradGradGradGradGradGradGradGradGradGradGradGradGrad

                          Input orientation:                          
 ---------------------------------------------------------------------
 Center     Atomic      Atomic             Coordinates (Angstroms)
 Number     Number       Type             X           Y           Z
 ---------------------------------------------------------------------
      1          6           0        1.338103    0.056205   -0.181958
      2          8           0       -0.072755    0.037645   -0.051543
      3          6           0       -0.523049    0.632760    1.111072
      4          6           0       -1.889902    1.251640    1.081179
      5          8           0       -2.598233    1.296850   -0.105531
      6          6           0       -3.237993    0.067235   -0.414941
      7          6           0       -0.676632    2.164032    1.147265
      8          6           0       -0.368261    2.910082    2.327241
      9          6           0       -0.105887    3.517483    3.332496
     10          1           0        1.824837   -0.480689    0.645198
     11          1           0        1.577929   -0.443302   -1.122873
     12          1           0        1.724737    1.084032   -0.206334
     13          1           0       -0.194544    0.161765    2.039097
     14          1           0       -2.494273    1.157564    1.984959
     15          1           0       -3.957950   -0.217659    0.366636
     16          1           0       -3.777698    0.221596   -1.351811
     17          1           0       -2.507003   -0.739438   -0.541884
     18          1           0       -0.466411    2.638454    0.192573
     19          1           0        0.124027    4.062746    4.213769
 ---------------------------------------------------------------------
                    Distance matrix (angstroms):
                    1          2          3          4          5
     1  C    0.000000
     2  O    1.416994   0.000000
     3  C    2.338425   1.381521   0.000000
     4  C    3.666688   2.461477   1.500731   0.000000
     5  O    4.127927   2.822508   2.495501   1.382772   0.000000
     6  C    4.582036   3.186168   3.165352   2.336352   1.420204
     7  C    3.204516   2.514623   1.539380   1.519491   2.452357
     8  C    4.165618   3.741234   2.586353   2.572642   3.673373
     9  C    5.139741   4.854079   3.664747   3.658576   4.791975
    10  H    1.099706   2.086857   2.639958   4.121933   4.825639
    11  H    1.091946   2.025788   3.250005   4.444832   4.637181
    12  H    1.098411   2.085632   2.644191   3.840756   4.329379
    13  H    2.700599   2.097859   1.091321   2.231518   3.415489
    14  H    4.538240   3.356384   2.219194   1.091298   2.097703
    15  H    5.331429   3.915967   3.616067   2.635570   2.089380
    16  H    5.250460   3.930794   4.102144   3.247184   2.024975
    17  H    3.943023   2.601894   2.924254   2.641881   2.084513
    18  H    3.172468   2.641735   2.206730   2.176970   2.536421
    19  H    6.070319   5.867968   4.670143   4.665977   5.806654
                    6          7          8          9         10
     6  C    0.000000
     7  C    3.660276   0.000000
     8  C    4.882284   1.429694   0.000000
     9  C    5.979764   2.633023   1.203459   0.000000
    10  H    5.201574   3.674774   4.374503   5.189860   0.000000
    11  H    4.894377   4.127320   5.190003   6.194624   1.785620
    12  H    5.070117   2.960609   3.759535   4.668639   1.784230
    13  H    3.910731   2.244291   2.768835   3.597441   2.536455
    14  H    2.738879   2.240207   2.776400   3.617935   4.809735
    15  H    1.100166   4.129029   5.149038   6.130741   5.795465
    16  H    1.092170   4.431146   5.691014   6.803513   5.989128
    17  H    1.095985   3.825391   5.111270   6.236789   4.498994
    18  H    3.829087   1.086603   2.154117   3.280516   3.896632
    19  H    6.977983   3.694538   2.264944   1.061515   6.022479
                   11         12         13         14         15
    11  H    0.000000
    12  H    1.787273   0.000000
    13  H    3.675027   3.094540   0.000000
    14  H    5.366957   4.754705   2.506651   0.000000
    15  H    5.737204   5.857954   4.135735   2.579255   0.000000
    16  H    5.401597   5.686186   4.933642   3.695572   1.782834
    17  H    4.136655   4.620093   3.580655   3.159701   1.789667
    18  H    3.925169   2.715969   3.101217   3.085110   4.514257
    19  H    7.134287   5.565278   4.477537   4.501463   7.055837
                   16         17         18         19
    16  H    0.000000
    17  H    1.787243   0.000000
    18  H    4.380747   4.014174   0.000000
    19  H    7.807277   7.252552   4.306651   0.000000
 Stoichiometry    C7H10O2
 Framework group  C1[X(C7H10O2)]
 Deg. of freedom    51
 Full point group                 C1      NOp   1
 Largest Abelian subgroup         C1      NOp   1
 Largest concise Abelian subgroup C1      NOp   1
                         Standard orientation:                         
 ---------------------------------------------------------------------
 Center     Atomic      Atomic             Coordinates (Angstroms)
 Number     Number       Type             X           Y           Z
 ---------------------------------------------------------------------
      1          6           0        0.379820    2.686576   -0.156348
      2          8           0        0.918814    1.400880    0.097311
      3          6           0       -0.016305    0.497526    0.564328
      4          6           0        0.217121   -0.952975    0.258137
      5          8           0        1.278136   -1.323385   -0.547532
      6          6           0        2.515879   -1.355653    0.148120
      7          6           0       -0.914820   -0.229808   -0.452208
      8          6           0       -2.284005   -0.515987   -0.156470
      9          6           0       -3.432980   -0.749390    0.114992
     10          1           0       -0.045963    3.130401    0.755288
     11          1           0        1.201784    3.313007   -0.508919
     12          1           0       -0.404176    2.647899   -0.924698
     13          1           0       -0.480183    0.750975    1.519086
     14          1           0       -0.056962   -1.671320    1.032599
     15          1           0        2.489779   -2.076065    0.979198
     16          1           0        3.272077   -1.675696   -0.571999
     17          1           0        2.777563   -0.365546    0.538497
     18          1           0       -0.669722    0.003601   -1.484755
     19          1           0       -4.448059   -0.958948    0.344154
 ---------------------------------------------------------------------
 Rotational constants (GHZ):      1.9902102      1.2601891      0.8270802
 1\1\GINC-ALCHEMY-NB\FOpt\RB3LYP\6-31G(2df,p)\C7H10O2\PUCK\28-Jan-2020\
 0\\# b3lyp 6-31G(2df,p) opt Freq\\titel\\0,1\C,1.3381029823,0.05620513
 38,-0.1819580262\O,-0.0727545797,0.0376453876,-0.0515431875\C,-0.52304
 90226,0.6327600901,1.1110720523\C,-1.8899023486,1.2516401397,1.0811794
 571\O,-2.5982328616,1.2968502623,-0.105530949\C,-3.2379930761,0.067235
 215,-0.4149408111\C,-0.6766315915,2.1640319318,1.1472654378\C,-0.36826
 14758,2.9100816063,2.3272411888\C,-0.1058873699,3.5174829711,3.3324958
 077\H,1.8248373614,-0.4806888393,0.6451979281\H,1.5779292001,-0.443302
 3348,-1.1228733292\H,1.7247374691,1.0840315194,-0.2063337854\H,-0.1945
 442542,0.1617650061,2.0390966203\H,-2.4942728199,1.1575643536,1.984959
 1318\H,-3.9579498342,-0.2176587621,0.3666364293\H,-3.7776980098,0.2215
 964192,-1.3518111796\H,-2.5070025098,-0.7394375032,-0.5418835\H,-0.466
 4114986,2.6384541175,0.1925732474\H,0.1240268292,4.0627460958,4.213769
 0875\\Version=ES64L-G09RevD.01\State=1-A\HF=-423.1014097\RMSD=4.113e-0
 9\RMSF=2.153e-05\Dipole=0.2735713,-0.5321928,0.1424193\Quadrupole=1.37
 59451,-1.7614554,0.3855104,1.2261092,-0.5508336,1.1477565\PG=C01 [X(C7
 H10O2)]\\@


 ... SUBJECTS WHICH DISCLOSE THEIR FULL POWER, MEANING AND BEAUTY AS SOON
 AS THEY ARE PRESENTED TO THE MIND HAVE VERY LITTLE OF THOSE QUALITIES
 TO DISCLOSE.
                           -- CHARLES DUTTON (1882)
 Job cpu time:       0 days  0 hours  6 minutes 34.3 seconds.
 File lengths (MBytes):  RWF=     52 Int=      0 D2E=      0 Chk=      7 Scr=      1
 Normal termination of Gaussian 09 at Tue Jan 28 12:37:04 2020.
 Link1:  Proceeding to internal job step number  2.
 ----------------------------------------------------------------------
 #N Geom=AllCheck Guess=TCheck SCRF=Check GenChk RB3LYP/6-31G(2df,p) Fr
 eq
 ----------------------------------------------------------------------
 1/10=4,29=7,30=1,38=1,40=1/1,3;
 2/12=2,40=1/2;
 3/5=1,6=6,7=104,11=2,14=-4,16=1,25=1,30=1,70=2,71=2,74=-5,116=1,140=1/1,2,3;
 4/5=101/1;
 5/5=2,98=1/2;
 8/6=4,10=90,11=11/1;
 11/6=1,8=1,9=11,15=111,16=1/1,2,10;
 10/6=1/2;
 6/7=2,8=2,9=2,10=2,18=1,28=1/1;
 7/8=1,10=1,25=1/1,2,3,16;
 1/10=4,30=1/3;
 99//99;
 Structure from the checkpoint file:  "/scratch/puck/g09_7235fa7a-b5fe-4659-9c4d-85a02c9274da/Gau-1445.chk"
 -----
 titel
 -----
 Charge =  0 Multiplicity = 1
 Redundant internal coordinates found in file.
 C,0,1.3381029823,0.0562051338,-0.1819580262
 O,0,-0.0727545797,0.0376453876,-0.0515431875
 C,0,-0.5230490226,0.6327600901,1.1110720523
 C,0,-1.8899023486,1.2516401397,1.0811794571
 O,0,-2.5982328616,1.2968502623,-0.105530949
 C,0,-3.2379930761,0.067235215,-0.4149408111
 C,0,-0.6766315915,2.1640319318,1.1472654378
 C,0,-0.3682614758,2.9100816063,2.3272411888
 C,0,-0.1058873699,3.5174829711,3.3324958077
 H,0,1.8248373614,-0.4806888393,0.6451979281
 H,0,1.5779292001,-0.4433023348,-1.1228733292
 H,0,1.7247374691,1.0840315194,-0.2063337854
 H,0,-0.1945442542,0.1617650061,2.0390966203
 H,0,-2.4942728199,1.1575643536,1.9849591318
 H,0,-3.9579498342,-0.2176587621,0.3666364293
 H,0,-3.7776980098,0.2215964192,-1.3518111796
 H,0,-2.5070025098,-0.7394375032,-0.5418835
 H,0,-0.4664114986,2.6384541175,0.1925732474
 H,0,0.1240268292,4.0627460958,4.2137690875
 Recover connectivity data from disk.

 GradGradGradGradGradGradGradGradGradGradGradGradGradGradGradGradGradGrad
 Berny optimization.
 Initialization pass.
                           ----------------------------
                           !    Initial Parameters    !
                           ! (Angstroms and Degrees)  !
 --------------------------                            --------------------------
 ! Name  Definition              Value          Derivative Info.                !
 --------------------------------------------------------------------------------
 ! R1    R(1,2)                  1.417          calculate D2E/DX2 analytically  !
 ! R2    R(1,10)                 1.0997         calculate D2E/DX2 analytically  !
 ! R3    R(1,11)                 1.0919         calculate D2E/DX2 analytically  !
 ! R4    R(1,12)                 1.0984         calculate D2E/DX2 analytically  !
 ! R5    R(2,3)                  1.3815         calculate D2E/DX2 analytically  !
 ! R6    R(3,4)                  1.5007         calculate D2E/DX2 analytically  !
 ! R7    R(3,7)                  1.5394         calculate D2E/DX2 analytically  !
 ! R8    R(3,13)                 1.0913         calculate D2E/DX2 analytically  !
 ! R9    R(4,5)                  1.3828         calculate D2E/DX2 analytically  !
 ! R10   R(4,7)                  1.5195         calculate D2E/DX2 analytically  !
 ! R11   R(4,14)                 1.0913         calculate D2E/DX2 analytically  !
 ! R12   R(5,6)                  1.4202         calculate D2E/DX2 analytically  !
 ! R13   R(6,15)                 1.1002         calculate D2E/DX2 analytically  !
 ! R14   R(6,16)                 1.0922         calculate D2E/DX2 analytically  !
 ! R15   R(6,17)                 1.096          calculate D2E/DX2 analytically  !
 ! R16   R(7,8)                  1.4297         calculate D2E/DX2 analytically  !
 ! R17   R(7,18)                 1.0866         calculate D2E/DX2 analytically  !
 ! R18   R(8,9)                  1.2035         calculate D2E/DX2 analytically  !
 ! R19   R(9,19)                 1.0615         calculate D2E/DX2 analytically  !
 ! A1    A(2,1,10)             111.4117         calculate D2E/DX2 analytically  !
 ! A2    A(2,1,11)             106.9775         calculate D2E/DX2 analytically  !
 ! A3    A(2,1,12)             111.3933         calculate D2E/DX2 analytically  !
 ! A4    A(10,1,11)            109.1222         calculate D2E/DX2 analytically  !
 ! A5    A(10,1,12)            108.5263         calculate D2E/DX2 analytically  !
 ! A6    A(11,1,12)            109.3671         calculate D2E/DX2 analytically  !
 ! A7    A(1,2,3)              113.3496         calculate D2E/DX2 analytically  !
 ! A8    A(2,3,4)              117.2416         calculate D2E/DX2 analytically  !
 ! A9    A(2,3,7)              118.7379         calculate D2E/DX2 analytically  !
 ! A10   A(2,3,13)             115.5691         calculate D2E/DX2 analytically  !
 ! A11   A(4,3,13)             117.9745         calculate D2E/DX2 analytically  !
 ! A12   A(7,3,13)             116.0623         calculate D2E/DX2 analytically  !
 ! A13   A(3,4,5)              119.8106         calculate D2E/DX2 analytically  !
 ! A14   A(3,4,14)             116.8951         calculate D2E/DX2 analytically  !
 ! A15   A(5,4,7)              115.2592         calculate D2E/DX2 analytically  !
 ! A16   A(5,4,14)             115.4594         calculate D2E/DX2 analytically  !
 ! A17   A(7,4,14)             117.2546         calculate D2E/DX2 analytically  !
 ! A18   A(4,5,6)              112.9184         calculate D2E/DX2 analytically  !
 ! A19   A(5,6,15)             111.3597         calculate D2E/DX2 analytically  !
 ! A20   A(5,6,16)             106.6856         calculate D2E/DX2 analytically  !
 ! A21   A(5,6,17)             111.2252         calculate D2E/DX2 analytically  !
 ! A22   A(15,6,16)            108.8214         calculate D2E/DX2 analytically  !
 ! A23   A(15,6,17)            109.157          calculate D2E/DX2 analytically  !
 ! A24   A(16,6,17)            109.5275         calculate D2E/DX2 analytically  !
 ! A25   A(3,7,8)              121.1287         calculate D2E/DX2 analytically  !
 ! A26   A(3,7,18)             113.2255         calculate D2E/DX2 analytically  !
 ! A27   A(4,7,8)              121.4297         calculate D2E/DX2 analytically  !
 ! A28   A(4,7,18)             112.2365         calculate D2E/DX2 analytically  !
 ! A29   A(8,7,18)             117.1022         calculate D2E/DX2 analytically  !
 ! A30   L(7,8,9,13,-1)        178.8658         calculate D2E/DX2 analytically  !
 ! A31   L(8,9,19,10,-1)       180.4094         calculate D2E/DX2 analytically  !
 ! A32   L(7,8,9,13,-2)        180.1692         calculate D2E/DX2 analytically  !
 ! A33   L(8,9,19,10,-2)       179.3533         calculate D2E/DX2 analytically  !
 ! D1    D(10,1,2,3)            60.3299         calculate D2E/DX2 analytically  !
 ! D2    D(11,1,2,3)           179.5143         calculate D2E/DX2 analytically  !
 ! D3    D(12,1,2,3)           -61.014          calculate D2E/DX2 analytically  !
 ! D4    D(1,2,3,4)            151.6234         calculate D2E/DX2 analytically  !
 ! D5    D(1,2,3,7)             82.7143         calculate D2E/DX2 analytically  !
 ! D6    D(1,2,3,13)           -62.1532         calculate D2E/DX2 analytically  !
 ! D7    D(2,3,4,5)             -4.793          calculate D2E/DX2 analytically  !
 ! D8    D(2,3,4,14)           143.0002         calculate D2E/DX2 analytically  !
 ! D9    D(13,3,4,5)          -150.1919         calculate D2E/DX2 analytically  !
 ! D10   D(13,3,4,14)           -2.3987         calculate D2E/DX2 analytically  !
 ! D11   D(2,3,7,8)           -143.1334         calculate D2E/DX2 analytically  !
 ! D12   D(2,3,7,18)             3.8283         calculate D2E/DX2 analytically  !
 ! D13   D(13,3,7,8)             1.5657         calculate D2E/DX2 analytically  !
 ! D14   D(13,3,7,18)          148.5274         calculate D2E/DX2 analytically  !
 ! D15   D(3,4,5,6)             80.201          calculate D2E/DX2 analytically  !
 ! D16   D(7,4,5,6)            150.2037         calculate D2E/DX2 analytically  !
 ! D17   D(14,4,5,6)           -68.033          calculate D2E/DX2 analytically  !
 ! D18   D(5,4,7,8)            138.6415         calculate D2E/DX2 analytically  !
 ! D19   D(5,4,7,18)            -7.1154         calculate D2E/DX2 analytically  !
 ! D20   D(14,4,7,8)            -2.4119         calculate D2E/DX2 analytically  !
 ! D21   D(14,4,7,18)         -148.1688         calculate D2E/DX2 analytically  !
 ! D22   D(4,5,6,15)            60.318          calculate D2E/DX2 analytically  !
 ! D23   D(4,5,6,16)           178.9293         calculate D2E/DX2 analytically  !
 ! D24   D(4,5,6,17)           -61.6801         calculate D2E/DX2 analytically  !
 --------------------------------------------------------------------------------
 Trust Radius=3.00D-01 FncErr=1.00D-07 GrdErr=1.00D-07
 Number of steps in this run=      2 maximum allowed number of steps=      2.
 GradGradGradGradGradGradGradGradGradGradGradGradGradGradGradGradGradGrad

                          Input orientation:                          
 ---------------------------------------------------------------------
 Center     Atomic      Atomic             Coordinates (Angstroms)
 Number     Number       Type             X           Y           Z
 ---------------------------------------------------------------------
      1          6           0        1.338103    0.056205   -0.181958
      2          8           0       -0.072755    0.037645   -0.051543
      3          6           0       -0.523049    0.632760    1.111072
      4          6           0       -1.889902    1.251640    1.081179
      5          8           0       -2.598233    1.296850   -0.105531
      6          6           0       -3.237993    0.067235   -0.414941
      7          6           0       -0.676632    2.164032    1.147265
      8          6           0       -0.368261    2.910082    2.327241
      9          6           0       -0.105887    3.517483    3.332496
     10          1           0        1.824837   -0.480689    0.645198
     11          1           0        1.577929   -0.443302   -1.122873
     12          1           0        1.724737    1.084032   -0.206334
     13          1           0       -0.194544    0.161765    2.039097
     14          1           0       -2.494273    1.157564    1.984959
     15          1           0       -3.957950   -0.217659    0.366636
     16          1           0       -3.777698    0.221596   -1.351811
     17          1           0       -2.507003   -0.739438   -0.541884
     18          1           0       -0.466411    2.638454    0.192573
     19          1           0        0.124027    4.062746    4.213769
 ---------------------------------------------------------------------
                    Distance matrix (angstroms):
                    1          2          3          4          5
     1  C    0.000000
     2  O    1.416994   0.000000
     3  C    2.338425   1.381521   0.000000
     4  C    3.666688   2.461477   1.500731   0.000000
     5  O    4.127927   2.822508   2.495501   1.382772   0.000000
     6  C    4.582036   3.186168   3.165352   2.336352   1.420204
     7  C    3.204516   2.514623   1.539380   1.519491   2.452357
     8  C    4.165618   3.741234   2.586353   2.572642   3.673373
     9  C    5.139741   4.854079   3.664747   3.658576   4.791975
    10  H    1.099706   2.086857   2.639958   4.121933   4.825639
    11  H    1.091946   2.025788   3.250005   4.444832   4.637181
    12  H    1.098411   2.085632   2.644191   3.840756   4.329379
    13  H    2.700599   2.097859   1.091321   2.231518   3.415489
    14  H    4.538240   3.356384   2.219194   1.091298   2.097703
    15  H    5.331429   3.915967   3.616067   2.635570   2.089380
    16  H    5.250460   3.930794   4.102144   3.247184   2.024975
    17  H    3.943023   2.601894   2.924254   2.641881   2.084513
    18  H    3.172468   2.641735   2.206730   2.176970   2.536421
    19  H    6.070319   5.867968   4.670143   4.665977   5.806654
                    6          7          8          9         10
     6  C    0.000000
     7  C    3.660276   0.000000
     8  C    4.882284   1.429694   0.000000
     9  C    5.979764   2.633023   1.203459   0.000000
    10  H    5.201574   3.674774   4.374503   5.189860   0.000000
    11  H    4.894377   4.127320   5.190003   6.194624   1.785620
    12  H    5.070117   2.960609   3.759535   4.668639   1.784230
    13  H    3.910731   2.244291   2.768835   3.597441   2.536455
    14  H    2.738879   2.240207   2.776400   3.617935   4.809735
    15  H    1.100166   4.129029   5.149038   6.130741   5.795465
    16  H    1.092170   4.431146   5.691014   6.803513   5.989128
    17  H    1.095985   3.825391   5.111270   6.236789   4.498994
    18  H    3.829087   1.086603   2.154117   3.280516   3.896632
    19  H    6.977983   3.694538   2.264944   1.061515   6.022479
                   11         12         13         14         15
    11  H    0.000000
    12  H    1.787273   0.000000
    13  H    3.675027   3.094540   0.000000
    14  H    5.366957   4.754705   2.506651   0.000000
    15  H    5.737204   5.857954   4.135735   2.579255   0.000000
    16  H    5.401597   5.686186   4.933642   3.695572   1.782834
    17  H    4.136655   4.620093   3.580655   3.159701   1.789667
    18  H    3.925169   2.715969   3.101217   3.085110   4.514257
    19  H    7.134287   5.565278   4.477537   4.501463   7.055837
                   16         17         18         19
    16  H    0.000000
    17  H    1.787243   0.000000
    18  H    4.380747   4.014174   0.000000
    19  H    7.807277   7.252552   4.306651   0.000000
 Stoichiometry    C7H10O2
 Framework group  C1[X(C7H10O2)]
 Deg. of freedom    51
 Full point group                 C1      NOp   1
 Largest Abelian subgroup         C1      NOp   1
 Largest concise Abelian subgroup C1      NOp   1
                         Standard orientation:                         
 ---------------------------------------------------------------------
 Center     Atomic      Atomic             Coordinates (Angstroms)
 Number     Number       Type             X           Y           Z
 ---------------------------------------------------------------------
      1          6           0        0.379820    2.686576   -0.156348
      2          8           0        0.918814    1.400880    0.097311
      3          6           0       -0.016305    0.497526    0.564328
      4          6           0        0.217121   -0.952975    0.258137
      5          8           0        1.278136   -1.323385   -0.547532
      6          6           0        2.515879   -1.355653    0.148120
      7          6           0       -0.914820   -0.229808   -0.452208
      8          6           0       -2.284005   -0.515987   -0.156470
      9          6           0       -3.432980   -0.749390    0.114992
     10          1           0       -0.045963    3.130401    0.755288
     11          1           0        1.201784    3.313007   -0.508919
     12          1           0       -0.404176    2.647899   -0.924698
     13          1           0       -0.480183    0.750975    1.519086
     14          1           0       -0.056962   -1.671320    1.032599
     15          1           0        2.489779   -2.076065    0.979198
     16          1           0        3.272077   -1.675696   -0.571999
     17          1           0        2.777563   -0.365546    0.538497
     18          1           0       -0.669722    0.003601   -1.484755
     19          1           0       -4.448059   -0.958948    0.344154
 ---------------------------------------------------------------------
 Rotational constants (GHZ):      1.9902102      1.2601891      0.8270802
 Standard basis: 6-31G(2df,p) (6D, 7F)
 There are   329 symmetry adapted cartesian basis functions of A   symmetry.
 There are   302 symmetry adapted basis functions of A   symmetry.
   302 basis functions,   466 primitive gaussians,   329 cartesian basis functions
    34 alpha electrons       34 beta electrons
       nuclear repulsion energy       440.4677765537 Hartrees.
 NAtoms=   19 NActive=   19 NUniq=   19 SFac= 1.00D+00 NAtFMM=   60 NAOKFM=F Big=F
 Integral buffers will be    131072 words long.
 Raffenetti 2 integral format.
 Two-electron integral symmetry is turned on.
 One-electron integrals computed using PRISM.
 NBasis=   302 RedAO= T EigKep=  1.45D-04  NBF=   302
 NBsUse=   302 1.00D-06 EigRej= -1.00D+00 NBFU=   302
 Initial guess from the checkpoint file:  "/scratch/puck/g09_7235fa7a-b5fe-4659-9c4d-85a02c9274da/Gau-1445.chk"
 B after Tr=     0.000000    0.000000    0.000000
         Rot=    1.000000    0.000000    0.000000    0.000000 Ang=   0.00 deg.
 Requested convergence on RMS density matrix=1.00D-08 within 128 cycles.
 Requested convergence on MAX density matrix=1.00D-06.
 Requested convergence on             energy=1.00D-06.
 No special actions if energy rises.
 SCF Done:  E(RB3LYP) =  -423.101409745     A.U. after    1 cycles
            NFock=  1  Conv=0.23D-08     -V/T= 2.0074
 DoSCS=F DFT=T ScalE2(SS,OS)=  1.000000  1.000000
 Range of M.O.s used for correlation:     1   302
 NBasis=   302 NAE=    34 NBE=    34 NFC=     0 NFV=     0
 NROrb=    302 NOA=    34 NOB=    34 NVA=   268 NVB=   268

 **** Warning!!: The largest alpha MO coefficient is  0.18913607D+02

 Symmetrizing basis deriv contribution to polar:
 IMax=3 JMax=2 DiffMx= 0.00D+00
 G2DrvN: will do    20 centers at a time, making    1 passes.
 Calling FoFCou, ICntrl=  3107 FMM=F I1Cent=   0 AccDes= 0.00D+00.
 End of G2Drv F.D. properties file   721 does not exist.
 End of G2Drv F.D. properties file   722 does not exist.
 End of G2Drv F.D. properties file   788 does not exist.
          IDoAtm=1111111111111111111
          Differentiating once with respect to electric field.
                with respect to dipole field.
          Differentiating once with respect to nuclear coordinates.
          There are    60 degrees of freedom in the 1st order CPHF.  IDoFFX=6 NUNeed=     3.
     57 vectors produced by pass  0 Test12= 1.52D-14 1.67D-09 XBig12= 9.27D+01 4.37D+00.
 AX will form    57 AO Fock derivatives at one time.
     57 vectors produced by pass  1 Test12= 1.52D-14 1.67D-09 XBig12= 2.61D+01 1.08D+00.
     57 vectors produced by pass  2 Test12= 1.52D-14 1.67D-09 XBig12= 4.58D-01 1.47D-01.
     57 vectors produced by pass  3 Test12= 1.52D-14 1.67D-09 XBig12= 1.24D-03 3.84D-03.
     57 vectors produced by pass  4 Test12= 1.52D-14 1.67D-09 XBig12= 2.55D-06 2.14D-04.
     38 vectors produced by pass  5 Test12= 1.52D-14 1.67D-09 XBig12= 3.11D-09 6.37D-06.
      4 vectors produced by pass  6 Test12= 1.52D-14 1.67D-09 XBig12= 3.05D-12 1.56D-07.
      3 vectors produced by pass  7 Test12= 1.52D-14 1.67D-09 XBig12= 3.53D-15 8.35D-09.
 InvSVY:  IOpt=1 It=  1 EMax= 7.11D-15
 Solved reduced A of dimension   330 with    60 vectors.
 Isotropic polarizability for W=    0.000000       81.18 Bohr**3.
 End of Minotr F.D. properties file   721 does not exist.
 End of Minotr F.D. properties file   722 does not exist.
 End of Minotr F.D. properties file   788 does not exist.

 **********************************************************************

            Population analysis using the SCF density.

 **********************************************************************

 Orbital symmetries:
       Occupied  (A) (A) (A) (A) (A) (A) (A) (A) (A) (A) (A) (A)
                 (A) (A) (A) (A) (A) (A) (A) (A) (A) (A) (A) (A)
                 (A) (A) (A) (A) (A) (A) (A) (A) (A) (A)
       Virtual   (A) (A) (A) (A) (A) (A) (A) (A) (A) (A) (A) (A)
                 (A) (A) (A) (A) (A) (A) (A) (A) (A) (A) (A) (A)
                 (A) (A) (A) (A) (A) (A) (A) (A) (A) (A) (A) (A)
                 (A) (A) (A) (A) (A) (A) (A) (A) (A) (A) (A) (A)
                 (A) (A) (A) (A) (A) (A) (A) (A) (A) (A) (A) (A)
                 (A) (A) (A) (A) (A) (A) (A) (A) (A) (A) (A) (A)
                 (A) (A) (A) (A) (A) (A) (A) (A) (A) (A) (A) (A)
                 (A) (A) (A) (A) (A) (A) (A) (A) (A) (A) (A) (A)
                 (A) (A) (A) (A) (A) (A) (A) (A) (A) (A) (A) (A)
                 (A) (A) (A) (A) (A) (A) (A) (A) (A) (A) (A) (A)
                 (A) (A) (A) (A) (A) (A) (A) (A) (A) (A) (A) (A)
                 (A) (A) (A) (A) (A) (A) (A) (A) (A) (A) (A) (A)
                 (A) (A) (A) (A) (A) (A) (A) (A) (A) (A) (A) (A)
                 (A) (A) (A) (A) (A) (A) (A) (A) (A) (A) (A) (A)
                 (A) (A) (A) (A) (A) (A) (A) (A) (A) (A) (A) (A)
                 (A) (A) (A) (A) (A) (A) (A) (A) (A) (A) (A) (A)
                 (A) (A) (A) (A) (A) (A) (A) (A) (A) (A) (A) (A)
[...]
 718,0.00380368,-0.18550270,0.09847080,0.01033400,0.60515890,0.00060945
 ,-0.00027311,-0.00023990,0.01409852,-0.00638590,-0.00146451,0.04836901
 ,-0.04677377,-0.01330058,0.03846890,0.28559831,0.00156154,-0.00269832,
 -0.00644355,0.03801242,0.00028235,-0.00419286,-0.01455252,-0.00151652,
 -0.06812892,-0.04300221,-0.01159392,0.60477834,0.00228551,-0.00016180,
 -0.00059784,0.00216135,0.00259314,-0.00033359,-0.01857128,0.00402540,-
 0.03102502,-0.11300249,0.01021392,-0.08900638,0.24019714,-0.00003445,0
 .00010574,0.00079020,-0.00421901,0.00245477,0.00056981,0.01033266,-0.0
 0354287,0.02526477,-0.01017124,-0.07809262,0.00016703,0.10008248,0.328
 26697,0.00027562,-0.00010981,0.00110557,0.00028399,0.00018836,0.004064
 99,-0.01036574,0.00542753,-0.01436958,-0.07478536,0.03592708,-0.222927
 07,0.16136370,0.01855370,0.35077190,-0.00127395,-0.00001068,0.00024759
 ,0.00013422,-0.00010631,-0.00049082,0.00002540,-0.00332475,0.00189248,
 -0.02287440,-0.02227267,-0.01490145,-0.09164420,-0.04397103,-0.0230205
 1,0.55094391,-0.00076944,-0.00044499,-0.00031199,-0.00101480,-0.002431
 30,-0.00148374,0.00024188,0.00338259,0.00648113,-0.01130394,-0.0044168
 7,-0.01305713,-0.06535105,-0.19161329,-0.02732062,-0.05478409,0.482372
 31,-0.00013573,-0.00011483,0.00012403,-0.00031327,-0.00052195,-0.00040
 316,0.00101691,0.00069097,0.00350620,-0.02662795,-0.03527104,-0.022407
 29,-0.01206935,0.00109500,-0.08130034,0.01366659,-0.02886651,0.5916728
 5,0.00002482,0.00199427,-0.00066797,0.00204776,0.01011121,0.00218527,-
 0.02006547,-0.01214130,0.00172773,-0.12470682,-0.05040762,0.00748760,-
 0.01654641,-0.01545081,-0.00984754,-0.00046004,0.00288028,-0.00002566,
 0.26792298,-0.00540735,0.00207876,0.00136771,0.00713151,-0.02216636,-0
 .01821122,0.04306882,-0.15098991,0.02109273,-0.10993004,-0.07923212,0.
 00506092,-0.00425309,0.00088635,-0.00670917,0.00023640,0.00195508,0.00
 069374,0.13101713,0.47684961,-0.00584086,-0.00046715,0.00171882,-0.004
 07299,-0.03682596,-0.01055986,0.01170110,0.01781677,-0.06132971,0.0035
 5068,0.01756937,-0.06199197,-0.01787711,-0.03093802,-0.00645148,-0.002
 94631,0.00123686,-0.00404722,-0.00225369,-0.00449618,0.64658640,0.0025
 7505,-0.00021813,-0.00018144,-0.00143350,0.00792423,0.00285799,-0.0015
 0655,-0.00810960,0.01449560,-0.00099749,-0.01236942,-0.02813073,-0.002
 58883,-0.00636250,-0.00125579,-0.00110650,0.00074571,-0.00106514,-0.06
 971929,-0.02553427,-0.04229777,0.15142558,-0.00008275,0.00009255,0.000
 30161,-0.00235446,-0.00358127,-0.00102658,-0.01112579,-0.02032132,-0.0
 2373494,-0.00739503,-0.01935854,-0.00562774,0.00347892,0.00128136,0.00
 143564,-0.00024243,-0.00121791,-0.00054476,-0.02698041,-0.11879659,-0.
 10305075,0.15476181,0.44523844,0.00227913,-0.00049717,0.00008784,-0.00
 259575,0.00285329,0.00412017,-0.00405499,-0.01713247,-0.00704931,-0.00
 734321,-0.01288575,-0.00666583,0.00224582,0.00093782,0.00261102,-0.000
 86129,-0.00134633,0.00010862,-0.03889553,-0.08980187,-0.24059828,0.246
 35661,0.57675695,1.03375659,-0.00107210,0.00001104,0.00001304,0.000893
 04,-0.00137983,-0.00076105,0.00106745,0.00310887,-0.00087534,0.0004605
 7,0.00106015,0.00148283,-0.00019140,-0.00021095,-0.00040547,0.00018518
 ,0.00023120,0.00010041,0.00446418,-0.00399888,-0.00339043,-0.07822361,
 -0.11823511,-0.19309424,0.10706569,-0.00112112,0.00002420,0.00013066,0
 .00071803,-0.00141032,-0.00118707,0.00139612,0.00451688,0.00105467,0.0
 0233886,0.00432983,-0.00020814,-0.00148958,-0.00137379,-0.00103191,0.0
 0033766,0.00078406,0.00003281,-0.00378705,-0.00307660,-0.00813692,-0.1
 1810373,-0.30222720,-0.44942219,0.16773253,0.42703080,-0.00203622,0.00
 045965,-0.00001286,0.00171396,-0.00311695,-0.00199368,0.00123272,0.009
 10141,0.00126844,0.00469007,0.00596222,0.00069977,-0.00212351,-0.00184
 376,-0.00124483,0.00053130,0.00114327,-0.00005983,-0.00551511,-0.01410
 654,-0.00768702,-0.19366509,-0.45091397,-0.76804477,0.26980465,0.63156
 181,1.07596289,-0.08488286,0.04674734,-0.06982492,-0.03789641,0.018712
 95,-0.02177033,0.00291377,-0.00274424,-0.00782199,0.00000701,-0.000103
 49,0.00002055,-0.00027187,-0.00012331,0.00036815,0.00029803,0.00007093
 ,0.00004097,-0.00014560,0.00047273,0.00070237,-0.00032120,-0.00001066,
 -0.00019658,0.00010683,0.00012619,0.00021303,0.10883294,0.04814795,-0.
 11344111,0.09432780,0.00302716,0.00527865,-0.00386470,-0.00025656,0.00
 052736,0.00136848,-0.00001469,-0.00019818,-0.00038164,-0.00011209,0.00
 009898,-0.00013122,-0.00003909,0.00003696,0.00001946,0.00011637,-0.000
 38148,0.00034175,0.00012059,0.00008588,0.00012073,-0.00009606,-0.00001
 044,-0.00014579,-0.05576780,0.11448355,-0.07454527,0.09398624,-0.19846
 077,-0.00134278,-0.00363305,0.00732702,0.00125826,-0.00193541,0.003102
 04,-0.00006029,0.00002239,0.00030143,0.00009325,-0.00011173,-0.0000244
 5,0.00010497,0.00001012,-0.00000616,0.00008773,0.00025436,-0.00029055,
 -0.00008233,-0.00011435,-0.00015138,0.00005697,0.00006339,0.00014044,0
 .08610569,-0.10402728,0.20685146,-0.05469348,0.01823131,0.03417599,-0.
 01927615,0.01889427,0.03647201,-0.00673401,-0.00061753,-0.00104745,0.0
 0030422,-0.00032971,0.00241857,-0.00015021,-0.00029365,-0.00054659,0.0
 0017293,0.00032120,0.00005423,0.00033542,0.00022695,-0.00020871,-0.000
 17778,-0.00002667,-0.00023049,0.00010216,0.00009219,0.00018354,0.00435
 409,-0.00663880,-0.01009119,0.07260635,0.02467886,-0.10823834,-0.10804
 315,0.00085069,0.00129306,0.00118884,-0.00001414,0.00021592,0.00089127
 ,0.00004047,0.00036040,-0.00043133,0.00010551,0.00002021,0.00015923,-0
 .00004401,-0.00006264,-0.00002744,-0.00009476,0.00071420,0.00003747,0.
 00001509,0.00006793,0.00009762,0.00000101,-0.00004151,-0.00007597,-0.0
 0355144,0.00827581,0.01507090,-0.02733243,0.10929758,0.04577205,-0.107
 41591,-0.25233241,0.00447334,-0.00092854,-0.00125745,0.00075572,0.0007
 5147,0.00208860,-0.00038767,0.00050012,-0.00031506,0.00037645,0.000015
 77,0.00032659,-0.00014665,-0.00022782,-0.00005700,-0.00024443,-0.00010
 338,-0.00001647,0.00003472,0.00000691,0.00011260,-0.00001097,-0.000069
 33,-0.00008451,0.00365401,-0.01191257,-0.01917113,-0.05285837,0.117772
 22,0.26809243,-0.07033867,-0.06642558,0.00254220,-0.03384412,-0.033054
 28,0.00561347,0.00251696,-0.00548917,-0.00536546,0.00080510,-0.0004507
 3,-0.00025183,-0.00004643,0.00016318,0.00001855,0.00020677,-0.00033957
 ,-0.00006691,0.00081329,0.00187445,0.00057308,-0.00017853,0.00031935,-
 0.00036460,0.00007333,0.00006044,0.00016356,0.00659372,0.01120076,-0.0
 0002341,0.00364211,0.00530849,-0.00127568,0.09056574,-0.07211999,-0.27
 717061,0.00461725,-0.00722016,0.00630526,0.00033996,0.00083944,0.00119
 987,-0.00151852,0.00024551,-0.00037693,-0.00023870,-0.00011090,0.00009
 205,-0.00000084,0.00010249,-0.00010818,-0.00001716,0.00001982,0.000918
 70,0.00134379,-0.00037153,0.00006835,-0.00019809,0.00018699,0.00012393
 ,0.00021542,-0.00393648,-0.01470647,-0.00076713,-0.00309443,-0.0120223
 9,0.00180387,0.08526562,0.29588150,0.00081972,0.00392136,-0.05303649,0
 .00402304,0.00098281,0.00208306,0.00000634,0.00307031,0.00116842,0.000
 00432,-0.00000512,0.00002019,-0.00016656,-0.00007276,-0.00017467,-0.00
 000810,0.00011355,0.00001701,-0.00040944,-0.00050702,0.00052154,-0.000
 05807,-0.00007559,-0.00019619,0.00001202,0.00003164,0.00005477,0.00671
 173,0.02480470,-0.00018022,-0.00872358,-0.02637990,0.00230502,-0.00226
 831,-0.00578862,0.04750687,0.00416153,-0.00173460,0.00198463,0.0029034
 4,-0.00395689,0.01424860,-0.07280300,0.04571513,-0.06980779,-0.0029298
 8,0.00926551,-0.02283527,-0.00541382,0.00448370,-0.00235794,0.00137370
 ,0.00160486,0.00070903,0.00090455,-0.00588916,0.00825073,0.00131729,0.
 00183015,0.00104713,-0.00030243,0.00019177,-0.00010081,0.00036129,0.00
 037873,-0.00141349,-0.00008254,0.00007046,-0.00025757,-0.00030968,0.00
 004115,-0.00005088,0.06981034,-0.00323000,0.00066256,-0.00047012,-0.00
 223346,0.00875961,-0.02032949,0.04276518,-0.09840570,0.10191410,-0.000
 06520,-0.00239850,-0.00236161,-0.00198940,0.00112596,-0.00118643,0.000
 19988,0.00003632,0.00000286,0.00802548,-0.01452303,0.02155652,-0.00097
 783,0.00376418,0.00312743,-0.00047669,-0.00029516,-0.00170765,-0.00009
 899,-0.00011551,0.00108079,-0.00004884,-0.00003519,-0.00006703,0.00050
 371,-0.00029042,0.00010506,-0.04727790,0.10478404,-0.00579817,0.000314
 81,0.00083639,0.00052391,0.00241050,-0.03574360,-0.06933233,0.10123294
 ,-0.23277036,0.00176488,0.00174715,0.00144382,0.00047071,-0.00076667,0
 .00071922,0.00024468,-0.00035994,-0.00017494,-0.00174290,-0.00174083,0
 .00181693,-0.00037683,-0.00040268,0.00119864,0.00010394,0.00005164,0.0
 0003537,0.00179199,-0.00044591,0.00058654,0.00049003,-0.00025557,0.000
 29147,0.00069814,0.00026459,-0.00013019,0.07048829,-0.10161517,0.26083
 611,0.00031327,0.00036607,0.00091135,-0.00349582,-0.00150133,-0.000617
 36,-0.00868677,-0.00314817,0.01430750,-0.14026071,-0.01446234,0.125473
 94,0.01156506,0.00007129,-0.02343801,0.00330725,0.00345744,-0.00071501
 ,-0.00888066,0.00006786,0.00897208,0.00212938,-0.00020498,0.00165737,-
 0.00016219,-0.00034803,-0.00120189,-0.00007655,0.00004288,-0.00005370,
 -0.00034565,0.00016956,0.00006262,0.00012705,0.00001208,-0.00006331,0.
 00093109,0.00123639,0.00018629,0.14657043,-0.00050233,-0.00085269,-0.0
 0111931,0.00632451,0.00036520,-0.00056755,0.00775806,0.00064253,-0.018
 37563,-0.01052920,-0.04283071,0.01747906,-0.00104818,0.00183790,0.0019
 9803,0.00152299,0.00097389,-0.00115917,-0.01449628,-0.00288125,0.02031
 607,0.00265634,0.00283049,0.00238026,0.00027907,-0.00034528,-0.0009190
 6,0.00016156,0.00000308,0.00005370,0.00056947,-0.00001241,-0.00014412,
 0.00020735,0.00014635,-0.00002375,-0.00190853,0.00025754,0.00014489,0.
 01336379,0.04013511,-0.00017225,0.00004613,0.00016682,-0.00087140,-0.0
 0012869,0.00035946,0.00048870,0.00213996,0.00143974,0.12605698,0.01722
 374,-0.22199708,0.00247960,0.00173779,-0.03689568,0.00341500,0.0049190
 3,0.00120335,-0.00128504,-0.00237911,0.00288242,0.00004860,-0.00040644
 ,0.00124939,-0.00010739,0.00003046,-0.00006000,0.00003682,0.00000347,-
 0.00000463,-0.00007480,0.00002830,0.00000291,0.00001908,0.00000427,0.0
 0000506,-0.00001787,0.00038163,0.00096428,-0.12684942,-0.02103551,0.25
 006762,0.00029384,-0.00009409,-0.00010658,-0.00047291,-0.00002203,-0.0
 0018655,-0.00036980,0.00019119,0.00013054,0.00193715,0.00008071,0.0046
 7798,-0.01332029,-0.01679515,0.00444806,-0.15094372,-0.03042137,0.1133
 2615,-0.00010239,0.00000671,-0.00056147,-0.00010285,0.00018451,0.00005
 321,-0.00001795,-0.00009335,-0.00013803,-0.00008495,0.00001247,-0.0000
 3174,0.00000740,0.00000503,0.00001481,-0.00007353,-0.00002929,-0.00000
 286,-0.00020816,-0.00005610,-0.00010773,-0.00013284,-0.00009532,-0.001
 24252,0.16445229,0.00010681,0.00004261,0.00004065,0.00035823,0.0003774
 7,0.00029530,-0.00005194,-0.00044424,-0.00104504,0.00318362,0.00061979
 ,0.00601691,-0.03134826,-0.02184785,0.01663826,-0.02980706,-0.05988144
 ,0.03467753,-0.00020300,-0.00016449,-0.00022275,-0.00015000,0.00030437
 ,0.00004895,-0.00002794,-0.00012505,-0.00015537,0.00001284,-0.00000198
 ,0.00000598,-0.00004604,0.00000918,0.00002661,0.00005390,0.00001063,-0
 .00001131,-0.00021096,0.00000819,0.00008261,0.00019989,0.00031150,-0.0
 0136654,0.04658893,0.07317316,-0.00014687,0.00001365,-0.00003144,0.000
 27468,0.00000165,0.00008433,-0.00002522,-0.00014408,-0.00042584,-0.001
 83463,-0.00034284,0.00377681,-0.00730443,-0.00132677,0.01015298,0.1152
 0433,0.03902050,-0.18500914,-0.00001453,-0.00005024,0.00034590,0.00002
 102,-0.00001498,-0.00016802,0.00001463,0.00005552,0.00010206,0.0000299
 0,-0.00000835,0.00002842,0.00000120,0.00000378,-0.00000752,0.00001760,
 0.00001335,0.00000225,-0.00000050,-0.00000200,0.00002517,0.00163586,0.
 00070716,0.00057214,-0.12730737,-0.04374871,0.19115075,0.00027917,-0.0
 0006945,-0.00011297,-0.00046433,-0.00004212,0.00018533,0.00066714,0.00
 008502,0.00023585,-0.00065898,-0.00271964,0.00109135,-0.01106922,-0.00
 320207,-0.01701448,-0.11067222,0.02250154,-0.10724129,0.00006474,-0.00
 023840,-0.00093937,-0.00031195,0.00003254,0.00015696,-0.00002885,-0.00
 010996,-0.00016523,-0.00004664,0.00000256,0.00000044,-0.00004698,0.000
 03092,0.00002887,-0.00006983,-0.00003200,-0.00001513,-0.00007450,-0.00
 000861,-0.00000126,-0.00004200,-0.00008703,-0.00046662,0.01150003,-0.0
 0297958,0.01848020,0.11968759,-0.00004608,0.00007357,0.00012776,0.0000
 0665,0.00041386,0.00031083,0.00014751,-0.00040794,-0.00032530,-0.00255
 235,-0.00468441,-0.00067728,-0.02172152,-0.00147542,-0.03311562,0.0289
 6842,-0.05689158,0.04863776,-0.00045631,0.00009123,-0.00142462,-0.0004
 5163,0.00013071,0.00015723,-0.00001725,-0.00012191,-0.00015801,0.00001
 626,-0.00000695,-0.00000065,-0.00002383,0.00000170,0.00000581,0.000059
 04,0.00001541,-0.00002320,-0.00012890,-0.00002017,0.,0.00003761,-0.000
 04204,-0.00034140,0.00429229,-0.00000098,0.00453480,-0.01736566,0.0644
 6266,0.00014228,0.00001086,0.00001349,-0.00021736,0.00015799,0.0002043
 4,0.00037367,-0.00001913,-0.00019213,-0.00008754,-0.00173007,0.0019576
 8,-0.00615689,-0.00366778,-0.00674997,-0.11106722,0.03781618,-0.246634
 57,0.00007074,-0.00012155,-0.00026175,-0.00013919,0.00009018,0.0001427
 7,-0.00003256,-0.00009808,-0.00013646,-0.00001399,0.00000053,-0.000007
 93,-0.00003478,0.00001333,0.00002233,-0.00000154,-0.00000794,-0.000012
 96,-0.00004528,0.00000728,0.00001876,0.00006303,0.00019239,0.00021265,
 -0.01117759,0.00511366,-0.01831636,0.12517810,-0.03762919,0.26492919,-
 0.00061768,0.00010284,0.00035332,-0.00148540,-0.00035751,0.00031100,0.
 00081513,0.00014924,-0.00051328,0.00329334,-0.00088534,0.00148472,0.01
 302345,-0.01971835,-0.00444540,-0.17800200,0.13228023,0.01920546,-0.00
 005698,0.00019852,0.00018412,-0.00004041,0.00001438,-0.00003926,0.0000
 0811,0.00000686,0.00004149,0.00014015,-0.00000331,0.00000741,-0.000021
 67,-0.00002566,-0.00003743,0.00011962,0.00002586,0.00000700,0.00002145
 ,0.00004652,0.00005052,-0.00052050,0.00007984,-0.00024924,-0.01264908,
 0.01401802,0.00104900,-0.00880826,0.00902178,0.00316127,0.18470399,-0.
 00030864,0.00026609,0.00045984,0.00073764,0.00063503,0.00075430,-0.000
 51216,-0.00023974,-0.00232503,0.00402329,0.00025527,0.00524100,0.00771
 084,-0.03915177,-0.01046143,0.12334796,-0.17260308,-0.01927233,0.00005
 686,0.00042005,0.00013286,-0.00009367,0.00021155,0.00009531,-0.0000426
 3,-0.00007350,-0.00009597,0.00017337,-0.00001957,0.00003199,-0.0000846
 6,0.00000803,0.00001053,0.00021278,0.00005741,-0.00003134,-0.00047494,
 0.00012946,0.00012464,-0.00038680,0.00002218,-0.00073902,-0.00382051,0
 .00758752,0.00136153,0.00422710,-0.00153858,-0.00013656,-0.13496498,0.
 20406249,-0.00018087,0.00014448,0.00009545,-0.00002776,0.00015116,-0.0
 0022141,-0.00072540,-0.00001635,0.00016783,0.00340063,-0.00167478,0.00
 176849,0.00064401,-0.00989004,0.00014444,0.01842258,-0.01773040,-0.056
 77994,-0.00002300,0.00036992,-0.00013477,0.00000665,0.00001279,-0.0000
 9001,-0.00000097,0.00002044,0.00005185,-0.00000518,-0.00000384,-0.0000
 0624,0.00004084,-0.00001723,-0.00001145,0.00008729,0.00001873,-0.00001
 029,-0.00001946,-0.00002011,-0.00005344,0.00006064,0.00009101,-0.00020
 648,0.01825229,-0.01629540,-0.00210723,-0.01939833,0.01986905,0.004803
 86,-0.02060117,0.02485318,0.05254967,0.00003810,0.00033955,-0.00021134
 ,0.00010179,-0.00407782,0.00005531,0.00076399,0.00923601,-0.01643273,-
 0.00905619,-0.01817444,0.02808455,0.00335199,0.00499007,0.00047864,0.0
 0028697,-0.00022880,0.00012096,-0.04181045,-0.02876510,0.04748331,0.00
 102380,0.00459354,-0.00706153,0.00027640,-0.00085366,-0.00056436,0.000
 11429,-0.00013586,-0.00005875,0.00001302,-0.00021578,0.00004355,-0.000
 60582,0.00017598,0.00018113,0.00038380,0.00358881,0.00053104,-0.002252
 31,-0.00415394,-0.00123059,0.00028201,0.00028675,-0.00009399,0.0000703
 6,0.00018212,-0.00003174,0.00007457,0.00017724,0.00006512,0.04688366,0
 .00067039,-0.00058888,-0.00027444,0.00138338,0.00516521,-0.00029209,-0
 .00945587,-0.01417599,0.02299811,0.00120589,-0.00637613,0.00482305,-0.
 00066484,0.00091748,-0.00042138,-0.00003398,0.00019063,-0.00006327,-0.
 02980515,-0.09664529,0.10774105,0.00483267,0.00996816,-0.01847865,-0.0
 0084049,-0.00137405,-0.00112482,-0.00013939,0.00010602,0.00001115,0.00
 021341,0.00013829,-0.00004521,0.00056361,-0.00012348,-0.00009333,-0.00
 195113,-0.00334168,-0.00082061,0.00097795,-0.00049323,-0.00015483,0.00
 006643,0.00002162,-0.00006329,-0.00004095,-0.00000633,-0.00001055,0.00
 001372,-0.00002973,0.00012577,0.03334683,0.10721708,0.00028125,0.00009
 929,0.00013269,0.00032835,-0.00066108,0.00043359,-0.00024886,0.0000734
 3,0.00055745,0.00054681,0.00019290,0.00052541,-0.00125575,-0.00067876,
 0.00011999,-0.00020234,0.00011816,0.00027485,0.05022909,0.11111705,-0.
 26315765,0.00241108,0.00514196,-0.02409269,0.00019568,0.00043831,0.001
 10432,-0.00002242,-0.00007569,-0.00001222,-0.00000664,-0.00004792,-0.0
 0000449,-0.00011759,-0.00008689,0.00007113,0.00013366,-0.00049778,0.00
 012460,-0.00042158,-0.00009752,0.00004679,-0.00006359,-0.00012757,-0.0
 0015944,-0.00001850,0.00003818,-0.00001182,0.00003556,-0.00002537,0.00
 004099,-0.05156231,-0.11436657,0.28353662,0.00002879,0.00000628,0.0000
 1898,-0.00009456,-0.00036586,-0.00005465,-0.00000361,0.00011557,-0.000
 78918,-0.00013981,0.00000926,0.00088433,0.00023195,0.00042914,0.000246
 12,0.00004267,-0.00012223,0.00001961,0.00591637,-0.00028479,-0.0010287
 7,-0.00176260,0.00144309,0.00094126,-0.03470442,-0.04709417,-0.0730640
 7,0.00000395,0.00001478,-0.00001176,-0.00000922,0.00000215,0.00000265,
 0.00000293,-0.00000017,0.00000093,-0.00004447,0.00009704,0.00001478,-0
 .00008751,-0.00010219,0.00002234,0.00000574,0.00001582,-0.00000088,0.0
 0002473,0.00003184,0.00001658,0.00000218,0.00002190,0.00000208,0.00006
 002,-0.00034247,-0.00024192,0.03052688,0.00018141,-0.00001014,-0.00004
 226,-0.00007259,0.00042222,0.00038413,0.00020383,-0.00003798,0.0004453
 2,-0.00003760,0.00023418,-0.00027799,0.00004049,0.00000986,0.00016062,
 -0.00007969,-0.00006056,0.00000835,-0.00039872,0.00494316,-0.00253015,
 0.00168587,0.00145888,0.00318694,-0.04728505,-0.12633490,-0.17407993,-
 0.00001836,-0.00001460,-0.00000141,-0.00001218,0.00001016,0.00002061,-
 0.00003334,-0.00002097,-0.00001748,-0.00004846,-0.00010249,0.00003362,
 0.00004883,-0.00006816,0.00003676,-0.00000106,-0.00000001,-0.00001070,
 0.00001578,0.00000719,0.00001845,-0.00000267,0.00000088,-0.00000838,-0
 .00031149,-0.00056969,-0.00055414,0.04612500,0.12013299,0.00015535,-0.
 00006378,0.00000265,-0.00014891,0.00022897,0.00014350,-0.00035041,-0.0
 0064712,-0.00023946,-0.00016750,-0.00063645,-0.00020233,0.00024288,0.0
 0016440,0.00012139,-0.00008485,-0.00015431,-0.00002732,-0.00086332,-0.
 00172932,0.00265472,0.00102012,0.00216676,0.00366885,-0.07310575,-0.17
 331772,-0.30009595,-0.00001981,0.00001007,-0.00002167,-0.00001381,0.00
 001555,0.00001555,0.00000236,0.00000265,-0.00001430,0.00004479,0.00008
 172,-0.00002477,0.00002959,0.00007907,-0.00000874,0.00002299,0.0000262
 2,-0.00001582,0.00001611,0.00001385,0.00001889,-0.00000511,0.00002188,
 -0.00000131,0.00020372,0.00050993,0.00046988,0.07302156,0.17322764,0.2
 9355626\\0.00003603,-0.00000935,-0.00000033,-0.00003926,0.00003990,0.0
 0004625,0.00002623,-0.00007379,-0.00003325,-0.00003538,0.00001826,-0.0
 0000532,0.00002480,-0.00003301,0.00004115,-0.00003294,0.00000362,-0.00
 000216,0.00001273,0.00005555,-0.00001613,0.00000134,-0.00001573,-0.000
 01588,-0.00000323,-0.00000548,-0.00002597,-0.00001142,-0.00000040,-0.0
 0000514,-0.00000243,-0.00000014,-0.00000230,-0.00001018,-0.00000332,-0
 .00000817,0.00000484,0.00000635,0.00000368,-0.00000878,0.00000125,-0.0
 0000158,0.00001532,0.00000339,0.00000665,0.00000197,-0.00001081,-0.000
 00031,-0.00000071,-0.00000293,0.00000119,0.00001175,0.00001346,0.00000
 773,0.00000933,0.00001319,0.00000990\\\@


 WISDOM IS KNOWING WHAT TO DO,
 SKILL IS KNOWING HOW TO DO IT,
 AND VIRTUE IS NOT DOING IT.
 Job cpu time:       0 days  0 hours 44 minutes  4.4 seconds.
 File lengths (MBytes):  RWF=    152 Int=      0 D2E=      0 Chk=      8 Scr=      1
 Normal termination of Gaussian 09 at Tue Jan 28 13:21:09 2020.
