 Entering Gaussian System, Link 0=/home/puck/opt/gaussian_09/g09
 Input=dsC7O2H10nsd_1995.com
 Output=dsC7O2H10nsd_1995.log
 Initial command:
 /home/puck/opt/gaussian_09/l1.exe "/scratch/puck/g09_b16a3b5e-f6a7-4c3f-907e-20fa6472f6c7/Gau-79634.inp" -scrdir="/scratch/puck/g09_b16a3b5e-f6a7-4c3f-907e-20fa6472f6c7/"
 Entering Link 1 = /home/puck/opt/gaussian_09/l1.exe PID=     79638.
  
 Copyright (c) 1988,1990,1992,1993,1995,1998,2003,2009,2013,
            Gaussian, Inc.  All Rights Reserved.
  
 This is part of the Gaussian(R) 09 program.  It is based on
 the Gaussian(R) 03 system (copyright 2003, Gaussian, Inc.),
 the Gaussian(R) 98 system (copyright 1998, Gaussian, Inc.),
 the Gaussian(R) 94 system (copyright 1995, Gaussian, Inc.),
 the Gaussian 92(TM) system (copyright 1992, Gaussian, Inc.),
 the Gaussian 90(TM) system (copyright 1990, Gaussian, Inc.),
 the Gaussian 88(TM) system (copyright 1988, Gaussian, Inc.),
 the Gaussian 86(TM) system (copyright 1986, Carnegie Mellon
 University), and the Gaussian 82(TM) system (copyright 1983,
 Carnegie Mellon University). Gaussian is a federally registered
 trademark of Gaussian, Inc.
  
 This software contains proprietary and confidential information,
 including trade secrets, belonging to Gaussian, Inc.
  
 This software is provided under written license and may be
 used, copied, transmitted, or stored only in accord with that
 written license.
  
 The following legend is applicable only to US Government
 contracts under FAR:
  
                    RESTRICTED RIGHTS LEGEND
  
 Use, reproduction and disclosure by the US Government is
 subject to restrictions as set forth in subparagraphs (a)
 and (c) of the Commercial Computer Software - Restricted
 Rights clause in FAR 52.227-19.
  
 Gaussian, Inc.
 340 Quinnipiac St., Bldg. 40, Wallingford CT 06492
  
  
 ---------------------------------------------------------------
 Warning -- This program may not be used in any manner that
 competes with the business of Gaussian, Inc. or will provide
 assistance to any competitor of Gaussian, Inc.  The licensee
 of this program is prohibited from giving any competitor of
 Gaussian, Inc. access to this program.  By using this program,
 the user acknowledges that Gaussian, Inc. is engaged in the
 business of creating and licensing software in the field of
 computational chemistry and represents and warrants to the
 licensee that it is not a competitor of Gaussian, Inc. and that
 it will not use this program in any manner prohibited above.
 ---------------------------------------------------------------
  

 Cite this work as:
 Gaussian 09, Revision D.01,
 M. J. Frisch, G. W. Trucks, H. B. Schlegel, G. E. Scuseria, 
 M. A. Robb, J. R. Cheeseman, G. Scalmani, V. Barone, B. Mennucci, 
 G. A. Petersson, H. Nakatsuji, M. Caricato, X. Li, H. P. Hratchian, 
 A. F. Izmaylov, J. Bloino, G. Zheng, J. L. Sonnenberg, M. Hada, 
 M. Ehara, K. Toyota, R. Fukuda, J. Hasegawa, M. Ishida, T. Nakajima, 
 Y. Honda, O. Kitao, H. Nakai, T. Vreven, J. A. Montgomery, Jr., 
 J. E. Peralta, F. Ogliaro, M. Bearpark, J. J. Heyd, E. Brothers, 
 K. N. Kudin, V. N. Staroverov, T. Keith, R. Kobayashi, J. Normand, 
 K. Raghavachari, A. Rendell, J. C. Burant, S. S. Iyengar, J. Tomasi, 
 M. Cossi, N. Rega, J. M. Millam, M. Klene, J. E. Knox, J. B. Cross, 
 V. Bakken, C. Adamo, J. Jaramillo, R. Gomperts, R. E. Stratmann, 
 O. Yazyev, A. J. Austin, R. Cammi, C. Pomelli, J. W. Ochterski, 
 R. L. Martin, K. Morokuma, V. G. Zakrzewski, G. A. Voth, 
 P. Salvador, J. J. Dannenberg, S. Dapprich, A. D. Daniels, 
 O. Farkas, J. B. Foresman, J. V. Ortiz, J. Cioslowski, 
 and D. J. Fox, Gaussian, Inc., Wallingford CT, 2013.
 
 ******************************************
 Gaussian 09:  ES64L-G09RevD.01 24-Apr-2013
                27-Jan-2020 
 ******************************************
 -----------------------------
 # b3lyp 6-31G(2df,p) opt Freq
 -----------------------------
 1/14=-1,18=20,19=15,26=3,38=1/1,3;
 2/9=110,12=2,17=6,18=5,40=1/2;
 3/5=1,6=6,7=104,11=2,16=1,25=1,30=1,71=1,74=-5/1,2,3;
 4//1;
 5/5=2,38=5/2;
 6/7=2,8=2,9=2,10=2,28=1/1;
 7//1,2,3,16;
 1/14=-1,18=20,19=15,26=3/3(2);
 2/9=110/2;
 99//99;
 2/9=110/2;
 3/5=1,6=6,7=104,11=2,16=1,25=1,30=1,71=1,74=-5/1,2,3;
 4/5=5,16=3,69=1/1;
 5/5=2,38=5/2;
 7//1,2,3,16;
 1/14=-1,18=20,19=15,26=3/3(-5);
 2/9=110/2;
 6/7=2,8=2,9=2,10=2,19=2,28=1/1;
 99/9=1/99;
 -----
 titel
 -----
 Symbolic Z-matrix:
 Charge =  0 Multiplicity = 1
 C                     0.39131   0.13297  -2.08339 
 C                     1.15711  -0.04685  -0.80539 
 O                     2.22104   0.88042  -0.5451 
 C                     2.5432   -0.50642  -0.64845 
 C                     2.53141  -1.23848   0.70189 
 C                     1.8047   -2.58698   0.45773 
 C                     0.32497  -2.10272   0.3221 
 C                     0.4983   -0.56764   0.49074 
 O                     1.56115  -0.49364   1.44201 
 H                    -0.17916  -0.76479  -2.34119 
 H                    -0.31879   0.96245  -1.9906 
 H                     1.07075   0.36225  -2.90784 
 H                     3.18907  -0.81206  -1.46654 
 H                     3.46892  -1.27948   1.25545 
 H                     2.16745  -3.1027   -0.43621 
 H                     1.93419  -3.25646   1.31035 
 H                    -0.13023  -2.38404  -0.63053 
 H                    -0.30043  -2.50092   1.12361 
 H                    -0.36853  -0.01817   0.85853 
 

 GradGradGradGradGradGradGradGradGradGradGradGradGradGradGradGradGradGrad
 Berny optimization.
 Initialization pass.
                           ----------------------------
                           !    Initial Parameters    !
                           ! (Angstroms and Degrees)  !
 --------------------------                            --------------------------
 ! Name  Definition              Value          Derivative Info.                !
 --------------------------------------------------------------------------------
 ! R1    R(1,2)                  1.5007         estimate D2E/DX2                !
 ! R2    R(1,10)                 1.0945         estimate D2E/DX2                !
 ! R3    R(1,11)                 1.0958         estimate D2E/DX2                !
 ! R4    R(1,12)                 1.0927         estimate D2E/DX2                !
 ! R5    R(2,3)                  1.4351         estimate D2E/DX2                !
 ! R6    R(2,4)                  1.4687         estimate D2E/DX2                !
 ! R7    R(2,8)                  1.5444         estimate D2E/DX2                !
 ! R8    R(3,4)                  1.4275         estimate D2E/DX2                !
 ! R9    R(4,5)                  1.5361         estimate D2E/DX2                !
 ! R10   R(4,13)                 1.0862         estimate D2E/DX2                !
 ! R11   R(5,6)                  1.5512         estimate D2E/DX2                !
 ! R12   R(5,9)                  1.4297         estimate D2E/DX2                !
 ! R13   R(5,14)                 1.0895         estimate D2E/DX2                !
 ! R14   R(6,7)                  1.5629         estimate D2E/DX2                !
 ! R15   R(6,15)                 1.0939         estimate D2E/DX2                !
 ! R16   R(6,16)                 1.0918         estimate D2E/DX2                !
 ! R17   R(7,8)                  1.554          estimate D2E/DX2                !
 ! R18   R(7,17)                 1.0926         estimate D2E/DX2                !
 ! R19   R(7,18)                 1.0918         estimate D2E/DX2                !
 ! R20   R(8,9)                  1.4283         estimate D2E/DX2                !
 ! R21   R(8,19)                 1.0902         estimate D2E/DX2                !
 ! A1    A(2,1,10)             111.61           estimate D2E/DX2                !
 ! A2    A(2,1,11)             110.442          estimate D2E/DX2                !
 ! A3    A(2,1,12)             110.5114         estimate D2E/DX2                !
 ! A4    A(10,1,11)            107.6428         estimate D2E/DX2                !
 ! A5    A(10,1,12)            108.5719         estimate D2E/DX2                !
 ! A6    A(11,1,12)            107.9383         estimate D2E/DX2                !
 ! A7    A(1,2,3)              117.0875         estimate D2E/DX2                !
 ! A8    A(1,2,4)              127.5961         estimate D2E/DX2                !
 ! A9    A(1,2,8)              122.5085         estimate D2E/DX2                !
 ! A10   A(3,2,8)              112.4524         estimate D2E/DX2                !
 ! A11   A(4,2,8)              101.9695         estimate D2E/DX2                !
 ! A12   A(2,4,5)              103.6397         estimate D2E/DX2                !
 ! A13   A(2,4,13)             124.6619         estimate D2E/DX2                !
 ! A14   A(3,4,5)              113.4297         estimate D2E/DX2                !
 ! A15   A(3,4,13)             117.5217         estimate D2E/DX2                !
 ! A16   A(5,4,13)             122.1794         estimate D2E/DX2                !
 ! A17   A(4,5,6)              106.2325         estimate D2E/DX2                !
 ! A18   A(4,5,9)              102.2405         estimate D2E/DX2                !
 ! A19   A(4,5,14)             117.2569         estimate D2E/DX2                !
 ! A20   A(6,5,9)              102.5007         estimate D2E/DX2                !
 ! A21   A(6,5,14)             116.7683         estimate D2E/DX2                !
 ! A22   A(9,5,14)             109.9109         estimate D2E/DX2                !
 ! A23   A(5,6,7)              100.828          estimate D2E/DX2                !
 ! A24   A(5,6,15)             112.5265         estimate D2E/DX2                !
 ! A25   A(5,6,16)             110.7687         estimate D2E/DX2                !
 ! A26   A(7,6,15)             112.9001         estimate D2E/DX2                !
 ! A27   A(7,6,16)             111.7206         estimate D2E/DX2                !
 ! A28   A(15,6,16)            108.0453         estimate D2E/DX2                !
 ! A29   A(6,7,8)              101.0145         estimate D2E/DX2                !
 ! A30   A(6,7,17)             112.9752         estimate D2E/DX2                !
 ! A31   A(6,7,18)             111.4458         estimate D2E/DX2                !
 ! A32   A(8,7,17)             113.2916         estimate D2E/DX2                !
 ! A33   A(8,7,18)             110.1508         estimate D2E/DX2                !
 ! A34   A(17,7,18)            107.9085         estimate D2E/DX2                !
 ! A35   A(2,8,7)              106.8346         estimate D2E/DX2                !
 ! A36   A(2,8,9)              102.9468         estimate D2E/DX2                !
 ! A37   A(2,8,19)             116.8941         estimate D2E/DX2                !
 ! A38   A(7,8,9)              101.9143         estimate D2E/DX2                !
 ! A39   A(7,8,19)             116.4734         estimate D2E/DX2                !
 ! A40   A(9,8,19)             109.9293         estimate D2E/DX2                !
 ! A41   A(5,9,8)               97.6568         estimate D2E/DX2                !
 ! D1    D(10,1,2,3)           162.9705         estimate D2E/DX2                !
 ! D2    D(10,1,2,4)            92.7794         estimate D2E/DX2                !
 ! D3    D(10,1,2,8)           -50.4544         estimate D2E/DX2                !
 ! D4    D(11,1,2,3)           -77.3232         estimate D2E/DX2                !
 ! D5    D(11,1,2,4)          -147.5143         estimate D2E/DX2                !
 ! D6    D(11,1,2,8)            69.2519         estimate D2E/DX2                !
 ! D7    D(12,1,2,3)            42.0427         estimate D2E/DX2                !
 ! D8    D(12,1,2,4)           -28.1484         estimate D2E/DX2                !
 ! D9    D(12,1,2,8)          -171.3822         estimate D2E/DX2                !
 ! D10   D(1,2,4,5)           -148.7062         estimate D2E/DX2                !
 ! D11   D(1,2,4,13)            -2.1878         estimate D2E/DX2                !
 ! D12   D(8,2,4,5)              0.2305         estimate D2E/DX2                !
 ! D13   D(8,2,4,13)           146.7489         estimate D2E/DX2                !
 ! D14   D(1,2,8,7)             76.633          estimate D2E/DX2                !
 ! D15   D(1,2,8,9)           -176.4565         estimate D2E/DX2                !
 ! D16   D(1,2,8,19)           -55.8748         estimate D2E/DX2                !
 ! D17   D(3,2,8,7)           -135.4162         estimate D2E/DX2                !
 ! D18   D(3,2,8,9)            -28.5057         estimate D2E/DX2                !
 ! D19   D(3,2,8,19)            92.0761         estimate D2E/DX2                !
 ! D20   D(4,2,8,7)            -74.3682         estimate D2E/DX2                !
 ! D21   D(4,2,8,9)             32.5423         estimate D2E/DX2                !
 ! D22   D(4,2,8,19)           153.124          estimate D2E/DX2                !
 ! D23   D(2,4,5,6)             74.2768         estimate D2E/DX2                !
 ! D24   D(2,4,5,9)            -32.8115         estimate D2E/DX2                !
 ! D25   D(2,4,5,14)          -153.0616         estimate D2E/DX2                !
 ! D26   D(3,4,5,6)            136.5049         estimate D2E/DX2                !
 ! D27   D(3,4,5,9)             29.4167         estimate D2E/DX2                !
 ! D28   D(3,4,5,14)           -90.8334         estimate D2E/DX2                !
 ! D29   D(13,4,5,6)           -73.3036         estimate D2E/DX2                !
 ! D30   D(13,4,5,9)           179.6081         estimate D2E/DX2                !
 ! D31   D(13,4,5,14)           59.358          estimate D2E/DX2                !
 ! D32   D(4,5,6,7)            -73.4134         estimate D2E/DX2                !
 ! D33   D(4,5,6,15)            47.1327         estimate D2E/DX2                !
 ! D34   D(4,5,6,16)           168.194          estimate D2E/DX2                !
 ! D35   D(9,5,6,7)             33.4881         estimate D2E/DX2                !
 ! D36   D(9,5,6,15)           154.0343         estimate D2E/DX2                !
 ! D37   D(9,5,6,16)           -84.9045         estimate D2E/DX2                !
 ! D38   D(14,5,6,7)           153.656          estimate D2E/DX2                !
 ! D39   D(14,5,6,15)          -85.7979         estimate D2E/DX2                !
 ! D40   D(14,5,6,16)           35.2633         estimate D2E/DX2                !
 ! D41   D(4,5,9,8)             52.9668         estimate D2E/DX2                !
 ! D42   D(6,5,9,8)            -56.976          estimate D2E/DX2                !
 ! D43   D(14,5,9,8)           178.2072         estimate D2E/DX2                !
 ! D44   D(5,6,7,8)              0.9413         estimate D2E/DX2                !
 ! D45   D(5,6,7,17)           122.2776         estimate D2E/DX2                !
 ! D46   D(5,6,7,18)          -116.0287         estimate D2E/DX2                !
 ! D47   D(15,6,7,8)          -119.3385         estimate D2E/DX2                !
 ! D48   D(15,6,7,17)            1.9979         estimate D2E/DX2                !
 ! D49   D(15,6,7,18)          123.6915         estimate D2E/DX2                !
 ! D50   D(16,6,7,8)           118.6392         estimate D2E/DX2                !
 ! D51   D(16,6,7,17)         -120.0244         estimate D2E/DX2                !
 ! D52   D(16,6,7,18)            1.6692         estimate D2E/DX2                !
 ! D53   D(6,7,8,2)             72.5391         estimate D2E/DX2                !
 ! D54   D(6,7,8,9)            -35.1032         estimate D2E/DX2                !
 ! D55   D(6,7,8,19)          -154.7233         estimate D2E/DX2                !
 ! D56   D(17,7,8,2)           -48.5743         estimate D2E/DX2                !
 ! D57   D(17,7,8,9)          -156.2166         estimate D2E/DX2                !
 ! D58   D(17,7,8,19)           84.1633         estimate D2E/DX2                !
 ! D59   D(18,7,8,2)          -169.5438         estimate D2E/DX2                !
 ! D60   D(18,7,8,9)            82.8139         estimate D2E/DX2                !
 ! D61   D(18,7,8,19)          -36.8062         estimate D2E/DX2                !
 ! D62   D(2,8,9,5)            -53.2338         estimate D2E/DX2                !
 ! D63   D(7,8,9,5)             57.3889         estimate D2E/DX2                !
 ! D64   D(19,8,9,5)          -178.4779         estimate D2E/DX2                !
 --------------------------------------------------------------------------------
 Trust Radius=3.00D-01 FncErr=1.00D-07 GrdErr=1.00D-06
 Number of steps in this run=    114 maximum allowed number of steps=    114.
 GradGradGradGradGradGradGradGradGradGradGradGradGradGradGradGradGradGrad

                          Input orientation:                          
 ---------------------------------------------------------------------
 Center     Atomic      Atomic             Coordinates (Angstroms)
 Number     Number       Type             X           Y           Z
 ---------------------------------------------------------------------
      1          6           0        0.391307    0.132972   -2.083388
      2          6           0        1.157109   -0.046849   -0.805390
      3          8           0        2.221043    0.880423   -0.545100
      4          6           0        2.543203   -0.506420   -0.648451
      5          6           0        2.531408   -1.238475    0.701891
      6          6           0        1.804699   -2.586979    0.457730
      7          6           0        0.324967   -2.102721    0.322101
      8          6           0        0.498299   -0.567637    0.490736
      9          8           0        1.561146   -0.493641    1.442008
     10          1           0       -0.179160   -0.764789   -2.341190
     11          1           0       -0.318791    0.962452   -1.990598
     12          1           0        1.070750    0.362248   -2.907844
     13          1           0        3.189066   -0.812056   -1.466539
     14          1           0        3.468920   -1.279476    1.255454
     15          1           0        2.167449   -3.102696   -0.436214
     16          1           0        1.934190   -3.256457    1.310349
     17          1           0       -0.130232   -2.384042   -0.630532
     18          1           0       -0.300435   -2.500923    1.123611
     19          1           0       -0.368534   -0.018167    0.858534
 ---------------------------------------------------------------------
                    Distance matrix (angstroms):
                    1          2          3          4          5
     1  C    0.000000
     2  C    1.500689   0.000000
     3  O    2.504586   1.435110   0.000000
     4  C    2.664306   1.468704   1.427516   0.000000
     5  C    3.770766   2.362322   2.478112   1.536055   0.000000
     6  C    3.981594   2.909828   3.633440   2.469362   1.551188
     7  C    3.284677   2.488032   3.639546   2.900124   2.399905
     8  C    2.669909   1.544406   2.477434   2.341608   2.151312
     9  O    3.766907   2.326729   2.504419   2.309679   1.429671
    10  H    1.094472   2.158642   3.419596   3.216113   4.102669
    11  H    1.095849   2.145155   2.923517   3.485679   4.496355
    12  H    1.092675   2.143626   2.678477   2.833295   4.210228
    13  H    3.016793   2.269694   2.156526   1.086196   2.305739
    14  H    4.755479   3.333304   3.076419   2.253757   1.089515
    15  H    4.041957   3.239642   3.984968   2.631898   2.214287
    16  H    5.038469   3.921962   4.542989   3.430816   2.190695
    17  H    2.952651   2.674002   4.023993   3.266962   3.189357
    18  H    4.207226   3.444989   4.536072   3.899297   3.129050
    19  H    3.042220   2.257665   3.079539   3.314756   3.150135
                    6          7          8          9         10
     6  C    0.000000
     7  C    1.562852   0.000000
     8  C    2.405309   1.554016   0.000000
     9  O    2.325980   2.317643   1.428299   0.000000
    10  H    3.884588   3.022801   2.918496   4.173101   0.000000
    11  H    4.806452   3.893365   3.027511   4.175782   1.767986
    12  H    4.534722   4.130957   3.569696   4.460297   1.775833
    13  H    2.961357   3.614985   3.336300   3.348307   3.480259
    14  H    2.261760   3.381319   3.148984   2.071700   5.148713
    15  H    1.093932   2.229289   3.173614   3.271466   3.821167
    16  H    1.091755   2.212993   3.156470   2.790994   4.899836
    17  H    2.229227   1.092638   2.225223   3.275637   2.355997
    18  H    2.209613   1.091838   2.185429   2.756091   3.877333
    19  H    3.388566   2.261431   1.090225   2.071276   3.291130
                   11         12         13         14         15
    11  H    0.000000
    12  H    1.769862   0.000000
    13  H    3.965928   2.818442   0.000000
    14  H    5.468990   5.077355   2.775976   0.000000
    15  H    5.012278   4.395172   2.711513   2.807080   0.000000
    16  H    5.811314   5.624385   3.906522   2.503371   1.768766
    17  H    3.617230   3.764387   3.766668   4.210808   2.415277
    18  H    4.657639   5.131327   4.662378   3.964512   2.980878
    19  H    3.013576   4.049920   4.323511   4.058879   4.197845
                   16         17         18         19
    16  H    0.000000
    17  H    2.964788   0.000000
    18  H    2.366273   1.766253   0.000000
    19  H    3.999149   2.805614   2.497795   0.000000
 Stoichiometry    C7H10O2
 Framework group  C1[X(C7H10O2)]
 Deg. of freedom    51
 Full point group                 C1      NOp   1
 Largest Abelian subgroup         C1      NOp   1
 Largest concise Abelian subgroup C1      NOp   1
                         Standard orientation:                         
 ---------------------------------------------------------------------
 Center     Atomic      Atomic             Coordinates (Angstroms)
 Number     Number       Type             X           Y           Z
 ---------------------------------------------------------------------
      1          6           0        2.150636    1.006240   -0.306480
      2          6           0        1.017672    0.097060    0.070154
      3          8           0        1.330706   -1.289320    0.268907
      4          6           0        0.395113   -0.947406   -0.753620
      5          6           0       -1.064694   -0.963379   -0.275943
      6          6           0       -1.728663    0.307262   -0.868226
      7          6           0       -1.090981    1.416970    0.028666
      8          6           0       -0.167226    0.565229    0.943094
      9          8           0       -0.934531   -0.628156    1.107763
     10          1           0        1.787838    1.951340   -0.722450
     11          1           0        2.760209    1.242682    0.572953
     12          1           0        2.797308    0.526393   -1.045060
     13          1           0        0.670221   -1.170136   -1.780522
     14          1           0       -1.613916   -1.898439   -0.381115
     15          1           0       -1.506721    0.439370   -1.931230
     16          1           0       -2.813442    0.267366   -0.751641
     17          1           0       -0.551167    2.172674   -0.546983
     18          1           0       -1.846362    1.928240    0.628760
     19          1           0        0.075491    0.988465    1.918056
 ---------------------------------------------------------------------
 Rotational constants (GHZ):      2.8175696      1.8343601      1.5388852
 Standard basis: 6-31G(2df,p) (6D, 7F)
 There are   329 symmetry adapted cartesian basis functions of A   symmetry.
 There are   302 symmetry adapted basis functions of A   symmetry.
   302 basis functions,   466 primitive gaussians,   329 cartesian basis functions
    34 alpha electrons       34 beta electrons
       nuclear repulsion energy       493.5377549411 Hartrees.
 NAtoms=   19 NActive=   19 NUniq=   19 SFac= 1.00D+00 NAtFMM=   60 NAOKFM=F Big=F
 Integral buffers will be    131072 words long.
 Raffenetti 2 integral format.
 Two-electron integral symmetry is turned on.
 One-electron integrals computed using PRISM.
 NBasis=   302 RedAO= T EigKep=  2.97D-04  NBF=   302
 NBsUse=   302 1.00D-06 EigRej= -1.00D+00 NBFU=   302
 ExpMin= 1.61D-01 ExpMax= 5.48D+03 ExpMxC= 8.25D+02 IAcc=1 IRadAn=         1 AccDes= 0.00D+00
 Harris functional with IExCor=  402 and IRadAn=       1 diagonalized for initial guess.
 HarFok:  IExCor=  402 AccDes= 0.00D+00 IRadAn=         1 IDoV= 1 UseB2=F ITyADJ=14
 ICtDFT=  3500011 ScaDFX=  1.000000  1.000000  1.000000  1.000000
 FoFCou: FMM=F IPFlag=           0 FMFlag=      100000 FMFlg1=           0
         NFxFlg=           0 DoJE=T BraDBF=F KetDBF=T FulRan=T
         wScrn=  0.000000 ICntrl=     500 IOpCl=  0 I1Cent=   200000004 NGrid=           0
         NMat0=    1 NMatS0=      1 NMatT0=    0 NMatD0=    1 NMtDS0=    0 NMtDT0=    0
 Petite list used in FoFCou.
 Requested convergence on RMS density matrix=1.00D-08 within 128 cycles.
 Requested convergence on MAX density matrix=1.00D-06.
 Requested convergence on             energy=1.00D-06.
 No special actions if energy rises.
 Integral accuracy reduced to 1.0D-05 until final iterations.
 Initial convergence to 1.0D-05 achieved.  Increase integral accuracy.
 SCF Done:  E(RB3LYP) =  -423.180926150     A.U. after   14 cycles
            NFock= 14  Conv=0.31D-08     -V/T= 2.0074

 **********************************************************************

            Population analysis using the SCF density.

 **********************************************************************

 Orbital symmetries:
       Occupied  (A) (A) (A) (A) (A) (A) (A) (A) (A) (A) (A) (A)
                 (A) (A) (A) (A) (A) (A) (A) (A) (A) (A) (A) (A)
                 (A) (A) (A) (A) (A) (A) (A) (A) (A) (A)
       Virtual   (A) (A) (A) (A) (A) (A) (A) (A) (A) (A) (A) (A)
                 (A) (A) (A) (A) (A) (A) (A) (A) (A) (A) (A) (A)
                 (A) (A) (A) (A) (A) (A) (A) (A) (A) (A) (A) (A)
                 (A) (A) (A) (A) (A) (A) (A) (A) (A) (A) (A) (A)
                 (A) (A) (A) (A) (A) (A) (A) (A) (A) (A) (A) (A)
                 (A) (A) (A) (A) (A) (A) (A) (A) (A) (A) (A) (A)
                 (A) (A) (A) (A) (A) (A) (A) (A) (A) (A) (A) (A)
                 (A) (A) (A) (A) (A) (A) (A) (A) (A) (A) (A) (A)
                 (A) (A) (A) (A) (A) (A) (A) (A) (A) (A) (A) (A)
                 (A) (A) (A) (A) (A) (A) (A) (A) (A) (A) (A) (A)
                 (A) (A) (A) (A) (A) (A) (A) (A) (A) (A) (A) (A)
                 (A) (A) (A) (A) (A) (A) (A) (A) (A) (A) (A) (A)
                 (A) (A) (A) (A) (A) (A) (A) (A) (A) (A) (A) (A)
                 (A) (A) (A) (A) (A) (A) (A) (A) (A) (A) (A) (A)
                 (A) (A) (A) (A) (A) (A) (A) (A) (A) (A) (A) (A)
                 (A) (A) (A) (A) (A) (A) (A) (A) (A) (A) (A) (A)
                 (A) (A) (A) (A) (A) (A) (A) (A) (A) (A) (A) (A)
                 (A) (A) (A) (A) (A) (A) (A) (A) (A) (A) (A) (A)
                 (A) (A) (A) (A) (A) (A) (A) (A) (A) (A) (A) (A)
                 (A) (A) (A) (A) (A) (A) (A) (A) (A) (A) (A) (A)
                 (A) (A) (A) (A) (A) (A) (A) (A) (A) (A) (A) (A)
                 (A) (A) (A) (A) (A) (A) (A) (A) (A) (A) (A) (A)
                 (A) (A) (A) (A)
 The electronic state is 1-A.
 Alpha  occ. eigenvalues --  -19.14497 -19.13779 -10.23717 -10.23409 -10.23356
 Alpha  occ. eigenvalues --  -10.23005 -10.18921 -10.18899 -10.18854  -1.08623
 Alpha  occ. eigenvalues --   -1.02801  -0.79070  -0.76134  -0.72624  -0.67818
 Alpha  occ. eigenvalues --   -0.60346  -0.57528  -0.56080  -0.51376  -0.49332
 Alpha  occ. eigenvalues --   -0.46785  -0.44641  -0.43133  -0.40891  -0.39935
 Alpha  occ. eigenvalues --   -0.38524  -0.37624  -0.35666  -0.35195  -0.34180
 Alpha  occ. eigenvalues --   -0.32107  -0.29210  -0.26567  -0.24648
 Alpha virt. eigenvalues --    0.08237   0.09954   0.10239   0.10824   0.12619
 Alpha virt. eigenvalues --    0.12963   0.14188   0.15477   0.16065   0.16569
 Alpha virt. eigenvalues --    0.17672   0.19313   0.19735   0.21522   0.22262
 Alpha virt. eigenvalues --    0.22946   0.24502   0.26074   0.28698   0.30841
 Alpha virt. eigenvalues --    0.37117   0.40993   0.43380   0.43664   0.47029
 Alpha virt. eigenvalues --    0.48307   0.48854   0.49206   0.51998   0.53931
 Alpha virt. eigenvalues --    0.54609   0.55580   0.56330   0.57248   0.58238
 Alpha virt. eigenvalues --    0.61705   0.62121   0.66540   0.67083   0.68535
 Alpha virt. eigenvalues --    0.68746   0.70401   0.72559   0.73358   0.74258
 Alpha virt. eigenvalues --    0.74965   0.76471   0.77320   0.78279   0.81846
 Alpha virt. eigenvalues --    0.83902   0.84102   0.86893   0.87735   0.89539
 Alpha virt. eigenvalues --    0.90267   0.93022   0.95531   0.96531   0.99783
 Alpha virt. eigenvalues --    1.04246   1.05605   1.09304   1.10392   1.13090
 Alpha virt. eigenvalues --    1.17873   1.18895   1.19843   1.23836   1.27575
 Alpha virt. eigenvalues --    1.29140   1.30443   1.33031   1.34376   1.36096
 Alpha virt. eigenvalues --    1.37694   1.37986   1.38276   1.42006   1.43197
 Alpha virt. eigenvalues --    1.43935   1.46605   1.47720   1.49720   1.50547
 Alpha virt. eigenvalues --    1.52130   1.55742   1.55853   1.60352   1.61917
 Alpha virt. eigenvalues --    1.62626   1.63510   1.67942   1.68430   1.70241
 Alpha virt. eigenvalues --    1.73129   1.75364   1.76350   1.78168   1.80945
 Alpha virt. eigenvalues --    1.86031   1.87082   1.88546   1.91301   1.93405
 Alpha virt. eigenvalues --    1.95906   1.96795   2.00961   2.05395   2.11727
 Alpha virt. eigenvalues --    2.14639   2.18216   2.18647   2.25090   2.28042
 Alpha virt. eigenvalues --    2.30604   2.31972   2.36783   2.38165   2.40176
 Alpha virt. eigenvalues --    2.43765   2.49279   2.51264   2.53716   2.59769
 Alpha virt. eigenvalues --    2.63262   2.64394   2.67400   2.69281   2.71247
 Alpha virt. eigenvalues --    2.73453   2.77239   2.78384   2.84199   2.86838
 Alpha virt. eigenvalues --    2.88340   2.89619   2.91092   2.92820   2.95075
 Alpha virt. eigenvalues --    2.96737   2.98250   3.01416   3.03695   3.05588
 Alpha virt. eigenvalues --    3.09103   3.09329   3.11038   3.14056   3.15713
 Alpha virt. eigenvalues --    3.17016   3.21571   3.23405   3.24193   3.28470
 Alpha virt. eigenvalues --    3.29866   3.33612   3.36285   3.37413   3.40567
 Alpha virt. eigenvalues --    3.42125   3.44306   3.46036   3.49600   3.51808
 Alpha virt. eigenvalues --    3.53234   3.54746   3.60871   3.62400   3.65880
 Alpha virt. eigenvalues --    3.70438   3.71656   3.73124   3.76428   3.79557
 Alpha virt. eigenvalues --    3.86199   3.89451   3.90463   3.93398   4.00597
 Alpha virt. eigenvalues --    4.05230   4.09683   4.12054   4.17888   4.19807
 Alpha virt. eigenvalues --    4.21746   4.24443   4.28462   4.31341   4.33283
 Alpha virt. eigenvalues --    4.34432   4.37262   4.40546   4.43082   4.43691
 Alpha virt. eigenvalues --    4.46920   4.47807   4.48779   4.49607   4.50576
 Alpha virt. eigenvalues --    4.51795   4.55009   4.57624   4.58940   4.62247
 Alpha virt. eigenvalues --    4.64081   4.64807   4.66419   4.67517   4.68522
 Alpha virt. eigenvalues --    4.70418   4.71477   4.73640   4.75202   4.75668
 Alpha virt. eigenvalues --    4.76773   4.79268   4.83119   4.84348   4.87673
 Alpha virt. eigenvalues --    4.92636   4.93582   4.95818   4.97785   4.99316
 Alpha virt. eigenvalues --    5.02882   5.10605   5.11609   5.12633   5.15976
 Alpha virt. eigenvalues --    5.18292   5.21962   5.26717   5.28803   5.33699
 Alpha virt. eigenvalues --    5.38285   5.43009   5.44180   5.50267   5.53847
 Alpha virt. eigenvalues --    5.57063   5.60872   5.64354   5.80422   5.82936
 Alpha virt. eigenvalues --    5.87038   5.94847   6.02042   6.03826   6.10235
 Alpha virt. eigenvalues --    6.11939   6.15619   6.19525   6.22229   6.28823
 Alpha virt. eigenvalues --    6.78414   6.92990   7.16206   7.19906  10.79499
 Alpha virt. eigenvalues --   11.39047  11.56596  12.05428  12.18118  12.52784
 Alpha virt. eigenvalues --   12.85102  13.23539  13.69712
          Condensed to atoms (all electrons):
               1          2          3          4          5          6
     1  C    5.170049   0.381999  -0.026708  -0.033610   0.001887   0.001362
     2  C    0.381999   4.401487   0.298527   0.309306   0.012020  -0.028603
     3  O   -0.026708   0.298527   7.800064   0.297528  -0.029440   0.001957
     4  C   -0.033610   0.309306   0.297528   4.947141   0.287597  -0.015649
     5  C    0.001887   0.012020  -0.029440   0.287597   4.859236   0.326710
     6  C    0.001362  -0.028603   0.001957  -0.015649   0.326710   4.993982
     7  C    0.002556  -0.014439   0.002048  -0.029051  -0.036125   0.399793
     8  C   -0.079474   0.352840  -0.026011  -0.006176  -0.113658  -0.032366
     9  O    0.002193  -0.043853  -0.008349  -0.052424   0.386674  -0.052687
    10  H    0.360064  -0.018552   0.002788  -0.003498   0.000532  -0.000190
    11  H    0.363896  -0.018200  -0.002463   0.005096  -0.000155   0.000004
    12  H    0.355989  -0.004837   0.001897  -0.005479   0.000118  -0.000044
    13  H   -0.001861  -0.021862  -0.024103   0.367316  -0.059070   0.002921
    14  H   -0.000127   0.002322  -0.000425  -0.036101   0.371997  -0.047980
    15  H    0.000066   0.002382   0.000122  -0.003286  -0.023198   0.354442
    16  H   -0.000006   0.001102  -0.000057   0.001690  -0.015424   0.364281
    17  H   -0.000358  -0.004897   0.000160   0.002676   0.001140  -0.024363
    18  H   -0.000119   0.000798  -0.000061   0.000983  -0.000073  -0.024474
    19  H   -0.000772  -0.039465  -0.000232   0.007505   0.005491   0.004937
               7          8          9         10         11         12
     1  C    0.002556  -0.079474   0.002193   0.360064   0.363896   0.355989
     2  C   -0.014439   0.352840  -0.043853  -0.018552  -0.018200  -0.004837
     3  O    0.002048  -0.026011  -0.008349   0.002788  -0.002463   0.001897
     4  C   -0.029051  -0.006176  -0.052424  -0.003498   0.005096  -0.005479
     5  C   -0.036125  -0.113658   0.386674   0.000532  -0.000155   0.000118
     6  C    0.399793  -0.032366  -0.052687  -0.000190   0.000004  -0.000044
     7  C    4.996007   0.327888  -0.049056  -0.000068   0.000098  -0.000085
     8  C    0.327888   4.880984   0.374015   0.001206  -0.002398   0.003987
     9  O   -0.049056   0.374015   7.717918   0.000072   0.000003  -0.000070
    10  H   -0.000068   0.001206   0.000072   0.589330  -0.033789  -0.026718
    11  H    0.000098  -0.002398   0.000003  -0.033789   0.585446  -0.031426
    12  H   -0.000085   0.003987  -0.000070  -0.026718  -0.031426   0.571383
    13  H    0.001044   0.002682   0.002245  -0.000035  -0.000019   0.001170
    14  H    0.004426   0.006977  -0.021025  -0.000003   0.000004  -0.000004
    15  H   -0.024368   0.000974   0.003045  -0.000079   0.000000  -0.000001
    16  H   -0.024331   0.000037   0.000044   0.000005   0.000000   0.000000
    17  H    0.353542  -0.021191   0.003084   0.004180   0.000020  -0.000084
    18  H    0.362777  -0.014333  -0.000030  -0.000101  -0.000006   0.000005
    19  H   -0.049796   0.366088  -0.020974  -0.000265   0.002093  -0.000148
              13         14         15         16         17         18
     1  C   -0.001861  -0.000127   0.000066  -0.000006  -0.000358  -0.000119
     2  C   -0.021862   0.002322   0.002382   0.001102  -0.004897   0.000798
     3  O   -0.024103  -0.000425   0.000122  -0.000057   0.000160  -0.000061
     4  C    0.367316  -0.036101  -0.003286   0.001690   0.002676   0.000983
     5  C   -0.059070   0.371997  -0.023198  -0.015424   0.001140  -0.000073
     6  C    0.002921  -0.047980   0.354442   0.364281  -0.024363  -0.024474
     7  C    0.001044   0.004426  -0.024368  -0.024331   0.353542   0.362777
     8  C    0.002682   0.006977   0.000974   0.000037  -0.021191  -0.014333
     9  O    0.002245  -0.021025   0.003045   0.000044   0.003084  -0.000030
    10  H   -0.000035  -0.000003  -0.000079   0.000005   0.004180  -0.000101
    11  H   -0.000019   0.000004   0.000000   0.000000   0.000020  -0.000006
    12  H    0.001170  -0.000004  -0.000001   0.000000  -0.000084   0.000005
    13  H    0.630280   0.000669   0.001773  -0.000303   0.000008   0.000006
    14  H    0.000669   0.632401   0.003327  -0.002319  -0.000131  -0.000121
    15  H    0.001773   0.003327   0.628841  -0.041621  -0.006744   0.004134
    16  H   -0.000303  -0.002319  -0.041621   0.612571   0.003994  -0.010017
    17  H    0.000008  -0.000131  -0.006744   0.003994   0.624526  -0.040844
    18  H    0.000006  -0.000121   0.004134  -0.010017  -0.040844   0.613652
    19  H   -0.000106  -0.000238  -0.000123  -0.000112   0.003205  -0.002283
              19
     1  C   -0.000772
     2  C   -0.039465
     3  O   -0.000232
     4  C    0.007505
     5  C    0.005491
     6  C    0.004937
     7  C   -0.049796
     8  C    0.366088
     9  O   -0.020974
    10  H   -0.000265
    11  H    0.002093
    12  H   -0.000148
    13  H   -0.000106
    14  H   -0.000238
    15  H   -0.000123
    16  H   -0.000112
    17  H    0.003205
    18  H   -0.002283
    19  H    0.643069
 Mulliken charges:
               1
     1  C   -0.497028
     2  C    0.431926
     3  O   -0.287241
     4  C   -0.041563
     5  C    0.023740
     6  C   -0.224032
     7  C   -0.222859
     8  C   -0.022069
     9  O   -0.240827
    10  H    0.125119
    11  H    0.131797
    12  H    0.134350
    13  H    0.097245
    14  H    0.086352
    15  H    0.100314
    16  H    0.110466
    17  H    0.102076
    18  H    0.110108
    19  H    0.082127
 Sum of Mulliken charges =   0.00000
 Mulliken charges with hydrogens summed into heavy atoms:
               1
     1  C   -0.105762
     2  C    0.431926
     3  O   -0.287241
     4  C    0.055682
     5  C    0.110092
     6  C   -0.013252
     7  C   -0.010675
     8  C    0.060058
     9  O   -0.240827
 Electronic spatial extent (au):  <R**2>=            942.3524
 Charge=              0.0000 electrons
 Dipole moment (field-independent basis, Debye):
    X=             -0.4224    Y=              2.1249    Z=             -1.9977  Tot=              2.9470
 Quadrupole moment (field-independent basis, Debye-Ang):
   XX=            -52.9568   YY=            -53.7172   ZZ=            -52.7662
   XY=              2.9058   XZ=              0.6993   YZ=              3.8832
 Traceless Quadrupole moment (field-independent basis, Debye-Ang):
   XX=              0.1899   YY=             -0.5705   ZZ=              0.3805
   XY=              2.9058   XZ=              0.6993   YZ=              3.8832
 Octapole moment (field-independent basis, Debye-Ang**2):
  XXX=             -0.8319  YYY=             -6.2753  ZZZ=              3.2718  XYY=             -4.5129
  XXY=              1.6239  XXZ=             -0.7471  XZZ=              4.7954  YZZ=             -0.0033
  YYZ=             -1.1344  XYZ=             -0.1855
 Hexadecapole moment (field-independent basis, Debye-Ang**3):
 XXXX=           -618.3088 YYYY=           -363.7822 ZZZZ=           -217.3838 XXXY=              3.4147
 XXXZ=             -2.8019 YYYX=              5.9932 YYYZ=             -0.6888 ZZZX=             -1.1479
 ZZZY=              4.8842 XXYY=           -169.5622 XXZZ=           -143.3682 YYZZ=            -97.7486
 XXYZ=              5.5741 YYXZ=             -3.0702 ZZXY=             -4.1773
 N-N= 4.935377549411D+02 E-N=-1.973828053659D+03  KE= 4.200672025326D+02
 Calling FoFJK, ICntrl=      2127 FMM=F ISym2X=0 I1Cent= 0 IOpClX= 0 NMat=1 NMatS=1 NMatT=0.
 ***** Axes restored to original set *****
 -------------------------------------------------------------------
 Center     Atomic                   Forces (Hartrees/Bohr)
 Number     Number              X              Y              Z
 -------------------------------------------------------------------
      1        6          -0.000085788    0.000011624   -0.000054638
      2        6           0.000142444    0.000056953   -0.000052092
      3        8          -0.000045454   -0.000075691    0.000012022
      4        6           0.000010364    0.000036584    0.000065981
      5        6          -0.000053144    0.000017997    0.000032673
      6        6           0.000052169   -0.000034648   -0.000034904
      7        6          -0.000058955    0.000001911   -0.000047562
      8        6          -0.000015700   -0.000010556    0.000078654
      9        8           0.000014355    0.000016065   -0.000046301
     10        1           0.000023773   -0.000007264    0.000014498
     11        1           0.000012440   -0.000006542    0.000017062
     12        1           0.000023134    0.000004365    0.000007737
     13        1           0.000007294    0.000021728    0.000011900
     14        1          -0.000007145    0.000007493    0.000007111
     15        1          -0.000003541   -0.000000176    0.000003549
     16        1          -0.000018336    0.000001726    0.000012677
     17        1           0.000009867   -0.000016885   -0.000016633
     18        1           0.000004233   -0.000011271   -0.000005002
     19        1          -0.000012010   -0.000013413   -0.000006733
 -------------------------------------------------------------------
 Cartesian Forces:  Max     0.000142444 RMS     0.000037275

 GradGradGradGradGradGradGradGradGradGradGradGradGradGradGradGradGradGrad
 Berny optimization.
 FormGI is forming the generalized inverse of G from B-inverse, IUseBI=4.
 Internal  Forces:  Max     0.000053563 RMS     0.000014522
 Search for a local minimum.
 Step number   1 out of a maximum of  114
 All quantities printed in internal units (Hartrees-Bohrs-Radians)
 Mixed Optimization -- En-DIIS/RFO-DIIS
 Second derivative matrix not updated -- first step.
 ITU=  0
     Eigenvalues ---    0.00443   0.00757   0.01375   0.01856   0.02121
     Eigenvalues ---    0.02281   0.03289   0.03529   0.04206   0.05155
     Eigenvalues ---    0.05240   0.05673   0.05739   0.05881   0.06286
     Eigenvalues ---    0.06396   0.06440   0.07118   0.07463   0.09251
     Eigenvalues ---    0.09936   0.10715   0.12287   0.13773   0.14094
     Eigenvalues ---    0.16000   0.16000   0.16000   0.16689   0.21388
     Eigenvalues ---    0.21795   0.22984   0.25385   0.25798   0.27334
     Eigenvalues ---    0.27404   0.28584   0.32305   0.34145   0.34301
     Eigenvalues ---    0.34362   0.34505   0.34510   0.34570   0.34601
     Eigenvalues ---    0.34611   0.34776   0.34787   0.34869   0.35256
     Eigenvalues ---    0.39355
 RFO step:  Lambda=-1.74685808D-07 EMin= 4.43001409D-03
 Linear search not attempted -- first point.
 Iteration  1 RMS(Cart)=  0.00021025 RMS(Int)=  0.00000003
 Iteration  2 RMS(Cart)=  0.00000004 RMS(Int)=  0.00000001
 Variable       Old X    -DE/DX   Delta X   Delta X   Delta X     New X
                                 (Linear)    (Quad)   (Total)
    R1        2.83589   0.00003   0.00000   0.00010   0.00010   2.83600
    R2        2.06825   0.00000   0.00000  -0.00001  -0.00001   2.06824
    R3        2.07086  -0.00001   0.00000  -0.00002  -0.00002   2.07083
    R4        2.06486   0.00000   0.00000   0.00001   0.00001   2.06486
    R5        2.71197  -0.00005   0.00000  -0.00017  -0.00017   2.71180
    R6        2.77545   0.00000   0.00000   0.00003   0.00003   2.77547
    R7        2.91850   0.00003   0.00000   0.00012   0.00012   2.91863
    R8        2.69761  -0.00005   0.00000  -0.00007  -0.00007   2.69754
    R9        2.90272  -0.00001   0.00000  -0.00003  -0.00003   2.90269
   R10        2.05261   0.00000   0.00000  -0.00001  -0.00001   2.05261
   R11        2.93132   0.00003   0.00000   0.00012   0.00012   2.93144
   R12        2.70169  -0.00003   0.00000  -0.00010  -0.00010   2.70159
   R13        2.05888   0.00000   0.00000   0.00000   0.00000   2.05888
   R14        2.95336   0.00003   0.00000   0.00009   0.00009   2.95345
   R15        2.06723  -0.00001   0.00000  -0.00002  -0.00002   2.06722
   R16        2.06312   0.00001   0.00000   0.00002   0.00002   2.06314
   R17        2.93667   0.00002   0.00000   0.00005   0.00005   2.93672
   R18        2.06479   0.00001   0.00000   0.00002   0.00002   2.06480
   R19        2.06327   0.00000   0.00000   0.00001   0.00001   2.06328
   R20        2.69909  -0.00002   0.00000  -0.00005  -0.00005   2.69904
   R21        2.06023   0.00000   0.00000   0.00000   0.00000   2.06022
    A1        1.94796  -0.00003   0.00000  -0.00022  -0.00022   1.94774
    A2        1.92758  -0.00002   0.00000  -0.00014  -0.00014   1.92744
    A3        1.92879   0.00000   0.00000  -0.00001  -0.00001   1.92878
    A4        1.87872   0.00002   0.00000   0.00011   0.00011   1.87883
    A5        1.89494   0.00002   0.00000   0.00012   0.00012   1.89505
    A6        1.88388   0.00002   0.00000   0.00016   0.00016   1.88404
    A7        2.04356   0.00003   0.00000   0.00022   0.00022   2.04379
    A8        2.22697   0.00005   0.00000   0.00028   0.00028   2.22726
    A9        2.13818  -0.00005   0.00000  -0.00026  -0.00026   2.13791
   A10        1.96266   0.00000   0.00000  -0.00010  -0.00010   1.96257
   A11        1.77970  -0.00001   0.00000   0.00002   0.00002   1.77972
   A12        1.80885   0.00000   0.00000  -0.00007  -0.00007   1.80879
   A13        2.17576   0.00000   0.00000   0.00001   0.00001   2.17577
   A14        1.97972   0.00001   0.00000   0.00010   0.00010   1.97982
   A15        2.05114   0.00000   0.00000  -0.00007  -0.00007   2.05107
   A16        2.13243   0.00000   0.00000   0.00004   0.00004   2.13247
   A17        1.85411   0.00000   0.00000   0.00011   0.00011   1.85421
   A18        1.78443   0.00000   0.00000  -0.00009  -0.00009   1.78435
   A19        2.04652  -0.00001   0.00000  -0.00011  -0.00011   2.04641
   A20        1.78897   0.00001   0.00000   0.00013   0.00013   1.78910
   A21        2.03799   0.00000   0.00000   0.00001   0.00001   2.03800
   A22        1.91831   0.00000   0.00000  -0.00003  -0.00003   1.91828
   A23        1.75978   0.00000   0.00000   0.00000   0.00000   1.75978
   A24        1.96396   0.00001   0.00000   0.00017   0.00017   1.96413
   A25        1.93328   0.00000   0.00000  -0.00005  -0.00005   1.93323
   A26        1.97048   0.00000   0.00000   0.00000   0.00000   1.97048
   A27        1.94989  -0.00001   0.00000  -0.00021  -0.00021   1.94969
   A28        1.88575   0.00000   0.00000   0.00007   0.00007   1.88582
   A29        1.76304  -0.00001   0.00000  -0.00007  -0.00007   1.76296
   A30        1.97179   0.00000   0.00000  -0.00002  -0.00002   1.97177
   A31        1.94510  -0.00001   0.00000  -0.00012  -0.00012   1.94498
   A32        1.97731   0.00002   0.00000   0.00018   0.00018   1.97749
   A33        1.92250   0.00000   0.00000  -0.00003  -0.00003   1.92247
   A34        1.88336   0.00000   0.00000   0.00005   0.00005   1.88341
   A35        1.86462   0.00000   0.00000  -0.00013  -0.00013   1.86449
   A36        1.79676  -0.00001   0.00000  -0.00011  -0.00011   1.79665
   A37        2.04019   0.00001   0.00000   0.00004   0.00004   2.04022
   A38        1.77874   0.00002   0.00000   0.00022   0.00022   1.77896
   A39        2.03284   0.00000   0.00000  -0.00002  -0.00002   2.03282
   A40        1.91863   0.00000   0.00000   0.00002   0.00002   1.91865
   A41        1.70443   0.00001   0.00000   0.00000   0.00000   1.70444
    D1        2.84437   0.00001   0.00000   0.00013   0.00013   2.84450
    D2        1.61931  -0.00001   0.00000  -0.00009  -0.00009   1.61922
    D3       -0.88060   0.00000   0.00000  -0.00016  -0.00016  -0.88075
    D4       -1.34954   0.00001   0.00000   0.00003   0.00003  -1.34951
    D5       -2.57461  -0.00001   0.00000  -0.00019  -0.00019  -2.57480
    D6        1.20867  -0.00001   0.00000  -0.00026  -0.00026   1.20842
    D7        0.73378   0.00001   0.00000   0.00014   0.00014   0.73392
    D8       -0.49128  -0.00001   0.00000  -0.00008  -0.00008  -0.49136
    D9       -2.99118   0.00000   0.00000  -0.00015  -0.00015  -2.99133
   D10       -2.59541   0.00002   0.00000   0.00032   0.00032  -2.59509
   D11       -0.03818   0.00002   0.00000   0.00030   0.00030  -0.03789
   D12        0.00402   0.00000   0.00000   0.00028   0.00028   0.00430
   D13        2.56125   0.00000   0.00000   0.00025   0.00025   2.56150
   D14        1.33750   0.00000   0.00000  -0.00014  -0.00014   1.33736
   D15       -3.07975   0.00002   0.00000   0.00001   0.00001  -3.07973
   D16       -0.97520   0.00001   0.00000  -0.00001  -0.00001  -0.97521
   D17       -2.36346   0.00000   0.00000  -0.00031  -0.00031  -2.36377
   D18       -0.49752   0.00001   0.00000  -0.00016  -0.00016  -0.49768
   D19        1.60703   0.00000   0.00000  -0.00019  -0.00019   1.60684
   D20       -1.29797  -0.00002   0.00000  -0.00031  -0.00031  -1.29828
   D21        0.56797   0.00000   0.00000  -0.00016  -0.00016   0.56781
   D22        2.67252  -0.00001   0.00000  -0.00018  -0.00018   2.67233
   D23        1.29637   0.00001   0.00000  -0.00020  -0.00020   1.29617
   D24       -0.57267   0.00000   0.00000  -0.00034  -0.00034  -0.57301
   D25       -2.67143   0.00000   0.00000  -0.00019  -0.00019  -2.67162
   D26        2.38246  -0.00001   0.00000  -0.00029  -0.00029   2.38217
   D27        0.51342  -0.00002   0.00000  -0.00043  -0.00043   0.51299
   D28       -1.58534  -0.00001   0.00000  -0.00028  -0.00028  -1.58562
   D29       -1.27939   0.00001   0.00000  -0.00017  -0.00017  -1.27956
   D30        3.13475   0.00000   0.00000  -0.00031  -0.00031   3.13445
   D31        1.03599   0.00001   0.00000  -0.00015  -0.00015   1.03584
   D32       -1.28131  -0.00001   0.00000  -0.00002  -0.00002  -1.28132
   D33        0.82262  -0.00001   0.00000   0.00006   0.00006   0.82268
   D34        2.93554   0.00000   0.00000   0.00024   0.00024   2.93578
   D35        0.58448  -0.00001   0.00000  -0.00003  -0.00003   0.58445
   D36        2.68840   0.00000   0.00000   0.00005   0.00005   2.68845
   D37       -1.48186   0.00001   0.00000   0.00023   0.00023  -1.48163
   D38        2.68180   0.00000   0.00000   0.00003   0.00003   2.68183
   D39       -1.49746   0.00000   0.00000   0.00011   0.00011  -1.49734
   D40        0.61546   0.00001   0.00000   0.00029   0.00029   0.61575
   D41        0.92444   0.00002   0.00000   0.00032   0.00032   0.92476
   D42       -0.99442   0.00001   0.00000   0.00019   0.00019  -0.99423
   D43        3.11030   0.00000   0.00000   0.00012   0.00012   3.11042
   D44        0.01643   0.00000   0.00000  -0.00007  -0.00007   0.01636
   D45        2.13415   0.00001   0.00000   0.00009   0.00009   2.13423
   D46       -2.02508   0.00001   0.00000   0.00005   0.00005  -2.02503
   D47       -2.08285  -0.00001   0.00000  -0.00027  -0.00027  -2.08312
   D48        0.03487   0.00000   0.00000  -0.00012  -0.00012   0.03475
   D49        2.15882   0.00000   0.00000  -0.00015  -0.00015   2.15868
   D50        2.07065  -0.00001   0.00000  -0.00021  -0.00021   2.07043
   D51       -2.09482   0.00000   0.00000  -0.00006  -0.00006  -2.09488
   D52        0.02913   0.00000   0.00000  -0.00009  -0.00009   0.02904
   D53        1.26605   0.00000   0.00000   0.00007   0.00007   1.26612
   D54       -0.61267   0.00001   0.00000   0.00015   0.00015  -0.61252
   D55       -2.70043   0.00000   0.00000  -0.00002  -0.00002  -2.70045
   D56       -0.84778   0.00000   0.00000   0.00006   0.00006  -0.84772
   D57       -2.72649   0.00001   0.00000   0.00013   0.00013  -2.72636
   D58        1.46893   0.00000   0.00000  -0.00003  -0.00003   1.46889
   D59       -2.95910  -0.00001   0.00000  -0.00011  -0.00011  -2.95921
   D60        1.44538   0.00000   0.00000  -0.00004  -0.00004   1.44534
   D61       -0.64239  -0.00001   0.00000  -0.00020  -0.00020  -0.64259
   D62       -0.92911   0.00000   0.00000  -0.00008  -0.00008  -0.92919
   D63        1.00162  -0.00001   0.00000  -0.00019  -0.00019   1.00144
   D64       -3.11503   0.00000   0.00000  -0.00008  -0.00008  -3.11510
         Item               Value     Threshold  Converged?
 Maximum Force            0.000054     0.000450     YES
 RMS     Force            0.000015     0.000300     YES
 Maximum Displacement     0.000798     0.001800     YES
 RMS     Displacement     0.000210     0.001200     YES
 Predicted change in Energy=-8.734414D-08
 Optimization completed.
    -- Stationary point found.
                           ----------------------------
                           !   Optimized Parameters   !
                           ! (Angstroms and Degrees)  !
 --------------------------                            --------------------------
 ! Name  Definition              Value          Derivative Info.                !
 --------------------------------------------------------------------------------
 ! R1    R(1,2)                  1.5007         -DE/DX =    0.0                 !
 ! R2    R(1,10)                 1.0945         -DE/DX =    0.0                 !
 ! R3    R(1,11)                 1.0958         -DE/DX =    0.0                 !
 ! R4    R(1,12)                 1.0927         -DE/DX =    0.0                 !
 ! R5    R(2,3)                  1.4351         -DE/DX =    0.0                 !
 ! R6    R(2,4)                  1.4687         -DE/DX =    0.0                 !
 ! R7    R(2,8)                  1.5444         -DE/DX =    0.0                 !
 ! R8    R(3,4)                  1.4275         -DE/DX =    0.0                 !
 ! R9    R(4,5)                  1.5361         -DE/DX =    0.0                 !
 ! R10   R(4,13)                 1.0862         -DE/DX =    0.0                 !
 ! R11   R(5,6)                  1.5512         -DE/DX =    0.0                 !
 ! R12   R(5,9)                  1.4297         -DE/DX =    0.0                 !
 ! R13   R(5,14)                 1.0895         -DE/DX =    0.0                 !
 ! R14   R(6,7)                  1.5629         -DE/DX =    0.0                 !
 ! R15   R(6,15)                 1.0939         -DE/DX =    0.0                 !
 ! R16   R(6,16)                 1.0918         -DE/DX =    0.0                 !
 ! R17   R(7,8)                  1.554          -DE/DX =    0.0                 !
 ! R18   R(7,17)                 1.0926         -DE/DX =    0.0                 !
 ! R19   R(7,18)                 1.0918         -DE/DX =    0.0                 !
 ! R20   R(8,9)                  1.4283         -DE/DX =    0.0                 !
 ! R21   R(8,19)                 1.0902         -DE/DX =    0.0                 !
 ! A1    A(2,1,10)             111.61           -DE/DX =    0.0                 !
 ! A2    A(2,1,11)             110.442          -DE/DX =    0.0                 !
 ! A3    A(2,1,12)             110.5114         -DE/DX =    0.0                 !
 ! A4    A(10,1,11)            107.6428         -DE/DX =    0.0                 !
 ! A5    A(10,1,12)            108.5719         -DE/DX =    0.0                 !
 ! A6    A(11,1,12)            107.9383         -DE/DX =    0.0                 !
 ! A7    A(1,2,3)              117.0875         -DE/DX =    0.0                 !
 ! A8    A(1,2,4)              127.5961         -DE/DX =    0.0001              !
 ! A9    A(1,2,8)              122.5085         -DE/DX =    0.0                 !
 ! A10   A(3,2,8)              112.4524         -DE/DX =    0.0                 !
 ! A11   A(4,2,8)              101.9695         -DE/DX =    0.0                 !
 ! A12   A(2,4,5)              103.6397         -DE/DX =    0.0                 !
 ! A13   A(2,4,13)             124.6619         -DE/DX =    0.0                 !
 ! A14   A(3,4,5)              113.4297         -DE/DX =    0.0                 !
 ! A15   A(3,4,13)             117.5217         -DE/DX =    0.0                 !
 ! A16   A(5,4,13)             122.1794         -DE/DX =    0.0                 !
 ! A17   A(4,5,6)              106.2325         -DE/DX =    0.0                 !
 ! A18   A(4,5,9)              102.2405         -DE/DX =    0.0                 !
 ! A19   A(4,5,14)             117.2569         -DE/DX =    0.0                 !
 ! A20   A(6,5,9)              102.5007         -DE/DX =    0.0                 !
 ! A21   A(6,5,14)             116.7683         -DE/DX =    0.0                 !
 ! A22   A(9,5,14)             109.9109         -DE/DX =    0.0                 !
 ! A23   A(5,6,7)              100.828          -DE/DX =    0.0                 !
 ! A24   A(5,6,15)             112.5265         -DE/DX =    0.0                 !
 ! A25   A(5,6,16)             110.7687         -DE/DX =    0.0                 !
 ! A26   A(7,6,15)             112.9001         -DE/DX =    0.0                 !
 ! A27   A(7,6,16)             111.7206         -DE/DX =    0.0                 !
 ! A28   A(15,6,16)            108.0453         -DE/DX =    0.0                 !
 ! A29   A(6,7,8)              101.0145         -DE/DX =    0.0                 !
 ! A30   A(6,7,17)             112.9752         -DE/DX =    0.0                 !
 ! A31   A(6,7,18)             111.4458         -DE/DX =    0.0                 !
 ! A32   A(8,7,17)             113.2916         -DE/DX =    0.0                 !
 ! A33   A(8,7,18)             110.1508         -DE/DX =    0.0                 !
 ! A34   A(17,7,18)            107.9085         -DE/DX =    0.0                 !
 ! A35   A(2,8,7)              106.8346         -DE/DX =    0.0                 !
 ! A36   A(2,8,9)              102.9468         -DE/DX =    0.0                 !
 ! A37   A(2,8,19)             116.8941         -DE/DX =    0.0                 !
 ! A38   A(7,8,9)              101.9143         -DE/DX =    0.0                 !
 ! A39   A(7,8,19)             116.4734         -DE/DX =    0.0                 !
 ! A40   A(9,8,19)             109.9293         -DE/DX =    0.0                 !
 ! A41   A(5,9,8)               97.6568         -DE/DX =    0.0                 !
 ! D1    D(10,1,2,3)           162.9705         -DE/DX =    0.0                 !
 ! D2    D(10,1,2,4)            92.7794         -DE/DX =    0.0                 !
 ! D3    D(10,1,2,8)           -50.4544         -DE/DX =    0.0                 !
 ! D4    D(11,1,2,3)           -77.3232         -DE/DX =    0.0                 !
 ! D5    D(11,1,2,4)          -147.5143         -DE/DX =    0.0                 !
 ! D6    D(11,1,2,8)            69.2519         -DE/DX =    0.0                 !
 ! D7    D(12,1,2,3)            42.0427         -DE/DX =    0.0                 !
 ! D8    D(12,1,2,4)           -28.1484         -DE/DX =    0.0                 !
 ! D9    D(12,1,2,8)          -171.3822         -DE/DX =    0.0                 !
 ! D10   D(1,2,4,5)           -148.7062         -DE/DX =    0.0                 !
 ! D11   D(1,2,4,13)            -2.1878         -DE/DX =    0.0                 !
 ! D12   D(8,2,4,5)              0.2305         -DE/DX =    0.0                 !
 ! D13   D(8,2,4,13)           146.7489         -DE/DX =    0.0                 !
 ! D14   D(1,2,8,7)             76.633          -DE/DX =    0.0                 !
 ! D15   D(1,2,8,9)           -176.4565         -DE/DX =    0.0                 !
 ! D16   D(1,2,8,19)           -55.8748         -DE/DX =    0.0                 !
 ! D17   D(3,2,8,7)           -135.4162         -DE/DX =    0.0                 !
 ! D18   D(3,2,8,9)            -28.5057         -DE/DX =    0.0                 !
 ! D19   D(3,2,8,19)            92.0761         -DE/DX =    0.0                 !
 ! D20   D(4,2,8,7)            -74.3682         -DE/DX =    0.0                 !
 ! D21   D(4,2,8,9)             32.5423         -DE/DX =    0.0                 !
 ! D22   D(4,2,8,19)           153.124          -DE/DX =    0.0                 !
 ! D23   D(2,4,5,6)             74.2768         -DE/DX =    0.0                 !
 ! D24   D(2,4,5,9)            -32.8115         -DE/DX =    0.0                 !
 ! D25   D(2,4,5,14)          -153.0616         -DE/DX =    0.0                 !
 ! D26   D(3,4,5,6)            136.5049         -DE/DX =    0.0                 !
 ! D27   D(3,4,5,9)             29.4167         -DE/DX =    0.0                 !
 ! D28   D(3,4,5,14)           -90.8334         -DE/DX =    0.0                 !
 ! D29   D(13,4,5,6)           -73.3036         -DE/DX =    0.0                 !
 ! D30   D(13,4,5,9)           179.6081         -DE/DX =    0.0                 !
 ! D31   D(13,4,5,14)           59.358          -DE/DX =    0.0                 !
 ! D32   D(4,5,6,7)            -73.4134         -DE/DX =    0.0                 !
 ! D33   D(4,5,6,15)            47.1327         -DE/DX =    0.0                 !
 ! D34   D(4,5,6,16)           168.194          -DE/DX =    0.0                 !
 ! D35   D(9,5,6,7)             33.4881         -DE/DX =    0.0                 !
 ! D36   D(9,5,6,15)           154.0343         -DE/DX =    0.0                 !
 ! D37   D(9,5,6,16)           -84.9045         -DE/DX =    0.0                 !
 ! D38   D(14,5,6,7)           153.656          -DE/DX =    0.0                 !
 ! D39   D(14,5,6,15)          -85.7979         -DE/DX =    0.0                 !
 ! D40   D(14,5,6,16)           35.2633         -DE/DX =    0.0                 !
 ! D41   D(4,5,9,8)             52.9668         -DE/DX =    0.0                 !
 ! D42   D(6,5,9,8)            -56.976          -DE/DX =    0.0                 !
 ! D43   D(14,5,9,8)           178.2072         -DE/DX =    0.0                 !
 ! D44   D(5,6,7,8)              0.9413         -DE/DX =    0.0                 !
 ! D45   D(5,6,7,17)           122.2776         -DE/DX =    0.0                 !
 ! D46   D(5,6,7,18)          -116.0287         -DE/DX =    0.0                 !
 ! D47   D(15,6,7,8)          -119.3385         -DE/DX =    0.0                 !
 ! D48   D(15,6,7,17)            1.9979         -DE/DX =    0.0                 !
 ! D49   D(15,6,7,18)          123.6915         -DE/DX =    0.0                 !
 ! D50   D(16,6,7,8)           118.6392         -DE/DX =    0.0                 !
 ! D51   D(16,6,7,17)         -120.0244         -DE/DX =    0.0                 !
 ! D52   D(16,6,7,18)            1.6692         -DE/DX =    0.0                 !
 ! D53   D(6,7,8,2)             72.5391         -DE/DX =    0.0                 !
 ! D54   D(6,7,8,9)            -35.1032         -DE/DX =    0.0                 !
 ! D55   D(6,7,8,19)          -154.7233         -DE/DX =    0.0                 !
 ! D56   D(17,7,8,2)           -48.5743         -DE/DX =    0.0                 !
 ! D57   D(17,7,8,9)          -156.2166         -DE/DX =    0.0                 !
 ! D58   D(17,7,8,19)           84.1633         -DE/DX =    0.0                 !
 ! D59   D(18,7,8,2)          -169.5438         -DE/DX =    0.0                 !
 ! D60   D(18,7,8,9)            82.8139         -DE/DX =    0.0                 !
 ! D61   D(18,7,8,19)          -36.8062         -DE/DX =    0.0                 !
 ! D62   D(2,8,9,5)            -53.2338         -DE/DX =    0.0                 !
 ! D63   D(7,8,9,5)             57.3889         -DE/DX =    0.0                 !
 ! D64   D(19,8,9,5)          -178.4779         -DE/DX =    0.0                 !
 --------------------------------------------------------------------------------
 GradGradGradGradGradGradGradGradGradGradGradGradGradGradGradGradGradGrad

                          Input orientation:                          
 ---------------------------------------------------------------------
 Center     Atomic      Atomic             Coordinates (Angstroms)
 Number     Number       Type             X           Y           Z
 ---------------------------------------------------------------------
      1          6           0        0.391307    0.132972   -2.083388
      2          6           0        1.157109   -0.046849   -0.805390
      3          8           0        2.221043    0.880423   -0.545100
      4          6           0        2.543203   -0.506420   -0.648451
      5          6           0        2.531408   -1.238475    0.701891
      6          6           0        1.804699   -2.586979    0.457730
      7          6           0        0.324967   -2.102721    0.322101
      8          6           0        0.498299   -0.567637    0.490736
      9          8           0        1.561146   -0.493641    1.442008
     10          1           0       -0.179160   -0.764789   -2.341190
     11          1           0       -0.318791    0.962452   -1.990598
     12          1           0        1.070750    0.362248   -2.907844
     13          1           0        3.189066   -0.812056   -1.466539
     14          1           0        3.468920   -1.279476    1.255454
     15          1           0        2.167449   -3.102696   -0.436214
     16          1           0        1.934190   -3.256457    1.310349
     17          1           0       -0.130232   -2.384042   -0.630532
     18          1           0       -0.300435   -2.500923    1.123611
     19          1           0       -0.368534   -0.018167    0.858534
 ---------------------------------------------------------------------
                    Distance matrix (angstroms):
                    1          2          3          4          5
     1  C    0.000000
     2  C    1.500689   0.000000
     3  O    2.504586   1.435110   0.000000
     4  C    2.664306   1.468704   1.427516   0.000000
     5  C    3.770766   2.362322   2.478112   1.536055   0.000000
     6  C    3.981594   2.909828   3.633440   2.469362   1.551188
     7  C    3.284677   2.488032   3.639546   2.900124   2.399905
     8  C    2.669909   1.544406   2.477434   2.341608   2.151312
     9  O    3.766907   2.326729   2.504419   2.309679   1.429671
    10  H    1.094472   2.158642   3.419596   3.216113   4.102669
    11  H    1.095849   2.145155   2.923517   3.485679   4.496355
    12  H    1.092675   2.143626   2.678477   2.833295   4.210228
    13  H    3.016793   2.269694   2.156526   1.086196   2.305739
    14  H    4.755479   3.333304   3.076419   2.253757   1.089515
    15  H    4.041957   3.239642   3.984968   2.631898   2.214287
    16  H    5.038469   3.921962   4.542989   3.430816   2.190695
    17  H    2.952651   2.674002   4.023993   3.266962   3.189357
    18  H    4.207226   3.444989   4.536072   3.899297   3.129050
    19  H    3.042220   2.257665   3.079539   3.314756   3.150135
                    6          7          8          9         10
     6  C    0.000000
     7  C    1.562852   0.000000
     8  C    2.405309   1.554016   0.000000
     9  O    2.325980   2.317643   1.428299   0.000000
    10  H    3.884588   3.022801   2.918496   4.173101   0.000000
    11  H    4.806452   3.893365   3.027511   4.175782   1.767986
    12  H    4.534722   4.130957   3.569696   4.460297   1.775833
    13  H    2.961357   3.614985   3.336300   3.348307   3.480259
    14  H    2.261760   3.381319   3.148984   2.071700   5.148713
    15  H    1.093932   2.229289   3.173614   3.271466   3.821167
    16  H    1.091755   2.212993   3.156470   2.790994   4.899836
    17  H    2.229227   1.092638   2.225223   3.275637   2.355997
    18  H    2.209613   1.091838   2.185429   2.756091   3.877333
    19  H    3.388566   2.261431   1.090225   2.071276   3.291130
                   11         12         13         14         15
    11  H    0.000000
    12  H    1.769862   0.000000
    13  H    3.965928   2.818442   0.000000
    14  H    5.468990   5.077355   2.775976   0.000000
    15  H    5.012278   4.395172   2.711513   2.807080   0.000000
    16  H    5.811314   5.624385   3.906522   2.503371   1.768766
    17  H    3.617230   3.764387   3.766668   4.210808   2.415277
    18  H    4.657639   5.131327   4.662378   3.964512   2.980878
    19  H    3.013576   4.049920   4.323511   4.058879   4.197845
                   16         17         18         19
    16  H    0.000000
    17  H    2.964788   0.000000
    18  H    2.366273   1.766253   0.000000
    19  H    3.999149   2.805614   2.497795   0.000000
 Stoichiometry    C7H10O2
 Framework group  C1[X(C7H10O2)]
 Deg. of freedom    51
 Full point group                 C1      NOp   1
 Largest Abelian subgroup         C1      NOp   1
 Largest concise Abelian subgroup C1      NOp   1
                         Standard orientation:                         
 ---------------------------------------------------------------------
 Center     Atomic      Atomic             Coordinates (Angstroms)
 Number     Number       Type             X           Y           Z
 ---------------------------------------------------------------------
      1          6           0        2.150636    1.006240   -0.306480
      2          6           0        1.017672    0.097060    0.070154
      3          8           0        1.330706   -1.289320    0.268907
      4          6           0        0.395113   -0.947406   -0.753620
      5          6           0       -1.064694   -0.963379   -0.275943
      6          6           0       -1.728663    0.307262   -0.868226
      7          6           0       -1.090981    1.416970    0.028666
      8          6           0       -0.167226    0.565229    0.943094
      9          8           0       -0.934531   -0.628156    1.107763
     10          1           0        1.787838    1.951340   -0.722450
     11          1           0        2.760209    1.242682    0.572953
     12          1           0        2.797308    0.526393   -1.045060
     13          1           0        0.670221   -1.170136   -1.780522
     14          1           0       -1.613916   -1.898439   -0.381115
     15          1           0       -1.506721    0.439370   -1.931230
     16          1           0       -2.813442    0.267366   -0.751641
     17          1           0       -0.551167    2.172674   -0.546983
     18          1           0       -1.846362    1.928240    0.628760
     19          1           0        0.075491    0.988465    1.918056
 ---------------------------------------------------------------------
 Rotational constants (GHZ):      2.8175696      1.8343601      1.5388852
 1\1\GINC-ALCHEMY-MO\FOpt\RB3LYP\6-31G(2df,p)\C7H10O2\PUCK\27-Jan-2020\
 0\\# b3lyp 6-31G(2df,p) opt Freq\\titel\\0,1\C,0.391306636,0.132972395
 2,-2.0833877767\C,1.1571087264,-0.046849455,-0.8053895677\O,2.22104345
 78,0.8804228846,-0.5450998439\C,2.5432031257,-0.5064197319,-0.64845051
 07\C,2.5314079558,-1.2384752488,0.7018906008\C,1.8046986701,-2.5869789
 918,0.4577298051\C,0.3249671613,-2.1027214463,0.3221011354\C,0.4982986
 809,-0.5676367291,0.4907357383\O,1.561145979,-0.4936413496,1.442008239
 8\H,-0.1791602709,-0.764788634,-2.3411897132\H,-0.3187911654,0.9624523
 211,-1.990597711\H,1.0707495926,0.3622475913,-2.9078440189\H,3.1890664
 937,-0.8120560998,-1.4665387895\H,3.4689201421,-1.2794763443,1.2554541
 725\H,2.1674492118,-3.1026962502,-0.4362139045\H,1.9341896978,-3.25645
 73832,1.3103487478\H,-0.1302319152,-2.3840415444,-0.6305324183\H,-0.30
 04348193,-2.5009230445,1.1236106031\H,-0.36853404,-0.0181672491,0.8585
 337618\\Version=ES64L-G09RevD.01\State=1-A\HF=-423.1809261\RMSD=3.069e
 -09\RMSF=3.727e-05\Dipole=-0.3262981,-0.9277484,-0.6140573\Quadrupole=
 2.7316147,-2.2175478,-0.514067,-2.4894238,0.0461153,-0.9442356\PG=C01 
 [X(C7H10O2)]\\@


    UPON JULIA'S CLOTHES

 WHENAS IN SILKS MY JULIA GOES,
 THEN, THEN, METHINKS, HOW SWEETLY FLOWS
 THAT LIQUEFACTION OF HER CLOTHES.

 NEXT, WHEN I CAST MINE EYES, AND SEE
 THAT BRAVE VIBRATION, EACH WAY FREE,
 O, HOW THAT GLITTERING TAKETH ME!
     -- ROBERT HERRICK, 1648
 Job cpu time:       0 days  0 hours  9 minutes 15.6 seconds.
 File lengths (MBytes):  RWF=     52 Int=      0 D2E=      0 Chk=      7 Scr=      1
 Normal termination of Gaussian 09 at Mon Jan 27 17:36:10 2020.
 Link1:  Proceeding to internal job step number  2.
 ----------------------------------------------------------------------
 #N Geom=AllCheck Guess=TCheck SCRF=Check GenChk RB3LYP/6-31G(2df,p) Fr
 eq
 ----------------------------------------------------------------------
 1/10=4,29=7,30=1,38=1,40=1/1,3;
 2/12=2,40=1/2;
 3/5=1,6=6,7=104,11=2,14=-4,16=1,25=1,30=1,70=2,71=2,74=-5,116=1,140=1/1,2,3;
 4/5=101/1;
 5/5=2,98=1/2;
 8/6=4,10=90,11=11/1;
 11/6=1,8=1,9=11,15=111,16=1/1,2,10;
 10/6=1/2;
 6/7=2,8=2,9=2,10=2,18=1,28=1/1;
 7/8=1,10=1,25=1/1,2,3,16;
 1/10=4,30=1/3;
 99//99;
 Structure from the checkpoint file:  "/scratch/puck/g09_b16a3b5e-f6a7-4c3f-907e-20fa6472f6c7/Gau-79638.chk"
 -----
 titel
 -----
 Charge =  0 Multiplicity = 1
 Redundant internal coordinates found in file.
 C,0,0.391306636,0.1329723952,-2.0833877767
 C,0,1.1571087264,-0.046849455,-0.8053895677
 O,0,2.2210434578,0.8804228846,-0.5450998439
 C,0,2.5432031257,-0.5064197319,-0.6484505107
 C,0,2.5314079558,-1.2384752488,0.7018906008
 C,0,1.8046986701,-2.5869789918,0.4577298051
 C,0,0.3249671613,-2.1027214463,0.3221011354
 C,0,0.4982986809,-0.5676367291,0.4907357383
 O,0,1.561145979,-0.4936413496,1.4420082398
 H,0,-0.1791602709,-0.764788634,-2.3411897132
 H,0,-0.3187911654,0.9624523211,-1.990597711
 H,0,1.0707495926,0.3622475913,-2.9078440189
 H,0,3.1890664937,-0.8120560998,-1.4665387895
 H,0,3.4689201421,-1.2794763443,1.2554541725
 H,0,2.1674492118,-3.1026962502,-0.4362139045
 H,0,1.9341896978,-3.2564573832,1.3103487478
 H,0,-0.1302319152,-2.3840415444,-0.6305324183
 H,0,-0.3004348193,-2.5009230445,1.1236106031
 H,0,-0.36853404,-0.0181672491,0.8585337618
 Recover connectivity data from disk.

 GradGradGradGradGradGradGradGradGradGradGradGradGradGradGradGradGradGrad
 Berny optimization.
 Initialization pass.
                           ----------------------------
                           !    Initial Parameters    !
                           ! (Angstroms and Degrees)  !
 --------------------------                            --------------------------
 ! Name  Definition              Value          Derivative Info.                !
 --------------------------------------------------------------------------------
 ! R1    R(1,2)                  1.5007         calculate D2E/DX2 analytically  !
 ! R2    R(1,10)                 1.0945         calculate D2E/DX2 analytically  !
 ! R3    R(1,11)                 1.0958         calculate D2E/DX2 analytically  !
 ! R4    R(1,12)                 1.0927         calculate D2E/DX2 analytically  !
 ! R5    R(2,3)                  1.4351         calculate D2E/DX2 analytically  !
 ! R6    R(2,4)                  1.4687         calculate D2E/DX2 analytically  !
 ! R7    R(2,8)                  1.5444         calculate D2E/DX2 analytically  !
 ! R8    R(3,4)                  1.4275         calculate D2E/DX2 analytically  !
 ! R9    R(4,5)                  1.5361         calculate D2E/DX2 analytically  !
 ! R10   R(4,13)                 1.0862         calculate D2E/DX2 analytically  !
 ! R11   R(5,6)                  1.5512         calculate D2E/DX2 analytically  !
 ! R12   R(5,9)                  1.4297         calculate D2E/DX2 analytically  !
 ! R13   R(5,14)                 1.0895         calculate D2E/DX2 analytically  !
 ! R14   R(6,7)                  1.5629         calculate D2E/DX2 analytically  !
 ! R15   R(6,15)                 1.0939         calculate D2E/DX2 analytically  !
 ! R16   R(6,16)                 1.0918         calculate D2E/DX2 analytically  !
 ! R17   R(7,8)                  1.554          calculate D2E/DX2 analytically  !
 ! R18   R(7,17)                 1.0926         calculate D2E/DX2 analytically  !
 ! R19   R(7,18)                 1.0918         calculate D2E/DX2 analytically  !
 ! R20   R(8,9)                  1.4283         calculate D2E/DX2 analytically  !
 ! R21   R(8,19)                 1.0902         calculate D2E/DX2 analytically  !
 ! A1    A(2,1,10)             111.61           calculate D2E/DX2 analytically  !
 ! A2    A(2,1,11)             110.442          calculate D2E/DX2 analytically  !
 ! A3    A(2,1,12)             110.5114         calculate D2E/DX2 analytically  !
 ! A4    A(10,1,11)            107.6428         calculate D2E/DX2 analytically  !
 ! A5    A(10,1,12)            108.5719         calculate D2E/DX2 analytically  !
 ! A6    A(11,1,12)            107.9383         calculate D2E/DX2 analytically  !
 ! A7    A(1,2,3)              117.0875         calculate D2E/DX2 analytically  !
 ! A8    A(1,2,4)              127.5961         calculate D2E/DX2 analytically  !
 ! A9    A(1,2,8)              122.5085         calculate D2E/DX2 analytically  !
 ! A10   A(3,2,8)              112.4524         calculate D2E/DX2 analytically  !
 ! A11   A(4,2,8)              101.9695         calculate D2E/DX2 analytically  !
 ! A12   A(2,4,5)              103.6397         calculate D2E/DX2 analytically  !
 ! A13   A(2,4,13)             124.6619         calculate D2E/DX2 analytically  !
 ! A14   A(3,4,5)              113.4297         calculate D2E/DX2 analytically  !
 ! A15   A(3,4,13)             117.5217         calculate D2E/DX2 analytically  !
 ! A16   A(5,4,13)             122.1794         calculate D2E/DX2 analytically  !
 ! A17   A(4,5,6)              106.2325         calculate D2E/DX2 analytically  !
 ! A18   A(4,5,9)              102.2405         calculate D2E/DX2 analytically  !
 ! A19   A(4,5,14)             117.2569         calculate D2E/DX2 analytically  !
 ! A20   A(6,5,9)              102.5007         calculate D2E/DX2 analytically  !
 ! A21   A(6,5,14)             116.7683         calculate D2E/DX2 analytically  !
 ! A22   A(9,5,14)             109.9109         calculate D2E/DX2 analytically  !
 ! A23   A(5,6,7)              100.828          calculate D2E/DX2 analytically  !
 ! A24   A(5,6,15)             112.5265         calculate D2E/DX2 analytically  !
 ! A25   A(5,6,16)             110.7687         calculate D2E/DX2 analytically  !
 ! A26   A(7,6,15)             112.9001         calculate D2E/DX2 analytically  !
 ! A27   A(7,6,16)             111.7206         calculate D2E/DX2 analytically  !
 ! A28   A(15,6,16)            108.0453         calculate D2E/DX2 analytically  !
 ! A29   A(6,7,8)              101.0145         calculate D2E/DX2 analytically  !
 ! A30   A(6,7,17)             112.9752         calculate D2E/DX2 analytically  !
 ! A31   A(6,7,18)             111.4458         calculate D2E/DX2 analytically  !
 ! A32   A(8,7,17)             113.2916         calculate D2E/DX2 analytically  !
 ! A33   A(8,7,18)             110.1508         calculate D2E/DX2 analytically  !
 ! A34   A(17,7,18)            107.9085         calculate D2E/DX2 analytically  !
 ! A35   A(2,8,7)              106.8346         calculate D2E/DX2 analytically  !
 ! A36   A(2,8,9)              102.9468         calculate D2E/DX2 analytically  !
 ! A37   A(2,8,19)             116.8941         calculate D2E/DX2 analytically  !
 ! A38   A(7,8,9)              101.9143         calculate D2E/DX2 analytically  !
 ! A39   A(7,8,19)             116.4734         calculate D2E/DX2 analytically  !
 ! A40   A(9,8,19)             109.9293         calculate D2E/DX2 analytically  !
 ! A41   A(5,9,8)               97.6568         calculate D2E/DX2 analytically  !
 ! D1    D(10,1,2,3)           162.9705         calculate D2E/DX2 analytically  !
 ! D2    D(10,1,2,4)            92.7794         calculate D2E/DX2 analytically  !
 ! D3    D(10,1,2,8)           -50.4544         calculate D2E/DX2 analytically  !
 ! D4    D(11,1,2,3)           -77.3232         calculate D2E/DX2 analytically  !
 ! D5    D(11,1,2,4)          -147.5143         calculate D2E/DX2 analytically  !
 ! D6    D(11,1,2,8)            69.2519         calculate D2E/DX2 analytically  !
 ! D7    D(12,1,2,3)            42.0427         calculate D2E/DX2 analytically  !
 ! D8    D(12,1,2,4)           -28.1484         calculate D2E/DX2 analytically  !
 ! D9    D(12,1,2,8)          -171.3822         calculate D2E/DX2 analytically  !
 ! D10   D(1,2,4,5)           -148.7062         calculate D2E/DX2 analytically  !
 ! D11   D(1,2,4,13)            -2.1878         calculate D2E/DX2 analytically  !
 ! D12   D(8,2,4,5)              0.2305         calculate D2E/DX2 analytically  !
 ! D13   D(8,2,4,13)           146.7489         calculate D2E/DX2 analytically  !
 ! D14   D(1,2,8,7)             76.633          calculate D2E/DX2 analytically  !
[...]
 -0.24274666,0.04846156,-0.02220481,-0.02810177,0.05323995,0.01957722,0
 .53610251,-0.00417621,-0.00563523,-0.00139937,0.11165318,-0.01451204,0
 .01803941,0.01545631,-0.21685770,-0.03125297,-0.15910838,0.40023787,-0
 .01937755,0.02041946,0.00385491,-0.01007668,0.00585595,-0.05311754,0.0
 1083065,-0.01274055,-0.06093634,-0.15861440,0.01191168,0.52937965,-0.0
 0353848,0.00300912,0.00379183,-0.00606318,0.01748083,-0.03164344,-0.00
 166483,-0.00176430,0.01066192,-0.07390645,-0.00215379,-0.00394349,0.64
 009738,0.00102237,0.00175980,-0.00047943,0.00420147,-0.00835820,-0.000
 72700,0.01349378,-0.03073268,0.02727782,0.00176662,-0.07841608,0.03054
 795,-0.02704345,0.39841465,0.00131478,0.00132144,-0.00135248,-0.024616
 04,0.01846104,-0.01665768,0.00264796,-0.00039076,0.00618543,-0.0114799
 5,0.04010626,-0.14277227,0.14132154,-0.02523114,0.46972510,-0.00010959
 ,0.00034489,0.00023557,-0.00024886,0.00002471,-0.00040239,-0.00073791,
 0.00139977,-0.00013219,0.00047744,-0.00757291,0.00271954,-0.08910127,-
 0.03567568,-0.00820332,0.38237445,-0.00012151,0.00027814,0.00014396,-0
 .00064459,0.00021786,-0.00181972,-0.00052715,-0.00063003,0.00189801,-0
 .00671423,-0.02644573,0.00695677,-0.03243009,-0.12251578,-0.00145293,-
 0.06648430,0.52683695,-0.00056779,-0.00028441,-0.00005242,0.00184142,0
 .00119506,0.00249152,-0.00179750,0.00642634,-0.00641511,0.00886697,0.0
 2514178,0.00662418,-0.00550861,0.00511694,-0.07428466,-0.04079783,-0.0
 2027677,0.60242248,0.00013278,0.00034700,0.00013039,-0.00286008,-0.014
 40161,0.00146525,-0.00262213,-0.00125060,0.00219731,0.00050167,-0.0003
 9525,-0.00117599,-0.03298544,-0.01611385,-0.01166341,-0.13656784,0.025
 58649,-0.00586499,0.49318209,0.00110540,0.00052616,0.00059313,-0.01101
 995,-0.02017335,0.00770162,0.00088171,-0.00014384,0.00088278,0.0010967
 4,-0.00045604,-0.00130393,-0.02109004,0.01141084,-0.00088842,0.0150834
 8,-0.07790543,0.00568764,0.09427436,0.40505229,0.00009316,-0.00016518,
 0.00020102,0.00654753,0.02512275,0.00626968,0.00565816,0.00341194,-0.0
 0542879,-0.00127580,0.00197813,0.00173820,-0.00394097,-0.00553536,-0.0
 0558687,-0.00274461,0.00567996,-0.07491397,-0.00017857,-0.00719614,0.6
 1197746,0.01081212,0.00578113,-0.01238235,-0.08491263,-0.00110357,0.02
 945487,-0.01790306,-0.00651727,0.00334765,-0.03053392,-0.00841864,0.02
 343082,-0.07500484,0.02410741,-0.01087311,-0.00103441,0.03003067,-0.00
 203976,-0.07032686,-0.00589670,0.00898055,0.62190557,0.00283376,0.0018
 4296,0.00250881,-0.00319850,-0.07399027,0.01325945,-0.02869688,-0.0129
 9317,0.02454585,0.01004064,0.00093557,-0.01853144,0.02550236,-0.005736
 11,0.00735588,0.02531724,-0.02242269,-0.00036461,-0.00364333,-0.139649
 45,0.00561049,-0.12674875,0.45782147,0.00735096,0.00241098,-0.01361520
 ,0.04102797,0.01889287,-0.12407461,-0.00519045,-0.00011702,0.00437738,
 0.02740063,-0.00214776,-0.00544420,-0.00408302,0.00531560,0.01273575,0
 .00781485,-0.00189241,-0.00361730,0.00654652,-0.00242282,-0.07117859,-
 0.08583240,0.04101131,0.41914357,0.00300670,0.00087289,-0.00174613,-0.
 00906270,0.00189056,-0.01417948,0.00267054,0.00147353,0.00402782,-0.01
 800952,0.00923895,0.02882687,-0.11225124,0.04282859,0.04582514,-0.0028
 3893,0.01063105,0.00773405,-0.02120478,-0.01629049,-0.03184967,-0.1236
 5349,-0.01133121,-0.06780220,0.32388250,-0.00295340,-0.00068372,0.0017
 5545,0.00789962,-0.00107143,0.01573881,-0.00005935,0.00647843,0.012456
 12,-0.00012259,0.00041984,0.00138161,0.02757770,-0.09559591,-0.0476106
 4,0.01711815,-0.03668396,-0.04063716,-0.01914440,-0.01518621,-0.032038
 60,0.00555812,-0.06968872,-0.01287513,-0.04764017,0.22304030,0.0073699
 4,0.00165605,-0.00433036,-0.02320010,-0.00102888,-0.05110105,-0.000702
 85,-0.00217447,0.00150964,0.02589076,-0.01575024,-0.04522250,0.0118425
 1,-0.02550296,-0.11301621,-0.00097924,-0.01793425,-0.01051181,-0.01116
 413,-0.01850810,-0.01555738,-0.02804791,-0.01894681,-0.13031523,0.0290
 3095,0.08935716,0.35091862,-0.11525317,-0.11157947,-0.03155412,-0.0097
 9858,-0.01415803,-0.00097282,-0.00211760,0.00098862,-0.00474086,0.0002
 2341,-0.00145604,0.00074605,-0.00013260,-0.00009094,0.00021328,-0.0000
 9737,0.00000339,-0.00012759,-0.00014516,-0.00034545,-0.00026739,-0.000
 00630,-0.00033472,-0.00008333,0.00024307,0.00036340,0.00001839,0.12456
 657,-0.11256180,-0.22460916,-0.04947210,0.00190923,0.00407795,-0.00001
 585,0.00229893,0.00168881,0.00165199,-0.00031234,0.00034225,-0.0007293
 4,-0.00016030,-0.00011765,0.00004383,-0.00007957,0.00000209,0.00015471
 ,0.00014186,-0.00062994,0.00041847,-0.00082117,-0.00023848,-0.00017777
 ,0.00003057,0.00014858,-0.00027925,0.12413991,0.24444071,-0.03110970,-
 0.04841441,-0.06199235,-0.01220576,-0.02466853,-0.00290571,-0.00427169
 ,0.00052253,-0.00495533,0.00004003,-0.00081753,0.00105566,-0.00020005,
 0.00005772,0.00053977,-0.00015140,0.00007386,-0.00007940,-0.00038921,-
 0.00000740,-0.00104163,0.00031814,-0.00012536,0.00003876,0.00064869,0.
 00019821,0.00040526,0.03696195,0.05380668,0.06379117,-0.15291753,0.126
 48116,0.01777697,-0.01480224,0.01339894,-0.00051065,0.00139913,-0.0012
 4043,0.00089297,0.00103522,0.00152169,-0.00307978,-0.00133241,-0.00064
 555,0.00028740,-0.00006511,-0.00015600,0.00002141,-0.00013901,-0.00018
 680,0.00009436,0.00023798,-0.00073115,0.00024114,0.00030173,-0.0000171
 2,-0.00024289,0.01175042,-0.01338111,-0.00146590,0.16639103,0.12700184
 ,-0.19606099,-0.01940803,0.00281006,-0.00298072,0.00109092,0.00108434,
 0.00159634,0.00090790,-0.00197405,0.00049408,-0.00034151,0.00017742,0.
 00007900,-0.00024477,-0.00003013,0.00003137,0.00005930,-0.00019463,-0.
 00027984,-0.00005681,0.00051688,-0.00010242,-0.00035075,-0.00025207,0.
 00017496,0.00024269,0.01760796,-0.01996881,-0.00299249,-0.14130979,0.2
 1135126,0.01750589,-0.01979075,-0.04966754,-0.02327747,0.02492351,0.00
 173927,0.00239259,-0.00157659,0.00202769,-0.00005319,0.00137172,-0.004
 38859,-0.00167383,-0.00024822,0.00022377,-0.00007458,-0.00017668,-0.00
 012325,-0.00004245,-0.00007809,-0.00007835,-0.00054878,0.00002632,0.00
 151397,0.00045431,-0.00030724,0.00016797,0.00521610,-0.00494457,-0.001
 56468,-0.01501135,0.01996114,0.05325200,-0.15388733,-0.03554119,0.1291
 4388,0.01107746,0.00448668,-0.01591808,0.00125034,0.00021087,0.0012822
 4,0.00155186,0.00050262,-0.00013086,0.00050046,-0.00028605,-0.00015114
 ,-0.00001791,0.00003846,0.00011124,-0.00003952,-0.00013867,-0.00010354
 ,-0.00215033,-0.00064163,-0.00132664,-0.00047130,0.00061425,-0.0018664
 6,-0.00990623,-0.00156330,0.01143739,-0.01280096,-0.00538278,0.0145594
 7,0.16472038,-0.03445910,-0.05692435,0.04200708,-0.00323728,-0.0030557
 4,0.00369963,0.00059915,0.00006266,-0.00053705,-0.00096973,0.00045833,
 0.00029252,-0.00010228,-0.00000326,0.00010855,-0.00012932,0.00005154,0
 .00010674,-0.00005184,0.00000951,-0.00021204,0.00054125,0.00046186,-0.
 00000362,0.00033869,0.00011574,0.00048119,-0.01598267,-0.00488315,0.02
 066334,0.01576474,0.00560351,-0.01940325,0.03738437,0.05808532,0.12572
 106,0.04134868,-0.19532881,0.01895208,0.00824905,-0.02556773,0.0007072
 9,-0.00145213,0.00298127,0.00110316,0.00129475,0.00142876,0.00089297,-
 0.00044331,-0.00062550,0.00006899,-0.00000937,0.00014168,0.00002382,-0
 .00030513,-0.00012622,-0.00400674,-0.00153299,0.00017748,-0.00130811,0
 .00109167,-0.00223496,-0.00582406,-0.00135788,0.00689758,0.00162236,0.
 00033726,-0.00222911,-0.13718447,-0.04755259,0.21426707,0.00150776,-0.
 00145343,0.00024425,-0.00736444,0.00784691,0.02333248,-0.00046370,0.00
 163508,-0.00716267,-0.14236323,0.04613842,0.13111072,0.00245334,-0.000
 87672,-0.00474728,-0.00046308,0.00022215,0.00007853,-0.00013142,0.0003
 6481,0.00035907,-0.00193726,0.00276957,-0.00034814,0.00125904,0.000040
 15,-0.00221729,-0.00019398,-0.00000170,-0.00025881,0.00038693,-0.00000
 753,-0.00009348,-0.00001000,0.00022744,-0.00082533,0.14771850,0.000724
 98,0.00067815,-0.00048457,-0.00246563,-0.00702475,0.00424017,0.0257253
 9,-0.01502823,-0.02194464,0.04146912,-0.05855765,-0.04869835,-0.007285
 58,0.00672669,0.00415907,0.00010859,0.00117182,-0.00053878,0.00011747,
 0.00011745,-0.00034445,0.00009637,0.00136219,0.00194321,-0.00346410,0.
 00037432,0.00372389,0.00016236,-0.00000334,0.00033993,-0.00003198,-0.0
 0008180,0.00004778,0.00006172,-0.00013898,-0.00001431,-0.05536749,0.07
 098981,0.00049644,-0.00069448,0.00047786,-0.00663241,0.00361158,0.0083
 1043,0.00026895,-0.00355839,0.00088500,0.13420575,-0.04892971,-0.21684
 116,0.01247691,-0.01011177,-0.00577027,-0.00035693,-0.00028929,-0.0005
 1200,-0.00008436,0.00008230,0.00039620,-0.00343860,0.00091524,-0.00191
 257,0.00425598,0.00037727,-0.00512176,-0.00008080,-0.00006840,-0.00007
 172,0.00013616,0.00000438,-0.00003048,0.00016429,-0.00004415,-0.000065
 84,-0.14084117,0.05766384,0.21913430,0.00029339,-0.00016852,-0.0003057
 6,0.00017595,-0.00116474,0.00209807,-0.00010026,0.00061932,-0.00056188
 ,0.00651487,-0.00054393,0.00139650,-0.24489440,0.00713725,-0.11745261,
 -0.00542802,0.00112235,-0.00521215,-0.00016933,-0.00014615,-0.00028867
 ,-0.00206807,0.00221937,0.00326988,-0.02217431,0.00296135,-0.00906942,
 0.00002186,0.00001688,0.00004774,0.00013461,-0.00007145,0.00012159,-0.
 00002316,0.00000699,-0.00008303,-0.00030120,0.00034216,-0.00072863,0.2
 6949867,0.00024016,-0.00071470,-0.00027297,0.00052372,-0.00012273,0.00
 242688,-0.00041839,0.00009652,-0.00126570,0.01201607,0.00121878,0.0066
 6093,0.00196934,-0.04838546,0.00231163,-0.02224157,0.00439231,-0.01187
 392,-0.00197885,-0.00410420,-0.00121913,0.00194259,-0.00256852,-0.0025
 6645,0.01966940,-0.00245357,0.00928615,0.00002817,0.00002115,0.0000324
 7,0.00016511,-0.00000555,0.00024644,0.00001059,0.00002999,-0.00000715,
 -0.00020177,0.00004052,0.00015279,-0.01153977,0.05060724,-0.00068696,0
 .00121586,0.00092453,0.00114207,0.00044251,-0.00521888,0.00049666,0.00
 173655,0.00185535,-0.02341101,-0.00162435,-0.00936381,-0.12850794,0.00
 568392,-0.12637186,-0.00222713,0.00204313,-0.00027125,0.00081391,-0.00
 106139,0.00026240,0.00338899,-0.00204642,-0.00272868,0.02011666,-0.001
 37300,0.01169441,-0.00003020,-0.00010666,-0.00003255,-0.00038744,0.000
 08047,-0.00053885,0.00004652,-0.00001499,0.00008930,0.00048750,-0.0000
 9008,-0.00019491,0.12762529,-0.00461273,0.12829537,0.00004343,0.000001
 36,-0.00002288,0.00003011,0.00003452,0.00053952,0.00003611,0.00040412,
 -0.00038086,0.00073897,0.00044686,-0.00003786,0.00636729,-0.00406084,-
 0.01390270,-0.07263017,0.03870873,0.07071784,-0.00931983,0.01192293,0.
 02328227,-0.00359388,0.00066739,0.00003071,0.00048912,-0.00492205,-0.0
 0120379,-0.00006833,0.00002421,-0.00001090,-0.00000003,-0.00003091,0.0
 0000429,0.00001278,0.00002437,-0.00002828,0.00008920,-0.00006683,0.000
 10798,-0.00066801,0.00000696,0.00012260,0.07861847,-0.00018785,-0.0001
 1304,0.00018293,0.00108708,-0.00019361,-0.00007536,-0.00025011,0.00118
 023,0.00036718,0.00001580,0.00028096,-0.00107357,0.01116602,-0.0071970
 4,-0.01957034,0.03871049,-0.10334357,-0.09723495,0.00015649,-0.0025481
 4,-0.00479347,-0.00133871,-0.00084823,-0.00231820,0.00176858,-0.009045
 43,-0.00195947,0.00006202,-0.00001010,-0.00001455,-0.00002067,0.000057
 39,-0.00002071,0.00003428,-0.00005318,0.00010673,-0.00039699,-0.000356
 41,0.00063135,-0.00075674,-0.00056293,-0.00004094,-0.04365531,0.112114
 40,-0.00005639,-0.00005519,0.00004069,0.00038871,-0.00030924,0.0000659
 2,0.00006272,-0.00027897,0.00045347,-0.00020943,0.00153521,-0.00024996
 ,0.00143043,-0.00037534,-0.00322876,0.07197039,-0.10003405,-0.22710513
 ,-0.00289473,0.00405343,0.00378347,-0.00174231,0.00074111,-0.00059756,
 -0.00030955,-0.00124919,0.00103788,-0.00001545,0.00000731,-0.00001954,
 0.00000353,-0.00000339,0.00000796,0.00000270,-0.00002196,0.00002816,-0
 .00004194,-0.00018425,0.00040159,-0.00023787,-0.00049306,-0.00002674,-
 0.07629577,0.10912788,0.24386265,0.00009377,-0.00004817,-0.00018384,-0
 .00131981,-0.00012704,0.00020631,0.00100123,-0.00166563,0.00124880,-0.
 00089425,-0.00285415,-0.00226134,0.00027028,-0.01135654,0.01620230,-0.
 04638750,0.01885452,-0.02363511,-0.00590080,0.01890149,-0.02272611,-0.
 00463553,-0.00041737,-0.00164578,0.00136681,0.00092171,0.00000467,0.00
 010569,0.00006118,0.00016745,0.00005759,-0.00001171,0.00004912,0.00000
 944,0.00006341,-0.00005092,0.00010346,0.00024532,0.00006635,0.00047194
 ,0.00091987,0.00037721,0.00108916,-0.00631288,0.00793815,0.05543797,0.
 00010084,-0.00006205,-0.00013463,-0.00068700,0.00050423,-0.00091847,0.
 00027100,-0.00161618,0.00173130,-0.00165482,-0.00344845,-0.00296865,0.
 00221433,-0.01675929,0.02355065,0.01977716,-0.14501709,0.12636805,0.00
 020888,-0.00317208,0.00448612,0.00087794,-0.00089042,0.00037467,-0.000
 04405,0.00234563,-0.00096310,0.00006528,0.00002007,0.00004597,0.000034
 82,-0.00002928,0.00006820,-0.00002108,-0.00001014,-0.00001028,-0.00006
 580,-0.00002430,0.00040757,0.00001142,0.00137868,-0.00038014,-0.001776
 60,0.01022144,-0.01258466,-0.01956818,0.15607817,-0.00003082,-0.000010
 89,0.00004070,0.00040042,-0.00061775,-0.00002422,0.00043779,-0.0002695
 3,0.00052145,-0.00062949,-0.00004392,-0.00014560,0.00072286,-0.0053332
 1,0.00487478,-0.02356431,0.12879035,-0.21636983,0.00084825,-0.00075953
 ,-0.00116314,0.00036955,-0.00057719,0.00002492,-0.00078907,0.00079871,
 0.00074578,0.00004468,-0.00000391,0.00001894,-0.00002001,0.00003259,-0
 .00001473,0.00000382,-0.00000653,0.00000206,-0.00010782,-0.00020938,0.
 00020537,0.00044259,0.00058984,0.00059338,-0.00274990,0.01646764,-0.02
 062422,0.02491242,-0.13884326,0.22907657,-0.00017814,-0.00009050,-0.00
 010134,-0.00014980,-0.00075460,-0.00070163,0.00035135,0.00016608,0.000
 43748,-0.00022955,0.00020914,-0.00046255,-0.00262675,0.00044707,-0.001
 74047,-0.00993597,-0.00657230,-0.02302043,-0.08852715,-0.02832384,-0.0
 9253188,-0.00155199,0.00015505,0.00009487,-0.00105115,-0.00045516,-0.0
 0051325,0.00059568,0.00015176,0.00023048,0.00008768,0.00018459,0.00002
 261,0.00002653,0.00007594,0.00003257,-0.00004350,-0.00007758,0.0000950
 0,-0.00026934,-0.00108252,-0.00010500,0.00184437,-0.00014689,0.0002958
 7,-0.00310122,0.00028846,-0.00049996,0.09715884,-0.00054740,-0.0008756
 5,-0.00008180,0.00005622,0.00068066,-0.00084106,0.00065469,0.00069215,
 0.00020326,-0.00070906,0.00041488,0.00018358,0.00296528,-0.00232956,-0
 .00136004,0.00582422,0.00186925,0.01068156,-0.02829711,-0.06386167,-0.
 05683565,-0.01078107,-0.00003193,-0.02552973,-0.00725468,-0.00750804,-
 0.00319231,0.00030522,-0.00021843,0.00114233,0.00013123,0.00014474,-0.
 00000662,0.00015679,0.00026323,0.00015409,-0.00004850,-0.00014132,0.00
 015815,-0.00007744,0.00047872,0.00019499,-0.00075139,0.00085918,-0.000
 17815,0.00205825,-0.00033259,0.00035036,0.03059359,0.06721929,-0.00014
 085,0.00041084,-0.00062361,0.00028862,0.00031153,-0.00059308,-0.000155
 77,-0.00025195,0.00046734,-0.00025323,0.00007744,-0.00005247,0.0014743
 2,-0.00036590,-0.00043386,0.00235921,0.00083672,0.00015547,-0.09522050
 ,-0.05890755,-0.25275706,-0.00014762,0.00065572,-0.00146826,-0.0005152
 3,-0.00080615,0.00121365,0.00026940,0.00108116,-0.00016558,0.00005294,
 0.00005347,0.00003977,0.00010732,0.00014156,0.00008912,-0.00004488,-0.
 00002898,0.00005556,0.00000831,0.00010229,0.00009259,-0.00016635,0.000
 06461,0.00136679,-0.00044659,-0.00009473,0.00056180,0.10261640,0.06402
 984,0.27287258,-0.00016530,-0.00011687,-0.00016514,0.00014450,0.000022
 23,-0.00006719,0.00076168,-0.00023679,0.00011319,0.00001216,0.00069538
 ,-0.00065408,-0.00334739,0.00245310,0.00084025,-0.01696606,-0.00911732
 ,0.01955603,-0.13073206,-0.05623563,0.11206734,-0.00073936,0.00034477,
 0.00016023,0.00122264,-0.00027371,-0.00047229,0.00014151,0.00007601,0.
 00016341,0.00007484,0.00006966,0.00002962,0.00001928,0.00004748,0.0000
 2555,0.00000381,-0.00002183,-0.00008843,-0.00022422,-0.00083085,-0.000
 03955,-0.00353356,0.00005172,-0.00040481,0.00186381,0.00003723,0.00017
 815,0.00782152,0.00517211,-0.00993054,0.14319878,-0.00037724,0.0001474
 6,-0.00000252,-0.00009025,-0.00492593,-0.00368816,-0.00242707,-0.00132
 377,0.00180933,0.00117918,-0.00049982,-0.00028406,0.00095673,-0.001841
 13,-0.00029981,0.00907474,0.00399032,-0.00881493,-0.05699791,-0.079165
 43,0.07002347,-0.01844959,-0.01396947,0.02748908,0.00134646,0.00254055
 ,-0.00061093,0.00012313,0.00000491,0.00016373,-0.00000214,-0.00000136,
 0.00002056,0.00006005,0.00002268,0.00015093,-0.00020979,0.00010174,-0.
 00005689,0.00003287,0.00026604,-0.00002495,0.00206655,-0.00013684,0.00
 001819,-0.00053873,0.00110636,-0.00032204,0.00537848,0.00362924,-0.006
 80977,0.05812420,0.08850573,-0.00019429,-0.00017370,-0.00000779,0.0000
 4812,-0.00038730,-0.00006944,-0.00024991,0.00004963,0.00033241,-0.0005
 9601,-0.00011267,-0.00016468,-0.00117055,0.00034775,0.00006173,-0.0041
 8131,-0.00193752,0.00234149,0.11348276,0.07213432,-0.19728623,-0.00319
 877,-0.00250877,0.00240366,0.00104497,-0.00007563,0.00101999,0.0002589
 8,0.00005536,0.00027189,0.00007534,0.00015839,0.00000041,0.00002736,0.
 00007003,0.00004850,-0.00000067,0.00000714,0.00000515,-0.00007773,-0.0
 0015249,-0.00001288,-0.00021082,0.00003354,0.00066309,-0.00023833,-0.0
 0010643,0.00168504,0.01601334,0.01073299,-0.02077720,-0.12073776,-0.07
 876189,0.20901171,-0.00019817,-0.00013237,0.00020290,-0.00564198,0.005
 38258,0.00293193,0.00003622,-0.00085082,-0.00052801,-0.00003491,0.0008
 1674,0.00075342,-0.00283952,-0.00130804,-0.00382262,-0.00022192,-0.002
 43032,-0.00035571,0.00785488,-0.00395720,-0.00117524,-0.21290371,0.105
 89336,0.07237419,-0.02372473,0.01253350,0.00552240,0.00007111,0.000030
 76,0.00004812,0.00020012,-0.00018767,0.00041955,0.00013820,-0.00014161
 ,0.00016110,-0.00025023,-0.00027247,-0.00002247,-0.00079097,0.00080175
 ,0.00077780,0.00045479,0.00001366,0.00011574,0.00036798,-0.00006982,0.
 00003087,-0.00022141,0.00054902,-0.00015496,0.00044342,0.00075030,-0.0
 0009474,0.23726083,-0.00019361,0.00024276,-0.00067395,-0.00942972,0.00
 756314,0.00369536,0.00076394,0.00031910,-0.00106152,-0.00175120,0.0000
 2618,0.00246098,-0.00098932,-0.00040285,-0.00036950,-0.00056994,-0.003
 87737,-0.00091258,0.02163682,-0.00984061,-0.00833447,0.11062311,-0.119
 29417,-0.04703605,-0.00381251,0.00227865,0.00210364,0.00009786,-0.0000
 6746,-0.00000651,0.00022505,-0.00002186,-0.00011294,0.00001401,-0.0000
 9554,-0.00004802,-0.00061480,-0.00020594,-0.00025141,-0.00000123,0.000
 38771,-0.00002180,0.00095594,-0.00030508,0.00028433,0.00087465,-0.0002
 9269,-0.00003235,-0.00014680,-0.00095216,-0.00050015,-0.00026090,0.001
 54872,0.00062725,-0.11742135,0.12298945,0.00024289,-0.00035288,0.00117
 136,0.01899979,-0.01556355,-0.00473005,0.00012317,0.00158964,0.0017563
 8,0.00159827,0.00062213,-0.00538225,-0.00394339,0.00000594,-0.00424590
 ,-0.00135332,-0.00059979,0.00007932,0.00317013,0.00030329,0.00048980,0
 .08296779,-0.05199658,-0.08546329,-0.02346599,0.01381774,0.00869805,-0
 .00003221,-0.00006377,-0.00019055,-0.00048659,0.00046924,-0.00033722,-
 0.00020503,0.00022554,0.00002720,0.00107692,0.00041277,0.00064923,-0.0
 0099221,0.00065418,0.00095309,0.00020490,0.00011970,0.00014024,0.00001
 525,-0.00002817,-0.00000904,-0.00016211,0.00019419,-0.00004354,-0.0005
 7399,0.00000067,0.00047316,-0.07718428,0.05018971,0.08596402\\0.000085
 81,-0.00001161,0.00005469,-0.00014245,-0.00005695,0.00005208,0.0000454
 2,0.00007571,-0.00001202,-0.00001037,-0.00003659,-0.00006603,0.0000531
 9,-0.00001802,-0.00003268,-0.00005217,0.00003460,0.00003490,0.00005890
 ,-0.00000193,0.00004757,0.00001567,0.00001061,-0.00007873,-0.00001436,
 -0.00001603,0.00004638,-0.00002378,0.00000725,-0.00001450,-0.00001244,
 0.00000654,-0.00001707,-0.00002313,-0.00000436,-0.00000775,-0.00000728
 ,-0.00002173,-0.00001190,0.00000716,-0.00000750,-0.00000710,0.00000355
 ,0.00000018,-0.00000356,0.00001834,-0.00000173,-0.00001267,-0.00000986
 ,0.00001689,0.00001664,-0.00000422,0.00001127,0.00000500,0.00001202,0.
 00001340,0.00000674\\\@


 CONFIDENCE: THAT QUIET ASSURED FEELING YOU HAVE
 JUST BEFORE YOU FALL FLAT ON YOUR FACE.
 Job cpu time:       0 days  0 hours 55 minutes 11.1 seconds.
 File lengths (MBytes):  RWF=    152 Int=      0 D2E=      0 Chk=      8 Scr=      1
 Normal termination of Gaussian 09 at Mon Jan 27 18:31:20 2020.
