 Entering Gaussian System, Link 0=/home/puck/opt/gaussian_09/g09
 Input=dsC7O2H10nsd_2143.com
 Output=dsC7O2H10nsd_2143.log
 Initial command:
 /home/puck/opt/gaussian_09/l1.exe "/scratch/puck/g09_6434d370-5df6-4712-8a10-efd7b8960588/Gau-41902.inp" -scrdir="/scratch/puck/g09_6434d370-5df6-4712-8a10-efd7b8960588/"
 Entering Link 1 = /home/puck/opt/gaussian_09/l1.exe PID=     41903.
  
 Copyright (c) 1988,1990,1992,1993,1995,1998,2003,2009,2013,
            Gaussian, Inc.  All Rights Reserved.
  
 This is part of the Gaussian(R) 09 program.  It is based on
 the Gaussian(R) 03 system (copyright 2003, Gaussian, Inc.),
 the Gaussian(R) 98 system (copyright 1998, Gaussian, Inc.),
 the Gaussian(R) 94 system (copyright 1995, Gaussian, Inc.),
 the Gaussian 92(TM) system (copyright 1992, Gaussian, Inc.),
 the Gaussian 90(TM) system (copyright 1990, Gaussian, Inc.),
 the Gaussian 88(TM) system (copyright 1988, Gaussian, Inc.),
 the Gaussian 86(TM) system (copyright 1986, Carnegie Mellon
 University), and the Gaussian 82(TM) system (copyright 1983,
 Carnegie Mellon University). Gaussian is a federally registered
 trademark of Gaussian, Inc.
  
 This software contains proprietary and confidential information,
 including trade secrets, belonging to Gaussian, Inc.
  
 This software is provided under written license and may be
 used, copied, transmitted, or stored only in accord with that
 written license.
  
 The following legend is applicable only to US Government
 contracts under FAR:
  
                    RESTRICTED RIGHTS LEGEND
  
 Use, reproduction and disclosure by the US Government is
 subject to restrictions as set forth in subparagraphs (a)
 and (c) of the Commercial Computer Software - Restricted
 Rights clause in FAR 52.227-19.
  
 Gaussian, Inc.
 340 Quinnipiac St., Bldg. 40, Wallingford CT 06492
  
  
 ---------------------------------------------------------------
 Warning -- This program may not be used in any manner that
 competes with the business of Gaussian, Inc. or will provide
 assistance to any competitor of Gaussian, Inc.  The licensee
 of this program is prohibited from giving any competitor of
 Gaussian, Inc. access to this program.  By using this program,
 the user acknowledges that Gaussian, Inc. is engaged in the
 business of creating and licensing software in the field of
 computational chemistry and represents and warrants to the
 licensee that it is not a competitor of Gaussian, Inc. and that
 it will not use this program in any manner prohibited above.
 ---------------------------------------------------------------
  

 Cite this work as:
 Gaussian 09, Revision D.01,
 M. J. Frisch, G. W. Trucks, H. B. Schlegel, G. E. Scuseria, 
 M. A. Robb, J. R. Cheeseman, G. Scalmani, V. Barone, B. Mennucci, 
 G. A. Petersson, H. Nakatsuji, M. Caricato, X. Li, H. P. Hratchian, 
 A. F. Izmaylov, J. Bloino, G. Zheng, J. L. Sonnenberg, M. Hada, 
 M. Ehara, K. Toyota, R. Fukuda, J. Hasegawa, M. Ishida, T. Nakajima, 
 Y. Honda, O. Kitao, H. Nakai, T. Vreven, J. A. Montgomery, Jr., 
 J. E. Peralta, F. Ogliaro, M. Bearpark, J. J. Heyd, E. Brothers, 
 K. N. Kudin, V. N. Staroverov, T. Keith, R. Kobayashi, J. Normand, 
 K. Raghavachari, A. Rendell, J. C. Burant, S. S. Iyengar, J. Tomasi, 
 M. Cossi, N. Rega, J. M. Millam, M. Klene, J. E. Knox, J. B. Cross, 
 V. Bakken, C. Adamo, J. Jaramillo, R. Gomperts, R. E. Stratmann, 
 O. Yazyev, A. J. Austin, R. Cammi, C. Pomelli, J. W. Ochterski, 
 R. L. Martin, K. Morokuma, V. G. Zakrzewski, G. A. Voth, 
 P. Salvador, J. J. Dannenberg, S. Dapprich, A. D. Daniels, 
 O. Farkas, J. B. Foresman, J. V. Ortiz, J. Cioslowski, 
 and D. J. Fox, Gaussian, Inc., Wallingford CT, 2013.
 
 ******************************************
 Gaussian 09:  ES64L-G09RevD.01 24-Apr-2013
                27-Jan-2020 
 ******************************************
 -----------------------------
 # b3lyp 6-31G(2df,p) opt Freq
 -----------------------------
 1/14=-1,18=20,19=15,26=3,38=1/1,3;
 2/9=110,12=2,17=6,18=5,40=1/2;
 3/5=1,6=6,7=104,11=2,16=1,25=1,30=1,71=1,74=-5/1,2,3;
 4//1;
 5/5=2,38=5/2;
 6/7=2,8=2,9=2,10=2,28=1/1;
 7//1,2,3,16;
 1/14=-1,18=20,19=15,26=3/3(2);
 2/9=110/2;
 99//99;
 2/9=110/2;
 3/5=1,6=6,7=104,11=2,16=1,25=1,30=1,71=1,74=-5/1,2,3;
 4/5=5,16=3,69=1/1;
 5/5=2,38=5/2;
 7//1,2,3,16;
 1/14=-1,18=20,19=15,26=3/3(-5);
 2/9=110/2;
 6/7=2,8=2,9=2,10=2,19=2,28=1/1;
 99/9=1/99;
 -----
 titel
 -----
 Symbolic Z-matrix:
 Charge =  0 Multiplicity = 1
 O                     0.62201   0.40515   0.58227 
 C                    -0.7494    0.60948   0.78473 
 C                    -1.3198    0.69432   2.23455 
 C                    -2.57246  -0.0245    1.70036 
 C                    -3.32098   0.71735   0.53443 
 C                    -2.70152   2.07745   0.23259 
 C                    -1.19092   1.83872  -0.01371 
 O                    -2.79875  -0.23445  -0.45032 
 C                    -1.78193  -0.57048   0.50069 
 H                     0.89601  -0.36149   1.09631 
 H                    -0.77505   0.03476   2.9198 
 H                    -1.4067    1.6835    2.69331 
 H                    -3.19228  -0.63901   2.35168 
 H                    -4.41331   0.71176   0.55564 
 H                    -3.1736    2.52446  -0.64718 
 H                    -2.8729    2.75882   1.07382 
 H                    -1.00585   1.64694  -1.0734 
 H                    -0.58705   2.70159   0.282 
 H                    -1.37197  -1.57776   0.38585 
 

 GradGradGradGradGradGradGradGradGradGradGradGradGradGradGradGradGradGrad
 Berny optimization.
 Initialization pass.
                           ----------------------------
                           !    Initial Parameters    !
                           ! (Angstroms and Degrees)  !
 --------------------------                            --------------------------
 ! Name  Definition              Value          Derivative Info.                !
 --------------------------------------------------------------------------------
 ! R1    R(1,2)                  1.4012         estimate D2E/DX2                !
 ! R2    R(1,10)                 0.9628         estimate D2E/DX2                !
 ! R3    R(2,3)                  1.5603         estimate D2E/DX2                !
 ! R4    R(2,7)                  1.5308         estimate D2E/DX2                !
 ! R5    R(2,9)                  1.5935         estimate D2E/DX2                !
 ! R6    R(3,4)                  1.5399         estimate D2E/DX2                !
 ! R7    R(3,11)                 1.0961         estimate D2E/DX2                !
 ! R8    R(3,12)                 1.0938         estimate D2E/DX2                !
 ! R9    R(4,5)                  1.5716         estimate D2E/DX2                !
 ! R10   R(4,9)                  1.537          estimate D2E/DX2                !
 ! R11   R(4,13)                 1.089          estimate D2E/DX2                !
 ! R12   R(5,6)                  1.5247         estimate D2E/DX2                !
 ! R13   R(5,8)                  1.4657         estimate D2E/DX2                !
 ! R14   R(5,14)                 1.0926         estimate D2E/DX2                !
 ! R15   R(6,7)                  1.5491         estimate D2E/DX2                !
 ! R16   R(6,15)                 1.0939         estimate D2E/DX2                !
 ! R17   R(6,16)                 1.096          estimate D2E/DX2                !
 ! R18   R(7,17)                 1.0927         estimate D2E/DX2                !
 ! R19   R(7,18)                 1.0939         estimate D2E/DX2                !
 ! R20   R(8,9)                  1.4322         estimate D2E/DX2                !
 ! R21   R(9,19)                 1.0935         estimate D2E/DX2                !
 ! A1    A(2,1,10)             108.5111         estimate D2E/DX2                !
 ! A2    A(1,2,3)              119.9984         estimate D2E/DX2                !
 ! A3    A(1,2,7)              108.9055         estimate D2E/DX2                !
 ! A4    A(1,2,9)              120.0291         estimate D2E/DX2                !
 ! A5    A(3,2,7)              109.6054         estimate D2E/DX2                !
 ! A6    A(3,2,9)               88.2239         estimate D2E/DX2                !
 ! A7    A(7,2,9)              108.346          estimate D2E/DX2                !
 ! A8    A(2,3,4)               87.1147         estimate D2E/DX2                !
 ! A9    A(2,3,11)             111.5005         estimate D2E/DX2                !
 ! A10   A(2,3,12)             117.8995         estimate D2E/DX2                !
 ! A11   A(4,3,11)             109.8945         estimate D2E/DX2                !
 ! A12   A(4,3,12)             120.1995         estimate D2E/DX2                !
 ! A13   A(11,3,12)            108.7506         estimate D2E/DX2                !
 ! A14   A(3,4,5)              115.1155         estimate D2E/DX2                !
 ! A15   A(3,4,9)               91.0424         estimate D2E/DX2                !
 ! A16   A(3,4,13)             121.2595         estimate D2E/DX2                !
 ! A17   A(5,4,9)               80.4212         estimate D2E/DX2                !
 ! A18   A(5,4,13)             116.0378         estimate D2E/DX2                !
 ! A19   A(9,4,13)             123.9941         estimate D2E/DX2                !
 ! A20   A(4,5,6)              111.9895         estimate D2E/DX2                !
 ! A21   A(4,5,8)               91.2726         estimate D2E/DX2                !
 ! A22   A(4,5,14)             117.3455         estimate D2E/DX2                !
 ! A23   A(6,5,8)              107.5481         estimate D2E/DX2                !
 ! A24   A(6,5,14)             114.4949         estimate D2E/DX2                !
 ! A25   A(8,5,14)             111.4649         estimate D2E/DX2                !
 ! A26   A(5,6,7)              106.8699         estimate D2E/DX2                !
 ! A27   A(5,6,15)             110.3895         estimate D2E/DX2                !
 ! A28   A(5,6,16)             109.8212         estimate D2E/DX2                !
 ! A29   A(7,6,15)             110.8506         estimate D2E/DX2                !
 ! A30   A(7,6,16)             111.7358         estimate D2E/DX2                !
 ! A31   A(15,6,16)            107.2023         estimate D2E/DX2                !
 ! A32   A(2,7,6)              108.7884         estimate D2E/DX2                !
 ! A33   A(2,7,17)             108.4232         estimate D2E/DX2                !
 ! A34   A(2,7,18)             109.4619         estimate D2E/DX2                !
 ! A35   A(6,7,17)             110.2678         estimate D2E/DX2                !
 ! A36   A(6,7,18)             111.9484         estimate D2E/DX2                !
 ! A37   A(17,7,18)            107.8858         estimate D2E/DX2                !
 ! A38   A(5,8,9)               87.6612         estimate D2E/DX2                !
 ! A39   A(2,9,4)               86.0492         estimate D2E/DX2                !
 ! A40   A(2,9,8)              113.8697         estimate D2E/DX2                !
 ! A41   A(2,9,19)             117.2506         estimate D2E/DX2                !
 ! A42   A(4,9,8)               94.0013         estimate D2E/DX2                !
 ! A43   A(4,9,19)             127.0135         estimate D2E/DX2                !
 ! A44   A(8,9,19)             114.3641         estimate D2E/DX2                !
 ! D1    D(10,1,2,3)            51.8321         estimate D2E/DX2                !
 ! D2    D(10,1,2,7)           179.2234         estimate D2E/DX2                !
 ! D3    D(10,1,2,9)           -55.1677         estimate D2E/DX2                !
 ! D4    D(1,2,3,4)           -144.3818         estimate D2E/DX2                !
 ! D5    D(1,2,3,11)           -34.1175         estimate D2E/DX2                !
 ! D6    D(1,2,3,12)            92.7162         estimate D2E/DX2                !
 ! D7    D(7,2,3,4)             88.5486         estimate D2E/DX2                !
 ! D8    D(7,2,3,11)          -161.1871         estimate D2E/DX2                !
 ! D9    D(7,2,3,12)           -34.3534         estimate D2E/DX2                !
 ! D10   D(9,2,3,4)            -20.3104         estimate D2E/DX2                !
 ! D11   D(9,2,3,11)            89.9538         estimate D2E/DX2                !
 ! D12   D(9,2,3,12)          -143.2125         estimate D2E/DX2                !
 ! D13   D(1,2,7,6)           -178.9733         estimate D2E/DX2                !
 ! D14   D(1,2,7,17)            61.0931         estimate D2E/DX2                !
 ! D15   D(1,2,7,18)           -56.361          estimate D2E/DX2                !
 ! D16   D(3,2,7,6)            -45.8949         estimate D2E/DX2                !
 ! D17   D(3,2,7,17)          -165.8285         estimate D2E/DX2                !
 ! D18   D(3,2,7,18)            76.7174         estimate D2E/DX2                !
 ! D19   D(9,2,7,6)             48.8922         estimate D2E/DX2                !
 ! D20   D(9,2,7,17)           -71.0414         estimate D2E/DX2                !
 ! D21   D(9,2,7,18)           171.5046         estimate D2E/DX2                !
 ! D22   D(1,2,9,4)            144.4194         estimate D2E/DX2                !
 ! D23   D(1,2,9,8)           -122.9483         estimate D2E/DX2                !
 ! D24   D(1,2,9,19)            14.3885         estimate D2E/DX2                !
 ! D25   D(3,2,9,4)             20.3743         estimate D2E/DX2                !
 ! D26   D(3,2,9,8)            113.0065         estimate D2E/DX2                !
 ! D27   D(3,2,9,19)          -109.6567         estimate D2E/DX2                !
 ! D28   D(7,2,9,4)            -89.7096         estimate D2E/DX2                !
 ! D29   D(7,2,9,8)              2.9227         estimate D2E/DX2                !
 ! D30   D(7,2,9,19)           140.2594         estimate D2E/DX2                !
 ! D31   D(2,3,4,5)            -58.8199         estimate D2E/DX2                !
 ! D32   D(2,3,4,9)             21.0851         estimate D2E/DX2                !
 ! D33   D(2,3,4,13)           152.7839         estimate D2E/DX2                !
 ! D34   D(11,3,4,5)          -170.6605         estimate D2E/DX2                !
 ! D35   D(11,3,4,9)           -90.7555         estimate D2E/DX2                !
 ! D36   D(11,3,4,13)           40.9433         estimate D2E/DX2                !
 ! D37   D(12,3,4,5)            62.0277         estimate D2E/DX2                !
 ! D38   D(12,3,4,9)           141.9326         estimate D2E/DX2                !
 ! D39   D(12,3,4,13)          -86.3686         estimate D2E/DX2                !
 ! D40   D(3,4,5,6)             -4.351          estimate D2E/DX2                !
 ! D41   D(3,4,5,8)            105.1735         estimate D2E/DX2                !
 ! D42   D(3,4,5,14)          -139.7671         estimate D2E/DX2                !
 ! D43   D(9,4,5,6)            -90.984          estimate D2E/DX2                !
 ! D44   D(9,4,5,8)             18.5406         estimate D2E/DX2                !
 ! D45   D(9,4,5,14)           133.5999         estimate D2E/DX2                !
 ! D46   D(13,4,5,6)           145.7438         estimate D2E/DX2                !
 ! D47   D(13,4,5,8)          -104.7316         estimate D2E/DX2                !
 ! D48   D(13,4,5,14)           10.3277         estimate D2E/DX2                !
 ! D49   D(3,4,9,2)            -20.6501         estimate D2E/DX2                !
 ! D50   D(3,4,9,8)           -134.3397         estimate D2E/DX2                !
 ! D51   D(3,4,9,19)           100.8655         estimate D2E/DX2                !
 ! D52   D(5,4,9,2)             94.6556         estimate D2E/DX2                !
 ! D53   D(5,4,9,8)            -19.034          estimate D2E/DX2                !
 ! D54   D(5,4,9,19)          -143.8288         estimate D2E/DX2                !
 ! D55   D(13,4,9,2)          -150.3119         estimate D2E/DX2                !
 ! D56   D(13,4,9,8)            95.9984         estimate D2E/DX2                !
 ! D57   D(13,4,9,19)          -28.7963         estimate D2E/DX2                !
 ! D58   D(4,5,6,7)             53.4937         estimate D2E/DX2                !
 ! D59   D(4,5,6,15)           174.1251         estimate D2E/DX2                !
 ! D60   D(4,5,6,16)           -67.8824         estimate D2E/DX2                !
 ! D61   D(8,5,6,7)            -45.2964         estimate D2E/DX2                !
 ! D62   D(8,5,6,15)            75.335          estimate D2E/DX2                !
 ! D63   D(8,5,6,16)          -166.6725         estimate D2E/DX2                !
 ! D64   D(14,5,6,7)          -169.756          estimate D2E/DX2                !
 ! D65   D(14,5,6,15)          -49.1246         estimate D2E/DX2                !
 ! D66   D(14,5,6,16)           68.8679         estimate D2E/DX2                !
 ! D67   D(4,5,8,9)            -19.679          estimate D2E/DX2                !
 ! D68   D(6,5,8,9)             93.8888         estimate D2E/DX2                !
 ! D69   D(14,5,8,9)          -139.8409         estimate D2E/DX2                !
 ! D70   D(5,6,7,2)            -28.5461         estimate D2E/DX2                !
 ! D71   D(5,6,7,17)            90.2362         estimate D2E/DX2                !
 ! D72   D(5,6,7,18)          -149.6457         estimate D2E/DX2                !
 ! D73   D(15,6,7,2)          -148.8828         estimate D2E/DX2                !
 ! D74   D(15,6,7,17)          -30.1005         estimate D2E/DX2                !
 ! D75   D(15,6,7,18)           90.0176         estimate D2E/DX2                !
 ! D76   D(16,6,7,2)            91.6096         estimate D2E/DX2                !
 ! D77   D(16,6,7,17)         -149.6081         estimate D2E/DX2                !
 ! D78   D(16,6,7,18)          -29.49           estimate D2E/DX2                !
 ! D79   D(5,8,9,2)            -67.2571         estimate D2E/DX2                !
 ! D80   D(5,8,9,4)             20.188          estimate D2E/DX2                !
 ! D81   D(5,8,9,19)           154.1476         estimate D2E/DX2                !
 --------------------------------------------------------------------------------
 Trust Radius=3.00D-01 FncErr=1.00D-07 GrdErr=1.00D-06
 Number of steps in this run=    114 maximum allowed number of steps=    114.
 GradGradGradGradGradGradGradGradGradGradGradGradGradGradGradGradGradGrad

                          Input orientation:                          
 ---------------------------------------------------------------------
 Center     Atomic      Atomic             Coordinates (Angstroms)
 Number     Number       Type             X           Y           Z
 ---------------------------------------------------------------------
      1          8           0        0.622010    0.405145    0.582265
      2          6           0       -0.749395    0.609483    0.784729
      3          6           0       -1.319804    0.694322    2.234551
      4          6           0       -2.572459   -0.024501    1.700358
      5          6           0       -3.320976    0.717353    0.534432
      6          6           0       -2.701521    2.077449    0.232591
      7          6           0       -1.190916    1.838722   -0.013714
      8          8           0       -2.798750   -0.234448   -0.450324
      9          6           0       -1.781927   -0.570485    0.500694
     10          1           0        0.896013   -0.361488    1.096315
     11          1           0       -0.775046    0.034758    2.919804
     12          1           0       -1.406698    1.683496    2.693314
     13          1           0       -3.192282   -0.639009    2.351678
     14          1           0       -4.413314    0.711757    0.555639
     15          1           0       -3.173601    2.524461   -0.647180
     16          1           0       -2.872903    2.758822    1.073816
     17          1           0       -1.005854    1.646935   -1.073405
     18          1           0       -0.587054    2.701592    0.282002
     19          1           0       -1.371971   -1.577756    0.385852
 ---------------------------------------------------------------------
                    Distance matrix (angstroms):
                    1          2          3          4          5
     1  O    0.000000
     2  C    1.401248   0.000000
     3  C    2.565992   1.560304   0.000000
     4  C    3.411650   2.136322   1.539874   0.000000
     5  C    3.955616   2.585983   2.625952   1.571626   0.000000
     6  C    3.736940   2.504111   2.798218   2.566942   1.524694
     7  C    2.386845   1.530843   2.526056   2.884147   2.468823
     8  O    3.630003   2.537209   3.202881   2.172722   1.465738
     9  C    2.595654   1.593462   2.195348   1.536956   2.007071
    10  H    0.962835   1.935778   2.705580   3.536767   4.388918
    11  H    2.748279   2.211224   1.096065   2.172844   3.554953
    12  H    3.194740   2.286536   1.093837   2.293951   3.042805
    13  H    4.332424   3.159392   2.301665   1.089045   2.271269
    14  H    5.044721   3.672499   3.519781   2.289368   1.092559
    15  H    4.517709   3.405037   3.884629   3.517032   2.164155
    16  H    4.242149   3.035213   2.832240   2.868747   2.158541
    17  H    2.633102   2.143535   3.456676   3.597459   2.968005
    18  H    2.612597   2.157779   2.894564   3.658572   3.387514
    19  H    2.818942   2.308835   2.929633   2.362562   3.014668
                    6          7          8          9         10
     6  C    0.000000
     7  C    1.549059   0.000000
     8  O    2.412611   2.659661   0.000000
     9  C    2.815863   2.533414   1.432231   0.000000
    10  H    4.431329   3.229297   4.007431   2.751328   0.000000
    11  H    3.886515   3.468827   3.940255   2.689279   2.504907
    12  H    2.808366   2.720048   3.936849   3.166829   3.469127
    13  H    3.480017   3.967328   2.858277   2.328076   4.285687
    14  H    2.213530   3.460935   2.124637   2.927689   5.443633
    15  H    1.093927   2.191474   2.791209   3.582326   5.284906
    16  H    1.096038   2.204175   3.359787   3.550068   4.893012
    17  H    2.183175   1.092692   2.672510   2.827902   3.515472
    18  H    2.205213   1.093911   3.748097   3.490277   3.499293
    19  H    3.892520   3.444526   2.130579   1.093549   2.669798
                   11         12         13         14         15
    11  H    0.000000
    12  H    1.780061   0.000000
    13  H    2.572890   2.949416   0.000000
    14  H    4.391424   3.814928   2.557585   0.000000
    15  H    4.967400   3.871443   4.359018   2.503909   0.000000
    16  H    3.902461   2.434925   3.644200   2.613781   1.762716
    17  H    4.312552   3.788164   4.662317   3.890904   2.377151
    18  H    3.755708   2.742765   4.714911   4.321410   2.754084
    19  H    3.062260   3.995166   2.838881   3.810573   4.597958
                   16         17         18         19
    16  H    0.000000
    17  H    3.054950   0.000000
    18  H    2.419782   1.767717   0.000000
    19  H    4.640259   3.558386   4.351977   0.000000
 Stoichiometry    C7H10O2
 Framework group  C1[X(C7H10O2)]
 Deg. of freedom    51
 Full point group                 C1      NOp   1
 Largest Abelian subgroup         C1      NOp   1
 Largest concise Abelian subgroup C1      NOp   1
                         Standard orientation:                         
 ---------------------------------------------------------------------
 Center     Atomic      Atomic             Coordinates (Angstroms)
 Number     Number       Type             X           Y           Z
 ---------------------------------------------------------------------
      1          8           0        2.296704    0.219310   -0.485561
      2          6           0        0.973686    0.088410   -0.042861
      3          6           0        0.673531   -0.595168    1.327240
      4          6           0       -0.594016   -1.174433    0.672269
      5          6           0       -1.600462   -0.107362    0.107968
      6          6           0       -1.157883    1.317342    0.422667
      7          6           0        0.296254    1.460334   -0.091750
      8          8           0       -1.192806   -0.402882   -1.268576
      9          6           0        0.004619   -0.974198   -0.729079
     10          1           0        2.720812   -0.643935   -0.440930
     11          1           0        1.385695   -1.401072    1.538657
     12          1           0        0.593081    0.043878    2.211336
     13          1           0       -1.032746   -2.108891    1.019144
     14          1           0       -2.666410   -0.294172    0.258105
     15          1           0       -1.817416    2.038632   -0.068693
     16          1           0       -1.226379    1.498047    1.501534
     17          1           0        0.298874    1.810067   -1.126958
     18          1           0        0.872878    2.173017    0.505099
     19          1           0        0.466049   -1.736548   -1.362918
 ---------------------------------------------------------------------
 Rotational constants (GHZ):      2.7244148      1.8098593      1.6477413
 Standard basis: 6-31G(2df,p) (6D, 7F)
 There are   329 symmetry adapted cartesian basis functions of A   symmetry.
 There are   302 symmetry adapted basis functions of A   symmetry.
   302 basis functions,   466 primitive gaussians,   329 cartesian basis functions
    34 alpha electrons       34 beta electrons
       nuclear repulsion energy       492.9093809291 Hartrees.
 NAtoms=   19 NActive=   19 NUniq=   19 SFac= 1.00D+00 NAtFMM=   60 NAOKFM=F Big=F
 Integral buffers will be    131072 words long.
 Raffenetti 2 integral format.
 Two-electron integral symmetry is turned on.
 One-electron integrals computed using PRISM.
 NBasis=   302 RedAO= T EigKep=  3.03D-04  NBF=   302
 NBsUse=   302 1.00D-06 EigRej= -1.00D+00 NBFU=   302
 ExpMin= 1.61D-01 ExpMax= 5.48D+03 ExpMxC= 8.25D+02 IAcc=1 IRadAn=         1 AccDes= 0.00D+00
 Harris functional with IExCor=  402 and IRadAn=       1 diagonalized for initial guess.
 HarFok:  IExCor=  402 AccDes= 0.00D+00 IRadAn=         1 IDoV= 1 UseB2=F ITyADJ=14
 ICtDFT=  3500011 ScaDFX=  1.000000  1.000000  1.000000  1.000000
 FoFCou: FMM=F IPFlag=           0 FMFlag=      100000 FMFlg1=           0
         NFxFlg=           0 DoJE=T BraDBF=F KetDBF=T FulRan=T
         wScrn=  0.000000 ICntrl=     500 IOpCl=  0 I1Cent=   200000004 NGrid=           0
         NMat0=    1 NMatS0=      1 NMatT0=    0 NMatD0=    1 NMtDS0=    0 NMtDT0=    0
 Petite list used in FoFCou.
 Requested convergence on RMS density matrix=1.00D-08 within 128 cycles.
 Requested convergence on MAX density matrix=1.00D-06.
 Requested convergence on             energy=1.00D-06.
 No special actions if energy rises.
 Integral accuracy reduced to 1.0D-05 until final iterations.
 Initial convergence to 1.0D-05 achieved.  Increase integral accuracy.
 SCF Done:  E(RB3LYP) =  -423.162147430     A.U. after   13 cycles
            NFock= 13  Conv=0.56D-08     -V/T= 2.0073

 **********************************************************************

            Population analysis using the SCF density.

 **********************************************************************

 Orbital symmetries:
       Occupied  (A) (A) (A) (A) (A) (A) (A) (A) (A) (A) (A) (A)
                 (A) (A) (A) (A) (A) (A) (A) (A) (A) (A) (A) (A)
                 (A) (A) (A) (A) (A) (A) (A) (A) (A) (A)
       Virtual   (A) (A) (A) (A) (A) (A) (A) (A) (A) (A) (A) (A)
                 (A) (A) (A) (A) (A) (A) (A) (A) (A) (A) (A) (A)
                 (A) (A) (A) (A) (A) (A) (A) (A) (A) (A) (A) (A)
                 (A) (A) (A) (A) (A) (A) (A) (A) (A) (A) (A) (A)
                 (A) (A) (A) (A) (A) (A) (A) (A) (A) (A) (A) (A)
                 (A) (A) (A) (A) (A) (A) (A) (A) (A) (A) (A) (A)
                 (A) (A) (A) (A) (A) (A) (A) (A) (A) (A) (A) (A)
                 (A) (A) (A) (A) (A) (A) (A) (A) (A) (A) (A) (A)
                 (A) (A) (A) (A) (A) (A) (A) (A) (A) (A) (A) (A)
                 (A) (A) (A) (A) (A) (A) (A) (A) (A) (A) (A) (A)
                 (A) (A) (A) (A) (A) (A) (A) (A) (A) (A) (A) (A)
                 (A) (A) (A) (A) (A) (A) (A) (A) (A) (A) (A) (A)
                 (A) (A) (A) (A) (A) (A) (A) (A) (A) (A) (A) (A)
                 (A) (A) (A) (A) (A) (A) (A) (A) (A) (A) (A) (A)
                 (A) (A) (A) (A) (A) (A) (A) (A) (A) (A) (A) (A)
                 (A) (A) (A) (A) (A) (A) (A) (A) (A) (A) (A) (A)
                 (A) (A) (A) (A) (A) (A) (A) (A) (A) (A) (A) (A)
                 (A) (A) (A) (A) (A) (A) (A) (A) (A) (A) (A) (A)
                 (A) (A) (A) (A) (A) (A) (A) (A) (A) (A) (A) (A)
                 (A) (A) (A) (A) (A) (A) (A) (A) (A) (A) (A) (A)
                 (A) (A) (A) (A) (A) (A) (A) (A) (A) (A) (A) (A)
                 (A) (A) (A) (A) (A) (A) (A) (A) (A) (A) (A) (A)
                 (A) (A) (A) (A)
 The electronic state is 1-A.
 Alpha  occ. eigenvalues --  -19.14049 -19.12921 -10.23617 -10.23524 -10.22812
 Alpha  occ. eigenvalues --  -10.19078 -10.18406 -10.18333 -10.17738  -1.04410
 Alpha  occ. eigenvalues --   -1.02220  -0.83797  -0.76676  -0.71523  -0.64656
 Alpha  occ. eigenvalues --   -0.61279  -0.58911  -0.53788  -0.50797  -0.48993
 Alpha  occ. eigenvalues --   -0.46363  -0.45084  -0.40882  -0.40723  -0.39632
 Alpha  occ. eigenvalues --   -0.38924  -0.37673  -0.35475  -0.34055  -0.31219
 Alpha  occ. eigenvalues --   -0.30034  -0.29273  -0.26948  -0.22628
 Alpha virt. eigenvalues --    0.07169   0.08639   0.09232   0.10857   0.13166
 Alpha virt. eigenvalues --    0.13302   0.14884   0.15725   0.16822   0.17274
 Alpha virt. eigenvalues --    0.18424   0.18600   0.20877   0.21353   0.22243
 Alpha virt. eigenvalues --    0.23684   0.25786   0.27650   0.30488   0.31935
 Alpha virt. eigenvalues --    0.36321   0.42923   0.44091   0.46177   0.47350
 Alpha virt. eigenvalues --    0.49190   0.49464   0.50904   0.51470   0.51975
 Alpha virt. eigenvalues --    0.53924   0.55181   0.57498   0.57932   0.60220
 Alpha virt. eigenvalues --    0.62665   0.63366   0.64587   0.68116   0.69273
 Alpha virt. eigenvalues --    0.70194   0.71480   0.73182   0.74368   0.75752
 Alpha virt. eigenvalues --    0.76867   0.77854   0.79028   0.80125   0.83116
 Alpha virt. eigenvalues --    0.84789   0.86020   0.87218   0.89443   0.90049
 Alpha virt. eigenvalues --    0.92106   0.93200   0.94619   0.97862   0.98700
 Alpha virt. eigenvalues --    1.03005   1.07625   1.09859   1.13333   1.15337
 Alpha virt. eigenvalues --    1.16771   1.20452   1.21761   1.22392   1.24291
 Alpha virt. eigenvalues --    1.25708   1.31653   1.33009   1.34914   1.35797
 Alpha virt. eigenvalues --    1.37549   1.40494   1.42390   1.43249   1.45224
 Alpha virt. eigenvalues --    1.46562   1.49228   1.50058   1.53098   1.54224
 Alpha virt. eigenvalues --    1.54944   1.56070   1.59426   1.61213   1.61563
 Alpha virt. eigenvalues --    1.63609   1.65038   1.66235   1.67158   1.69317
 Alpha virt. eigenvalues --    1.70165   1.72451   1.74713   1.76784   1.79979
 Alpha virt. eigenvalues --    1.83964   1.86543   1.91822   1.94391   1.96333
 Alpha virt. eigenvalues --    2.01306   2.03385   2.04529   2.11870   2.14600
 Alpha virt. eigenvalues --    2.16981   2.20338   2.21719   2.27909   2.32296
 Alpha virt. eigenvalues --    2.32762   2.36001   2.37339   2.39761   2.41408
 Alpha virt. eigenvalues --    2.48015   2.50063   2.53732   2.60331   2.62108
 Alpha virt. eigenvalues --    2.62736   2.65593   2.67305   2.69367   2.72691
 Alpha virt. eigenvalues --    2.75532   2.78469   2.81567   2.85965   2.86775
 Alpha virt. eigenvalues --    2.88198   2.88710   2.89977   2.92722   2.95621
 Alpha virt. eigenvalues --    2.96856   2.98613   2.99677   3.02704   3.03323
 Alpha virt. eigenvalues --    3.05496   3.10195   3.13628   3.14648   3.15948
 Alpha virt. eigenvalues --    3.19873   3.21419   3.26162   3.27537   3.30189
 Alpha virt. eigenvalues --    3.30550   3.33895   3.36563   3.37625   3.38854
 Alpha virt. eigenvalues --    3.42780   3.45284   3.45951   3.50441   3.54414
 Alpha virt. eigenvalues --    3.58309   3.60281   3.63496   3.66301   3.68186
 Alpha virt. eigenvalues --    3.71696   3.76607   3.78529   3.83680   3.87004
 Alpha virt. eigenvalues --    3.88469   3.91656   3.91942   3.94137   3.99895
 Alpha virt. eigenvalues --    4.07218   4.10734   4.15656   4.17726   4.20880
 Alpha virt. eigenvalues --    4.22841   4.25573   4.31532   4.34558   4.36823
 Alpha virt. eigenvalues --    4.38037   4.40890   4.41048   4.44049   4.45647
 Alpha virt. eigenvalues --    4.49432   4.49797   4.52962   4.54733   4.56412
 Alpha virt. eigenvalues --    4.58201   4.60680   4.61618   4.64233   4.66995
 Alpha virt. eigenvalues --    4.67469   4.69703   4.69742   4.72558   4.74971
 Alpha virt. eigenvalues --    4.75775   4.77746   4.80180   4.80907   4.82731
 Alpha virt. eigenvalues --    4.83802   4.85223   4.86719   4.88034   4.90177
 Alpha virt. eigenvalues --    4.92258   4.94887   4.97092   4.99358   5.03583
 Alpha virt. eigenvalues --    5.06294   5.07319   5.09993   5.16380   5.20655
 Alpha virt. eigenvalues --    5.25163   5.31330   5.33032   5.36547   5.40513
 Alpha virt. eigenvalues --    5.42083   5.42990   5.47067   5.50762   5.51540
 Alpha virt. eigenvalues --    5.53748   5.55117   5.65875   5.68721   5.74647
 Alpha virt. eigenvalues --    5.75905   5.85746   5.91943   5.95857   6.01237
 Alpha virt. eigenvalues --    6.02373   6.08903   6.14993   6.20115   6.58294
 Alpha virt. eigenvalues --    6.75582   7.09864   7.26915   7.76187  10.94447
 Alpha virt. eigenvalues --   11.66900  11.78477  12.10556  12.52206  12.70714
 Alpha virt. eigenvalues --   13.08965  13.57892  13.79779
          Condensed to atoms (all electrons):
               1          2          3          4          5          6
     1  O    7.863932   0.397088  -0.035651   0.001245   0.000271   0.000482
     2  C    0.397088   4.564802   0.294470  -0.065228  -0.015868   0.000516
     3  C   -0.035651   0.294470   5.263992   0.311642  -0.000365  -0.016267
     4  C    0.001245  -0.065228   0.311642   4.972154   0.353196  -0.012360
     5  C    0.000271  -0.015868  -0.000365   0.353196   4.711357   0.354628
     6  C    0.000482   0.000516  -0.016267  -0.012360   0.354628   5.025694
     7  C   -0.020712   0.358047  -0.034875  -0.014489  -0.008690   0.337793
     8  O    0.001045  -0.040592   0.009188  -0.073196   0.334406  -0.043876
     9  C   -0.035029   0.335773  -0.136810   0.361259  -0.127965  -0.013783
    10  H    0.316144  -0.073346  -0.001920  -0.000684   0.000116  -0.000432
    11  H   -0.001518  -0.017487   0.342236  -0.015766   0.003991  -0.000263
    12  H    0.001821  -0.011286   0.343746  -0.012152  -0.010238   0.003795
    13  H   -0.000162   0.008485  -0.046670   0.356256  -0.036198   0.005422
    14  H    0.000007  -0.001418   0.003885  -0.039297   0.375347  -0.067309
    15  H   -0.000010   0.002304  -0.000080   0.004118  -0.021455   0.364862
    16  H    0.000012  -0.005339   0.005950  -0.008533  -0.017986   0.345906
    17  H    0.001100  -0.022844   0.006919   0.000819  -0.005047  -0.022287
    18  H    0.000202  -0.016016  -0.009427   0.001922   0.002092  -0.026266
    19  H   -0.000057  -0.059662   0.011833  -0.036394   0.010856  -0.000691
               7          8          9         10         11         12
     1  O   -0.020712   0.001045  -0.035029   0.316144  -0.001518   0.001821
     2  C    0.358047  -0.040592   0.335773  -0.073346  -0.017487  -0.011286
     3  C   -0.034875   0.009188  -0.136810  -0.001920   0.342236   0.343746
     4  C   -0.014489  -0.073196   0.361259  -0.000684  -0.015766  -0.012152
     5  C   -0.008690   0.334406  -0.127965   0.000116   0.003991  -0.010238
     6  C    0.337793  -0.043876  -0.013783  -0.000432  -0.000263   0.003795
     7  C    4.958080  -0.005599  -0.025406   0.008734   0.004970  -0.008624
     8  O   -0.005599   7.819736   0.336757  -0.000043  -0.000243  -0.000158
     9  C   -0.025406   0.336757   4.913038  -0.001458  -0.003298   0.006306
    10  H    0.008734  -0.000043  -0.001458   0.470122   0.004983  -0.000276
    11  H    0.004970  -0.000243  -0.003298   0.004983   0.635596  -0.039774
    12  H   -0.008624  -0.000158   0.006306  -0.000276  -0.039774   0.619019
    13  H   -0.000666   0.005590  -0.022128  -0.000036  -0.005239   0.002781
    14  H    0.005853  -0.027119   0.008639  -0.000001  -0.000068   0.000066
    15  H   -0.025921  -0.001041   0.001109   0.000005   0.000001  -0.000130
    16  H   -0.023557   0.002901   0.001138   0.000007  -0.000021   0.001978
    17  H    0.356515   0.009688  -0.008899  -0.000136  -0.000170   0.000002
    18  H    0.355594   0.000345   0.003958  -0.000147  -0.000025   0.003180
    19  H    0.003549  -0.024793   0.346453   0.003180   0.000969  -0.000601
              13         14         15         16         17         18
     1  O   -0.000162   0.000007  -0.000010   0.000012   0.001100   0.000202
     2  C    0.008485  -0.001418   0.002304  -0.005339  -0.022844  -0.016016
     3  C   -0.046670   0.003885  -0.000080   0.005950   0.006919  -0.009427
     4  C    0.356256  -0.039297   0.004118  -0.008533   0.000819   0.001922
     5  C   -0.036198   0.375347  -0.021455  -0.017986  -0.005047   0.002092
     6  C    0.005422  -0.067309   0.364862   0.345906  -0.022287  -0.026266
     7  C   -0.000666   0.005853  -0.025921  -0.023557   0.356515   0.355594
     8  O    0.005590  -0.027119  -0.001041   0.002901   0.009688   0.000345
     9  C   -0.022128   0.008639   0.001109   0.001138  -0.008899   0.003958
    10  H   -0.000036  -0.000001   0.000005   0.000007  -0.000136  -0.000147
    11  H   -0.005239  -0.000068   0.000001  -0.000021  -0.000170  -0.000025
    12  H    0.002781   0.000066  -0.000130   0.001978   0.000002   0.003180
    13  H    0.668738  -0.007380  -0.000137  -0.000155   0.000014   0.000038
    14  H   -0.007380   0.674029  -0.003888   0.002827  -0.000093  -0.000140
    15  H   -0.000137  -0.003888   0.616710  -0.039243  -0.007760   0.002514
    16  H   -0.000155   0.002827  -0.039243   0.635353   0.005037  -0.008106
    17  H    0.000014  -0.000093  -0.007760   0.005037   0.606187  -0.039093
    18  H    0.000038  -0.000140   0.002514  -0.008106  -0.039093   0.627755
    19  H   -0.004093  -0.000551   0.000056   0.000037   0.000394  -0.000154
              19
     1  O   -0.000057
     2  C   -0.059662
     3  C    0.011833
     4  C   -0.036394
     5  C    0.010856
     6  C   -0.000691
     7  C    0.003549
     8  O   -0.024793
     9  C    0.346453
    10  H    0.003180
    11  H    0.000969
    12  H   -0.000601
    13  H   -0.004093
    14  H   -0.000551
    15  H    0.000056
    16  H    0.000037
    17  H    0.000394
    18  H   -0.000154
    19  H    0.679716
 Mulliken charges:
               1
     1  O   -0.490209
     2  C    0.367600
     3  C   -0.311796
     4  C   -0.084513
     5  C    0.097552
     6  C   -0.235565
     7  C   -0.220597
     8  O   -0.302997
     9  C    0.060346
    10  H    0.275189
    11  H    0.091126
    12  H    0.100548
    13  H    0.075541
    14  H    0.076612
    15  H    0.107988
    16  H    0.101795
    17  H    0.119655
    18  H    0.101773
    19  H    0.069954
 Sum of Mulliken charges =   0.00000
 Mulliken charges with hydrogens summed into heavy atoms:
               1
     1  O   -0.215020
     2  C    0.367600
     3  C   -0.120123
     4  C   -0.008972
     5  C    0.174164
     6  C   -0.025783
     7  C    0.000831
     8  O   -0.302997
     9  C    0.130300
 Electronic spatial extent (au):  <R**2>=            917.6006
 Charge=              0.0000 electrons
 Dipole moment (field-independent basis, Debye):
    X=              0.1337    Y=             -1.1534    Z=              1.8472  Tot=              2.1818
 Quadrupole moment (field-independent basis, Debye-Ang):
   XX=            -52.9245   YY=            -50.4317   ZZ=            -55.7067
   XY=             -5.0086   XZ=             -2.1014   YZ=              0.4704
 Traceless Quadrupole moment (field-independent basis, Debye-Ang):
   XX=              0.0965   YY=              2.5893   ZZ=             -2.6858
   XY=             -5.0086   XZ=             -2.1014   YZ=              0.4704
 Octapole moment (field-independent basis, Debye-Ang**2):
  XXX=              3.9163  YYY=             -2.1652  ZZZ=             -3.4716  XYY=              4.0085
  XXY=            -11.2827  XXZ=              2.1957  XZZ=              5.5753  YZZ=              0.7090
  YYZ=             -3.2711  XYZ=              4.0428
 Hexadecapole moment (field-independent basis, Debye-Ang**3):
 XXXX=           -504.6063 YYYY=           -360.7546 ZZZZ=           -267.9358 XXXY=            -31.3092
 XXXZ=             -3.5419 YYYX=              0.6725 YYYZ=              0.6924 ZZZX=             -5.5686
 ZZZY=              4.9613 XXYY=           -142.0549 XXZZ=           -141.9445 YYZZ=           -101.1647
 XXYZ=              2.2913 YYXZ=             -0.8173 ZZXY=             -2.7089
 N-N= 4.929093809291D+02 E-N=-1.972995134131D+03  KE= 4.200805615657D+02
 Calling FoFJK, ICntrl=      2127 FMM=F ISym2X=0 I1Cent= 0 IOpClX= 0 NMat=1 NMatS=1 NMatT=0.
 ***** Axes restored to original set *****
 -------------------------------------------------------------------
 Center     Atomic                   Forces (Hartrees/Bohr)
 Number     Number              X              Y              Z
 -------------------------------------------------------------------
      1        8          -0.000030133   -0.000021320    0.000036449
      2        6           0.000081102    0.000017010    0.000014810
      3        6          -0.000001204   -0.000007257   -0.000022031
      4        6          -0.000003902   -0.000007838    0.000000446
      5        6           0.000042498    0.000018900    0.000018102
      6        6          -0.000001468   -0.000028597   -0.000019779
      7        6          -0.000023201   -0.000004107   -0.000002389
      8        8           0.000030530   -0.000030234   -0.000053718
      9        6          -0.000094227    0.000070072    0.000002032
     10        1          -0.000004100    0.000023925   -0.000007227
     11        1           0.000010589    0.000005412    0.000001253
     12        1          -0.000002572    0.000018987    0.000008045
     13        1           0.000003107    0.000005640    0.000031123
     14        1          -0.000004599   -0.000011970   -0.000008383
     15        1           0.000003218   -0.000001636    0.000006613
     16        1          -0.000002213   -0.000002025   -0.000015010
     17        1          -0.000006934   -0.000004561    0.000012700
     18        1           0.000003545    0.000003996   -0.000004431
     19        1          -0.000000036   -0.000044397    0.000001396
 -------------------------------------------------------------------
 Cartesian Forces:  Max     0.000094227 RMS     0.000025883

 GradGradGradGradGradGradGradGradGradGradGradGradGradGradGradGradGradGrad
 Berny optimization.
 FormGI is forming the generalized inverse of G from B-inverse, IUseBI=4.
 Internal  Forces:  Max     0.000039921 RMS     0.000009815
 Search for a local minimum.
 Step number   1 out of a maximum of  114
 All quantities printed in internal units (Hartrees-Bohrs-Radians)
 Mixed Optimization -- En-DIIS/RFO-DIIS
 Second derivative matrix not updated -- first step.
 ITU=  0
     Eigenvalues ---    0.00530   0.01247   0.01675   0.01910   0.02095
     Eigenvalues ---    0.02645   0.03032   0.03379   0.03800   0.03908
     Eigenvalues ---    0.04094   0.04532   0.04738   0.05131   0.05412
     Eigenvalues ---    0.05759   0.05956   0.06224   0.06777   0.07172
     Eigenvalues ---    0.07399   0.07623   0.07691   0.08338   0.09813
     Eigenvalues ---    0.09989   0.11311   0.13120   0.13598   0.16000
     Eigenvalues ---    0.16699   0.21166   0.21527   0.24967   0.25180
     Eigenvalues ---    0.26293   0.27392   0.29093   0.31479   0.34121
     Eigenvalues ---    0.34124   0.34363   0.34365   0.34373   0.34406
     Eigenvalues ---    0.34503   0.34519   0.34923   0.35230   0.45414
     Eigenvalues ---    0.54868
 RFO step:  Lambda=-1.00376014D-07 EMin= 5.29620007D-03
 Linear search not attempted -- first point.
 Iteration  1 RMS(Cart)=  0.00010670 RMS(Int)=  0.00000001
 Iteration  2 RMS(Cart)=  0.00000001 RMS(Int)=  0.00000000
 Variable       Old X    -DE/DX   Delta X   Delta X   Delta X     New X
                                 (Linear)    (Quad)   (Total)
    R1        2.64798  -0.00004   0.00000  -0.00008  -0.00008   2.64789
    R2        1.81949  -0.00003   0.00000  -0.00005  -0.00005   1.81945
    R3        2.94855  -0.00002   0.00000  -0.00010  -0.00010   2.94845
    R4        2.89287   0.00000   0.00000   0.00003   0.00003   2.89290
    R5        3.01121   0.00003   0.00000   0.00016   0.00016   3.01137
    R6        2.90994   0.00001   0.00000   0.00004   0.00004   2.90998
    R7        2.07126   0.00001   0.00000   0.00002   0.00002   2.07128
    R8        2.06705   0.00002   0.00000   0.00005   0.00005   2.06710
    R9        2.96994   0.00000   0.00000   0.00001   0.00001   2.96996
   R10        2.90443   0.00000   0.00000  -0.00004  -0.00004   2.90439
   R11        2.05800   0.00001   0.00000   0.00004   0.00004   2.05804
   R12        2.88125  -0.00002   0.00000  -0.00010  -0.00010   2.88116
   R13        2.76984   0.00002   0.00000   0.00006   0.00006   2.76990
   R14        2.06464   0.00000   0.00000   0.00001   0.00001   2.06465
   R15        2.92730  -0.00002   0.00000  -0.00004  -0.00004   2.92726
   R16        2.06722  -0.00001   0.00000  -0.00003  -0.00003   2.06719
   R17        2.07121  -0.00001   0.00000  -0.00002  -0.00002   2.07119
   R18        2.06489  -0.00002   0.00000  -0.00004  -0.00004   2.06484
   R19        2.06719   0.00001   0.00000   0.00002   0.00002   2.06721
   R20        2.70652  -0.00001   0.00000  -0.00006  -0.00006   2.70646
   R21        2.06651   0.00004   0.00000   0.00012   0.00012   2.06662
    A1        1.89388   0.00001   0.00000   0.00004   0.00004   1.89391
    A2        2.09437  -0.00001   0.00000  -0.00005  -0.00005   2.09432
    A3        1.90076   0.00001   0.00000   0.00010   0.00010   1.90086
    A4        2.09490   0.00001   0.00000   0.00006   0.00006   2.09496
    A5        1.91298   0.00000   0.00000  -0.00004  -0.00004   1.91293
    A6        1.53980   0.00000   0.00000  -0.00002  -0.00002   1.53978
    A7        1.89099  -0.00002   0.00000  -0.00009  -0.00009   1.89091
    A8        1.52044   0.00000   0.00000   0.00005   0.00005   1.52048
    A9        1.94605   0.00000   0.00000  -0.00013  -0.00013   1.94593
   A10        2.05773   0.00000   0.00000   0.00002   0.00002   2.05775
   A11        1.91802   0.00000   0.00000   0.00007   0.00007   1.91810
   A12        2.09788   0.00000   0.00000   0.00001   0.00001   2.09789
   A13        1.89806   0.00000   0.00000  -0.00002  -0.00002   1.89803
   A14        2.00914   0.00000   0.00000   0.00003   0.00003   2.00918
   A15        1.58899   0.00001   0.00000   0.00000   0.00000   1.58899
   A16        2.11638  -0.00001   0.00000  -0.00014  -0.00014   2.11623
   A17        1.40361  -0.00001   0.00000  -0.00014  -0.00014   1.40347
   A18        2.02524   0.00001   0.00000   0.00012   0.00012   2.02536
   A19        2.16411   0.00000   0.00000   0.00014   0.00014   2.16424
   A20        1.95459   0.00000   0.00000  -0.00003  -0.00003   1.95456
   A21        1.59301   0.00001   0.00000   0.00018   0.00018   1.59318
   A22        2.04807   0.00000   0.00000  -0.00001  -0.00001   2.04805
   A23        1.87707   0.00000   0.00000  -0.00005  -0.00005   1.87702
   A24        1.99831   0.00000   0.00000   0.00003   0.00003   1.99835
   A25        1.94543  -0.00001   0.00000  -0.00010  -0.00010   1.94533
   A26        1.86523   0.00001   0.00000  -0.00002  -0.00002   1.86521
   A27        1.92666   0.00000   0.00000   0.00005   0.00005   1.92671
   A28        1.91674   0.00000   0.00000  -0.00001  -0.00001   1.91673
   A29        1.93471   0.00000   0.00000   0.00004   0.00004   1.93475
   A30        1.95016   0.00000   0.00000   0.00000   0.00000   1.95016
   A31        1.87103   0.00000   0.00000  -0.00006  -0.00006   1.87097
   A32        1.89872   0.00000   0.00000   0.00004   0.00004   1.89875
   A33        1.89234   0.00000   0.00000  -0.00003  -0.00003   1.89232
   A34        1.91047   0.00000   0.00000   0.00003   0.00003   1.91050
   A35        1.92454   0.00000   0.00000  -0.00009  -0.00009   1.92445
   A36        1.95387   0.00000   0.00000   0.00003   0.00003   1.95390
   A37        1.88296   0.00000   0.00000   0.00001   0.00001   1.88297
   A38        1.52998  -0.00002   0.00000  -0.00017  -0.00017   1.52981
   A39        1.50184  -0.00001   0.00000  -0.00001  -0.00001   1.50183
   A40        1.98740   0.00001   0.00000  -0.00004  -0.00004   1.98736
   A41        2.04641   0.00000   0.00000   0.00008   0.00008   2.04649
   A42        1.64063   0.00003   0.00000   0.00025   0.00025   1.64088
   A43        2.21680  -0.00001   0.00000  -0.00010  -0.00010   2.21671
   A44        1.99603  -0.00002   0.00000  -0.00014  -0.00014   1.99589
    D1        0.90464   0.00000   0.00000  -0.00005  -0.00005   0.90459
    D2        3.12804   0.00000   0.00000  -0.00005  -0.00005   3.12799
    D3       -0.96286   0.00000   0.00000  -0.00004  -0.00004  -0.96289
    D4       -2.51994   0.00000   0.00000   0.00000   0.00000  -2.51994
    D5       -0.59546   0.00000   0.00000   0.00008   0.00008  -0.59538
    D6        1.61820   0.00000   0.00000  -0.00005  -0.00005   1.61815
    D7        1.54547  -0.00001   0.00000  -0.00007  -0.00007   1.54540
    D8       -2.81325   0.00000   0.00000   0.00002   0.00002  -2.81323
    D9       -0.59958  -0.00001   0.00000  -0.00012  -0.00012  -0.59970
   D10       -0.35448   0.00001   0.00000   0.00004   0.00004  -0.35445
   D11        1.56999   0.00001   0.00000   0.00012   0.00012   1.57011
   D12       -2.49953   0.00001   0.00000  -0.00001  -0.00001  -2.49954
   D13       -3.12367   0.00000   0.00000  -0.00005  -0.00005  -3.12372
   D14        1.06628   0.00001   0.00000   0.00005   0.00005   1.06633
   D15       -0.98369   0.00000   0.00000   0.00004   0.00004  -0.98365
   D16       -0.80102   0.00000   0.00000  -0.00006  -0.00006  -0.80108
   D17       -2.89425   0.00000   0.00000   0.00004   0.00004  -2.89421
   D18        1.33897   0.00000   0.00000   0.00002   0.00002   1.33899
   D19        0.85333   0.00000   0.00000  -0.00013  -0.00013   0.85320
   D20       -1.23991   0.00000   0.00000  -0.00003  -0.00003  -1.23993
   D21        2.99332   0.00000   0.00000  -0.00004  -0.00004   2.99327
   D22        2.52059  -0.00002   0.00000  -0.00007  -0.00007   2.52052
   D23       -2.14585   0.00001   0.00000   0.00020   0.00020  -2.14566
   D24        0.25113   0.00000   0.00000   0.00002   0.00002   0.25114
   D25        0.35560  -0.00001   0.00000  -0.00002  -0.00002   0.35557
   D26        1.97234   0.00002   0.00000   0.00024   0.00024   1.97258
   D27       -1.91387   0.00001   0.00000   0.00007   0.00007  -1.91380
   D28       -1.56573  -0.00001   0.00000   0.00003   0.00003  -1.56570
   D29        0.05101   0.00002   0.00000   0.00030   0.00030   0.05131
   D30        2.44799   0.00000   0.00000   0.00012   0.00012   2.44811
   D31       -1.02660   0.00001   0.00000   0.00015   0.00015  -1.02645
   D32        0.36800  -0.00001   0.00000  -0.00001  -0.00001   0.36799
   D33        2.66658   0.00000   0.00000   0.00009   0.00009   2.66667
   D34       -2.97859   0.00001   0.00000   0.00026   0.00026  -2.97833
   D35       -1.58398   0.00000   0.00000   0.00010   0.00010  -1.58389
   D36        0.71459   0.00001   0.00000   0.00019   0.00019   0.71479
   D37        1.08259   0.00001   0.00000   0.00020   0.00020   1.08279
   D38        2.47719   0.00000   0.00000   0.00004   0.00004   2.47723
   D39       -1.50742   0.00000   0.00000   0.00014   0.00014  -1.50728
   D40       -0.07594  -0.00001   0.00000  -0.00024  -0.00024  -0.07618
   D41        1.83562   0.00000   0.00000  -0.00022  -0.00022   1.83540
   D42       -2.43940   0.00000   0.00000  -0.00025  -0.00025  -2.43964
   D43       -1.58797  -0.00001   0.00000  -0.00017  -0.00017  -1.58814
   D44        0.32359  -0.00001   0.00000  -0.00015  -0.00015   0.32344
   D45        2.33176  -0.00001   0.00000  -0.00018  -0.00018   2.33158
   D46        2.54371  -0.00001   0.00000  -0.00027  -0.00027   2.54344
   D47       -1.82791   0.00000   0.00000  -0.00025  -0.00025  -1.82816
   D48        0.18025   0.00000   0.00000  -0.00027  -0.00027   0.17998
   D49       -0.36041   0.00001   0.00000   0.00004   0.00004  -0.36037
   D50       -2.34467   0.00000   0.00000   0.00010   0.00010  -2.34457
   D51        1.76044   0.00000   0.00000   0.00010   0.00010   1.76054
   D52        1.65205   0.00001   0.00000   0.00008   0.00008   1.65213
   D53       -0.33221   0.00000   0.00000   0.00014   0.00014  -0.33207
   D54       -2.51029   0.00000   0.00000   0.00014   0.00014  -2.51014
   D55       -2.62344   0.00001   0.00000   0.00015   0.00015  -2.62328
   D56        1.67549   0.00000   0.00000   0.00021   0.00021   1.67570
   D57       -0.50259   0.00001   0.00000   0.00022   0.00022  -0.50237
   D58        0.93364   0.00000   0.00000   0.00011   0.00011   0.93375
   D59        3.03906   0.00001   0.00000   0.00017   0.00017   3.03923
   D60       -1.18477   0.00000   0.00000   0.00012   0.00012  -1.18465
   D61       -0.79057  -0.00001   0.00000  -0.00006  -0.00006  -0.79063
   D62        1.31484  -0.00001   0.00000   0.00001   0.00001   1.31485
   D63       -2.90898  -0.00001   0.00000  -0.00004  -0.00004  -2.90903
   D64       -2.96280   0.00000   0.00000   0.00009   0.00009  -2.96271
   D65       -0.85739   0.00000   0.00000   0.00016   0.00016  -0.85723
   D66        1.20197   0.00000   0.00000   0.00011   0.00011   1.20208
   D67       -0.34346   0.00000   0.00000   0.00017   0.00017  -0.34330
   D68        1.63867   0.00001   0.00000   0.00019   0.00019   1.63886
   D69       -2.44068   0.00000   0.00000   0.00013   0.00013  -2.44056
   D70       -0.49822   0.00000   0.00000   0.00000   0.00000  -0.49822
   D71        1.57492   0.00000   0.00000  -0.00006  -0.00006   1.57486
   D72       -2.61181   0.00000   0.00000  -0.00009  -0.00009  -2.61190
   D73       -2.59849   0.00000   0.00000  -0.00007  -0.00007  -2.59856
   D74       -0.52535   0.00000   0.00000  -0.00013  -0.00013  -0.52548
   D75        1.57110   0.00000   0.00000  -0.00016  -0.00016   1.57095
   D76        1.59889   0.00000   0.00000  -0.00002  -0.00002   1.59887
   D77       -2.61115   0.00000   0.00000  -0.00008  -0.00008  -2.61123
   D78       -0.51470   0.00000   0.00000  -0.00011  -0.00011  -0.51480
   D79       -1.17386  -0.00001   0.00000  -0.00025  -0.00025  -1.17411
   D80        0.35235   0.00000   0.00000  -0.00016  -0.00016   0.35219
   D81        2.69038   0.00000   0.00000  -0.00018  -0.00018   2.69021
         Item               Value     Threshold  Converged?
 Maximum Force            0.000040     0.000450     YES
 RMS     Force            0.000010     0.000300     YES
 Maximum Displacement     0.000498     0.001800     YES
 RMS     Displacement     0.000107     0.001200     YES
 Predicted change in Energy=-5.018698D-08
 Optimization completed.
    -- Stationary point found.
                           ----------------------------
                           !   Optimized Parameters   !
                           ! (Angstroms and Degrees)  !
 --------------------------                            --------------------------
 ! Name  Definition              Value          Derivative Info.                !
 --------------------------------------------------------------------------------
 ! R1    R(1,2)                  1.4012         -DE/DX =    0.0                 !
 ! R2    R(1,10)                 0.9628         -DE/DX =    0.0                 !
 ! R3    R(2,3)                  1.5603         -DE/DX =    0.0                 !
 ! R4    R(2,7)                  1.5308         -DE/DX =    0.0                 !
 ! R5    R(2,9)                  1.5935         -DE/DX =    0.0                 !
 ! R6    R(3,4)                  1.5399         -DE/DX =    0.0                 !
 ! R7    R(3,11)                 1.0961         -DE/DX =    0.0                 !
 ! R8    R(3,12)                 1.0938         -DE/DX =    0.0                 !
 ! R9    R(4,5)                  1.5716         -DE/DX =    0.0                 !
 ! R10   R(4,9)                  1.537          -DE/DX =    0.0                 !
 ! R11   R(4,13)                 1.089          -DE/DX =    0.0                 !
 ! R12   R(5,6)                  1.5247         -DE/DX =    0.0                 !
 ! R13   R(5,8)                  1.4657         -DE/DX =    0.0                 !
 ! R14   R(5,14)                 1.0926         -DE/DX =    0.0                 !
 ! R15   R(6,7)                  1.5491         -DE/DX =    0.0                 !
 ! R16   R(6,15)                 1.0939         -DE/DX =    0.0                 !
 ! R17   R(6,16)                 1.096          -DE/DX =    0.0                 !
 ! R18   R(7,17)                 1.0927         -DE/DX =    0.0                 !
 ! R19   R(7,18)                 1.0939         -DE/DX =    0.0                 !
 ! R20   R(8,9)                  1.4322         -DE/DX =    0.0                 !
 ! R21   R(9,19)                 1.0935         -DE/DX =    0.0                 !
 ! A1    A(2,1,10)             108.5111         -DE/DX =    0.0                 !
 ! A2    A(1,2,3)              119.9984         -DE/DX =    0.0                 !
 ! A3    A(1,2,7)              108.9055         -DE/DX =    0.0                 !
 ! A4    A(1,2,9)              120.0291         -DE/DX =    0.0                 !
 ! A5    A(3,2,7)              109.6054         -DE/DX =    0.0                 !
 ! A6    A(3,2,9)               88.2239         -DE/DX =    0.0                 !
 ! A7    A(7,2,9)              108.346          -DE/DX =    0.0                 !
 ! A8    A(2,3,4)               87.1147         -DE/DX =    0.0                 !
 ! A9    A(2,3,11)             111.5005         -DE/DX =    0.0                 !
 ! A10   A(2,3,12)             117.8995         -DE/DX =    0.0                 !
 ! A11   A(4,3,11)             109.8945         -DE/DX =    0.0                 !
 ! A12   A(4,3,12)             120.1995         -DE/DX =    0.0                 !
 ! A13   A(11,3,12)            108.7506         -DE/DX =    0.0                 !
 ! A14   A(3,4,5)              115.1155         -DE/DX =    0.0                 !
 ! A15   A(3,4,9)               91.0424         -DE/DX =    0.0                 !
 ! A16   A(3,4,13)             121.2595         -DE/DX =    0.0                 !
 ! A17   A(5,4,9)               80.4212         -DE/DX =    0.0                 !
 ! A18   A(5,4,13)             116.0378         -DE/DX =    0.0                 !
 ! A19   A(9,4,13)             123.9941         -DE/DX =    0.0                 !
 ! A20   A(4,5,6)              111.9895         -DE/DX =    0.0                 !
 ! A21   A(4,5,8)               91.2726         -DE/DX =    0.0                 !
 ! A22   A(4,5,14)             117.3455         -DE/DX =    0.0                 !
 ! A23   A(6,5,8)              107.5481         -DE/DX =    0.0                 !
 ! A24   A(6,5,14)             114.4949         -DE/DX =    0.0                 !
 ! A25   A(8,5,14)             111.4649         -DE/DX =    0.0                 !
 ! A26   A(5,6,7)              106.8699         -DE/DX =    0.0                 !
 ! A27   A(5,6,15)             110.3895         -DE/DX =    0.0                 !
 ! A28   A(5,6,16)             109.8212         -DE/DX =    0.0                 !
 ! A29   A(7,6,15)             110.8506         -DE/DX =    0.0                 !
 ! A30   A(7,6,16)             111.7358         -DE/DX =    0.0                 !
 ! A31   A(15,6,16)            107.2023         -DE/DX =    0.0                 !
 ! A32   A(2,7,6)              108.7884         -DE/DX =    0.0                 !
 ! A33   A(2,7,17)             108.4232         -DE/DX =    0.0                 !
 ! A34   A(2,7,18)             109.4619         -DE/DX =    0.0                 !
 ! A35   A(6,7,17)             110.2678         -DE/DX =    0.0                 !
 ! A36   A(6,7,18)             111.9484         -DE/DX =    0.0                 !
 ! A37   A(17,7,18)            107.8858         -DE/DX =    0.0                 !
 ! A38   A(5,8,9)               87.6612         -DE/DX =    0.0                 !
 ! A39   A(2,9,4)               86.0492         -DE/DX =    0.0                 !
 ! A40   A(2,9,8)              113.8697         -DE/DX =    0.0                 !
 ! A41   A(2,9,19)             117.2506         -DE/DX =    0.0                 !
 ! A42   A(4,9,8)               94.0013         -DE/DX =    0.0                 !
 ! A43   A(4,9,19)             127.0135         -DE/DX =    0.0                 !
 ! A44   A(8,9,19)             114.3641         -DE/DX =    0.0                 !
 ! D1    D(10,1,2,3)            51.8321         -DE/DX =    0.0                 !
 ! D2    D(10,1,2,7)           179.2234         -DE/DX =    0.0                 !
 ! D3    D(10,1,2,9)           -55.1677         -DE/DX =    0.0                 !
 ! D4    D(1,2,3,4)           -144.3818         -DE/DX =    0.0                 !
 ! D5    D(1,2,3,11)           -34.1175         -DE/DX =    0.0                 !
 ! D6    D(1,2,3,12)            92.7162         -DE/DX =    0.0                 !
 ! D7    D(7,2,3,4)             88.5486         -DE/DX =    0.0                 !
 ! D8    D(7,2,3,11)          -161.1871         -DE/DX =    0.0                 !
 ! D9    D(7,2,3,12)           -34.3534         -DE/DX =    0.0                 !
 ! D10   D(9,2,3,4)            -20.3104         -DE/DX =    0.0                 !
 ! D11   D(9,2,3,11)            89.9538         -DE/DX =    0.0                 !
 ! D12   D(9,2,3,12)          -143.2125         -DE/DX =    0.0                 !
 ! D13   D(1,2,7,6)           -178.9733         -DE/DX =    0.0                 !
 ! D14   D(1,2,7,17)            61.0931         -DE/DX =    0.0                 !
 ! D15   D(1,2,7,18)           -56.361          -DE/DX =    0.0                 !
 ! D16   D(3,2,7,6)            -45.8949         -DE/DX =    0.0                 !
 ! D17   D(3,2,7,17)          -165.8285         -DE/DX =    0.0                 !
 ! D18   D(3,2,7,18)            76.7174         -DE/DX =    0.0                 !
 ! D19   D(9,2,7,6)             48.8922         -DE/DX =    0.0                 !
 ! D20   D(9,2,7,17)           -71.0414         -DE/DX =    0.0                 !
 ! D21   D(9,2,7,18)           171.5046         -DE/DX =    0.0                 !
 ! D22   D(1,2,9,4)            144.4194         -DE/DX =    0.0                 !
 ! D23   D(1,2,9,8)           -122.9483         -DE/DX =    0.0                 !
 ! D24   D(1,2,9,19)            14.3885         -DE/DX =    0.0                 !
 ! D25   D(3,2,9,4)             20.3743         -DE/DX =    0.0                 !
 ! D26   D(3,2,9,8)            113.0065         -DE/DX =    0.0                 !
 ! D27   D(3,2,9,19)          -109.6567         -DE/DX =    0.0                 !
 ! D28   D(7,2,9,4)            -89.7096         -DE/DX =    0.0                 !
 ! D29   D(7,2,9,8)              2.9227         -DE/DX =    0.0                 !
 ! D30   D(7,2,9,19)           140.2594         -DE/DX =    0.0                 !
 ! D31   D(2,3,4,5)            -58.8199         -DE/DX =    0.0                 !
 ! D32   D(2,3,4,9)             21.0851         -DE/DX =    0.0                 !
 ! D33   D(2,3,4,13)           152.7839         -DE/DX =    0.0                 !
 ! D34   D(11,3,4,5)          -170.6605         -DE/DX =    0.0                 !
 ! D35   D(11,3,4,9)           -90.7555         -DE/DX =    0.0                 !
 ! D36   D(11,3,4,13)           40.9433         -DE/DX =    0.0                 !
 ! D37   D(12,3,4,5)            62.0277         -DE/DX =    0.0                 !
 ! D38   D(12,3,4,9)           141.9326         -DE/DX =    0.0                 !
 ! D39   D(12,3,4,13)          -86.3686         -DE/DX =    0.0                 !
 ! D40   D(3,4,5,6)             -4.351          -DE/DX =    0.0                 !
 ! D41   D(3,4,5,8)            105.1735         -DE/DX =    0.0                 !
 ! D42   D(3,4,5,14)          -139.7671         -DE/DX =    0.0                 !
 ! D43   D(9,4,5,6)            -90.984          -DE/DX =    0.0                 !
 ! D44   D(9,4,5,8)             18.5406         -DE/DX =    0.0                 !
 ! D45   D(9,4,5,14)           133.5999         -DE/DX =    0.0                 !
 ! D46   D(13,4,5,6)           145.7438         -DE/DX =    0.0                 !
 ! D47   D(13,4,5,8)          -104.7316         -DE/DX =    0.0                 !
 ! D48   D(13,4,5,14)           10.3277         -DE/DX =    0.0                 !
 ! D49   D(3,4,9,2)            -20.6501         -DE/DX =    0.0                 !
 ! D50   D(3,4,9,8)           -134.3397         -DE/DX =    0.0                 !
 ! D51   D(3,4,9,19)           100.8655         -DE/DX =    0.0                 !
 ! D52   D(5,4,9,2)             94.6556         -DE/DX =    0.0                 !
 ! D53   D(5,4,9,8)            -19.034          -DE/DX =    0.0                 !
 ! D54   D(5,4,9,19)          -143.8288         -DE/DX =    0.0                 !
 ! D55   D(13,4,9,2)          -150.3119         -DE/DX =    0.0                 !
 ! D56   D(13,4,9,8)            95.9984         -DE/DX =    0.0                 !
 ! D57   D(13,4,9,19)          -28.7963         -DE/DX =    0.0                 !
 ! D58   D(4,5,6,7)             53.4937         -DE/DX =    0.0                 !
 ! D59   D(4,5,6,15)           174.1251         -DE/DX =    0.0                 !
 ! D60   D(4,5,6,16)           -67.8824         -DE/DX =    0.0                 !
 ! D61   D(8,5,6,7)            -45.2964         -DE/DX =    0.0                 !
 ! D62   D(8,5,6,15)            75.335          -DE/DX =    0.0                 !
 ! D63   D(8,5,6,16)          -166.6725         -DE/DX =    0.0                 !
 ! D64   D(14,5,6,7)          -169.756          -DE/DX =    0.0                 !
 ! D65   D(14,5,6,15)          -49.1246         -DE/DX =    0.0                 !
 ! D66   D(14,5,6,16)           68.8679         -DE/DX =    0.0                 !
 ! D67   D(4,5,8,9)            -19.679          -DE/DX =    0.0                 !
 ! D68   D(6,5,8,9)             93.8888         -DE/DX =    0.0                 !
 ! D69   D(14,5,8,9)          -139.8409         -DE/DX =    0.0                 !
 ! D70   D(5,6,7,2)            -28.5461         -DE/DX =    0.0                 !
 ! D71   D(5,6,7,17)            90.2362         -DE/DX =    0.0                 !
 ! D72   D(5,6,7,18)          -149.6457         -DE/DX =    0.0                 !
 ! D73   D(15,6,7,2)          -148.8828         -DE/DX =    0.0                 !
 ! D74   D(15,6,7,17)          -30.1005         -DE/DX =    0.0                 !
 ! D75   D(15,6,7,18)           90.0176         -DE/DX =    0.0                 !
 ! D76   D(16,6,7,2)            91.6096         -DE/DX =    0.0                 !
 ! D77   D(16,6,7,17)         -149.6081         -DE/DX =    0.0                 !
 ! D78   D(16,6,7,18)          -29.49           -DE/DX =    0.0                 !
 ! D79   D(5,8,9,2)            -67.2571         -DE/DX =    0.0                 !
 ! D80   D(5,8,9,4)             20.188          -DE/DX =    0.0                 !
 ! D81   D(5,8,9,19)           154.1476         -DE/DX =    0.0                 !
 --------------------------------------------------------------------------------
 GradGradGradGradGradGradGradGradGradGradGradGradGradGradGradGradGradGrad

                          Input orientation:                          
 ---------------------------------------------------------------------
 Center     Atomic      Atomic             Coordinates (Angstroms)
 Number     Number       Type             X           Y           Z
 ---------------------------------------------------------------------
      1          8           0        0.622010    0.405145    0.582265
      2          6           0       -0.749395    0.609483    0.784729
      3          6           0       -1.319804    0.694322    2.234551
      4          6           0       -2.572459   -0.024501    1.700358
      5          6           0       -3.320976    0.717353    0.534432
      6          6           0       -2.701521    2.077449    0.232591
      7          6           0       -1.190916    1.838722   -0.013714
      8          8           0       -2.798750   -0.234448   -0.450324
      9          6           0       -1.781927   -0.570485    0.500694
     10          1           0        0.896013   -0.361488    1.096315
     11          1           0       -0.775046    0.034758    2.919804
     12          1           0       -1.406698    1.683496    2.693314
     13          1           0       -3.192282   -0.639009    2.351678
     14          1           0       -4.413314    0.711757    0.555639
     15          1           0       -3.173601    2.524461   -0.647180
     16          1           0       -2.872903    2.758822    1.073816
     17          1           0       -1.005854    1.646935   -1.073405
     18          1           0       -0.587054    2.701592    0.282002
     19          1           0       -1.371971   -1.577756    0.385852
 ---------------------------------------------------------------------
                    Distance matrix (angstroms):
                    1          2          3          4          5
     1  O    0.000000
     2  C    1.401248   0.000000
     3  C    2.565992   1.560304   0.000000
     4  C    3.411650   2.136322   1.539874   0.000000
     5  C    3.955616   2.585983   2.625952   1.571626   0.000000
     6  C    3.736940   2.504111   2.798218   2.566942   1.524694
     7  C    2.386845   1.530843   2.526056   2.884147   2.468823
     8  O    3.630003   2.537209   3.202881   2.172722   1.465738
     9  C    2.595654   1.593462   2.195348   1.536956   2.007071
    10  H    0.962835   1.935778   2.705580   3.536767   4.388918
    11  H    2.748279   2.211224   1.096065   2.172844   3.554953
    12  H    3.194740   2.286536   1.093837   2.293951   3.042805
    13  H    4.332424   3.159392   2.301665   1.089045   2.271269
    14  H    5.044721   3.672499   3.519781   2.289368   1.092559
    15  H    4.517709   3.405037   3.884629   3.517032   2.164155
    16  H    4.242149   3.035213   2.832240   2.868747   2.158541
    17  H    2.633102   2.143535   3.456676   3.597459   2.968005
    18  H    2.612597   2.157779   2.894564   3.658572   3.387514
    19  H    2.818942   2.308835   2.929633   2.362562   3.014668
                    6          7          8          9         10
     6  C    0.000000
     7  C    1.549059   0.000000
     8  O    2.412611   2.659661   0.000000
     9  C    2.815863   2.533414   1.432231   0.000000
    10  H    4.431329   3.229297   4.007431   2.751328   0.000000
    11  H    3.886515   3.468827   3.940255   2.689279   2.504907
    12  H    2.808366   2.720048   3.936849   3.166829   3.469127
    13  H    3.480017   3.967328   2.858277   2.328076   4.285687
    14  H    2.213530   3.460935   2.124637   2.927689   5.443633
    15  H    1.093927   2.191474   2.791209   3.582326   5.284906
    16  H    1.096038   2.204175   3.359787   3.550068   4.893012
    17  H    2.183175   1.092692   2.672510   2.827902   3.515472
    18  H    2.205213   1.093911   3.748097   3.490277   3.499293
    19  H    3.892520   3.444526   2.130579   1.093549   2.669798
                   11         12         13         14         15
    11  H    0.000000
    12  H    1.780061   0.000000
    13  H    2.572890   2.949416   0.000000
    14  H    4.391424   3.814928   2.557585   0.000000
    15  H    4.967400   3.871443   4.359018   2.503909   0.000000
    16  H    3.902461   2.434925   3.644200   2.613781   1.762716
    17  H    4.312552   3.788164   4.662317   3.890904   2.377151
    18  H    3.755708   2.742765   4.714911   4.321410   2.754084
    19  H    3.062260   3.995166   2.838881   3.810573   4.597958
                   16         17         18         19
    16  H    0.000000
    17  H    3.054950   0.000000
    18  H    2.419782   1.767717   0.000000
    19  H    4.640259   3.558386   4.351977   0.000000
 Stoichiometry    C7H10O2
 Framework group  C1[X(C7H10O2)]
 Deg. of freedom    51
 Full point group                 C1      NOp   1
 Largest Abelian subgroup         C1      NOp   1
 Largest concise Abelian subgroup C1      NOp   1
                         Standard orientation:                         
 ---------------------------------------------------------------------
 Center     Atomic      Atomic             Coordinates (Angstroms)
 Number     Number       Type             X           Y           Z
 ---------------------------------------------------------------------
      1          8           0        2.296704    0.219310   -0.485561
      2          6           0        0.973686    0.088410   -0.042861
      3          6           0        0.673531   -0.595168    1.327240
      4          6           0       -0.594016   -1.174433    0.672269
      5          6           0       -1.600462   -0.107362    0.107968
      6          6           0       -1.157883    1.317342    0.422667
      7          6           0        0.296254    1.460334   -0.091750
      8          8           0       -1.192806   -0.402882   -1.268576
      9          6           0        0.004619   -0.974198   -0.729079
     10          1           0        2.720812   -0.643935   -0.440930
     11          1           0        1.385695   -1.401072    1.538657
     12          1           0        0.593081    0.043878    2.211336
     13          1           0       -1.032746   -2.108891    1.019144
     14          1           0       -2.666410   -0.294172    0.258105
     15          1           0       -1.817416    2.038632   -0.068693
     16          1           0       -1.226379    1.498047    1.501534
     17          1           0        0.298874    1.810067   -1.126958
     18          1           0        0.872878    2.173017    0.505099
     19          1           0        0.466049   -1.736548   -1.362918
 ---------------------------------------------------------------------
 Rotational constants (GHZ):      2.7244148      1.8098593      1.6477413
 1\1\GINC-ALCHEMY-F\FOpt\RB3LYP\6-31G(2df,p)\C7H10O2\PUCK\27-Jan-2020\0
 \\# b3lyp 6-31G(2df,p) opt Freq\\titel\\0,1\O,0.6220095435,0.405145274
 8,0.5822653442\C,-0.7493953506,0.6094829933,0.7847291973\C,-1.31980426
 24,0.6943221412,2.2345512896\C,-2.5724586133,-0.0245007507,1.700358458
 2\C,-3.3209756812,0.7173532154,0.5344320134\C,-2.7015205345,2.07744883
 34,0.2325913133\C,-1.1909156241,1.8387221191,-0.0137137212\O,-2.798750
 3993,-0.2344480037,-0.4503237125\C,-1.781927363,-0.5704846295,0.500694
 1641\H,0.8960128968,-0.3614875506,1.0963149931\H,-0.7750456561,0.03475
 82126,2.9198037857\H,-1.4066984265,1.6834956616,2.6933143863\H,-3.1922
 82051,-0.6390088816,2.3516776432\H,-4.4133144986,0.7117568203,0.555639
 0951\H,-3.173601038,2.5244613369,-0.6471797619\H,-2.8729030507,2.75882
 22489,1.0738156065\H,-1.0058538423,1.646935222,-1.073404868\H,-0.58705
 44676,2.7015922091,0.2820024894\H,-1.3719714312,-1.5777562823,0.385852
 3342\\Version=ES64L-G09RevD.01\State=1-A\HF=-423.1621474\RMSD=5.631e-0
 9\RMSF=2.588e-05\Dipole=-0.1094005,-0.0516277,0.8498234\Quadrupole=-0.
 7004477,1.9444048,-1.243957,-3.5242251,0.4329894,-2.1821874\PG=C01 [X(
 C7H10O2)]\\@


 ONLY THE DAY DAWNS TO WHICH YOU ARE AWAKE.

                                 -- THOREAU
 Job cpu time:       0 days  0 hours  7 minutes 57.7 seconds.
 File lengths (MBytes):  RWF=     52 Int=      0 D2E=      0 Chk=      7 Scr=      1
 Normal termination of Gaussian 09 at Mon Jan 27 18:12:57 2020.
 Link1:  Proceeding to internal job step number  2.
 ----------------------------------------------------------------------
 #N Geom=AllCheck Guess=TCheck SCRF=Check GenChk RB3LYP/6-31G(2df,p) Fr
 eq
 ----------------------------------------------------------------------
 1/10=4,29=7,30=1,38=1,40=1/1,3;
 2/12=2,40=1/2;
 3/5=1,6=6,7=104,11=2,14=-4,16=1,25=1,30=1,70=2,71=2,74=-5,116=1,140=1/1,2,3;
 4/5=101/1;
 5/5=2,98=1/2;
 8/6=4,10=90,11=11/1;
 11/6=1,8=1,9=11,15=111,16=1/1,2,10;
 10/6=1/2;
 6/7=2,8=2,9=2,10=2,18=1,28=1/1;
 7/8=1,10=1,25=1/1,2,3,16;
 1/10=4,30=1/3;
 99//99;
 Structure from the checkpoint file:  "/scratch/puck/g09_6434d370-5df6-4712-8a10-efd7b8960588/Gau-41903.chk"
 -----
 titel
 -----
 Charge =  0 Multiplicity = 1
 Redundant internal coordinates found in file.
 O,0,0.6220095435,0.4051452748,0.5822653442
 C,0,-0.7493953506,0.6094829933,0.7847291973
 C,0,-1.3198042624,0.6943221412,2.2345512896
 C,0,-2.5724586133,-0.0245007507,1.7003584582
 C,0,-3.3209756812,0.7173532154,0.5344320134
 C,0,-2.7015205345,2.0774488334,0.2325913133
 C,0,-1.1909156241,1.8387221191,-0.0137137212
 O,0,-2.7987503993,-0.2344480037,-0.4503237125
 C,0,-1.781927363,-0.5704846295,0.5006941641
 H,0,0.8960128968,-0.3614875506,1.0963149931
 H,0,-0.7750456561,0.0347582126,2.9198037857
 H,0,-1.4066984265,1.6834956616,2.6933143863
 H,0,-3.192282051,-0.6390088816,2.3516776432
 H,0,-4.4133144986,0.7117568203,0.5556390951
 H,0,-3.173601038,2.5244613369,-0.6471797619
 H,0,-2.8729030507,2.7588222489,1.0738156065
 H,0,-1.0058538423,1.646935222,-1.073404868
 H,0,-0.5870544676,2.7015922091,0.2820024894
 H,0,-1.3719714312,-1.5777562823,0.3858523342
 Recover connectivity data from disk.

 GradGradGradGradGradGradGradGradGradGradGradGradGradGradGradGradGradGrad
 Berny optimization.
 Initialization pass.
                           ----------------------------
                           !    Initial Parameters    !
                           ! (Angstroms and Degrees)  !
 --------------------------                            --------------------------
 ! Name  Definition              Value          Derivative Info.                !
 --------------------------------------------------------------------------------
 ! R1    R(1,2)                  1.4012         calculate D2E/DX2 analytically  !
 ! R2    R(1,10)                 0.9628         calculate D2E/DX2 analytically  !
 ! R3    R(2,3)                  1.5603         calculate D2E/DX2 analytically  !
 ! R4    R(2,7)                  1.5308         calculate D2E/DX2 analytically  !
 ! R5    R(2,9)                  1.5935         calculate D2E/DX2 analytically  !
 ! R6    R(3,4)                  1.5399         calculate D2E/DX2 analytically  !
 ! R7    R(3,11)                 1.0961         calculate D2E/DX2 analytically  !
 ! R8    R(3,12)                 1.0938         calculate D2E/DX2 analytically  !
 ! R9    R(4,5)                  1.5716         calculate D2E/DX2 analytically  !
 ! R10   R(4,9)                  1.537          calculate D2E/DX2 analytically  !
 ! R11   R(4,13)                 1.089          calculate D2E/DX2 analytically  !
 ! R12   R(5,6)                  1.5247         calculate D2E/DX2 analytically  !
 ! R13   R(5,8)                  1.4657         calculate D2E/DX2 analytically  !
 ! R14   R(5,14)                 1.0926         calculate D2E/DX2 analytically  !
 ! R15   R(6,7)                  1.5491         calculate D2E/DX2 analytically  !
 ! R16   R(6,15)                 1.0939         calculate D2E/DX2 analytically  !
 ! R17   R(6,16)                 1.096          calculate D2E/DX2 analytically  !
 ! R18   R(7,17)                 1.0927         calculate D2E/DX2 analytically  !
 ! R19   R(7,18)                 1.0939         calculate D2E/DX2 analytically  !
 ! R20   R(8,9)                  1.4322         calculate D2E/DX2 analytically  !
 ! R21   R(9,19)                 1.0935         calculate D2E/DX2 analytically  !
[...]
 0,0.03082946,-0.13209859,-0.03527599,-0.03211922,0.50055663,-0.0049451
 3,-0.00222848,0.00111005,-0.02896571,-0.00030151,0.01127266,-0.0456255
 2,-0.10144606,-0.00614584,0.12273858,0.41332190,0.00622010,0.00199426,
 -0.00425004,0.03798798,0.00511813,-0.00943779,-0.03579277,-0.00791799,
 -0.06845270,-0.08571914,-0.09141851,0.52985423,0.00355638,0.00042820,0
 .00097228,-0.00640002,-0.00203704,-0.00233002,-0.01146844,0.01533462,-
 0.00922977,-0.09027180,0.00010955,-0.02610035,0.67096587,-0.00272679,-
 0.00259263,0.00082802,0.00007393,0.00529291,-0.00348435,-0.00691894,0.
 01145085,-0.00892087,-0.00454713,-0.07642861,0.03242688,-0.01051240,0.
 43954921,-0.00060395,-0.00055570,-0.00139207,-0.00310330,0.00024229,0.
 00157358,-0.01000805,0.00002215,-0.00903132,-0.03215716,0.04537844,-0.
 09126736,0.00182105,-0.03036141,0.34487585,0.00106723,0.00081799,-0.00
 077606,-0.01725189,0.00927348,-0.00331589,0.00054017,-0.00015727,-0.00
 195058,0.00567385,0.01035629,-0.00160412,-0.09976357,-0.04245090,0.008
 85008,0.44276729,0.00199401,-0.00470514,0.00327349,0.02456059,-0.00179
 530,-0.00610337,-0.00041752,0.00112051,0.00122702,0.00018591,-0.016437
 61,0.00868337,-0.03823832,-0.15082691,0.02470322,-0.05195155,0.5167106
 2,-0.00228739,0.00454019,-0.00181439,-0.01728013,0.00092465,0.00240238
 ,0.00006735,0.00083784,-0.00020007,0.00904178,0.02600894,-0.00729989,0
 .00864505,0.03218874,-0.08004567,0.03627117,0.01213020,0.59287103,-0.0
 2409461,0.03822392,-0.02146515,-0.07472820,0.00386801,-0.00426895,0.00
 450830,-0.00399199,0.00123977,0.00139753,0.00141750,-0.00190904,-0.027
 24833,-0.01178856,0.00378527,-0.15819347,0.01521103,0.01597704,0.47709
 054,0.00910113,-0.00661013,0.00385130,0.01988146,-0.13853571,0.0442472
 1,-0.00292663,0.00319145,0.00100972,-0.00210958,-0.00097542,-0.0008298
 2,-0.03314735,0.00126619,0.00542412,0.01677511,-0.07752104,-0.00225452
 ,0.07043373,0.52143886,0.00043249,-0.00355373,0.00477005,-0.01503045,0
 .04427036,-0.10773041,-0.00736768,0.02817464,-0.02481811,-0.00024554,-
 0.00065193,0.00031251,0.00741425,-0.00052928,-0.00098320,0.01560689,-0
 .00277643,-0.07991070,-0.01009544,0.04846196,0.56921394,-0.00886603,-0
 .00401916,-0.00113131,-0.01536634,0.00921078,-0.02350012,-0.00015411,-
 0.00802330,-0.00086920,-0.00065874,0.01241660,-0.01215963,-0.07835844,
 0.01707525,0.03550538,0.00411618,-0.00100807,0.00009116,-0.00130196,0.
 00256414,-0.00073833,0.22796559,-0.00108874,0.00118218,-0.00060689,-0.
 00616408,0.00665841,-0.01063805,-0.00126136,0.00158548,-0.00141890,0.0
 1415463,-0.00102999,-0.00487469,0.00798677,-0.09466984,-0.05410606,0.0
 1034745,-0.03631077,-0.03720238,0.00369094,0.00203642,0.00156840,-0.06
 844256,0.20278220,-0.00480014,-0.00050790,0.00069421,-0.00692220,-0.00
 345722,-0.00758437,-0.00191607,-0.00555095,-0.00637259,-0.02518811,-0.
 01468382,-0.09149266,0.00977277,-0.03008176,-0.10806033,0.00056734,-0.
 01008218,-0.00038445,0.00055274,0.00179983,-0.00076178,0.07590228,0.05
 906065,0.34211171,-0.02433170,-0.01357519,-0.00151009,-0.07138104,-0.0
 1478542,-0.01485103,0.00194584,-0.02281370,-0.01434678,-0.07198171,0.0
 1847034,0.05669663,-0.05622793,0.06596403,0.00033558,0.00136429,-0.001
 84552,-0.00367574,0.00791041,-0.00275013,0.00693592,-0.11579618,0.0197
 2691,-0.04935444,0.42246356,0.01087360,0.01125499,0.00584120,-0.014014
 46,-0.11149632,-0.00335100,-0.00592209,-0.02142804,-0.02925395,0.01772
 586,-0.07940706,-0.02564862,0.06085375,-0.04263128,-0.00032779,0.00026
 818,-0.00224461,-0.00023816,-0.01318810,-0.03057193,-0.00721599,0.0146
 1696,-0.07177259,0.00915199,-0.14237017,0.60920982,0.00693162,0.005222
 23,0.00308393,-0.00463451,0.00134755,-0.05507976,-0.00752165,-0.045800
 74,-0.04499185,0.06246537,-0.04074981,-0.11285368,0.00475795,-0.001493
 46,0.01065956,-0.00040739,-0.00071256,-0.00435308,0.00887857,0.0133166
 2,0.00656557,-0.08468490,0.03289656,-0.13490088,0.00427672,0.06954181,
 0.40743946,-0.07103106,0.08038172,-0.04335500,-0.02007325,0.03904053,-
 0.02496544,0.00126338,0.00006323,0.00007609,0.00062045,0.00023629,-0.0
 0048055,0.00009184,0.00085658,0.00006324,0.00001246,0.00155917,-0.0012
 6082,-0.00723253,-0.00068118,0.00251685,0.00115013,-0.00090408,0.00026
 723,-0.00018509,0.00065396,-0.00118473,0.09519945,0.11994368,-0.326899
 32,0.21620627,-0.00038093,-0.00745091,0.00457059,-0.00207567,0.0002781
 9,-0.00025851,-0.00026678,0.00010103,0.00070465,-0.00016939,-0.0001896
 8,0.00017978,-0.00036840,-0.00045265,0.00079450,0.00308571,0.00115361,
 -0.00132490,-0.00029455,-0.00071174,-0.00026127,-0.00138822,0.00346282
 ,0.00003021,-0.11869446,0.33052191,-0.07395847,0.22694416,-0.15715053,
 0.00533526,-0.00566708,0.00103857,0.00100132,-0.00204715,0.00284063,0.
 00040456,0.00058936,-0.00007873,-0.00028975,0.00016724,0.00038497,0.00
 040978,0.00018351,0.00057982,0.00021085,-0.00075549,0.00083720,0.00091
 789,-0.00058408,-0.00019995,0.00006062,0.00083095,-0.00034022,0.066636
 62,-0.21939958,0.15331450,0.00279558,-0.00096840,-0.00198954,0.0070212
 1,-0.01085230,0.01152003,-0.10372054,0.08031476,-0.07949052,-0.0167112
 8,0.01886896,-0.02115998,-0.00348356,-0.00425594,0.00125917,-0.0003151
 0,-0.00034988,0.00039513,-0.00109147,0.00071479,0.00360791,0.00131446,
 -0.00089443,-0.00138393,-0.00114732,0.00018371,0.00014419,-0.00002375,
 0.00071213,-0.00044292,0.11456811,-0.00115336,0.00114568,-0.00088914,0
 .00142720,-0.00260416,0.00077823,0.08098534,-0.14401485,0.09549987,-0.
 00844045,0.00865030,-0.01051234,-0.00223295,-0.00209699,-0.00059090,-0
 .00012282,-0.00034051,-0.00025070,-0.00023409,0.00068387,0.00074397,0.
 00033346,0.00039361,-0.00013502,0.00045860,0.00002988,0.00080633,-0.00
 047481,0.00034155,0.00066527,-0.08532326,0.15241666,-0.00060575,-0.000
 31602,0.00438186,-0.01646938,0.01789624,-0.01679228,-0.08068272,0.0971
 1315,-0.14571259,-0.00325062,0.00274659,-0.00359075,0.00045570,-0.0010
 9760,0.00161772,0.00080071,-0.00059922,0.00030013,0.00184350,-0.002881
 07,-0.00483410,0.00049189,-0.00063684,-0.00008012,0.00133602,0.0005714
 6,-0.00035621,0.00131520,-0.00076658,-0.00072481,0.08900226,-0.1051584
 5,0.15757710,-0.00157497,-0.00028040,0.00171160,-0.00101186,0.01239103
 ,-0.00142754,-0.05336952,0.02121863,0.01149472,0.00995119,-0.02196274,
 -0.00637571,0.00194441,0.00074782,0.00063782,-0.00004120,-0.00033477,-
 0.00074600,0.00045845,0.00045887,-0.00105959,0.00068358,0.00104927,-0.
 00104474,-0.00239758,-0.00335319,-0.00030527,0.00047440,-0.00029305,-0
 .00014558,-0.00115663,0.01438599,0.00678117,0.04707090,0.00034255,0.00
 008362,-0.00017277,-0.00169886,0.00259933,0.00103519,0.02032997,-0.264
 39474,-0.09557846,0.00390186,-0.00679110,-0.00281013,0.00033278,-0.000
 25515,0.00083256,0.00023843,-0.00030536,-0.00007138,0.00081720,0.00050
 231,0.00015839,-0.00001743,0.00045599,-0.00060133,-0.00176141,-0.00028
 753,-0.00028386,-0.00028575,-0.00006541,0.00013869,0.00164167,-0.01671
 569,-0.00813050,-0.02362702,0.28444255,0.00257550,-0.00018258,-0.00103
 442,-0.00343554,-0.02245899,-0.00484999,0.01178808,-0.09559048,-0.0889
 9346,0.00086857,-0.00352878,-0.00449325,0.00043456,-0.00126136,-0.0000
 2508,-0.00012506,-0.00034172,-0.00050565,0.00025239,-0.00094966,0.0018
 1558,-0.00210337,0.00014731,-0.00105618,-0.00023832,-0.00214381,-0.004
 49760,-0.00002735,0.00027340,-0.00044755,-0.00189974,0.01849624,0.0084
 3904,-0.00762764,0.10662907,0.09570725,-0.00192263,-0.00101626,0.00160
 597,-0.00573574,-0.00025118,0.00104965,-0.00784036,-0.00733709,0.01275
 981,-0.13320956,-0.08981328,0.09337199,0.01215620,0.01151317,-0.008651
 11,-0.00134313,0.00050569,-0.00291814,-0.00036379,0.00021175,-0.000022
 60,0.00140511,-0.00187412,-0.00046852,-0.00931440,-0.00930716,0.001588
 70,0.00040714,-0.00033618,0.00005006,0.00127435,0.00058119,-0.00014707
 ,-0.00088830,-0.00041970,0.00007659,0.14259877,0.00068667,0.00082524,0
 .00115785,-0.00057178,0.00002417,-0.00355542,-0.00169843,-0.00528668,0
 .00983326,-0.09091083,-0.13746973,0.09217581,-0.01162169,-0.01028394,0
 .00542384,0.00219686,-0.00060357,0.00307787,0.00082501,0.00061513,-0.0
 0022229,-0.00188480,0.00092712,-0.00000299,0.00745674,0.01425313,-0.00
 465927,0.00001744,-0.00011098,-0.00016737,0.00073449,0.00118325,-0.000
 32432,-0.00094179,-0.00082607,0.00001736,0.09689880,0.13589991,0.00027
 257,0.00130381,0.00144789,0.00011980,-0.00211106,-0.00368189,-0.005655
 36,-0.00845346,0.01098178,0.09196190,0.09219447,-0.14966898,0.01118620
 ,0.00741998,-0.00641068,-0.00173313,-0.00036522,-0.00185959,0.00004728
 ,-0.00003628,0.00059605,-0.00216546,-0.00198612,-0.00403591,0.00417536
 ,0.01535345,-0.00277810,-0.00008313,-0.00016774,-0.00017428,0.00141325
 ,0.00061641,0.00065662,-0.00078172,-0.00070378,0.00001708,-0.09831696,
 -0.10337188,0.15226114,-0.00031615,-0.00003924,0.00008501,0.00154522,-
 0.00026938,-0.00000263,0.00003104,0.00141822,-0.00017311,-0.00611057,-
 0.00176221,0.00039308,-0.31423179,-0.00858923,0.00127177,-0.00887033,0
 .00108302,-0.00136537,0.00031388,-0.00188969,-0.00002981,-0.00698634,0
 .00614959,0.00412826,-0.00020050,0.00132944,0.00111609,0.00011196,-0.0
 0001281,0.00001585,-0.00032511,-0.00012198,-0.00000811,-0.00001284,-0.
 00012923,-0.00000895,0.00101293,0.00004895,-0.00042548,0.33478791,0.00
 040024,0.00043772,-0.00023018,0.00029748,-0.00110065,0.00078640,-0.000
 10718,-0.00186323,0.00005488,0.01063464,0.00138158,0.00221466,-0.01034
 505,-0.04831927,0.00017608,-0.02949181,0.00316827,0.00129841,-0.001233
 36,-0.00578068,0.00041452,0.02522528,-0.00398748,-0.00391174,0.0004093
 2,-0.00197835,-0.00311191,-0.00019824,0.00005999,-0.00007416,0.0005047
 2,0.00022819,0.00003422,-0.00000773,0.00016241,0.00013857,-0.00049057,
 0.00124458,0.00002229,0.00371792,0.05458703,0.00009571,0.00022081,0.00
 028645,0.00106233,-0.00079466,-0.00021428,-0.00126802,0.00343002,-0.00
 101183,-0.02279623,-0.00255536,0.00386045,-0.00525155,0.00087089,-0.05
 231884,0.00654830,0.00254070,0.00183225,0.00013670,0.00131536,0.000968
 20,0.02605663,-0.00523329,0.00041884,0.00012907,0.00072511,-0.00611284
 ,0.00002687,-0.00009980,-0.00010829,-0.00121048,-0.00047363,-0.0001415
 9,0.00016986,-0.00013337,0.00001114,0.00118011,-0.00112418,0.00106018,
 -0.00565755,0.00182539,0.04953631,-0.00094172,0.00207468,-0.00113575,-
 0.00453420,-0.00247334,0.00214965,-0.00028434,-0.00027522,0.00029633,-
 0.00062125,-0.00295226,-0.00023429,0.00646691,-0.00607364,0.01414203,-
 0.09347042,0.04474678,-0.09234329,-0.01372909,0.01466852,-0.02404077,0
 .00018414,0.00077397,-0.00011045,-0.00060093,-0.00041318,0.00029750,-0
 .00057697,0.00028389,0.00008974,0.00005764,0.00006845,-0.00002035,0.00
 003208,0.00014331,-0.00001840,0.00051237,-0.00044181,0.00031756,0.0007
 5204,0.00089024,0.00014128,0.10410188,0.00023716,-0.00028156,0.0001616
 0,0.00065100,0.00026086,-0.00045942,-0.00086623,0.00008431,-0.00058949
 ,-0.00351584,-0.00400684,0.00028616,0.01336278,-0.01350919,0.02639886,
 0.04408755,-0.08840617,0.08342945,0.00267199,-0.00207128,0.00224121,-0
 .00080214,0.00276567,-0.00159471,0.00041076,0.00053167,0.00110604,0.00
 007117,-0.00005105,0.00002064,0.00005783,0.00019817,0.00011685,0.00019
 900,0.00034888,0.00025423,0.00100791,-0.00112806,0.00062820,-0.0001256
 3,0.00132199,-0.00073917,-0.04909915,0.09468776,0.00006750,-0.00034324
 ,0.00032758,0.00178426,-0.00049268,-0.00006372,0.00039721,-0.00011317,
 0.00021909,0.00118566,0.00025725,0.00076842,-0.00260479,0.00196996,-0.
 00701474,-0.09267923,0.08555121,-0.22017396,0.00417459,-0.00422337,0.0
 0520484,-0.00016668,0.00077910,0.00101869,0.00027999,0.00012284,0.0002
 7408,0.00022511,-0.00011057,0.00000317,-0.00006733,0.00014001,0.000112
 85,0.00019774,0.00005668,0.00028563,-0.00025783,0.00029646,-0.00014017
 ,0.00047738,0.00007916,0.00040183,0.09730171,-0.09401501,0.23720136,0.
 00000671,0.00048489,-0.00060160,-0.00063271,-0.00114584,0.00208502,0.0
 0002005,0.00097112,0.00008224,0.00057284,0.00037784,-0.00007596,0.0022
 4853,-0.00576077,-0.01194174,-0.05176109,0.02148382,0.02715009,-0.0057
 1253,0.01869324,0.02493644,0.00113666,-0.00363012,0.00034199,-0.000949
 26,-0.00056426,-0.00051029,-0.00021380,0.00012320,-0.00018766,0.000091
 41,-0.00025095,-0.00018838,-0.00028870,0.00005694,-0.00078551,-0.00005
 640,0.00000212,-0.00002509,-0.00026173,0.00088870,0.00040165,0.0015908
 1,-0.00890760,-0.01006923,0.05731236,0.00011400,-0.00001304,0.00038233
 ,0.00018031,0.00029529,-0.00077300,0.00036382,-0.00040599,-0.00013090,
 -0.00028552,0.00103907,-0.00041466,0.00693929,-0.01501950,-0.02315075,
 0.02312899,-0.14588602,-0.12063969,-0.00124082,-0.00158725,-0.00055089
 ,-0.00038581,-0.00934961,0.00023103,-0.00245337,0.00085783,-0.00203322
 ,0.00004532,-0.00009849,-0.00005560,-0.00009683,0.00036120,0.00018864,
 0.00066814,0.00060677,0.00076968,-0.00003080,0.00005240,0.00012375,-0.
 00075761,0.00044392,0.00062278,-0.00183894,0.00873106,0.00991690,-0.02
 427603,0.15849049,0.00010899,-0.00017267,0.00013028,0.00005235,0.00030
 022,-0.00012649,-0.00035065,0.00042419,-0.00047352,-0.00057774,-0.0005
 5052,0.00042553,-0.00149970,0.00348804,0.00427277,0.02822183,-0.121918
 96,-0.20016988,0.00076007,-0.00147438,-0.00440361,-0.00017642,0.002600
 58,0.00167045,0.00006799,-0.00004681,0.00001810,0.00000526,0.00000150,
 -0.00002788,-0.00004522,0.00016687,0.00017483,-0.00041600,0.00059142,-
 0.00019748,0.00011680,-0.00013249,0.00008710,-0.00015472,-0.00071103,0
 .00004082,0.00337865,-0.01702395,-0.02009275,-0.03107065,0.13444116,0.
 21666582,0.00078563,-0.00036720,0.00033337,0.00135670,-0.00160443,-0.0
 0967634,-0.00024898,0.00152138,-0.00103579,-0.00019031,0.00019041,-0.0
 0035371,-0.00094119,0.00263233,0.00105206,-0.00767226,0.00649768,0.030
 26122,-0.05199847,0.00631203,0.04025921,0.00097468,-0.00092047,-0.0009
 2546,-0.00016373,-0.00049970,0.00046446,0.00013480,-0.00015397,0.00021
 428,0.00035162,0.00013247,-0.00045173,-0.00018730,0.00003342,0.0001497
 3,0.00006204,0.00004170,0.00003591,-0.00014124,-0.00051314,-0.00025433
 ,0.00183391,0.00032152,0.00002006,-0.00537212,-0.00033515,0.00134736,0
 .05860991,-0.00103718,0.00139042,-0.00168248,-0.00544717,0.00312000,0.
 02983808,0.00304175,-0.00451191,0.00250539,0.00078063,0.00060531,-0.00
 038236,-0.00005871,-0.00011876,0.00045903,0.00250193,-0.00277446,-0.00
 619995,0.00665393,-0.05670062,-0.04868761,-0.00081638,-0.00061791,-0.0
 0073065,0.00020838,0.00188159,0.00037548,-0.00036314,0.00008791,-0.000
 18144,-0.00090524,-0.00009808,0.00167663,-0.00004577,0.00015471,0.0000
 2797,-0.00003244,-0.00002599,-0.00015316,-0.00007294,-0.00001924,-0.00
 023721,-0.00001023,0.00077825,-0.00023157,0.00192271,0.00031287,-0.000
 14906,-0.01066873,0.06061086,-0.00010879,-0.00068006,0.00185047,0.0043
 3215,-0.00118651,-0.02057495,-0.00239370,0.00314801,-0.00045929,-0.000
 44055,-0.00042600,0.00002225,0.00040371,-0.00045755,-0.00053185,-0.000
 38859,-0.00062969,-0.00238210,0.04190038,-0.04685628,-0.29685111,-0.00
 031395,-0.00128311,0.00206626,-0.00151207,-0.00044345,-0.00053617,0.00
 004555,0.00003683,0.00030856,0.00073494,0.00029979,-0.00090601,-0.0001
 2720,-0.00004726,0.00041912,0.00008580,0.00006975,0.00009771,-0.000002
 62,0.00013589,0.00010982,0.00009097,0.00014598,0.00147756,0.00027541,0
 .00027493,0.00095954,-0.04406431,0.04898062,0.32277640,0.00104189,-0.0
 0038363,0.00005544,0.00451851,0.00810350,0.00293187,-0.00001091,-0.000
 57148,0.00044690,-0.00021631,0.00053043,-0.00003571,-0.00570386,0.0024
 6956,0.00020771,-0.01585348,-0.02430151,-0.00642988,-0.12334175,-0.114
 03400,-0.04114650,0.00077585,0.00028256,0.00001875,-0.00089088,0.00213
 088,-0.00125934,0.00019422,-0.00020056,0.00010799,0.00004072,0.0001289
 3,0.00012810,-0.00012954,-0.00010497,0.00032646,0.00011101,-0.00002583
 ,0.00008532,-0.00051411,-0.00180909,0.00038461,-0.00095868,0.00020968,
 -0.00014509,0.00210389,0.00000866,0.00021968,0.00283684,0.00426542,0.0
 0131912,0.13545115,0.00016546,0.00264658,-0.00049747,-0.01643381,-0.02
 525985,-0.00750084,0.00027001,0.00120765,-0.00088130,0.00005093,0.0000
 9114,-0.00026189,0.00197685,-0.00037773,-0.00045065,0.00457979,0.00690
 282,0.00178737,-0.11306557,-0.20960955,-0.05841703,0.00028930,0.000994
 50,0.00030131,0.00368768,-0.00279549,0.00263607,-0.00005163,0.00054983
 ,0.00003578,0.00001017,0.00012675,0.00003012,-0.00019113,0.00031914,0.
 00071508,-0.00005862,0.00021402,0.00023699,0.00008967,0.00040998,-0.00
 018426,-0.00013684,-0.00026348,0.00029965,-0.00041958,0.00118555,0.000
 20802,-0.00265680,-0.00410756,-0.00129120,0.12303073,0.22861482,0.0006
 4286,-0.00161252,0.00051765,0.01037804,0.01675060,0.00334228,-0.000052
 07,-0.00014072,0.00218231,0.00048552,0.00006164,0.00063424,0.00203074,
 -0.00027833,-0.00072202,0.00525924,0.00492132,-0.00030794,-0.04206496,
 -0.05967542,-0.06953286,-0.00083013,-0.00141448,0.00139585,-0.00249820
 ,0.00303461,-0.00213006,0.00026074,-0.00017899,-0.00006278,-0.00006762
 ,-0.00018439,0.00009769,-0.00000530,-0.00065020,-0.00012349,-0.0000786
 2,-0.00009711,-0.00005349,0.00035380,0.00050182,0.00000727,-0.00005543
 ,-0.00000261,-0.00000381,-0.00004972,0.00041186,0.00110077,-0.01733229
 ,-0.02511278,-0.00783817,0.04280039,0.06310213,0.07158997,0.00327101,0
 .00222603,0.00045690,0.00956799,-0.01750005,0.00122724,-0.00140790,0.0
 0104617,0.00008627,-0.00268049,0.01031405,-0.00266884,-0.00333121,0.00
 229162,-0.00246587,-0.00100551,0.00061943,0.00040678,-0.00264291,-0.00
 227621,-0.00193324,-0.01221824,0.02101788,0.00056270,-0.07811585,0.080
 99597,0.00958691,-0.00032378,0.00048636,-0.00043044,0.00045965,-0.0001
 4695,-0.00033044,0.00044344,0.00020624,-0.00020201,0.00113438,-0.00081
 183,-0.00042884,-0.00058427,0.00122764,0.00010505,0.00018582,0.0000282
 3,-0.00012101,0.00016507,0.00025237,0.00001211,-0.00003052,0.00008316,
 0.00016375,0.00054545,-0.00113659,0.00082300,0.08656788,-0.00088711,0.
 00350588,0.00087754,0.01317391,-0.01341296,-0.00103146,-0.00086624,-0.
 00206826,-0.00079471,-0.00131686,0.00133207,0.00146710,0.00103831,-0.0
 0023968,0.00030289,-0.00002930,0.00070791,-0.00016139,-0.00215647,-0.0
 0092423,-0.00210334,0.00396244,-0.00133167,0.00105673,0.08695037,-0.27
 686855,-0.02843408,-0.00127212,-0.00052662,-0.00064365,-0.00009696,0.0
 0011116,-0.00046330,-0.00008116,-0.00003465,-0.00101152,0.00024886,0.0
 0049607,-0.00055064,-0.00006687,-0.00039674,0.00002388,0.00006478,0.00
 000902,0.00006039,-0.00004944,-0.00001657,-0.00004214,0.00003666,0.000
 03261,0.00020931,0.00027073,-0.00084912,0.00056357,-0.09892353,0.29047
 435,-0.00042206,-0.00021592,0.00021992,0.00102078,0.00076059,0.0012282
 2,0.00105223,0.00033649,-0.00008703,0.00217400,-0.01890881,0.00700819,
 -0.00058834,-0.00139380,-0.00558131,0.00044471,0.00031530,0.00142176,0
 .00004439,0.00051018,-0.00045807,-0.01012571,0.02293232,0.00555321,0.0
 1369276,-0.03650385,-0.05911025,-0.00008175,-0.00022981,0.00000760,-0.
 00031960,-0.00001841,-0.00021940,-0.00093062,-0.00025894,-0.00047070,-
 0.00102464,0.00160512,0.00159754,-0.00001288,0.00035672,0.00137412,-0.
 00024670,-0.00036486,0.00019406,0.00023299,0.00038567,-0.00005438,-0.0
 0004371,-0.00011494,-0.00000803,-0.00001582,0.00013212,-0.00009340,-0.
 00485001,0.03067484,0.04747794\\0.00003012,0.00002125,-0.00003640,-0.0
 0008095,-0.00001700,-0.00001482,0.00000125,0.00000720,0.00002210,0.000
 00388,0.00000777,-0.00000038,-0.00004254,-0.00001888,-0.00001814,0.000
 00148,0.00002862,0.00001972,0.00002318,0.00000416,0.00000233,-0.000030
 60,0.00003025,0.00005364,0.00009425,-0.00007015,-0.00000195,0.00000407
 ,-0.00002387,0.00000720,-0.00001061,-0.00000538,-0.00000129,0.00000257
 ,-0.00001896,-0.00000804,-0.00000310,-0.00000563,-0.00003113,0.0000045
 9,0.00001197,0.00000839,-0.00000321,0.00000163,-0.00000660,0.00000221,
 0.00000205,0.00001504,0.00000693,0.00000456,-0.00001269,-0.00000354,-0
 .00000399,0.00000444,0.00000003,0.00004442,-0.00000139\\\@


 WAR ES EIN GOTT DER DIESE ZEICHEN SCHRIEB?
          - LUDWIG BOLTZMANN, QUOTING GOETHE, ABOUT MAXWELL'S EQUATIONS.
 Job cpu time:       0 days  0 hours 48 minutes 29.9 seconds.
 File lengths (MBytes):  RWF=    152 Int=      0 D2E=      0 Chk=      8 Scr=      1
 Normal termination of Gaussian 09 at Mon Jan 27 19:17:25 2020.
