 Entering Gaussian System, Link 0=/home/puck/opt/gaussian_09/g09
 Input=dsC7O2H10nsd_3372.com
 Output=dsC7O2H10nsd_3372.log
 Initial command:
 /home/puck/opt/gaussian_09/l1.exe "/scratch/puck/g09_0adc98a4-7ef3-4417-a25e-6cd367e564ce/Gau-104140.inp" -scrdir="/scratch/puck/g09_0adc98a4-7ef3-4417-a25e-6cd367e564ce/"
 Entering Link 1 = /home/puck/opt/gaussian_09/l1.exe PID=    104175.
  
 Copyright (c) 1988,1990,1992,1993,1995,1998,2003,2009,2013,
            Gaussian, Inc.  All Rights Reserved.
  
 This is part of the Gaussian(R) 09 program.  It is based on
 the Gaussian(R) 03 system (copyright 2003, Gaussian, Inc.),
 the Gaussian(R) 98 system (copyright 1998, Gaussian, Inc.),
 the Gaussian(R) 94 system (copyright 1995, Gaussian, Inc.),
 the Gaussian 92(TM) system (copyright 1992, Gaussian, Inc.),
 the Gaussian 90(TM) system (copyright 1990, Gaussian, Inc.),
 the Gaussian 88(TM) system (copyright 1988, Gaussian, Inc.),
 the Gaussian 86(TM) system (copyright 1986, Carnegie Mellon
 University), and the Gaussian 82(TM) system (copyright 1983,
 Carnegie Mellon University). Gaussian is a federally registered
 trademark of Gaussian, Inc.
  
 This software contains proprietary and confidential information,
 including trade secrets, belonging to Gaussian, Inc.
  
 This software is provided under written license and may be
 used, copied, transmitted, or stored only in accord with that
 written license.
  
 The following legend is applicable only to US Government
 contracts under FAR:
  
                    RESTRICTED RIGHTS LEGEND
  
 Use, reproduction and disclosure by the US Government is
 subject to restrictions as set forth in subparagraphs (a)
 and (c) of the Commercial Computer Software - Restricted
 Rights clause in FAR 52.227-19.
  
 Gaussian, Inc.
 340 Quinnipiac St., Bldg. 40, Wallingford CT 06492
  
  
 ---------------------------------------------------------------
 Warning -- This program may not be used in any manner that
 competes with the business of Gaussian, Inc. or will provide
 assistance to any competitor of Gaussian, Inc.  The licensee
 of this program is prohibited from giving any competitor of
 Gaussian, Inc. access to this program.  By using this program,
 the user acknowledges that Gaussian, Inc. is engaged in the
 business of creating and licensing software in the field of
 computational chemistry and represents and warrants to the
 licensee that it is not a competitor of Gaussian, Inc. and that
 it will not use this program in any manner prohibited above.
 ---------------------------------------------------------------
  

 Cite this work as:
 Gaussian 09, Revision D.01,
 M. J. Frisch, G. W. Trucks, H. B. Schlegel, G. E. Scuseria, 
 M. A. Robb, J. R. Cheeseman, G. Scalmani, V. Barone, B. Mennucci, 
 G. A. Petersson, H. Nakatsuji, M. Caricato, X. Li, H. P. Hratchian, 
 A. F. Izmaylov, J. Bloino, G. Zheng, J. L. Sonnenberg, M. Hada, 
 M. Ehara, K. Toyota, R. Fukuda, J. Hasegawa, M. Ishida, T. Nakajima, 
 Y. Honda, O. Kitao, H. Nakai, T. Vreven, J. A. Montgomery, Jr., 
 J. E. Peralta, F. Ogliaro, M. Bearpark, J. J. Heyd, E. Brothers, 
 K. N. Kudin, V. N. Staroverov, T. Keith, R. Kobayashi, J. Normand, 
 K. Raghavachari, A. Rendell, J. C. Burant, S. S. Iyengar, J. Tomasi, 
 M. Cossi, N. Rega, J. M. Millam, M. Klene, J. E. Knox, J. B. Cross, 
 V. Bakken, C. Adamo, J. Jaramillo, R. Gomperts, R. E. Stratmann, 
 O. Yazyev, A. J. Austin, R. Cammi, C. Pomelli, J. W. Ochterski, 
 R. L. Martin, K. Morokuma, V. G. Zakrzewski, G. A. Voth, 
 P. Salvador, J. J. Dannenberg, S. Dapprich, A. D. Daniels, 
 O. Farkas, J. B. Foresman, J. V. Ortiz, J. Cioslowski, 
 and D. J. Fox, Gaussian, Inc., Wallingford CT, 2013.
 
 ******************************************
 Gaussian 09:  ES64L-G09RevD.01 24-Apr-2013
                27-Jan-2020 
 ******************************************
 -----------------------------
 # b3lyp 6-31G(2df,p) opt Freq
 -----------------------------
 1/14=-1,18=20,19=15,26=3,38=1/1,3;
 2/9=110,12=2,17=6,18=5,40=1/2;
 3/5=1,6=6,7=104,11=2,16=1,25=1,30=1,71=1,74=-5/1,2,3;
 4//1;
 5/5=2,38=5/2;
 6/7=2,8=2,9=2,10=2,28=1/1;
 7//1,2,3,16;
 1/14=-1,18=20,19=15,26=3/3(2);
 2/9=110/2;
 99//99;
 2/9=110/2;
 3/5=1,6=6,7=104,11=2,16=1,25=1,30=1,71=1,74=-5/1,2,3;
 4/5=5,16=3,69=1/1;
 5/5=2,38=5/2;
 7//1,2,3,16;
 1/14=-1,18=20,19=15,26=3/3(-5);
 2/9=110/2;
 6/7=2,8=2,9=2,10=2,19=2,28=1/1;
 99/9=1/99;
 -----
 titel
 -----
 Symbolic Z-matrix:
 Charge =  0 Multiplicity = 1
 O                     0.62539  -0.19057   0.64462 
 C                    -0.64103   0.40628   0.80041 
 C                    -1.33883   0.25738   2.18197 
 C                    -2.89864   0.39716   2.18461 
 C                    -2.7893    1.85521   2.74407 
 C                    -1.31578   1.80857   2.38349 
 O                    -0.26251   2.52714   3.00942 
 C                     0.4455    2.63242   1.74452 
 C                    -0.70442   1.96313   0.96248 
 H                     1.12798  -0.05678   1.45495 
 H                    -1.23823   0.04252  -0.04133 
 H                    -0.92318  -0.46009   2.89261 
 H                    -3.34027   0.34229   1.18606 
 H                    -3.42047  -0.30945   2.83095 
 H                    -3.40645   2.63979   2.29754 
 H                    -2.92647   1.87191   3.82991 
 H                     0.63382   3.67903   1.4846 
 H                     1.40241   2.09582   1.75465 
 H                    -1.14998   2.5515    0.16013 
 

 GradGradGradGradGradGradGradGradGradGradGradGradGradGradGradGradGradGrad
 Berny optimization.
 Initialization pass.
                           ----------------------------
                           !    Initial Parameters    !
                           ! (Angstroms and Degrees)  !
 --------------------------                            --------------------------
 ! Name  Definition              Value          Derivative Info.                !
 --------------------------------------------------------------------------------
 ! R1    R(1,2)                  1.4087         estimate D2E/DX2                !
 ! R2    R(1,10)                 0.9629         estimate D2E/DX2                !
 ! R3    R(2,3)                  1.5549         estimate D2E/DX2                !
 ! R4    R(2,9)                  1.5665         estimate D2E/DX2                !
 ! R5    R(2,11)                 1.0943         estimate D2E/DX2                !
 ! R6    R(3,4)                  1.5661         estimate D2E/DX2                !
 ! R7    R(3,6)                  1.5644         estimate D2E/DX2                !
 ! R8    R(3,12)                 1.092          estimate D2E/DX2                !
 ! R9    R(4,5)                  1.5655         estimate D2E/DX2                !
 ! R10   R(4,13)                 1.0932         estimate D2E/DX2                !
 ! R11   R(4,14)                 1.0906         estimate D2E/DX2                !
 ! R12   R(5,6)                  1.5177         estimate D2E/DX2                !
 ! R13   R(5,15)                 1.0935         estimate D2E/DX2                !
 ! R14   R(5,16)                 1.0946         estimate D2E/DX2                !
 ! R15   R(6,7)                  1.4204         estimate D2E/DX2                !
 ! R16   R(6,9)                  1.5546         estimate D2E/DX2                !
 ! R17   R(7,8)                  1.4534         estimate D2E/DX2                !
 ! R18   R(8,9)                  1.5433         estimate D2E/DX2                !
 ! R19   R(8,17)                 1.0947         estimate D2E/DX2                !
 ! R20   R(8,18)                 1.0971         estimate D2E/DX2                !
 ! R21   R(9,19)                 1.0902         estimate D2E/DX2                !
 ! A1    A(2,1,10)             108.501          estimate D2E/DX2                !
 ! A2    A(1,2,3)              117.4612         estimate D2E/DX2                !
 ! A3    A(1,2,9)              117.9627         estimate D2E/DX2                !
 ! A4    A(1,2,11)             105.3504         estimate D2E/DX2                !
 ! A5    A(3,2,9)               89.1454         estimate D2E/DX2                !
 ! A6    A(3,2,11)             113.9973         estimate D2E/DX2                !
 ! A7    A(9,2,11)             112.821          estimate D2E/DX2                !
 ! A8    A(2,3,4)              116.0994         estimate D2E/DX2                !
 ! A9    A(2,3,6)               90.7386         estimate D2E/DX2                !
 ! A10   A(2,3,12)             118.0537         estimate D2E/DX2                !
 ! A11   A(4,3,6)               85.7538         estimate D2E/DX2                !
 ! A12   A(4,3,12)             115.8898         estimate D2E/DX2                !
 ! A13   A(6,3,12)             124.1955         estimate D2E/DX2                !
 ! A14   A(3,4,5)               90.8117         estimate D2E/DX2                !
 ! A15   A(3,4,13)             113.3494         estimate D2E/DX2                !
 ! A16   A(3,4,14)             114.8184         estimate D2E/DX2                !
 ! A17   A(5,4,13)             113.6641         estimate D2E/DX2                !
 ! A18   A(5,4,14)             115.1552         estimate D2E/DX2                !
 ! A19   A(13,4,14)            108.392          estimate D2E/DX2                !
 ! A20   A(4,5,6)               87.38           estimate D2E/DX2                !
 ! A21   A(4,5,15)             118.873          estimate D2E/DX2                !
 ! A22   A(4,5,16)             111.098          estimate D2E/DX2                !
 ! A23   A(6,5,15)             118.227          estimate D2E/DX2                !
 ! A24   A(6,5,16)             110.9665         estimate D2E/DX2                !
 ! A25   A(15,5,16)            108.868          estimate D2E/DX2                !
 ! A26   A(3,6,5)               92.6805         estimate D2E/DX2                !
 ! A27   A(3,6,7)              124.7031         estimate D2E/DX2                !
 ! A28   A(3,6,9)               89.2339         estimate D2E/DX2                !
 ! A29   A(5,6,7)              126.8482         estimate D2E/DX2                !
 ! A30   A(5,6,9)              126.5769         estimate D2E/DX2                !
 ! A31   A(7,6,9)               93.4912         estimate D2E/DX2                !
 ! A32   A(6,7,8)               90.8224         estimate D2E/DX2                !
 ! A33   A(7,8,9)               92.6724         estimate D2E/DX2                !
 ! A34   A(7,8,17)             111.0813         estimate D2E/DX2                !
 ! A35   A(7,8,18)             112.4211         estimate D2E/DX2                !
 ! A36   A(9,8,17)             114.9909         estimate D2E/DX2                !
 ! A37   A(9,8,18)             116.2592         estimate D2E/DX2                !
 ! A38   A(17,8,18)            108.6481         estimate D2E/DX2                !
 ! A39   A(2,9,6)               90.6689         estimate D2E/DX2                !
 ! A40   A(2,9,8)              116.9532         estimate D2E/DX2                !
 ! A41   A(2,9,19)             118.4735         estimate D2E/DX2                !
 ! A42   A(6,9,8)               82.7013         estimate D2E/DX2                !
 ! A43   A(6,9,19)             124.448          estimate D2E/DX2                !
 ! A44   A(8,9,19)             116.3219         estimate D2E/DX2                !
 ! D1    D(10,1,2,3)           -39.7961         estimate D2E/DX2                !
 ! D2    D(10,1,2,9)            65.0881         estimate D2E/DX2                !
 ! D3    D(10,1,2,11)         -167.9635         estimate D2E/DX2                !
 ! D4    D(1,2,3,4)           -156.4664         estimate D2E/DX2                !
 ! D5    D(1,2,3,6)            117.9003         estimate D2E/DX2                !
 ! D6    D(1,2,3,12)           -12.1729         estimate D2E/DX2                !
 ! D7    D(9,2,3,4)             82.1513         estimate D2E/DX2                !
 ! D8    D(9,2,3,6)             -3.4819         estimate D2E/DX2                !
 ! D9    D(9,2,3,12)          -133.5551         estimate D2E/DX2                !
 ! D10   D(11,2,3,4)           -32.5543         estimate D2E/DX2                !
 ! D11   D(11,2,3,6)          -118.1875         estimate D2E/DX2                !
 ! D12   D(11,2,3,12)          111.7393         estimate D2E/DX2                !
 ! D13   D(1,2,9,6)           -117.443          estimate D2E/DX2                !
 ! D14   D(1,2,9,8)            -35.2939         estimate D2E/DX2                !
 ! D15   D(1,2,9,19)           112.025          estimate D2E/DX2                !
 ! D16   D(3,2,9,6)              3.5037         estimate D2E/DX2                !
 ! D17   D(3,2,9,8)             85.6527         estimate D2E/DX2                !
 ! D18   D(3,2,9,19)          -127.0284         estimate D2E/DX2                !
 ! D19   D(11,2,9,6)           119.2893         estimate D2E/DX2                !
 ! D20   D(11,2,9,8)          -158.5617         estimate D2E/DX2                !
 ! D21   D(11,2,9,19)          -11.2428         estimate D2E/DX2                !
 ! D22   D(2,3,4,5)           -102.2652         estimate D2E/DX2                !
 ! D23   D(2,3,4,13)            14.0518         estimate D2E/DX2                !
 ! D24   D(2,3,4,14)           139.3804         estimate D2E/DX2                !
 ! D25   D(6,3,4,5)            -13.5246         estimate D2E/DX2                !
 ! D26   D(6,3,4,13)           102.7924         estimate D2E/DX2                !
 ! D27   D(6,3,4,14)          -131.8789         estimate D2E/DX2                !
 ! D28   D(12,3,4,5)           112.661          estimate D2E/DX2                !
 ! D29   D(12,3,4,13)         -131.0221         estimate D2E/DX2                !
 ! D30   D(12,3,4,14)           -5.6934         estimate D2E/DX2                !
 ! D31   D(2,3,6,5)            130.0912         estimate D2E/DX2                !
 ! D32   D(2,3,6,7)            -90.2079         estimate D2E/DX2                !
 ! D33   D(2,3,6,9)              3.5085         estimate D2E/DX2                !
 ! D34   D(4,3,6,5)             13.9733         estimate D2E/DX2                !
 ! D35   D(4,3,6,7)            153.6742         estimate D2E/DX2                !
 ! D36   D(4,3,6,9)           -112.6094         estimate D2E/DX2                !
 ! D37   D(12,3,6,5)          -104.6408         estimate D2E/DX2                !
 ! D38   D(12,3,6,7)            35.0601         estimate D2E/DX2                !
 ! D39   D(12,3,6,9)           128.7765         estimate D2E/DX2                !
 ! D40   D(3,4,5,6)             13.9247         estimate D2E/DX2                !
 ! D41   D(3,4,5,15)           134.9514         estimate D2E/DX2                !
 ! D42   D(3,4,5,16)           -97.5616         estimate D2E/DX2                !
 ! D43   D(13,4,5,6)          -102.1138         estimate D2E/DX2                !
 ! D44   D(13,4,5,15)           18.913          estimate D2E/DX2                !
 ! D45   D(13,4,5,16)          146.4            estimate D2E/DX2                !
 ! D46   D(14,4,5,6)           131.9864         estimate D2E/DX2                !
 ! D47   D(14,4,5,15)         -106.9869         estimate D2E/DX2                !
 ! D48   D(14,4,5,16)           20.5001         estimate D2E/DX2                !
 ! D49   D(4,5,6,3)            -13.9539         estimate D2E/DX2                !
 ! D50   D(4,5,6,7)           -152.3125         estimate D2E/DX2                !
 ! D51   D(4,5,6,9)             77.0816         estimate D2E/DX2                !
 ! D52   D(15,5,6,3)          -135.5585         estimate D2E/DX2                !
 ! D53   D(15,5,6,7)            86.0829         estimate D2E/DX2                !
 ! D54   D(15,5,6,9)           -44.5229         estimate D2E/DX2                !
 ! D55   D(16,5,6,3)            97.6604         estimate D2E/DX2                !
 ! D56   D(16,5,6,7)           -40.6982         estimate D2E/DX2                !
 ! D57   D(16,5,6,9)          -171.304          estimate D2E/DX2                !
 ! D58   D(3,6,7,8)             87.1217         estimate D2E/DX2                !
 ! D59   D(5,6,7,8)           -146.7169         estimate D2E/DX2                !
 ! D60   D(9,6,7,8)             -4.3656         estimate D2E/DX2                !
 ! D61   D(3,6,9,2)             -3.4824         estimate D2E/DX2                !
 ! D62   D(3,6,9,8)           -120.5796         estimate D2E/DX2                !
 ! D63   D(3,6,9,19)           122.4042         estimate D2E/DX2                !
 ! D64   D(5,6,9,2)            -96.2519         estimate D2E/DX2                !
 ! D65   D(5,6,9,8)            146.6509         estimate D2E/DX2                !
 ! D66   D(5,6,9,19)            29.6347         estimate D2E/DX2                !
 ! D67   D(7,6,9,2)            121.2412         estimate D2E/DX2                !
 ! D68   D(7,6,9,8)              4.144          estimate D2E/DX2                !
 ! D69   D(7,6,9,19)          -112.8722         estimate D2E/DX2                !
 ! D70   D(6,7,8,9)              4.3943         estimate D2E/DX2                !
 ! D71   D(6,7,8,17)           122.5108         estimate D2E/DX2                !
 ! D72   D(6,7,8,18)          -115.4993         estimate D2E/DX2                !
 ! D73   D(7,8,9,2)            -91.0702         estimate D2E/DX2                !
 ! D74   D(7,8,9,6)             -4.0466         estimate D2E/DX2                !
 ! D75   D(7,8,9,19)           120.905          estimate D2E/DX2                !
 ! D76   D(17,8,9,2)           154.156          estimate D2E/DX2                !
 ! D77   D(17,8,9,6)          -118.8204         estimate D2E/DX2                !
 ! D78   D(17,8,9,19)            6.1313         estimate D2E/DX2                !
 ! D79   D(18,8,9,2)            25.5959         estimate D2E/DX2                !
 ! D80   D(18,8,9,6)           112.6195         estimate D2E/DX2                !
 ! D81   D(18,8,9,19)         -122.4288         estimate D2E/DX2                !
 --------------------------------------------------------------------------------
 Trust Radius=3.00D-01 FncErr=1.00D-07 GrdErr=1.00D-06
 Number of steps in this run=    114 maximum allowed number of steps=    114.
 GradGradGradGradGradGradGradGradGradGradGradGradGradGradGradGradGradGrad

                          Input orientation:                          
 ---------------------------------------------------------------------
 Center     Atomic      Atomic             Coordinates (Angstroms)
 Number     Number       Type             X           Y           Z
 ---------------------------------------------------------------------
      1          8           0        0.625385   -0.190565    0.644619
      2          6           0       -0.641029    0.406278    0.800411
      3          6           0       -1.338832    0.257379    2.181965
      4          6           0       -2.898640    0.397161    2.184608
      5          6           0       -2.789296    1.855206    2.744067
      6          6           0       -1.315776    1.808568    2.383488
      7          8           0       -0.262509    2.527145    3.009422
      8          6           0        0.445501    2.632424    1.744520
      9          6           0       -0.704417    1.963129    0.962484
     10          1           0        1.127981   -0.056781    1.454952
     11          1           0       -1.238233    0.042520   -0.041326
     12          1           0       -0.923185   -0.460089    2.892606
     13          1           0       -3.340271    0.342291    1.186061
     14          1           0       -3.420465   -0.309454    2.830948
     15          1           0       -3.406452    2.639785    2.297539
     16          1           0       -2.926473    1.871911    3.829911
     17          1           0        0.633819    3.679029    1.484601
     18          1           0        1.402405    2.095822    1.754655
     19          1           0       -1.149979    2.551496    0.160127
 ---------------------------------------------------------------------
                    Distance matrix (angstroms):
                    1          2          3          4          5
     1  O    0.000000
     2  C    1.408652   0.000000
     3  C    2.534213   1.554925   0.000000
     4  C    3.890468   2.648186   1.566061   0.000000
     5  C    4.500324   3.239173   2.229990   1.565518   0.000000
     6  C    3.284556   2.219872   1.564395   2.130042   1.517713
     7  O    3.710337   3.085625   2.644805   3.488027   2.628035
     8  C    3.035030   2.650965   3.002672   4.046401   3.473770
     9  C    2.551041   1.566547   2.190707   2.959806   2.744523
    10  H    0.962882   1.942227   2.590832   4.117297   4.545610
    11  H    1.999481   1.094301   2.235913   2.799553   3.667430
    12  H    2.743020   2.281991   1.092032   2.266839   2.977419
    13  H    4.037763   2.727403   2.237140   1.093226   2.240506
    14  H    4.600335   3.515767   2.252927   1.090579   2.256474
    15  H    5.196031   3.857137   3.156623   2.302171   1.093541
    16  H    5.197653   4.068071   2.800544   2.209680   1.094602
    17  H    3.959722   3.578303   4.010655   4.872262   4.078027
    18  H    2.657726   2.817936   3.328189   4.644275   4.313605
    19  H    3.302355   2.295855   3.063734   3.434748   3.138300
                    6          7          8          9         10
     6  C    0.000000
     7  O    1.420394   0.000000
     8  C    2.046733   1.453390   0.000000
     9  C    1.554638   2.168721   1.543324   0.000000
    10  H    3.211488   3.320619   2.789525   2.771325   0.000000
    11  H    3.000777   4.053698   3.568166   2.231891   2.801371
    12  H    2.357994   3.061650   3.571420   3.105675   2.537083
    13  H    2.771710   4.191760   4.459670   3.102391   4.494090
    14  H    3.019264   4.248627   4.978019   4.004086   4.758737
    15  H    2.251496   3.225499   3.891456   3.088888   5.342519
    16  H    2.165756   2.863431   4.037010   3.628773   5.079260
    17  H    2.847375   2.110764   1.094716   2.237810   3.768468
    18  H    2.804720   2.128948   1.097137   2.254738   2.190623
    19  H    2.350055   2.984406   2.249979   1.090173   3.697131
                   11         12         13         14         15
    11  H    0.000000
    12  H    2.993297   0.000000
    13  H    2.452530   3.065684   0.000000
    14  H    3.624359   2.502579   1.771117   0.000000
    15  H    4.113058   4.016209   2.553084   2.997121   0.000000
    16  H    4.602532   3.214020   3.082354   2.449553   1.779937
    17  H    4.365459   4.641017   5.197725   5.844474   4.250258
    18  H    3.796652   3.638129   5.088334   5.495802   4.869879
    19  H    2.518598   4.072778   3.275745   4.524757   3.109340
                   16         17         18         19
    16  H    0.000000
    17  H    4.630533   0.000000
    18  H    4.805831   1.780505   0.000000
    19  H    4.133411   2.491485   3.043817   0.000000
 Stoichiometry    C7H10O2
 Framework group  C1[X(C7H10O2)]
 Deg. of freedom    51
 Full point group                 C1      NOp   1
 Largest Abelian subgroup         C1      NOp   1
 Largest concise Abelian subgroup C1      NOp   1
                         Standard orientation:                         
 ---------------------------------------------------------------------
 Center     Atomic      Atomic             Coordinates (Angstroms)
 Number     Number       Type             X           Y           Z
 ---------------------------------------------------------------------
      1          8           0       -2.058825   -1.352886   -0.239913
      2          6           0       -0.811442   -1.079306    0.354637
      3          6           0        0.406925   -0.885483   -0.591833
      4          6           0        1.816574   -1.151321    0.036471
      5          6           0        2.070863    0.387426    0.172280
      6          6           0        0.588988    0.584837   -0.089496
      7          8           0       -0.028423    1.721903   -0.675504
      8          6           0       -1.208175    1.533980    0.152271
      9          6           0       -0.568720    0.360001    0.923451
     10          1           0       -2.145249   -0.811628   -1.031564
     11          1           0       -0.670938   -1.862032    1.106364
     12          1           0        0.291951   -1.165812   -1.640990
     13          1           0        1.771915   -1.674974    0.995082
     14          1           0        2.514618   -1.681014   -0.612777
     15          1           0        2.486868    0.773402    1.107050
     16          1           0        2.669686    0.763100   -0.663443
     17          1           0       -1.413238    2.425378    0.753738
     18          1           0       -2.101142    1.296999   -0.439471
     19          1           0       -0.476562    0.483646    2.002662
 ---------------------------------------------------------------------
 Rotational constants (GHZ):      2.4196465      1.8882983      1.2601093
 Standard basis: 6-31G(2df,p) (6D, 7F)
 There are   329 symmetry adapted cartesian basis functions of A   symmetry.
 There are   302 symmetry adapted basis functions of A   symmetry.
   302 basis functions,   466 primitive gaussians,   329 cartesian basis functions
    34 alpha electrons       34 beta electrons
       nuclear repulsion energy       478.7264527459 Hartrees.
 NAtoms=   19 NActive=   19 NUniq=   19 SFac= 1.00D+00 NAtFMM=   60 NAOKFM=F Big=F
 Integral buffers will be    131072 words long.
 Raffenetti 2 integral format.
 Two-electron integral symmetry is turned on.
 One-electron integrals computed using PRISM.
 NBasis=   302 RedAO= T EigKep=  2.65D-04  NBF=   302
 NBsUse=   302 1.00D-06 EigRej= -1.00D+00 NBFU=   302
 ExpMin= 1.61D-01 ExpMax= 5.48D+03 ExpMxC= 8.25D+02 IAcc=1 IRadAn=         1 AccDes= 0.00D+00
 Harris functional with IExCor=  402 and IRadAn=       1 diagonalized for initial guess.
 HarFok:  IExCor=  402 AccDes= 0.00D+00 IRadAn=         1 IDoV= 1 UseB2=F ITyADJ=14
 ICtDFT=  3500011 ScaDFX=  1.000000  1.000000  1.000000  1.000000
 FoFCou: FMM=F IPFlag=           0 FMFlag=      100000 FMFlg1=           0
         NFxFlg=           0 DoJE=T BraDBF=F KetDBF=T FulRan=T
         wScrn=  0.000000 ICntrl=     500 IOpCl=  0 I1Cent=   200000004 NGrid=           0
         NMat0=    1 NMatS0=      1 NMatT0=    0 NMatD0=    1 NMtDS0=    0 NMtDT0=    0
 Petite list used in FoFCou.
 Requested convergence on RMS density matrix=1.00D-08 within 128 cycles.
 Requested convergence on MAX density matrix=1.00D-06.
 Requested convergence on             energy=1.00D-06.
 No special actions if energy rises.
 Integral accuracy reduced to 1.0D-05 until final iterations.
 Initial convergence to 1.0D-05 achieved.  Increase integral accuracy.
 SCF Done:  E(RB3LYP) =  -423.128476072     A.U. after   12 cycles
            NFock= 12  Conv=0.99D-08     -V/T= 2.0074

 **********************************************************************

            Population analysis using the SCF density.

 **********************************************************************

 Orbital symmetries:
       Occupied  (A) (A) (A) (A) (A) (A) (A) (A) (A) (A) (A) (A)
                 (A) (A) (A) (A) (A) (A) (A) (A) (A) (A) (A) (A)
                 (A) (A) (A) (A) (A) (A) (A) (A) (A) (A)
       Virtual   (A) (A) (A) (A) (A) (A) (A) (A) (A) (A) (A) (A)
                 (A) (A) (A) (A) (A) (A) (A) (A) (A) (A) (A) (A)
                 (A) (A) (A) (A) (A) (A) (A) (A) (A) (A) (A) (A)
                 (A) (A) (A) (A) (A) (A) (A) (A) (A) (A) (A) (A)
                 (A) (A) (A) (A) (A) (A) (A) (A) (A) (A) (A) (A)
                 (A) (A) (A) (A) (A) (A) (A) (A) (A) (A) (A) (A)
                 (A) (A) (A) (A) (A) (A) (A) (A) (A) (A) (A) (A)
                 (A) (A) (A) (A) (A) (A) (A) (A) (A) (A) (A) (A)
                 (A) (A) (A) (A) (A) (A) (A) (A) (A) (A) (A) (A)
                 (A) (A) (A) (A) (A) (A) (A) (A) (A) (A) (A) (A)
                 (A) (A) (A) (A) (A) (A) (A) (A) (A) (A) (A) (A)
                 (A) (A) (A) (A) (A) (A) (A) (A) (A) (A) (A) (A)
                 (A) (A) (A) (A) (A) (A) (A) (A) (A) (A) (A) (A)
                 (A) (A) (A) (A) (A) (A) (A) (A) (A) (A) (A) (A)
                 (A) (A) (A) (A) (A) (A) (A) (A) (A) (A) (A) (A)
                 (A) (A) (A) (A) (A) (A) (A) (A) (A) (A) (A) (A)
                 (A) (A) (A) (A) (A) (A) (A) (A) (A) (A) (A) (A)
                 (A) (A) (A) (A) (A) (A) (A) (A) (A) (A) (A) (A)
                 (A) (A) (A) (A) (A) (A) (A) (A) (A) (A) (A) (A)
                 (A) (A) (A) (A) (A) (A) (A) (A) (A) (A) (A) (A)
                 (A) (A) (A) (A) (A) (A) (A) (A) (A) (A) (A) (A)
                 (A) (A) (A) (A) (A) (A) (A) (A) (A) (A) (A) (A)
                 (A) (A) (A) (A)
 The electronic state is 1-A.
 Alpha  occ. eigenvalues --  -19.14101 -19.13703 -10.23676 -10.23563 -10.23530
 Alpha  occ. eigenvalues --  -10.19249 -10.18736 -10.18570 -10.18276  -1.04616
 Alpha  occ. eigenvalues --   -1.02162  -0.85908  -0.76443  -0.68970  -0.66480
 Alpha  occ. eigenvalues --   -0.62147  -0.58978  -0.51511  -0.50854  -0.50322
 Alpha  occ. eigenvalues --   -0.47882  -0.45604  -0.42984  -0.42369  -0.38198
 Alpha  occ. eigenvalues --   -0.37773  -0.37132  -0.35535  -0.34409  -0.32179
 Alpha  occ. eigenvalues --   -0.30285  -0.27366  -0.25976  -0.23486
 Alpha virt. eigenvalues --    0.06122   0.07148   0.09023   0.09619   0.11742
 Alpha virt. eigenvalues --    0.13363   0.13868   0.14906   0.16271   0.17630
 Alpha virt. eigenvalues --    0.18139   0.19132   0.20138   0.21015   0.21714
 Alpha virt. eigenvalues --    0.24204   0.25626   0.27671   0.30626   0.33877
 Alpha virt. eigenvalues --    0.37698   0.41079   0.42494   0.44808   0.46222
 Alpha virt. eigenvalues --    0.47477   0.48554   0.49525   0.51408   0.52688
 Alpha virt. eigenvalues --    0.54547   0.55840   0.56804   0.57332   0.58205
 Alpha virt. eigenvalues --    0.60637   0.61631   0.65530   0.67431   0.68743
 Alpha virt. eigenvalues --    0.69829   0.70588   0.72985   0.73811   0.74835
 Alpha virt. eigenvalues --    0.75594   0.77609   0.77938   0.78778   0.78996
 Alpha virt. eigenvalues --    0.82953   0.83224   0.84759   0.85703   0.91185
 Alpha virt. eigenvalues --    0.92778   0.94574   0.97573   0.98868   0.99762
 Alpha virt. eigenvalues --    1.01753   1.05404   1.06950   1.08782   1.11865
 Alpha virt. eigenvalues --    1.14014   1.17427   1.18769   1.21500   1.22943
 Alpha virt. eigenvalues --    1.26052   1.26919   1.31017   1.32146   1.33242
 Alpha virt. eigenvalues --    1.36180   1.40059   1.41908   1.42234   1.44242
 Alpha virt. eigenvalues --    1.45863   1.46885   1.47642   1.50283   1.51001
 Alpha virt. eigenvalues --    1.54331   1.55012   1.55707   1.57854   1.59577
 Alpha virt. eigenvalues --    1.59862   1.63039   1.64065   1.68053   1.68978
 Alpha virt. eigenvalues --    1.71095   1.74664   1.76831   1.78670   1.79775
 Alpha virt. eigenvalues --    1.82116   1.86278   1.90266   1.90939   1.93942
 Alpha virt. eigenvalues --    1.94658   2.02439   2.07431   2.09463   2.13239
 Alpha virt. eigenvalues --    2.15024   2.18123   2.21129   2.26719   2.27970
 Alpha virt. eigenvalues --    2.31439   2.35392   2.38042   2.39183   2.41520
 Alpha virt. eigenvalues --    2.45431   2.49373   2.50569   2.54275   2.56467
 Alpha virt. eigenvalues --    2.60829   2.62732   2.64016   2.68706   2.70723
 Alpha virt. eigenvalues --    2.73765   2.76340   2.79925   2.80875   2.84359
 Alpha virt. eigenvalues --    2.88320   2.89565   2.91621   2.92951   2.94366
 Alpha virt. eigenvalues --    2.95368   2.96282   2.97249   3.03253   3.04222
 Alpha virt. eigenvalues --    3.05703   3.06987   3.08819   3.10753   3.12557
 Alpha virt. eigenvalues --    3.15109   3.19522   3.23031   3.23965   3.27017
 Alpha virt. eigenvalues --    3.28956   3.31582   3.33625   3.35716   3.36894
 Alpha virt. eigenvalues --    3.39903   3.41939   3.43751   3.44880   3.50190
 Alpha virt. eigenvalues --    3.51465   3.52758   3.53419   3.58247   3.63001
 Alpha virt. eigenvalues --    3.65013   3.69250   3.71679   3.77259   3.81237
 Alpha virt. eigenvalues --    3.84003   3.89359   3.90843   3.93638   3.95078
 Alpha virt. eigenvalues --    4.02012   4.06364   4.10885   4.14599   4.15928
 Alpha virt. eigenvalues --    4.21152   4.24699   4.27888   4.28855   4.31087
 Alpha virt. eigenvalues --    4.36252   4.38740   4.39174   4.42560   4.43694
 Alpha virt. eigenvalues --    4.46954   4.47964   4.50281   4.51197   4.54836
 Alpha virt. eigenvalues --    4.55674   4.57338   4.59432   4.60707   4.62702
 Alpha virt. eigenvalues --    4.64809   4.66847   4.68004   4.68944   4.70510
 Alpha virt. eigenvalues --    4.71409   4.74253   4.76549   4.77683   4.78380
 Alpha virt. eigenvalues --    4.81260   4.82095   4.83567   4.85351   4.86857
 Alpha virt. eigenvalues --    4.88395   4.96421   4.97721   4.98741   5.02039
 Alpha virt. eigenvalues --    5.04395   5.08441   5.10026   5.11833   5.16869
 Alpha virt. eigenvalues --    5.18662   5.22839   5.30273   5.33231   5.34669
 Alpha virt. eigenvalues --    5.38845   5.43683   5.46951   5.47197   5.48629
 Alpha virt. eigenvalues --    5.55227   5.56731   5.62155   5.67942   5.70017
 Alpha virt. eigenvalues --    5.77936   5.79974   5.86636   5.91982   5.98104
 Alpha virt. eigenvalues --    6.02941   6.07367   6.10168   6.12932   6.33766
 Alpha virt. eigenvalues --    6.43169   7.05519   7.17017   7.88554  10.89391
 Alpha virt. eigenvalues --   11.36161  11.77737  11.97911  12.25063  12.63742
 Alpha virt. eigenvalues --   13.18187  13.41864  13.57436
          Condensed to atoms (all electrons):
               1          2          3          4          5          6
     1  O    7.813377   0.393873  -0.031412   0.002194  -0.000076   0.002719
     2  C    0.393873   4.693847   0.355602  -0.001010   0.008510  -0.033451
     3  C   -0.031412   0.355602   5.187188   0.291602  -0.135648   0.344104
     4  C    0.002194  -0.001010   0.291602   5.016647   0.333735  -0.058444
     5  C   -0.000076   0.008510  -0.135648   0.333735   5.159651   0.369756
     6  C    0.002719  -0.033451   0.344104  -0.058444   0.369756   4.350241
     7  O   -0.000093   0.006770  -0.038351   0.003602  -0.028139   0.386361
     8  C   -0.003397   0.008849   0.000330  -0.001216   0.006602  -0.124352
     9  C   -0.048295   0.272599  -0.121135   0.015265  -0.034300   0.335487
    10  H    0.317319  -0.077135  -0.000419  -0.000179   0.000034  -0.000279
    11  H   -0.021572   0.346381  -0.031683  -0.011481  -0.000867   0.003851
    12  H   -0.000196  -0.045767   0.340697  -0.031490   0.007518  -0.029268
    13  H    0.000151  -0.012328  -0.019725   0.360951  -0.026285  -0.000769
    14  H   -0.000048   0.001475  -0.010021   0.360235  -0.018617   0.001376
    15  H    0.000000  -0.000122   0.009782  -0.026712   0.352494  -0.011849
    16  H    0.000004  -0.000184  -0.003058  -0.016218   0.337657  -0.005272
    17  H    0.000334   0.002188  -0.001056   0.000049   0.000019   0.001816
    18  H    0.008171  -0.011115   0.004625  -0.000039  -0.000763   0.002017
    19  H    0.001361  -0.034301   0.012186  -0.000869  -0.005317  -0.020504
               7          8          9         10         11         12
     1  O   -0.000093  -0.003397  -0.048295   0.317319  -0.021572  -0.000196
     2  C    0.006770   0.008849   0.272599  -0.077135   0.346381  -0.045767
     3  C   -0.038351   0.000330  -0.121135  -0.000419  -0.031683   0.340697
     4  C    0.003602  -0.001216   0.015265  -0.000179  -0.011481  -0.031490
     5  C   -0.028139   0.006602  -0.034300   0.000034  -0.000867   0.007518
     6  C    0.386361  -0.124352   0.335487  -0.000279   0.003851  -0.029268
     7  O    7.780810   0.351176  -0.085539  -0.000340  -0.000265  -0.000630
     8  C    0.351176   4.867697   0.332361   0.003813   0.002698  -0.000242
     9  C   -0.085539   0.332361   5.249915  -0.002571  -0.046732   0.013682
    10  H   -0.000340   0.003813  -0.002571   0.460634   0.007658   0.003137
    11  H   -0.000265   0.002698  -0.046732   0.007658   0.657568   0.002608
    12  H   -0.000630  -0.000242   0.013682   0.003137   0.002608   0.673874
    13  H   -0.000084   0.000076   0.003220   0.000036   0.006329   0.004202
    14  H   -0.000094  -0.000005  -0.000680  -0.000001   0.000150  -0.006715
    15  H    0.001262   0.000344  -0.009724   0.000000   0.000134  -0.000460
    16  H   -0.000816  -0.000296   0.005009  -0.000001   0.000026   0.000743
    17  H   -0.024218   0.357254  -0.012476  -0.000079  -0.000113   0.000034
    18  H   -0.027620   0.345685  -0.030405   0.003624   0.000305  -0.000250
    19  H    0.005733  -0.031245   0.339696  -0.000058  -0.004067  -0.000517
              13         14         15         16         17         18
     1  O    0.000151  -0.000048   0.000000   0.000004   0.000334   0.008171
     2  C   -0.012328   0.001475  -0.000122  -0.000184   0.002188  -0.011115
     3  C   -0.019725  -0.010021   0.009782  -0.003058  -0.001056   0.004625
     4  C    0.360951   0.360235  -0.026712  -0.016218   0.000049  -0.000039
     5  C   -0.026285  -0.018617   0.352494   0.337657   0.000019  -0.000763
     6  C   -0.000769   0.001376  -0.011849  -0.005272   0.001816   0.002017
     7  O   -0.000084  -0.000094   0.001262  -0.000816  -0.024218  -0.027620
     8  C    0.000076  -0.000005   0.000344  -0.000296   0.357254   0.345685
     9  C    0.003220  -0.000680  -0.009724   0.005009  -0.012476  -0.030405
    10  H    0.000036  -0.000001   0.000000  -0.000001  -0.000079   0.003624
    11  H    0.006329   0.000150   0.000134   0.000026  -0.000113   0.000305
    12  H    0.004202  -0.006715  -0.000460   0.000743   0.000034  -0.000250
    13  H    0.619285  -0.040223  -0.004908   0.004104  -0.000002   0.000000
    14  H   -0.040223   0.606620   0.003326  -0.008823   0.000000   0.000000
    15  H   -0.004908   0.003326   0.626239  -0.041894  -0.000035   0.000006
    16  H    0.004104  -0.008823  -0.041894   0.612894   0.000017   0.000023
    17  H   -0.000002   0.000000  -0.000035   0.000017   0.623559  -0.053614
    18  H    0.000000   0.000000   0.000006   0.000023  -0.053614   0.659824
    19  H    0.000162   0.000033   0.001905  -0.000075  -0.006544   0.004795
              19
     1  O    0.001361
     2  C   -0.034301
     3  C    0.012186
     4  C   -0.000869
     5  C   -0.005317
     6  C   -0.020504
     7  O    0.005733
     8  C   -0.031245
     9  C    0.339696
    10  H   -0.000058
    11  H   -0.004067
    12  H   -0.000517
    13  H    0.000162
    14  H    0.000033
    15  H    0.001905
    16  H   -0.000075
    17  H   -0.006544
    18  H    0.004795
    19  H    0.662471
 Mulliken charges:
               1
     1  O   -0.434412
     2  C    0.125320
     3  C   -0.153609
     4  C   -0.236622
     5  C   -0.325965
     6  C    0.486461
     7  O   -0.329523
     8  C   -0.116131
     9  C   -0.175377
    10  H    0.284807
    11  H    0.089072
    12  H    0.069039
    13  H    0.105804
    14  H    0.112013
    15  H    0.100211
    16  H    0.116158
    17  H    0.112868
    18  H    0.094731
    19  H    0.075154
 Sum of Mulliken charges =   0.00000
 Mulliken charges with hydrogens summed into heavy atoms:
               1
     1  O   -0.149605
     2  C    0.214392
     3  C   -0.084569
     4  C   -0.018805
     5  C   -0.109595
     6  C    0.486461
     7  O   -0.329523
     8  C    0.091468
     9  C   -0.100223
 Electronic spatial extent (au):  <R**2>=           1023.5687
 Charge=              0.0000 electrons
 Dipole moment (field-independent basis, Debye):
    X=              0.7057    Y=             -0.1277    Z=              0.4954  Tot=              0.8716
 Quadrupole moment (field-independent basis, Debye-Ang):
   XX=            -53.3816   YY=            -57.6212   ZZ=            -50.9176
   XY=             -4.8786   XZ=              1.4294   YZ=              2.4926
 Traceless Quadrupole moment (field-independent basis, Debye-Ang):
   XX=              0.5918   YY=             -3.6477   ZZ=              3.0559
   XY=             -4.8786   XZ=              1.4294   YZ=              2.4926
 Octapole moment (field-independent basis, Debye-Ang**2):
  XXX=             -1.9332  YYY=              0.7897  ZZZ=             -3.7922  XYY=              0.1733
  XXY=             11.1400  XXZ=             -8.9868  XZZ=             -5.8354  YZZ=             -3.3470
  YYZ=              5.8609  XYZ=             -0.4440
 Hexadecapole moment (field-independent basis, Debye-Ang**3):
 XXXX=           -671.0655 YYYY=           -496.5988 ZZZZ=           -158.3369 XXXY=             -8.8514
 XXXZ=             11.6872 YYYX=             -8.8790 YYYZ=              3.6770 ZZZX=              7.0699
 ZZZY=              2.3623 XXYY=           -198.5847 XXZZ=           -124.7730 YYZZ=           -106.7399
 XXYZ=              2.0525 YYXZ=             -2.9709 ZZXY=              5.9444
 N-N= 4.787264527459D+02 E-N=-1.944397596279D+03  KE= 4.200352154381D+02
 Calling FoFJK, ICntrl=      2127 FMM=F ISym2X=0 I1Cent= 0 IOpClX= 0 NMat=1 NMatS=1 NMatT=0.
 ***** Axes restored to original set *****
 -------------------------------------------------------------------
 Center     Atomic                   Forces (Hartrees/Bohr)
 Number     Number              X              Y              Z
 -------------------------------------------------------------------
      1        8          -0.000001325    0.000009820   -0.000002667
      2        6           0.000035055    0.000009208    0.000030331
      3        6          -0.000018433   -0.000034995   -0.000021389
      4        6          -0.000009776    0.000012777    0.000007911
      5        6           0.000018788   -0.000037424   -0.000013201
      6        6           0.000040737    0.000079671    0.000019614
      7        8          -0.000057797   -0.000019523    0.000011861
      8        6           0.000039163    0.000014662   -0.000019801
      9        6          -0.000024456   -0.000052036   -0.000026496
     10        1          -0.000002383   -0.000009148    0.000011479
     11        1          -0.000005796    0.000000947    0.000005228
     12        1          -0.000000013    0.000004819    0.000006073
     13        1           0.000005233   -0.000000624   -0.000009518
     14        1          -0.000006589    0.000004324   -0.000007490
     15        1          -0.000006627    0.000005256   -0.000004913
     16        1          -0.000006663    0.000015183   -0.000001354
     17        1          -0.000003678   -0.000006676    0.000003966
     18        1          -0.000008780   -0.000005782    0.000011511
     19        1           0.000013340    0.000009541   -0.000001144
 -------------------------------------------------------------------
 Cartesian Forces:  Max     0.000079671 RMS     0.000021583

 GradGradGradGradGradGradGradGradGradGradGradGradGradGradGradGradGradGrad
 Berny optimization.
 FormGI is forming the generalized inverse of G from B-inverse, IUseBI=4.
 Internal  Forces:  Max     0.000038458 RMS     0.000005824
 Search for a local minimum.
 Step number   1 out of a maximum of  114
 All quantities printed in internal units (Hartrees-Bohrs-Radians)
 Mixed Optimization -- En-DIIS/RFO-DIIS
 Second derivative matrix not updated -- first step.
 ITU=  0
     Eigenvalues ---    0.00355   0.00928   0.01375   0.01577   0.02157
     Eigenvalues ---    0.02586   0.03181   0.03278   0.03804   0.04295
     Eigenvalues ---    0.04666   0.04794   0.04879   0.04999   0.05115
     Eigenvalues ---    0.05455   0.05597   0.05902   0.06005   0.06598
     Eigenvalues ---    0.06975   0.07902   0.08221   0.08441   0.09305
     Eigenvalues ---    0.10455   0.11157   0.11902   0.14714   0.16000
     Eigenvalues ---    0.16125   0.17315   0.24080   0.24706   0.25965
     Eigenvalues ---    0.26239   0.26996   0.29056   0.34001   0.34105
     Eigenvalues ---    0.34273   0.34286   0.34320   0.34407   0.34442
     Eigenvalues ---    0.34579   0.34746   0.34793   0.39272   0.44216
     Eigenvalues ---    0.54858
 RFO step:  Lambda=-4.66180893D-08 EMin= 3.55291997D-03
 Linear search not attempted -- first point.
 Iteration  1 RMS(Cart)=  0.00012707 RMS(Int)=  0.00000001
 Iteration  2 RMS(Cart)=  0.00000002 RMS(Int)=  0.00000000
 Variable       Old X    -DE/DX   Delta X   Delta X   Delta X     New X
                                 (Linear)    (Quad)   (Total)
    R1        2.66197  -0.00001   0.00000  -0.00002  -0.00002   2.66195
    R2        1.81958   0.00000   0.00000   0.00000   0.00000   1.81958
    R3        2.93838   0.00000   0.00000  -0.00002  -0.00002   2.93836
    R4        2.96034  -0.00001   0.00000  -0.00008  -0.00008   2.96027
    R5        2.06793   0.00000   0.00000   0.00001   0.00001   2.06793
    R6        2.95943   0.00000   0.00000   0.00000   0.00000   2.95943
    R7        2.95628   0.00002   0.00000   0.00013   0.00013   2.95641
    R8        2.06364   0.00000   0.00000   0.00000   0.00000   2.06364
    R9        2.95840   0.00000   0.00000  -0.00005  -0.00005   2.95835
   R10        2.06590   0.00000   0.00000   0.00001   0.00001   2.06591
   R11        2.06090   0.00000   0.00000   0.00000   0.00000   2.06089
   R12        2.86806  -0.00001   0.00000  -0.00002  -0.00002   2.86804
   R13        2.06649   0.00000   0.00000   0.00001   0.00001   2.06651
   R14        2.06850   0.00001   0.00000   0.00002   0.00002   2.06851
   R15        2.68416  -0.00004   0.00000  -0.00011  -0.00011   2.68404
   R16        2.93784   0.00001   0.00000   0.00001   0.00001   2.93785
   R17        2.74651   0.00002   0.00000   0.00007   0.00007   2.74658
   R18        2.91646   0.00001   0.00000   0.00005   0.00005   2.91651
   R19        2.06871  -0.00001   0.00000  -0.00002  -0.00002   2.06870
   R20        2.07329  -0.00001   0.00000  -0.00002  -0.00002   2.07327
   R21        2.06013   0.00000   0.00000   0.00001   0.00001   2.06014
    A1        1.89370   0.00000   0.00000   0.00001   0.00001   1.89371
    A2        2.05008   0.00000   0.00000   0.00009   0.00009   2.05018
    A3        2.05884   0.00000   0.00000   0.00003   0.00003   2.05887
    A4        1.83871   0.00000   0.00000   0.00002   0.00002   1.83873
    A5        1.55588   0.00001   0.00000   0.00003   0.00003   1.55591
    A6        1.98963  -0.00001   0.00000  -0.00009  -0.00009   1.98954
    A7        1.96910  -0.00001   0.00000  -0.00009  -0.00009   1.96900
    A8        2.02632   0.00000   0.00000  -0.00001  -0.00001   2.02630
    A9        1.58369   0.00000   0.00000  -0.00002  -0.00002   1.58367
   A10        2.06043   0.00000   0.00000   0.00001   0.00001   2.06043
   A11        1.49669   0.00000   0.00000   0.00000   0.00000   1.49669
   A12        2.02266   0.00000   0.00000   0.00004   0.00004   2.02270
   A13        2.16762   0.00000   0.00000  -0.00004  -0.00004   2.16758
   A14        1.58496   0.00000   0.00000  -0.00001  -0.00001   1.58495
   A15        1.97832   0.00000   0.00000  -0.00006  -0.00006   1.97826
   A16        2.00396   0.00000   0.00000   0.00005   0.00005   2.00400
   A17        1.98381   0.00000   0.00000   0.00000   0.00000   1.98382
   A18        2.00984   0.00000   0.00000   0.00002   0.00002   2.00986
   A19        1.89180   0.00000   0.00000   0.00000   0.00000   1.89180
   A20        1.52507   0.00001   0.00000   0.00007   0.00007   1.52514
   A21        2.07473   0.00000   0.00000  -0.00002  -0.00002   2.07471
   A22        1.93903   0.00001   0.00000   0.00007   0.00007   1.93910
   A23        2.06345   0.00000   0.00000   0.00002   0.00002   2.06347
   A24        1.93673   0.00000   0.00000  -0.00004  -0.00004   1.93669
   A25        1.90011   0.00000   0.00000  -0.00008  -0.00008   1.90003
   A26        1.61758   0.00000   0.00000  -0.00007  -0.00007   1.61751
   A27        2.17648   0.00001   0.00000   0.00002   0.00002   2.17650
   A28        1.55743  -0.00001   0.00000  -0.00005  -0.00005   1.55738
   A29        2.21392  -0.00001   0.00000  -0.00004  -0.00004   2.21387
   A30        2.20918   0.00000   0.00000   0.00009   0.00009   2.20927
   A31        1.63173   0.00001   0.00000   0.00006   0.00006   1.63179
   A32        1.58515   0.00000   0.00000  -0.00002  -0.00002   1.58513
   A33        1.61744  -0.00001   0.00000  -0.00002  -0.00002   1.61742
   A34        1.93873   0.00000   0.00000  -0.00001  -0.00001   1.93872
   A35        1.96212   0.00000   0.00000  -0.00005  -0.00005   1.96207
   A36        2.00697   0.00000   0.00000   0.00000   0.00000   2.00697
   A37        2.02911   0.00000   0.00000  -0.00001  -0.00001   2.02910
   A38        1.89627   0.00000   0.00000   0.00007   0.00007   1.89634
   A39        1.58247   0.00000   0.00000   0.00004   0.00004   1.58251
   A40        2.04122   0.00000   0.00000  -0.00003  -0.00003   2.04119
   A41        2.06775   0.00000   0.00000   0.00008   0.00008   2.06784
   A42        1.44341   0.00000   0.00000  -0.00005  -0.00005   1.44336
   A43        2.17203   0.00000   0.00000   0.00004   0.00004   2.17207
   A44        2.03020   0.00000   0.00000  -0.00008  -0.00008   2.03012
    D1       -0.69457   0.00000   0.00000   0.00023   0.00023  -0.69434
    D2        1.13600   0.00001   0.00000   0.00036   0.00036   1.13636
    D3       -2.93152   0.00000   0.00000   0.00027   0.00027  -2.93124
    D4       -2.73085   0.00000   0.00000   0.00016   0.00016  -2.73069
    D5        2.05775   0.00000   0.00000   0.00016   0.00016   2.05791
    D6       -0.21246   0.00000   0.00000   0.00022   0.00022  -0.21223
    D7        1.43381  -0.00001   0.00000   0.00008   0.00008   1.43389
    D8       -0.06077   0.00000   0.00000   0.00008   0.00008  -0.06069
    D9       -2.33098   0.00000   0.00000   0.00014   0.00014  -2.33083
   D10       -0.56818   0.00000   0.00000   0.00018   0.00018  -0.56800
   D11       -2.06276   0.00000   0.00000   0.00019   0.00019  -2.06257
   D12        1.95022   0.00000   0.00000   0.00025   0.00025   1.95047
   D13       -2.04977   0.00000   0.00000  -0.00022  -0.00022  -2.04998
   D14       -0.61600  -0.00001   0.00000  -0.00025  -0.00025  -0.61624
   D15        1.95520  -0.00001   0.00000  -0.00033  -0.00033   1.95487
   D16        0.06115   0.00000   0.00000  -0.00008  -0.00008   0.06107
   D17        1.49492   0.00000   0.00000  -0.00011  -0.00011   1.49481
   D18       -2.21706   0.00000   0.00000  -0.00020  -0.00020  -2.21726
   D19        2.08199   0.00000   0.00000  -0.00018  -0.00018   2.08181
   D20       -2.76742   0.00000   0.00000  -0.00021  -0.00021  -2.76763
   D21       -0.19622   0.00000   0.00000  -0.00030  -0.00030  -0.19652
   D22       -1.78486   0.00001   0.00000   0.00000   0.00000  -1.78486
   D23        0.24525   0.00000   0.00000  -0.00001  -0.00001   0.24524
   D24        2.43265   0.00000   0.00000  -0.00002  -0.00002   2.43262
   D25       -0.23605   0.00000   0.00000  -0.00001  -0.00001  -0.23606
   D26        1.79407   0.00000   0.00000  -0.00003  -0.00003   1.79404
   D27       -2.30172   0.00000   0.00000  -0.00004  -0.00004  -2.30176
   D28        1.96630   0.00000   0.00000  -0.00005  -0.00005   1.96626
   D29       -2.28677   0.00000   0.00000  -0.00006  -0.00006  -2.28683
   D30       -0.09937   0.00000   0.00000  -0.00008  -0.00008  -0.09944
   D31        2.27052   0.00000   0.00000   0.00000   0.00000   2.27052
   D32       -1.57442   0.00000   0.00000  -0.00013  -0.00013  -1.57455
   D33        0.06124   0.00000   0.00000  -0.00008  -0.00008   0.06115
   D34        0.24388   0.00000   0.00000   0.00001   0.00001   0.24389
   D35        2.68212  -0.00001   0.00000  -0.00011  -0.00011   2.68201
   D36       -1.96540   0.00000   0.00000  -0.00007  -0.00007  -1.96548
   D37       -1.82633   0.00000   0.00000  -0.00003  -0.00003  -1.82635
   D38        0.61191  -0.00001   0.00000  -0.00015  -0.00015   0.61176
   D39        2.24757   0.00000   0.00000  -0.00011  -0.00011   2.24746
   D40        0.24303   0.00000   0.00000   0.00003   0.00003   0.24306
   D41        2.35535   0.00000   0.00000   0.00008   0.00008   2.35543
   D42       -1.70277   0.00000   0.00000   0.00003   0.00003  -1.70274
   D43       -1.78222   0.00000   0.00000   0.00010   0.00010  -1.78212
   D44        0.33009   0.00000   0.00000   0.00016   0.00016   0.33025
   D45        2.55516   0.00000   0.00000   0.00010   0.00010   2.55526
   D46        2.30360   0.00000   0.00000   0.00008   0.00008   2.30367
   D47       -1.86727   0.00000   0.00000   0.00014   0.00014  -1.86714
   D48        0.35780   0.00000   0.00000   0.00008   0.00008   0.35788
   D49       -0.24354   0.00000   0.00000  -0.00001  -0.00001  -0.24356
   D50       -2.65836   0.00000   0.00000   0.00008   0.00008  -2.65828
   D51        1.34533  -0.00001   0.00000  -0.00012  -0.00012   1.34521
   D52       -2.36594   0.00000   0.00000  -0.00004  -0.00004  -2.36598
   D53        1.50243   0.00000   0.00000   0.00005   0.00005   1.50248
   D54       -0.77707  -0.00001   0.00000  -0.00015  -0.00015  -0.77722
   D55        1.70450   0.00001   0.00000   0.00009   0.00009   1.70458
   D56       -0.71032   0.00001   0.00000   0.00018   0.00018  -0.71014
   D57       -2.98982   0.00000   0.00000  -0.00002  -0.00002  -2.98984
   D58        1.52056   0.00000   0.00000  -0.00016  -0.00016   1.52040
   D59       -2.56069  -0.00001   0.00000  -0.00032  -0.00032  -2.56101
   D60       -0.07619   0.00000   0.00000  -0.00014  -0.00014  -0.07634
   D61       -0.06078   0.00000   0.00000   0.00008   0.00008  -0.06070
   D62       -2.10451   0.00000   0.00000   0.00012   0.00012  -2.10439
   D63        2.13636   0.00000   0.00000   0.00025   0.00025   2.13660
   D64       -1.67991   0.00000   0.00000   0.00020   0.00020  -1.67971
   D65        2.55954   0.00000   0.00000   0.00024   0.00024   2.55978
   D66        0.51722   0.00001   0.00000   0.00036   0.00036   0.51759
   D67        2.11606   0.00000   0.00000   0.00010   0.00010   2.11616
   D68        0.07233   0.00000   0.00000   0.00014   0.00014   0.07246
   D69       -1.96999   0.00001   0.00000   0.00027   0.00027  -1.96973
   D70        0.07670   0.00000   0.00000   0.00014   0.00014   0.07684
   D71        2.13822   0.00000   0.00000   0.00013   0.00013   2.13835
   D72       -2.01584   0.00001   0.00000   0.00018   0.00018  -2.01567
   D73       -1.58948   0.00000   0.00000  -0.00016  -0.00016  -1.58963
   D74       -0.07063   0.00000   0.00000  -0.00013  -0.00013  -0.07076
   D75        2.11019   0.00000   0.00000  -0.00013  -0.00013   2.11006
   D76        2.69053   0.00000   0.00000  -0.00014  -0.00014   2.69039
   D77       -2.07381   0.00000   0.00000  -0.00011  -0.00011  -2.07391
   D78        0.10701   0.00000   0.00000  -0.00010  -0.00010   0.10691
   D79        0.44673   0.00000   0.00000  -0.00023  -0.00023   0.44650
   D80        1.96558   0.00000   0.00000  -0.00020  -0.00020   1.96538
   D81       -2.13679  -0.00001   0.00000  -0.00020  -0.00020  -2.13698
         Item               Value     Threshold  Converged?
 Maximum Force            0.000038     0.000450     YES
 RMS     Force            0.000006     0.000300     YES
 Maximum Displacement     0.000564     0.001800     YES
 RMS     Displacement     0.000127     0.001200     YES
 Predicted change in Energy=-2.330992D-08
 Optimization completed.
    -- Stationary point found.
                           ----------------------------
                           !   Optimized Parameters   !
                           ! (Angstroms and Degrees)  !
 --------------------------                            --------------------------
 ! Name  Definition              Value          Derivative Info.                !
 --------------------------------------------------------------------------------
 ! R1    R(1,2)                  1.4087         -DE/DX =    0.0                 !
 ! R2    R(1,10)                 0.9629         -DE/DX =    0.0                 !
 ! R3    R(2,3)                  1.5549         -DE/DX =    0.0                 !
 ! R4    R(2,9)                  1.5665         -DE/DX =    0.0                 !
 ! R5    R(2,11)                 1.0943         -DE/DX =    0.0                 !
 ! R6    R(3,4)                  1.5661         -DE/DX =    0.0                 !
 ! R7    R(3,6)                  1.5644         -DE/DX =    0.0                 !
 ! R8    R(3,12)                 1.092          -DE/DX =    0.0                 !
 ! R9    R(4,5)                  1.5655         -DE/DX =    0.0                 !
 ! R10   R(4,13)                 1.0932         -DE/DX =    0.0                 !
 ! R11   R(4,14)                 1.0906         -DE/DX =    0.0                 !
 ! R12   R(5,6)                  1.5177         -DE/DX =    0.0                 !
 ! R13   R(5,15)                 1.0935         -DE/DX =    0.0                 !
 ! R14   R(5,16)                 1.0946         -DE/DX =    0.0                 !
 ! R15   R(6,7)                  1.4204         -DE/DX =    0.0                 !
 ! R16   R(6,9)                  1.5546         -DE/DX =    0.0                 !
 ! R17   R(7,8)                  1.4534         -DE/DX =    0.0                 !
 ! R18   R(8,9)                  1.5433         -DE/DX =    0.0                 !
 ! R19   R(8,17)                 1.0947         -DE/DX =    0.0                 !
 ! R20   R(8,18)                 1.0971         -DE/DX =    0.0                 !
 ! R21   R(9,19)                 1.0902         -DE/DX =    0.0                 !
 ! A1    A(2,1,10)             108.501          -DE/DX =    0.0                 !
 ! A2    A(1,2,3)              117.4612         -DE/DX =    0.0                 !
 ! A3    A(1,2,9)              117.9627         -DE/DX =    0.0                 !
 ! A4    A(1,2,11)             105.3504         -DE/DX =    0.0                 !
 ! A5    A(3,2,9)               89.1454         -DE/DX =    0.0                 !
 ! A6    A(3,2,11)             113.9973         -DE/DX =    0.0                 !
 ! A7    A(9,2,11)             112.821          -DE/DX =    0.0                 !
 ! A8    A(2,3,4)              116.0994         -DE/DX =    0.0                 !
 ! A9    A(2,3,6)               90.7386         -DE/DX =    0.0                 !
 ! A10   A(2,3,12)             118.0537         -DE/DX =    0.0                 !
 ! A11   A(4,3,6)               85.7538         -DE/DX =    0.0                 !
 ! A12   A(4,3,12)             115.8898         -DE/DX =    0.0                 !
 ! A13   A(6,3,12)             124.1955         -DE/DX =    0.0                 !
 ! A14   A(3,4,5)               90.8117         -DE/DX =    0.0                 !
 ! A15   A(3,4,13)             113.3494         -DE/DX =    0.0                 !
 ! A16   A(3,4,14)             114.8184         -DE/DX =    0.0                 !
 ! A17   A(5,4,13)             113.6641         -DE/DX =    0.0                 !
 ! A18   A(5,4,14)             115.1552         -DE/DX =    0.0                 !
 ! A19   A(13,4,14)            108.392          -DE/DX =    0.0                 !
 ! A20   A(4,5,6)               87.38           -DE/DX =    0.0                 !
 ! A21   A(4,5,15)             118.873          -DE/DX =    0.0                 !
 ! A22   A(4,5,16)             111.098          -DE/DX =    0.0                 !
 ! A23   A(6,5,15)             118.227          -DE/DX =    0.0                 !
 ! A24   A(6,5,16)             110.9665         -DE/DX =    0.0                 !
 ! A25   A(15,5,16)            108.868          -DE/DX =    0.0                 !
 ! A26   A(3,6,5)               92.6805         -DE/DX =    0.0                 !
 ! A27   A(3,6,7)              124.7031         -DE/DX =    0.0                 !
 ! A28   A(3,6,9)               89.2339         -DE/DX =    0.0                 !
 ! A29   A(5,6,7)              126.8482         -DE/DX =    0.0                 !
 ! A30   A(5,6,9)              126.5769         -DE/DX =    0.0                 !
 ! A31   A(7,6,9)               93.4912         -DE/DX =    0.0                 !
 ! A32   A(6,7,8)               90.8224         -DE/DX =    0.0                 !
 ! A33   A(7,8,9)               92.6724         -DE/DX =    0.0                 !
 ! A34   A(7,8,17)             111.0813         -DE/DX =    0.0                 !
 ! A35   A(7,8,18)             112.4211         -DE/DX =    0.0                 !
 ! A36   A(9,8,17)             114.9909         -DE/DX =    0.0                 !
 ! A37   A(9,8,18)             116.2592         -DE/DX =    0.0                 !
 ! A38   A(17,8,18)            108.6481         -DE/DX =    0.0                 !
 ! A39   A(2,9,6)               90.6689         -DE/DX =    0.0                 !
 ! A40   A(2,9,8)              116.9532         -DE/DX =    0.0                 !
 ! A41   A(2,9,19)             118.4735         -DE/DX =    0.0                 !
 ! A42   A(6,9,8)               82.7013         -DE/DX =    0.0                 !
 ! A43   A(6,9,19)             124.448          -DE/DX =    0.0                 !
 ! A44   A(8,9,19)             116.3219         -DE/DX =    0.0                 !
 ! D1    D(10,1,2,3)           -39.7961         -DE/DX =    0.0                 !
 ! D2    D(10,1,2,9)            65.0881         -DE/DX =    0.0                 !
 ! D3    D(10,1,2,11)         -167.9635         -DE/DX =    0.0                 !
 ! D4    D(1,2,3,4)           -156.4664         -DE/DX =    0.0                 !
 ! D5    D(1,2,3,6)            117.9003         -DE/DX =    0.0                 !
 ! D6    D(1,2,3,12)           -12.1729         -DE/DX =    0.0                 !
 ! D7    D(9,2,3,4)             82.1513         -DE/DX =    0.0                 !
 ! D8    D(9,2,3,6)             -3.4819         -DE/DX =    0.0                 !
 ! D9    D(9,2,3,12)          -133.5551         -DE/DX =    0.0                 !
 ! D10   D(11,2,3,4)           -32.5543         -DE/DX =    0.0                 !
 ! D11   D(11,2,3,6)          -118.1875         -DE/DX =    0.0                 !
 ! D12   D(11,2,3,12)          111.7393         -DE/DX =    0.0                 !
 ! D13   D(1,2,9,6)           -117.443          -DE/DX =    0.0                 !
 ! D14   D(1,2,9,8)            -35.2939         -DE/DX =    0.0                 !
 ! D15   D(1,2,9,19)           112.025          -DE/DX =    0.0                 !
 ! D16   D(3,2,9,6)              3.5037         -DE/DX =    0.0                 !
 ! D17   D(3,2,9,8)             85.6527         -DE/DX =    0.0                 !
 ! D18   D(3,2,9,19)          -127.0284         -DE/DX =    0.0                 !
 ! D19   D(11,2,9,6)           119.2893         -DE/DX =    0.0                 !
 ! D20   D(11,2,9,8)          -158.5617         -DE/DX =    0.0                 !
 ! D21   D(11,2,9,19)          -11.2428         -DE/DX =    0.0                 !
 ! D22   D(2,3,4,5)           -102.2652         -DE/DX =    0.0                 !
 ! D23   D(2,3,4,13)            14.0518         -DE/DX =    0.0                 !
 ! D24   D(2,3,4,14)           139.3804         -DE/DX =    0.0                 !
 ! D25   D(6,3,4,5)            -13.5246         -DE/DX =    0.0                 !
 ! D26   D(6,3,4,13)           102.7924         -DE/DX =    0.0                 !
 ! D27   D(6,3,4,14)          -131.8789         -DE/DX =    0.0                 !
 ! D28   D(12,3,4,5)           112.661          -DE/DX =    0.0                 !
 ! D29   D(12,3,4,13)         -131.0221         -DE/DX =    0.0                 !
 ! D30   D(12,3,4,14)           -5.6934         -DE/DX =    0.0                 !
 ! D31   D(2,3,6,5)            130.0912         -DE/DX =    0.0                 !
 ! D32   D(2,3,6,7)            -90.2079         -DE/DX =    0.0                 !
 ! D33   D(2,3,6,9)              3.5085         -DE/DX =    0.0                 !
 ! D34   D(4,3,6,5)             13.9733         -DE/DX =    0.0                 !
 ! D35   D(4,3,6,7)            153.6742         -DE/DX =    0.0                 !
 ! D36   D(4,3,6,9)           -112.6094         -DE/DX =    0.0                 !
 ! D37   D(12,3,6,5)          -104.6408         -DE/DX =    0.0                 !
 ! D38   D(12,3,6,7)            35.0601         -DE/DX =    0.0                 !
 ! D39   D(12,3,6,9)           128.7765         -DE/DX =    0.0                 !
 ! D40   D(3,4,5,6)             13.9247         -DE/DX =    0.0                 !
 ! D41   D(3,4,5,15)           134.9514         -DE/DX =    0.0                 !
 ! D42   D(3,4,5,16)           -97.5616         -DE/DX =    0.0                 !
 ! D43   D(13,4,5,6)          -102.1138         -DE/DX =    0.0                 !
 ! D44   D(13,4,5,15)           18.913          -DE/DX =    0.0                 !
 ! D45   D(13,4,5,16)          146.4            -DE/DX =    0.0                 !
 ! D46   D(14,4,5,6)           131.9864         -DE/DX =    0.0                 !
 ! D47   D(14,4,5,15)         -106.9869         -DE/DX =    0.0                 !
 ! D48   D(14,4,5,16)           20.5001         -DE/DX =    0.0                 !
 ! D49   D(4,5,6,3)            -13.9539         -DE/DX =    0.0                 !
 ! D50   D(4,5,6,7)           -152.3125         -DE/DX =    0.0                 !
 ! D51   D(4,5,6,9)             77.0816         -DE/DX =    0.0                 !
 ! D52   D(15,5,6,3)          -135.5585         -DE/DX =    0.0                 !
 ! D53   D(15,5,6,7)            86.0829         -DE/DX =    0.0                 !
 ! D54   D(15,5,6,9)           -44.5229         -DE/DX =    0.0                 !
 ! D55   D(16,5,6,3)            97.6604         -DE/DX =    0.0                 !
 ! D56   D(16,5,6,7)           -40.6982         -DE/DX =    0.0                 !
 ! D57   D(16,5,6,9)          -171.304          -DE/DX =    0.0                 !
 ! D58   D(3,6,7,8)             87.1217         -DE/DX =    0.0                 !
 ! D59   D(5,6,7,8)           -146.7169         -DE/DX =    0.0                 !
 ! D60   D(9,6,7,8)             -4.3656         -DE/DX =    0.0                 !
 ! D61   D(3,6,9,2)             -3.4824         -DE/DX =    0.0                 !
 ! D62   D(3,6,9,8)           -120.5796         -DE/DX =    0.0                 !
 ! D63   D(3,6,9,19)           122.4042         -DE/DX =    0.0                 !
 ! D64   D(5,6,9,2)            -96.2519         -DE/DX =    0.0                 !
 ! D65   D(5,6,9,8)            146.6509         -DE/DX =    0.0                 !
 ! D66   D(5,6,9,19)            29.6347         -DE/DX =    0.0                 !
 ! D67   D(7,6,9,2)            121.2412         -DE/DX =    0.0                 !
 ! D68   D(7,6,9,8)              4.144          -DE/DX =    0.0                 !
 ! D69   D(7,6,9,19)          -112.8722         -DE/DX =    0.0                 !
 ! D70   D(6,7,8,9)              4.3943         -DE/DX =    0.0                 !
 ! D71   D(6,7,8,17)           122.5108         -DE/DX =    0.0                 !
 ! D72   D(6,7,8,18)          -115.4993         -DE/DX =    0.0                 !
 ! D73   D(7,8,9,2)            -91.0702         -DE/DX =    0.0                 !
 ! D74   D(7,8,9,6)             -4.0466         -DE/DX =    0.0                 !
 ! D75   D(7,8,9,19)           120.905          -DE/DX =    0.0                 !
 ! D76   D(17,8,9,2)           154.156          -DE/DX =    0.0                 !
 ! D77   D(17,8,9,6)          -118.8204         -DE/DX =    0.0                 !
 ! D78   D(17,8,9,19)            6.1313         -DE/DX =    0.0                 !
 ! D79   D(18,8,9,2)            25.5959         -DE/DX =    0.0                 !
 ! D80   D(18,8,9,6)           112.6195         -DE/DX =    0.0                 !
 ! D81   D(18,8,9,19)         -122.4288         -DE/DX =    0.0                 !
 --------------------------------------------------------------------------------
 GradGradGradGradGradGradGradGradGradGradGradGradGradGradGradGradGradGrad

                          Input orientation:                          
 ---------------------------------------------------------------------
 Center     Atomic      Atomic             Coordinates (Angstroms)
 Number     Number       Type             X           Y           Z
 ---------------------------------------------------------------------
      1          8           0        0.625385   -0.190565    0.644619
      2          6           0       -0.641029    0.406278    0.800411
      3          6           0       -1.338832    0.257379    2.181965
      4          6           0       -2.898640    0.397161    2.184608
      5          6           0       -2.789296    1.855206    2.744067
      6          6           0       -1.315776    1.808568    2.383488
      7          8           0       -0.262509    2.527145    3.009422
      8          6           0        0.445501    2.632424    1.744520
      9          6           0       -0.704417    1.963129    0.962484
     10          1           0        1.127981   -0.056781    1.454952
     11          1           0       -1.238233    0.042520   -0.041326
     12          1           0       -0.923185   -0.460089    2.892606
     13          1           0       -3.340271    0.342291    1.186061
     14          1           0       -3.420465   -0.309454    2.830948
     15          1           0       -3.406452    2.639785    2.297539
     16          1           0       -2.926473    1.871911    3.829911
     17          1           0        0.633819    3.679029    1.484601
     18          1           0        1.402405    2.095822    1.754655
     19          1           0       -1.149979    2.551496    0.160127
 ---------------------------------------------------------------------
                    Distance matrix (angstroms):
                    1          2          3          4          5
     1  O    0.000000
     2  C    1.408652   0.000000
     3  C    2.534213   1.554925   0.000000
     4  C    3.890468   2.648186   1.566061   0.000000
     5  C    4.500324   3.239173   2.229990   1.565518   0.000000
     6  C    3.284556   2.219872   1.564395   2.130042   1.517713
     7  O    3.710337   3.085625   2.644805   3.488027   2.628035
     8  C    3.035030   2.650965   3.002672   4.046401   3.473770
     9  C    2.551041   1.566547   2.190707   2.959806   2.744523
    10  H    0.962882   1.942227   2.590832   4.117297   4.545610
    11  H    1.999481   1.094301   2.235913   2.799553   3.667430
    12  H    2.743020   2.281991   1.092032   2.266839   2.977419
    13  H    4.037763   2.727403   2.237140   1.093226   2.240506
    14  H    4.600335   3.515767   2.252927   1.090579   2.256474
    15  H    5.196031   3.857137   3.156623   2.302171   1.093541
    16  H    5.197653   4.068071   2.800544   2.209680   1.094602
    17  H    3.959722   3.578303   4.010655   4.872262   4.078027
    18  H    2.657726   2.817936   3.328189   4.644275   4.313605
    19  H    3.302355   2.295855   3.063734   3.434748   3.138300
                    6          7          8          9         10
     6  C    0.000000
     7  O    1.420394   0.000000
     8  C    2.046733   1.453390   0.000000
     9  C    1.554638   2.168721   1.543324   0.000000
    10  H    3.211488   3.320619   2.789525   2.771325   0.000000
    11  H    3.000777   4.053698   3.568166   2.231891   2.801371
    12  H    2.357994   3.061650   3.571420   3.105675   2.537083
    13  H    2.771710   4.191760   4.459670   3.102391   4.494090
    14  H    3.019264   4.248627   4.978019   4.004086   4.758737
    15  H    2.251496   3.225499   3.891456   3.088888   5.342519
    16  H    2.165756   2.863431   4.037010   3.628773   5.079260
    17  H    2.847375   2.110764   1.094716   2.237810   3.768468
    18  H    2.804720   2.128948   1.097137   2.254738   2.190623
    19  H    2.350055   2.984406   2.249979   1.090173   3.697131
                   11         12         13         14         15
    11  H    0.000000
    12  H    2.993297   0.000000
    13  H    2.452530   3.065684   0.000000
    14  H    3.624359   2.502579   1.771117   0.000000
    15  H    4.113058   4.016209   2.553084   2.997121   0.000000
    16  H    4.602532   3.214020   3.082354   2.449553   1.779937
    17  H    4.365459   4.641017   5.197725   5.844474   4.250258
    18  H    3.796652   3.638129   5.088334   5.495802   4.869879
    19  H    2.518598   4.072778   3.275745   4.524757   3.109340
                   16         17         18         19
    16  H    0.000000
    17  H    4.630533   0.000000
    18  H    4.805831   1.780505   0.000000
    19  H    4.133411   2.491485   3.043817   0.000000
 Stoichiometry    C7H10O2
 Framework group  C1[X(C7H10O2)]
 Deg. of freedom    51
 Full point group                 C1      NOp   1
 Largest Abelian subgroup         C1      NOp   1
 Largest concise Abelian subgroup C1      NOp   1
                         Standard orientation:                         
 ---------------------------------------------------------------------
 Center     Atomic      Atomic             Coordinates (Angstroms)
 Number     Number       Type             X           Y           Z
 ---------------------------------------------------------------------
      1          8           0       -2.058825   -1.352886   -0.239913
      2          6           0       -0.811442   -1.079306    0.354637
      3          6           0        0.406925   -0.885483   -0.591833
      4          6           0        1.816574   -1.151321    0.036471
      5          6           0        2.070863    0.387426    0.172280
      6          6           0        0.588988    0.584837   -0.089496
      7          8           0       -0.028423    1.721903   -0.675504
      8          6           0       -1.208175    1.533980    0.152271
      9          6           0       -0.568720    0.360001    0.923451
     10          1           0       -2.145249   -0.811628   -1.031564
     11          1           0       -0.670938   -1.862032    1.106364
     12          1           0        0.291951   -1.165812   -1.640990
     13          1           0        1.771915   -1.674974    0.995082
     14          1           0        2.514618   -1.681014   -0.612777
     15          1           0        2.486868    0.773402    1.107050
     16          1           0        2.669686    0.763100   -0.663443
     17          1           0       -1.413238    2.425378    0.753738
     18          1           0       -2.101142    1.296999   -0.439471
     19          1           0       -0.476562    0.483646    2.002662
 ---------------------------------------------------------------------
 Rotational constants (GHZ):      2.4196465      1.8882983      1.2601093
 1\1\GINC-ALCHEMY-FE\FOpt\RB3LYP\6-31G(2df,p)\C7H10O2\PUCK\28-Jan-2020\
 0\\# b3lyp 6-31G(2df,p) opt Freq\\titel\\0,1\O,0.6253853009,-0.1905651
 522,0.644618807\C,-0.6410292198,0.4062784841,0.8004111554\C,-1.3388316
 858,0.2573792798,2.1819650133\C,-2.8986396243,0.3971609465,2.184607593
 5\C,-2.7892958006,1.8552063026,2.7440674898\C,-1.3157763482,1.80856849
 39,2.3834875018\O,-0.2625088651,2.5271445122,3.0094224674\C,0.44550148
 86,2.6324239087,1.7445197058\C,-0.7044170983,1.9631291107,0.9624843831
 \H,1.1279814723,-0.0567806953,1.4549523243\H,-1.2382333304,0.042519559
 2,-0.0413258865\H,-0.9231847,-0.4600885381,2.8926064991\H,-3.340271081
 9,0.3422914284,1.1860612064\H,-3.4204654551,-0.3094538108,2.8309480174
 \H,-3.4064518305,2.6397850884,2.2975392076\H,-2.9264729241,1.871910832
 1,3.8299114695\H,0.633819474,3.6790290988,1.4846010035\H,1.402405148,2
 .0958218265,1.7546549404\H,-1.1499785198,2.5514959943,0.1601273711\\Ve
 rsion=ES64L-G09RevD.01\State=1-A\HF=-423.1284761\RMSD=9.932e-09\RMSF=2
 .158e-05\Dipole=-0.3326749,0.0604607,-0.0572211\Quadrupole=2.4752031,-
 0.7094462,-1.7657569,0.998301,1.0307901,-4.1402805\PG=C01 [X(C7H10O2)]
 \\@


 THEORY:  SUPPOSITION WHICH HAS SCIENTIFIC BASIS,
          BUT NOT EXPERIMENTALLY PROVEN.
 FACT:    A THEORY WHICH HAS BEEN PROVEN BY ENOUGH 
          MONEY TO PAY FOR THE EXPERIMENTS.

                          --  THE WIZARD OF ID
 Job cpu time:       0 days  0 hours  7 minutes 13.9 seconds.
 File lengths (MBytes):  RWF=     52 Int=      0 D2E=      0 Chk=      7 Scr=      1
 Normal termination of Gaussian 09 at Tue Jan 28 00:02:03 2020.
 Link1:  Proceeding to internal job step number  2.
 ----------------------------------------------------------------------
 #N Geom=AllCheck Guess=TCheck SCRF=Check GenChk RB3LYP/6-31G(2df,p) Fr
 eq
 ----------------------------------------------------------------------
 1/10=4,29=7,30=1,38=1,40=1/1,3;
 2/12=2,40=1/2;
 3/5=1,6=6,7=104,11=2,14=-4,16=1,25=1,30=1,70=2,71=2,74=-5,116=1,140=1/1,2,3;
 4/5=101/1;
 5/5=2,98=1/2;
 8/6=4,10=90,11=11/1;
 11/6=1,8=1,9=11,15=111,16=1/1,2,10;
 10/6=1/2;
 6/7=2,8=2,9=2,10=2,18=1,28=1/1;
 7/8=1,10=1,25=1/1,2,3,16;
 1/10=4,30=1/3;
 99//99;
 Structure from the checkpoint file:  "/scratch/puck/g09_0adc98a4-7ef3-4417-a25e-6cd367e564ce/Gau-104175.chk"
 -----
 titel
 -----
 Charge =  0 Multiplicity = 1
 Redundant internal coordinates found in file.
 O,0,0.6253853009,-0.1905651522,0.644618807
 C,0,-0.6410292198,0.4062784841,0.8004111554
 C,0,-1.3388316858,0.2573792798,2.1819650133
 C,0,-2.8986396243,0.3971609465,2.1846075935
 C,0,-2.7892958006,1.8552063026,2.7440674898
 C,0,-1.3157763482,1.8085684939,2.3834875018
 O,0,-0.2625088651,2.5271445122,3.0094224674
 C,0,0.4455014886,2.6324239087,1.7445197058
 C,0,-0.7044170983,1.9631291107,0.9624843831
 H,0,1.1279814723,-0.0567806953,1.4549523243
 H,0,-1.2382333304,0.0425195592,-0.0413258865
 H,0,-0.9231847,-0.4600885381,2.8926064991
 H,0,-3.3402710819,0.3422914284,1.1860612064
 H,0,-3.4204654551,-0.3094538108,2.8309480174
 H,0,-3.4064518305,2.6397850884,2.2975392076
 H,0,-2.9264729241,1.8719108321,3.8299114695
 H,0,0.633819474,3.6790290988,1.4846010035
 H,0,1.402405148,2.0958218265,1.7546549404
 H,0,-1.1499785198,2.5514959943,0.1601273711
 Recover connectivity data from disk.

 GradGradGradGradGradGradGradGradGradGradGradGradGradGradGradGradGradGrad
 Berny optimization.
 Initialization pass.
                           ----------------------------
                           !    Initial Parameters    !
                           ! (Angstroms and Degrees)  !
 --------------------------                            --------------------------
 ! Name  Definition              Value          Derivative Info.                !
 --------------------------------------------------------------------------------
 ! R1    R(1,2)                  1.4087         calculate D2E/DX2 analytically  !
 ! R2    R(1,10)                 0.9629         calculate D2E/DX2 analytically  !
 ! R3    R(2,3)                  1.5549         calculate D2E/DX2 analytically  !
 ! R4    R(2,9)                  1.5665         calculate D2E/DX2 analytically  !
 ! R5    R(2,11)                 1.0943         calculate D2E/DX2 analytically  !
 ! R6    R(3,4)                  1.5661         calculate D2E/DX2 analytically  !
 ! R7    R(3,6)                  1.5644         calculate D2E/DX2 analytically  !
 ! R8    R(3,12)                 1.092          calculate D2E/DX2 analytically  !
 ! R9    R(4,5)                  1.5655         calculate D2E/DX2 analytically  !
 ! R10   R(4,13)                 1.0932         calculate D2E/DX2 analytically  !
 ! R11   R(4,14)                 1.0906         calculate D2E/DX2 analytically  !
 ! R12   R(5,6)                  1.5177         calculate D2E/DX2 analytically  !
 ! R13   R(5,15)                 1.0935         calculate D2E/DX2 analytically  !
 ! R14   R(5,16)                 1.0946         calculate D2E/DX2 analytically  !
 ! R15   R(6,7)                  1.4204         calculate D2E/DX2 analytically  !
 ! R16   R(6,9)                  1.5546         calculate D2E/DX2 analytically  !
 ! R17   R(7,8)                  1.4534         calculate D2E/DX2 analytically  !
 ! R18   R(8,9)                  1.5433         calculate D2E/DX2 analytically  !
 ! R19   R(8,17)                 1.0947         calculate D2E/DX2 analytically  !
 ! R20   R(8,18)                 1.0971         calculate D2E/DX2 analytically  !
[...]
 0006147,-0.00045471,0.00221795,-0.00065810,-0.00200434,0.00692647,-0.0
 4948969,0.01386239,0.11669263,0.44357476,0.00538744,0.00010732,-0.0044
 3025,0.02217844,0.00179278,0.00732429,0.00362684,0.01201630,-0.0769010
 5,0.02767558,-0.06340266,0.57845480,-0.00017980,-0.00060283,0.00024465
 ,-0.00105853,0.00175280,0.00168883,-0.03250948,0.03256149,0.01624863,-
 0.04895911,-0.01146005,-0.00554353,0.46496003,0.00074684,0.00034908,-0
 .00090501,0.00062037,-0.00360035,-0.00165414,0.03487998,-0.03806221,-0
 .01953540,-0.00447780,-0.14271398,-0.02035066,-0.12579150,0.47413632,0
 .00031235,-0.00168459,0.00069438,0.00110525,0.00304872,-0.00117046,0.0
 0034104,-0.00939938,0.00913699,-0.00606894,-0.02738795,-0.08818472,-0.
 00369533,-0.03806628,0.56738469,-0.00314480,0.00041988,0.00031326,0.00
 146590,0.01475620,0.02090294,-0.04231744,0.02260067,-0.00655104,-0.045
 63131,-0.03826656,-0.01270163,-0.18701913,0.00947338,0.03322333,0.5689
 2783,-0.00035236,-0.00610910,-0.00142449,0.02582729,-0.03067252,-0.031
 57021,0.00950723,-0.13679645,-0.01411266,-0.04223450,-0.03559972,-0.00
 583332,0.02316512,-0.04842947,0.00703187,0.05220679,0.42173574,-0.0038
 5730,0.00089749,0.00066681,0.01570370,-0.03284589,-0.04299855,-0.01448
 329,0.00156855,-0.05069923,-0.01398932,-0.01475965,0.00667183,0.027692
 92,0.00389391,-0.09393363,-0.05867750,0.04826302,0.43909082,0.00473253
 ,0.00077933,-0.00145987,-0.00269943,-0.00201233,0.00332283,-0.00339959
 ,-0.01468651,-0.00384799,-0.00302345,-0.00348698,0.00163341,-0.0067741
 7,-0.01459381,-0.01665923,-0.13517291,-0.04830146,-0.07685176,0.263096
 70,0.00164438,0.00110595,-0.00104113,-0.00057132,-0.00249471,0.0039368
 9,-0.02376316,-0.00039799,-0.01556710,-0.00388270,-0.00317902,-0.00242
 733,-0.00519867,-0.00009114,0.00376716,-0.04508573,-0.10913931,-0.0579
 3731,0.10837333,0.15489435,0.00027434,-0.00226567,-0.00022510,0.000186
 22,-0.00124926,-0.00425659,0.00116304,-0.00706256,0.00212315,0.0038346
 5,0.00152377,0.00050068,0.00377373,0.00655422,0.00896290,-0.03215927,-
 0.03071575,-0.10477572,-0.00076849,0.05968566,0.35790465,-0.00637803,-
 0.00088965,0.00000146,0.01270046,-0.00453578,0.00362243,0.00097707,0.0
 0115790,0.00145342,-0.00026794,0.00069873,-0.00044744,-0.00258925,-0.0
 0260957,0.00085907,-0.08227418,-0.03994884,0.03407456,-0.08180229,-0.0
 0342041,0.02554800,0.56896825,0.00019430,0.00335679,-0.00060328,-0.028
 22231,-0.01013455,-0.00882928,0.00157134,-0.00174848,-0.00226347,0.000
 33119,0.00048345,-0.00024026,0.00068102,-0.00059354,-0.00098798,-0.033
 63182,-0.00365179,0.01709353,0.00197994,-0.06612893,0.00257910,-0.0070
 6887,0.58857572,-0.00034790,0.00313777,0.00033771,-0.00209905,-0.00980
 043,0.00038418,-0.00401236,-0.00247404,-0.00193560,-0.00169821,-0.0017
 7716,0.00026139,-0.00118464,-0.00226054,-0.00539774,0.03114415,0.01312
 818,-0.00474919,0.06508003,0.01461254,-0.15382873,-0.00772340,-0.05008
 196,0.34983100,-0.00702399,0.03451983,0.00114387,-0.07678947,-0.004100
 53,-0.02014433,0.00885560,-0.01050939,0.00775136,0.00080239,0.00262235
 ,-0.00139496,-0.00444421,-0.00358608,0.02217314,-0.06478209,0.00813209
 ,0.05373824,-0.01857701,-0.01192622,-0.01735048,-0.11844075,-0.0303087
 9,-0.06258854,0.39143757,0.01711058,-0.01270759,-0.00572165,-0.0117333
 0,-0.14119911,0.00012594,-0.00979713,-0.05088345,0.03111574,0.00075494
 ,0.00136855,-0.00031854,0.00225403,0.00206402,-0.00799443,0.00838962,-
 0.04050733,0.01706168,-0.01582860,0.00829422,-0.02536097,-0.01882651,-
 0.10199332,-0.01520577,-0.01983407,0.47625281,0.00250191,-0.00328875,0
 .00050492,-0.01739436,-0.01421631,-0.05614532,0.02047507,0.03820642,-0
 .03104699,0.00173692,0.00141563,-0.00125500,0.00227425,-0.00007261,0.0
 0136292,0.02908005,0.01797701,-0.12883333,-0.01819065,-0.02215764,-0.0
 8340427,-0.04764724,-0.01959355,-0.07221376,0.11047868,-0.09227114,0.5
 5452015,-0.15147175,-0.01291276,-0.18120505,-0.02965347,-0.00461371,-0
 .03743487,0.00267576,-0.00050077,-0.00039197,-0.00033748,-0.00030467,-
 0.00038572,0.00003733,-0.00014195,0.00013413,-0.00013658,0.00092761,0.
 00041579,-0.00117810,-0.00063551,0.00042922,0.00181775,-0.00000550,-0.
 00029322,0.00081668,-0.00048085,-0.00041463,0.18307477,-0.02923376,-0.
 02355508,-0.08105016,0.01158885,0.00042879,0.01627740,0.00001165,0.001
 07910,-0.00183162,-0.00012862,-0.00019281,-0.00007160,-0.00001667,-0.0
 0016628,0.00017259,0.00175902,0.00146547,0.00043484,-0.00209633,-0.000
 87582,0.00070526,0.00371312,-0.00079660,-0.00145536,0.00167758,-0.0000
 8013,0.00138497,0.01577907,0.02465696,-0.22669148,-0.06326295,-0.37970
 959,0.00639019,-0.00120450,0.00221070,0.00195574,-0.00031934,0.0029688
 3,0.00039007,-0.00009162,-0.00083453,-0.00003677,0.00004088,-0.0002067
 2,-0.00009762,-0.00119253,0.00061530,0.00063244,0.00050805,-0.00071436
 ,-0.00043320,-0.00068317,0.00086116,0.00063279,-0.00083942,-0.00042592
 ,0.21598202,0.06597674,0.37295354,-0.03222080,-0.00239186,-0.02765119,
 -0.11441295,-0.04710664,-0.10029539,0.00599951,0.00374704,0.01072374,0
 .00177968,-0.00061804,0.00112006,-0.00002106,0.00037584,-0.00036065,-0
 .00078581,-0.00101227,0.00142205,0.00030648,0.00038046,-0.00021771,-0.
 00020648,-0.00010386,0.00043192,0.00107602,0.00029441,-0.00244696,-0.0
 0615775,0.00126008,0.00096726,0.14378476,0.01505027,0.00494041,0.01345
 367,-0.05466049,-0.08193985,-0.07100655,0.00609687,0.00349855,0.005059
 99,0.00076023,0.00057092,-0.00125647,0.00011687,0.00025341,-0.00040970
 ,-0.00067647,-0.00046632,-0.00031774,0.00115924,0.00125716,-0.00172697
 ,0.00356615,-0.00402664,0.00160150,-0.01942300,-0.00973576,-0.02068446
 ,0.00400993,-0.00004403,0.00014476,0.04460739,0.08452687,-0.00038302,0
 .00276087,0.00524037,-0.11023695,-0.06839599,-0.20539792,-0.01141925,-
 0.00991859,-0.01897493,-0.00185937,0.00060847,0.00125029,0.00022713,-0
 .00062502,0.00086850,0.00142647,0.00203356,-0.00391034,-0.00036380,-0.
 00103129,0.00030185,0.00060601,0.00126331,0.00022215,0.00179243,0.0013
 7848,0.00262702,0.00157369,-0.00050728,0.00216282,0.11587157,0.0742945
 7,0.21573659,0.00235485,-0.00008590,-0.00156643,0.00392599,-0.00793048
 ,0.00883205,-0.08101312,0.06759399,-0.06627290,-0.00777519,0.01794402,
 -0.01929267,-0.00247849,0.00075769,0.00033352,-0.00018681,-0.00411162,
 0.00520282,0.00047441,0.00150721,-0.00050812,0.00004076,-0.00032240,0.
 00056087,-0.00093505,-0.00222343,0.00151394,-0.00032149,-0.00016641,-0
 .00014585,-0.00026927,-0.00028912,0.00041109,0.08769420,-0.00178408,0.
 00125930,0.00020926,-0.00171367,-0.00053372,-0.00305115,0.07043622,-0.
 16516823,0.11412606,-0.00195755,0.00336174,-0.00467358,-0.00000991,-0.
 00137827,0.00034773,0.01145395,-0.00224091,0.02174299,-0.00234182,0.00
 307206,-0.00229194,0.00038647,0.00039352,0.00049851,0.00053247,-0.0044
 1267,0.00257879,-0.00046689,-0.00028385,0.00103662,0.00038876,-0.00022
 620,-0.00106326,-0.07424095,0.16634084,-0.00110393,-0.00155224,0.00422
 343,-0.01601766,0.01533723,-0.01053375,-0.06655551,0.11138415,-0.16405
 911,0.00224148,-0.00076924,-0.00042120,0.00013386,-0.00044439,-0.00068
 942,0.00679570,-0.00147803,0.00566328,0.00002011,0.00205100,0.00007906
 ,-0.00003584,0.00118743,-0.00028910,0.00147518,0.00169521,-0.00052649,
 0.00150860,0.00048896,0.00003604,0.00114792,0.00082233,-0.00196065,0.0
 6959227,-0.12913099,0.16681687,0.00074629,0.00002529,0.00045287,0.0014
 4833,0.00059374,-0.00240540,-0.01274495,-0.00139204,-0.02582801,-0.085
 45940,-0.00544457,-0.09608592,0.00043620,-0.00003011,0.00402355,-0.002
 62651,0.00184326,-0.00056577,-0.00075642,-0.00202528,0.00010306,0.0002
 7931,0.00006263,-0.00063488,0.00012790,0.00007174,0.00022824,0.0003936
 8,0.00001553,-0.00021364,0.00025343,0.00031970,0.00169180,-0.00380706,
 -0.00163798,-0.00042041,0.09407595,-0.00009851,-0.00004231,0.00009534,
 -0.00090538,0.00066725,0.00057320,0.00188073,-0.00150222,0.00659439,-0
 .00521906,-0.04666848,-0.00858074,-0.01036903,0.00054696,-0.02771393,0
 .00082812,-0.00073154,-0.00100406,-0.00059673,-0.00012532,0.00074144,-
 0.00016903,-0.00007931,-0.00003372,-0.00057813,0.00008256,-0.00005406,
 -0.00007906,-0.00007056,0.00005468,0.00000093,0.00004303,-0.00026569,0
 .00190271,0.00008892,-0.00019006,0.00587201,0.04865283,-0.00012064,0.0
 0022589,0.00038859,0.00147280,0.00009406,0.00066388,0.00043774,0.00000
 676,0.00375155,-0.09575070,-0.00888010,-0.27141606,-0.00204074,0.00075
 808,-0.00902026,0.00083570,0.00068099,-0.00052903,-0.00037992,-0.00014
 542,0.00027824,0.00015041,-0.00007295,-0.00029013,-0.00012104,0.000268
 90,0.00025055,0.00017361,0.00006280,-0.00021112,-0.00073829,-0.0001809
 1,0.00070835,0.00042615,-0.00050154,0.00015256,0.10430440,0.01102034,0
 .29066040,-0.00138312,0.00004408,0.00116039,-0.00229569,-0.00050686,-0
 .00342162,-0.01316914,-0.01713484,0.01939943,-0.10526158,-0.08287392,0
 .07914220,0.00071947,0.00071599,-0.00415199,-0.00190017,0.00055893,-0.
 00163780,-0.00031404,-0.00131144,0.00023144,0.00033638,0.00017118,-0.0
 0035920,0.00100517,0.00058417,0.00051883,0.00023165,-0.00005659,0.0000
 6484,-0.00005760,0.00042418,0.00010107,0.00254502,0.00110027,0.0001487
 3,0.00697741,0.00884841,-0.00821462,0.11163642,0.00067559,0.00011671,-
 0.00041215,0.00133790,-0.00007740,0.00039185,0.00310319,0.00575463,-0.
 00709390,-0.08249284,-0.15782941,0.10826384,-0.01164006,-0.01582643,0.
 01699213,0.00100407,-0.00408536,-0.00262926,-0.00149107,0.00035871,0.0
 0074548,0.00012118,-0.00000191,-0.00061695,0.00023757,0.00013689,-0.00
 003951,-0.00003175,-0.00004462,-0.00002587,0.00002087,-0.00011061,0.00
 010894,-0.00088826,0.00076732,-0.00008824,0.00087941,0.00161677,-0.001
 24192,0.08984296,0.16897231,0.00047534,0.00010338,0.00010732,0.0001108
 9,-0.00059235,-0.00066724,-0.00303612,-0.00017437,-0.00063480,0.078369
 03,0.10807978,-0.14741764,-0.00693041,-0.00988801,0.00718784,0.0005213
 2,-0.00166537,-0.00114894,-0.00115847,-0.00033443,0.00033517,-0.000040
 71,-0.00010652,-0.00034084,-0.00005697,0.00005099,0.00008484,0.0000694
 3,0.00002058,-0.00003474,0.00020175,0.00013392,0.00043838,-0.00001930,
 0.00006029,0.00119692,0.01442734,0.01937182,-0.01705361,-0.08308524,-0
 .11419336,0.15598348,-0.00026716,-0.00019499,0.00027733,0.00094884,0.0
 0109194,0.00011022,-0.00487133,0.00134939,0.00175756,0.00241879,-0.004
 84668,0.00586592,-0.13068421,0.10052821,-0.06370486,-0.00859183,0.0235
 7243,-0.01482123,-0.00183904,-0.00099060,0.00003268,0.00044328,0.00022
 158,-0.00075143,0.00222323,-0.00093346,-0.00003758,0.00012732,0.000015
 06,-0.00008538,-0.00020470,-0.00005091,0.00044558,0.00012718,0.0009704
 1,0.00046951,0.00049234,0.00109514,0.00019621,-0.00001593,-0.00153830,
 -0.00037471,0.13697386,0.00058379,0.00004017,-0.00045778,0.00028226,-0
 .00035440,0.00061015,0.00325352,0.00041263,-0.00061882,0.01081019,-0.0
 0975736,0.01402538,0.10036784,-0.18365502,0.08049402,0.00014832,0.0003
 8135,-0.00656019,0.00022274,0.00061091,0.00076340,-0.00024035,-0.00016
 000,0.00004804,0.00011415,0.00019078,-0.00031704,-0.00017179,-0.000074
 44,0.00000968,-0.00003539,-0.00006762,-0.00007292,0.00072120,-0.000317
 64,-0.00009608,-0.00039412,0.00215129,0.00001531,0.00074221,-0.0026371
 6,-0.00116269,-0.11657913,0.19266194,0.00009103,0.00019264,-0.00020209
 ,0.00027287,-0.00050465,0.00030952,0.00281490,-0.00332545,-0.00012719,
 0.00729539,-0.00647581,0.00463937,-0.06424408,0.08054488,-0.09565084,0
 .00538430,-0.00669932,0.00198130,0.00011970,0.00029760,0.00008853,-0.0
 0002587,0.00006778,0.00024973,-0.00060097,-0.00025808,0.00123087,-0.00
 003802,-0.00003431,-0.00000020,-0.00006831,-0.00001937,-0.00003983,0.0
 0059345,-0.00061345,-0.00029601,-0.00027810,0.00070331,0.00102872,0.00
 021273,-0.00077942,0.00003475,0.06719377,-0.08608530,0.09919152,-0.000
 23549,0.00071871,-0.00020195,-0.00030155,-0.00146637,0.00011641,0.0004
 7535,-0.00005643,-0.00206955,0.00055076,-0.00004929,-0.01047398,-0.050
 80551,0.00406030,0.03315211,-0.00385446,-0.00118009,0.03881672,0.00274
 605,-0.00056271,-0.00323768,0.00016120,0.00043246,0.00156853,-0.004104
 70,0.00154337,-0.00129343,0.00001283,-0.00007172,0.00010587,0.00019700
 ,0.00018586,-0.00005682,-0.00005098,0.00041722,0.00014091,0.00020669,-
 0.00228379,-0.00058696,0.00092996,0.00097241,0.00053567,0.00314674,-0.
 00021362,-0.01824080,0.05100695,0.00004878,0.00026011,-0.00003534,-0.0
 0028891,-0.00036361,0.00025528,-0.00129839,-0.00170941,0.00020153,0.00
 382377,-0.00294849,-0.02979781,0.00451115,-0.04289310,0.00107924,-0.00
 210124,-0.00082028,0.00605439,0.00108121,0.00043221,-0.00074131,0.0000
 4725,0.00021630,0.00065749,-0.00154378,0.00031356,0.00037895,0.0000040
 9,-0.00001948,0.00002044,0.00002442,0.00007348,0.00017811,0.00057824,0
 .00006988,-0.00014264,0.00137803,-0.00450579,-0.00200744,-0.00073682,0
 .00273280,0.00035811,-0.00340591,0.00047096,0.02280542,-0.00224397,0.0
 4870964,0.00027541,-0.00025002,-0.00012358,0.00028378,-0.00010066,0.00
 012447,-0.00000449,-0.00074890,-0.00020233,0.00051801,-0.00011831,-0.0
 0855860,0.03160475,0.00120166,-0.30583817,0.00154524,0.00047244,-0.009
 02647,0.00095868,0.00061471,0.00105760,0.00019198,-0.00003898,0.000135
 06,-0.00063974,-0.00056404,0.00245410,-0.00003324,0.00005344,-0.000044
 56,-0.00012069,-0.00005510,0.00007778,0.00011476,-0.00027182,-0.000035
 59,0.00069158,-0.00156474,0.00042707,-0.00023443,0.00037209,0.00163360
 ,0.00210220,-0.00034074,-0.01235079,-0.03734467,0.00124566,0.33005659,
 0.00159512,0.00083633,0.00028940,-0.00499791,0.00234344,-0.00074967,0.
 00023763,0.00019306,0.00002366,-0.00001957,0.00005624,-0.00009941,0.00
 004370,-0.00041279,-0.00001502,0.00019688,0.00079045,0.00238801,-0.005
 43078,-0.01597280,0.01204507,-0.05432160,-0.03335877,0.00606484,-0.002
 79446,-0.02120968,0.00052535,-0.00005365,-0.00099749,0.00016514,0.0000
 7476,-0.00100081,0.00003494,-0.00005339,-0.00015134,0.00030594,-0.0000
 0336,-0.00004414,-0.00001781,0.00000035,-0.00002980,0.00000169,-0.0001
 0835,0.00001550,-0.00001621,-0.00003399,-0.00000218,0.00004081,0.05907
 159,-0.00056021,-0.00017588,-0.00013624,-0.00107150,0.00090934,-0.0007
 5763,0.00054338,-0.00009653,0.00024325,0.00014901,0.00008745,-0.000066
 80,0.00027127,-0.00014798,0.00007159,0.00093134,0.00053059,0.00011309,
 -0.00457312,0.00702993,0.00549601,-0.03445219,-0.29406858,0.05292018,-
 0.00000461,-0.00915271,0.00151986,-0.00014329,0.00063541,-0.00007273,-
 0.00002014,-0.00051776,0.00004479,-0.00008095,-0.00009546,0.00004515,-
 0.00000364,-0.00000018,-0.00000799,-0.00000134,-0.00001185,0.00002756,
 -0.00005255,0.00007578,-0.00001905,-0.00005009,-0.00001114,0.00004384,
 0.04100293,0.30924679,0.00016659,0.00023182,0.00012844,-0.00365142,0.0
 0013270,-0.00094776,0.00137344,0.00003879,0.00072002,0.00039921,0.0003
 4291,-0.00007077,0.00017267,0.00039505,0.00051531,-0.00429907,-0.00074
 029,-0.00671001,0.01752213,0.02993056,-0.01410973,0.00427768,0.0489105
 4,-0.05744236,-0.00196846,-0.01987977,0.00577852,-0.00000275,0.0001355
 4,-0.00009583,-0.00009294,-0.00090348,0.00019514,-0.00014167,-0.000148
 95,0.00023698,0.00011027,0.00006196,0.00006290,0.00011235,0.00008242,0
 .00005838,0.00006317,0.00005920,0.00002340,-0.00021112,-0.00009731,0.0
 0005561,-0.01422816,-0.06172314,0.06706072,0.00406147,0.00099715,0.000
 63393,-0.00230742,0.00335331,-0.00013002,-0.00006765,-0.00015367,-0.00
 048084,-0.00020438,0.00009589,-0.00000165,-0.00031253,-0.00079383,0.00
 055344,-0.00093056,0.00217538,0.00138801,-0.01344497,0.00258847,0.0089
 2042,-0.23164440,0.10956761,-0.00996145,-0.01390381,0.00712069,-0.0029
 0778,0.00005199,-0.00253275,0.00028926,0.00011287,-0.00015455,0.000002
 42,0.00001665,-0.00022041,0.00013739,0.00004132,-0.00007678,-0.0000138
 5,0.00001950,-0.00008950,-0.00001141,0.00005887,0.00000607,-0.00007208
 ,-0.00019350,-0.00003666,0.00013715,0.00448266,-0.00209100,-0.00083817
 ,0.25671055,-0.00085678,-0.00060827,-0.00030547,0.00091846,-0.00082068
 ,-0.00008105,0.00016444,-0.00009718,-0.00006891,0.00011596,0.00003078,
 -0.00015551,-0.00009501,-0.00022053,0.00057154,-0.00161900,-0.00108980
 ,-0.00018985,-0.00413773,0.00715014,-0.00311861,0.10865900,-0.11793928
 ,0.00709534,-0.01079173,0.00934532,0.00038836,0.00006207,-0.00176623,0
 .00007554,0.00025264,0.00036850,0.00001163,-0.00003595,-0.00009737,-0.
 00006866,0.00000879,-0.00002262,0.00002226,0.00003503,0.00000172,-0.00
 000454,0.00006769,0.00000445,-0.00003392,-0.00013387,-0.00002326,0.000
 06472,0.02753797,-0.01548590,0.00277364,-0.11864707,0.12174776,0.00157
 105,0.00015867,0.00001107,0.00039096,0.00143574,0.00058444,0.00021993,
 0.00083522,-0.00019493,0.00030729,0.00032539,-0.00001894,0.00050442,0.
 00088751,0.00182061,-0.00231704,-0.00484108,-0.00423602,0.03292451,-0.
 01185184,-0.00496977,-0.01427057,0.00809115,-0.04995355,-0.01266396,0.
 01075950,0.00179535,-0.00011962,-0.00071228,0.00061950,0.00000631,0.00
 008231,0.00005806,-0.00001884,0.00003309,0.00007390,0.00009034,0.00010
 542,0.00003951,0.00002809,0.00013928,0.00010104,0.00021321,-0.00002854
 ,-0.00004000,-0.00053465,-0.00015659,0.00010345,-0.00625203,0.00271553
 ,0.00358364,0.00221600,-0.00665317,0.05119281,-0.00056762,0.00172877,0
 .00076092,-0.00236718,-0.00374228,-0.00214481,0.00060634,-0.00278516,0
 .00179794,0.00031817,-0.00001416,-0.00020296,0.00163873,0.00027882,-0.
 00155490,0.00876399,-0.01156542,0.00404112,0.00305602,0.00085268,-0.00
 230010,-0.00779953,0.01780906,-0.01319605,-0.09454903,0.06274349,-0.07
 900059,0.00007049,-0.00051964,0.00012832,0.00075191,-0.00004132,0.0001
 3499,-0.00028821,-0.00116117,0.00001577,-0.00008115,-0.00000837,-0.000
 01246,-0.00000403,0.00000644,0.00000086,-0.00037790,0.00036663,-0.0003
 9371,0.00014665,0.00016093,-0.00008708,0.00211437,0.00020670,0.0012362
 3,-0.00254665,-0.00150491,-0.00229538,0.09111463,0.00183675,-0.0034172
 4,-0.00021216,0.00988847,-0.00368240,0.02004220,-0.00211118,-0.0026040
 0,0.00232448,-0.00022830,-0.00050204,0.00096965,-0.00049786,0.00042851
 ,0.00006767,-0.00259053,-0.00377325,-0.00087953,0.00055068,-0.00177340
 ,-0.00426130,-0.00618859,0.00829715,-0.00999362,0.06477030,-0.12737663
 ,0.10884507,-0.00029427,-0.00029580,-0.00017525,-0.00006464,0.00160244
 ,-0.00080268,-0.00062961,-0.00059925,0.00094910,-0.00014239,-0.0001013
 0,-0.00011712,-0.00044560,0.00016689,-0.00008479,-0.00031932,0.0000233
 9,0.00023651,-0.00001837,0.00001562,-0.00001525,0.00040388,0.00124869,
 0.00039780,-0.00110835,-0.00047756,-0.00132532,-0.06281109,0.13282018,
 0.00079152,-0.00193498,-0.00022418,0.00540537,-0.00193107,0.00632897,-
 0.00055926,0.00148287,-0.00242658,-0.00040568,-0.00003676,0.00040610,-
 0.00089032,-0.00047413,0.00215782,-0.01436929,0.01068597,-0.00313888,-
 0.00253364,-0.00291069,-0.00534757,-0.00016072,0.00430856,-0.00584139,
 -0.08165624,0.10595736,-0.19675816,0.00003259,-0.00005052,-0.00015032,
 0.00009954,0.00096768,0.00039634,0.00038485,0.00111334,0.00033230,0.00
 030868,0.00008510,0.00010789,-0.00001520,0.00002457,0.00013609,0.00104
 782,-0.00028507,-0.00007074,-0.00018460,-0.00025618,0.00005474,-0.0005
 0654,-0.00045728,0.00095739,0.00013923,-0.00032333,-0.00057021,0.09307
 190,-0.11596544,0.20365040\\0.00000115,-0.00000970,0.00000274,-0.00003
 503,-0.00000928,-0.00003031,0.00001842,0.00003498,0.00002128,0.0000100
 0,-0.00001299,-0.00000801,-0.00001908,0.00003741,0.00001323,-0.0000406
 1,-0.00007989,-0.00001999,0.00005799,0.00001973,-0.00001151,-0.0000391
 9,-0.00001477,0.00001968,0.00002435,0.00005197,0.00002636,0.00000238,0
 .00000914,-0.00001150,0.00000588,-0.00000090,-0.00000512,-0.00000002,-
 0.00000475,-0.00000610,-0.00000524,0.00000067,0.00000957,0.00000658,-0
 .00000427,0.00000751,0.00000658,-0.00000517,0.00000488,0.00000665,-0.0
 0001516,0.00000149,0.00000369,0.00000677,-0.00000395,0.00000881,0.0000
 0578,-0.00001149,-0.00001329,-0.00000957,0.00000124\\\@


 NOT WHAT WE DID SHALL BE THE TEST
 WHEN ACT AND WILL ARE DONE,
 BUT WHAT OUR LORD INFERS WE WOULD-
 HAD WE DIVINER BEEN.
           EMILY DICKINSON  POEMS NO. CLXXV
 Job cpu time:       0 days  0 hours 49 minutes 27.6 seconds.
 File lengths (MBytes):  RWF=    152 Int=      0 D2E=      0 Chk=      8 Scr=      1
 Normal termination of Gaussian 09 at Tue Jan 28 00:51:28 2020.
