 Entering Gaussian System, Link 0=/home/puck/opt/gaussian_09/g09
 Input=dsC7O2H10nsd_0806.com
 Output=dsC7O2H10nsd_0806.log
 Initial command:
 /home/puck/opt/gaussian_09/l1.exe "/scratch/puck/g09_57e19cbe-4b3c-4d88-a8be-83bd19006fce/Gau-169348.inp" -scrdir="/scratch/puck/g09_57e19cbe-4b3c-4d88-a8be-83bd19006fce/"
 Entering Link 1 = /home/puck/opt/gaussian_09/l1.exe PID=    169359.
  
 Copyright (c) 1988,1990,1992,1993,1995,1998,2003,2009,2013,
            Gaussian, Inc.  All Rights Reserved.
  
 This is part of the Gaussian(R) 09 program.  It is based on
 the Gaussian(R) 03 system (copyright 2003, Gaussian, Inc.),
 the Gaussian(R) 98 system (copyright 1998, Gaussian, Inc.),
 the Gaussian(R) 94 system (copyright 1995, Gaussian, Inc.),
 the Gaussian 92(TM) system (copyright 1992, Gaussian, Inc.),
 the Gaussian 90(TM) system (copyright 1990, Gaussian, Inc.),
 the Gaussian 88(TM) system (copyright 1988, Gaussian, Inc.),
 the Gaussian 86(TM) system (copyright 1986, Carnegie Mellon
 University), and the Gaussian 82(TM) system (copyright 1983,
 Carnegie Mellon University). Gaussian is a federally registered
 trademark of Gaussian, Inc.
  
 This software contains proprietary and confidential information,
 including trade secrets, belonging to Gaussian, Inc.
  
 This software is provided under written license and may be
 used, copied, transmitted, or stored only in accord with that
 written license.
  
 The following legend is applicable only to US Government
 contracts under FAR:
  
                    RESTRICTED RIGHTS LEGEND
  
 Use, reproduction and disclosure by the US Government is
 subject to restrictions as set forth in subparagraphs (a)
 and (c) of the Commercial Computer Software - Restricted
 Rights clause in FAR 52.227-19.
  
 Gaussian, Inc.
 340 Quinnipiac St., Bldg. 40, Wallingford CT 06492
  
  
 ---------------------------------------------------------------
 Warning -- This program may not be used in any manner that
 competes with the business of Gaussian, Inc. or will provide
 assistance to any competitor of Gaussian, Inc.  The licensee
 of this program is prohibited from giving any competitor of
 Gaussian, Inc. access to this program.  By using this program,
 the user acknowledges that Gaussian, Inc. is engaged in the
 business of creating and licensing software in the field of
 computational chemistry and represents and warrants to the
 licensee that it is not a competitor of Gaussian, Inc. and that
 it will not use this program in any manner prohibited above.
 ---------------------------------------------------------------
  

 Cite this work as:
 Gaussian 09, Revision D.01,
 M. J. Frisch, G. W. Trucks, H. B. Schlegel, G. E. Scuseria, 
 M. A. Robb, J. R. Cheeseman, G. Scalmani, V. Barone, B. Mennucci, 
 G. A. Petersson, H. Nakatsuji, M. Caricato, X. Li, H. P. Hratchian, 
 A. F. Izmaylov, J. Bloino, G. Zheng, J. L. Sonnenberg, M. Hada, 
 M. Ehara, K. Toyota, R. Fukuda, J. Hasegawa, M. Ishida, T. Nakajima, 
 Y. Honda, O. Kitao, H. Nakai, T. Vreven, J. A. Montgomery, Jr., 
 J. E. Peralta, F. Ogliaro, M. Bearpark, J. J. Heyd, E. Brothers, 
 K. N. Kudin, V. N. Staroverov, T. Keith, R. Kobayashi, J. Normand, 
 K. Raghavachari, A. Rendell, J. C. Burant, S. S. Iyengar, J. Tomasi, 
 M. Cossi, N. Rega, J. M. Millam, M. Klene, J. E. Knox, J. B. Cross, 
 V. Bakken, C. Adamo, J. Jaramillo, R. Gomperts, R. E. Stratmann, 
 O. Yazyev, A. J. Austin, R. Cammi, C. Pomelli, J. W. Ochterski, 
 R. L. Martin, K. Morokuma, V. G. Zakrzewski, G. A. Voth, 
 P. Salvador, J. J. Dannenberg, S. Dapprich, A. D. Daniels, 
 O. Farkas, J. B. Foresman, J. V. Ortiz, J. Cioslowski, 
 and D. J. Fox, Gaussian, Inc., Wallingford CT, 2013.
 
 ******************************************
 Gaussian 09:  ES64L-G09RevD.01 24-Apr-2013
                27-Jan-2020 
 ******************************************
 -----------------------------
 # b3lyp 6-31G(2df,p) opt Freq
 -----------------------------
 1/14=-1,18=20,19=15,26=3,38=1/1,3;
 2/9=110,12=2,17=6,18=5,40=1/2;
 3/5=1,6=6,7=104,11=2,16=1,25=1,30=1,71=1,74=-5/1,2,3;
 4//1;
 5/5=2,38=5/2;
 6/7=2,8=2,9=2,10=2,28=1/1;
 7//1,2,3,16;
 1/14=-1,18=20,19=15,26=3/3(2);
 2/9=110/2;
 99//99;
 2/9=110/2;
 3/5=1,6=6,7=104,11=2,16=1,25=1,30=1,71=1,74=-5/1,2,3;
 4/5=5,16=3,69=1/1;
 5/5=2,38=5/2;
 7//1,2,3,16;
 1/14=-1,18=20,19=15,26=3/3(-5);
 2/9=110/2;
 6/7=2,8=2,9=2,10=2,19=2,28=1/1;
 99/9=1/99;
 -----
 titel
 -----
 Symbolic Z-matrix:
 Charge =  0 Multiplicity = 1
 O                     0.19863  -0.13715   0.92106 
 C                     0.42872  -0.14623  -0.26155 
 C                    -0.28315   0.7223   -1.26503 
 C                    -0.73216   2.12133  -0.80236 
 C                    -1.75846   2.51403  -1.91438 
 C                    -1.72665   1.28673  -2.85686 
 C                    -0.33769   1.22342  -3.51198 
 O                     0.54391   0.86369  -2.42725 
 C                    -1.58919   0.12741  -1.84801 
 H                     1.18094  -0.82786  -0.71552 
 H                    -1.17915   2.0723    0.19296 
 H                     0.12687   2.79406  -0.75853 
 H                    -2.76024   2.65759  -1.49962 
 H                    -1.48333   3.43658  -2.43294 
 H                    -2.55333   1.22365  -3.56603 
 H                    -0.2763    0.45868  -4.29703 
 H                    -0.02335   2.18383  -3.93736 
 H                    -2.39809   0.07612  -1.11616 
 H                    -1.43682  -0.85213  -2.30842 
 

 GradGradGradGradGradGradGradGradGradGradGradGradGradGradGradGradGradGrad
 Berny optimization.
 Initialization pass.
                           ----------------------------
                           !    Initial Parameters    !
                           ! (Angstroms and Degrees)  !
 --------------------------                            --------------------------
 ! Name  Definition              Value          Derivative Info.                !
 --------------------------------------------------------------------------------
 ! R1    R(1,2)                  1.2048         estimate D2E/DX2                !
 ! R2    R(2,3)                  1.506          estimate D2E/DX2                !
 ! R3    R(2,10)                 1.112          estimate D2E/DX2                !
 ! R4    R(3,4)                  1.5404         estimate D2E/DX2                !
 ! R5    R(3,8)                  1.4335         estimate D2E/DX2                !
 ! R6    R(3,9)                  1.549          estimate D2E/DX2                !
 ! R7    R(4,5)                  1.5634         estimate D2E/DX2                !
 ! R8    R(4,11)                 1.0922         estimate D2E/DX2                !
 ! R9    R(4,12)                 1.092          estimate D2E/DX2                !
 ! R10   R(5,6)                  1.5478         estimate D2E/DX2                !
 ! R11   R(5,13)                 1.0937         estimate D2E/DX2                !
 ! R12   R(5,14)                 1.0935         estimate D2E/DX2                !
 ! R13   R(6,7)                  1.537          estimate D2E/DX2                !
 ! R14   R(6,9)                  1.543          estimate D2E/DX2                !
 ! R15   R(6,15)                 1.091          estimate D2E/DX2                !
 ! R16   R(7,8)                  1.4433         estimate D2E/DX2                !
 ! R17   R(7,16)                 1.0977         estimate D2E/DX2                !
 ! R18   R(7,17)                 1.0964         estimate D2E/DX2                !
 ! R19   R(9,18)                 1.092          estimate D2E/DX2                !
 ! R20   R(9,19)                 1.093          estimate D2E/DX2                !
 ! A1    A(1,2,3)              124.0152         estimate D2E/DX2                !
 ! A2    A(1,2,10)             122.3118         estimate D2E/DX2                !
 ! A3    A(3,2,10)             113.6558         estimate D2E/DX2                !
 ! A4    A(2,3,4)              117.4788         estimate D2E/DX2                !
 ! A5    A(2,3,8)              108.929          estimate D2E/DX2                !
 ! A6    A(2,3,9)              115.3297         estimate D2E/DX2                !
 ! A7    A(4,3,8)              108.7906         estimate D2E/DX2                !
 ! A8    A(4,3,9)              102.4783         estimate D2E/DX2                !
 ! A9    A(8,3,9)              102.6621         estimate D2E/DX2                !
 ! A10   A(3,4,5)              101.8787         estimate D2E/DX2                !
 ! A11   A(3,4,11)             110.624          estimate D2E/DX2                !
 ! A12   A(3,4,12)             110.0151         estimate D2E/DX2                !
 ! A13   A(5,4,11)             113.0057         estimate D2E/DX2                !
 ! A14   A(5,4,12)             112.9685         estimate D2E/DX2                !
 ! A15   A(11,4,12)            108.2423         estimate D2E/DX2                !
 ! A16   A(4,5,6)              102.7361         estimate D2E/DX2                !
 ! A17   A(4,5,13)             111.3783         estimate D2E/DX2                !
 ! A18   A(4,5,14)             112.5857         estimate D2E/DX2                !
 ! A19   A(6,5,13)             110.7218         estimate D2E/DX2                !
 ! A20   A(6,5,14)             112.028          estimate D2E/DX2                !
 ! A21   A(13,5,14)            107.431          estimate D2E/DX2                !
 ! A22   A(5,6,7)              108.1058         estimate D2E/DX2                !
 ! A23   A(5,6,9)              101.5064         estimate D2E/DX2                !
 ! A24   A(5,6,15)             115.2194         estimate D2E/DX2                !
 ! A25   A(7,6,9)               99.6269         estimate D2E/DX2                !
 ! A26   A(7,6,15)             113.9103         estimate D2E/DX2                !
 ! A27   A(9,6,15)             116.6842         estimate D2E/DX2                !
 ! A28   A(6,7,8)              103.9991         estimate D2E/DX2                !
 ! A29   A(6,7,16)             112.5855         estimate D2E/DX2                !
 ! A30   A(6,7,17)             112.8532         estimate D2E/DX2                !
 ! A31   A(8,7,16)             109.2499         estimate D2E/DX2                !
 ! A32   A(8,7,17)             109.5592         estimate D2E/DX2                !
 ! A33   A(16,7,17)            108.467          estimate D2E/DX2                !
 ! A34   A(3,8,7)              106.3501         estimate D2E/DX2                !
 ! A35   A(3,9,6)               91.8706         estimate D2E/DX2                !
 ! A36   A(3,9,18)             112.9761         estimate D2E/DX2                !
 ! A37   A(3,9,19)             112.6543         estimate D2E/DX2                !
 ! A38   A(6,9,18)             114.0466         estimate D2E/DX2                !
 ! A39   A(6,9,19)             114.2271         estimate D2E/DX2                !
 ! A40   A(18,9,19)            110.0876         estimate D2E/DX2                !
 ! D1    D(1,2,3,4)             33.1841         estimate D2E/DX2                !
 ! D2    D(1,2,3,8)            157.3916         estimate D2E/DX2                !
 ! D3    D(1,2,3,9)            -87.8555         estimate D2E/DX2                !
 ! D4    D(10,2,3,4)          -148.2942         estimate D2E/DX2                !
 ! D5    D(10,2,3,8)           -24.0867         estimate D2E/DX2                !
 ! D6    D(10,2,3,9)            90.6663         estimate D2E/DX2                !
 ! D7    D(2,3,4,5)           -163.9017         estimate D2E/DX2                !
 ! D8    D(2,3,4,11)           -43.5114         estimate D2E/DX2                !
 ! D9    D(2,3,4,12)            76.0309         estimate D2E/DX2                !
 ! D10   D(8,3,4,5)             71.8213         estimate D2E/DX2                !
 ! D11   D(8,3,4,11)          -167.7884         estimate D2E/DX2                !
 ! D12   D(8,3,4,12)           -48.2461         estimate D2E/DX2                !
 ! D13   D(9,3,4,5)            -36.3849         estimate D2E/DX2                !
 ! D14   D(9,3,4,11)            84.0054         estimate D2E/DX2                !
 ! D15   D(9,3,4,12)          -156.4523         estimate D2E/DX2                !
 ! D16   D(2,3,8,7)            158.0536         estimate D2E/DX2                !
 ! D17   D(4,3,8,7)            -72.7525         estimate D2E/DX2                !
 ! D18   D(9,3,8,7)             35.3286         estimate D2E/DX2                !
 ! D19   D(2,3,9,6)           -173.2588         estimate D2E/DX2                !
 ! D20   D(2,3,9,18)            69.5686         estimate D2E/DX2                !
 ! D21   D(2,3,9,19)           -55.9664         estimate D2E/DX2                !
 ! D22   D(4,3,9,6)             57.8681         estimate D2E/DX2                !
 ! D23   D(4,3,9,18)           -59.3045         estimate D2E/DX2                !
 ! D24   D(4,3,9,19)           175.1605         estimate D2E/DX2                !
 ! D25   D(8,3,9,6)            -54.9522         estimate D2E/DX2                !
 ! D26   D(8,3,9,18)          -172.1249         estimate D2E/DX2                !
 ! D27   D(8,3,9,19)            62.3401         estimate D2E/DX2                !
 ! D28   D(3,4,5,6)             -0.7531         estimate D2E/DX2                !
 ! D29   D(3,4,5,13)           117.8043         estimate D2E/DX2                !
 ! D30   D(3,4,5,14)          -121.4488         estimate D2E/DX2                !
 ! D31   D(11,4,5,6)          -119.4616         estimate D2E/DX2                !
 ! D32   D(11,4,5,13)           -0.9042         estimate D2E/DX2                !
 ! D33   D(11,4,5,14)          119.8427         estimate D2E/DX2                !
 ! D34   D(12,4,5,6)           117.2179         estimate D2E/DX2                !
 ! D35   D(12,4,5,13)         -124.2247         estimate D2E/DX2                !
 ! D36   D(12,4,5,14)           -3.4778         estimate D2E/DX2                !
 ! D37   D(4,5,6,7)            -66.5511         estimate D2E/DX2                !
 ! D38   D(4,5,6,9)             37.6964         estimate D2E/DX2                !
 ! D39   D(4,5,6,15)           164.7417         estimate D2E/DX2                !
 ! D40   D(13,5,6,7)           174.4317         estimate D2E/DX2                !
 ! D41   D(13,5,6,9)           -81.3208         estimate D2E/DX2                !
 ! D42   D(13,5,6,15)           45.7244         estimate D2E/DX2                !
 ! D43   D(14,5,6,7)            54.5271         estimate D2E/DX2                !
 ! D44   D(14,5,6,9)           158.7746         estimate D2E/DX2                !
 ! D45   D(14,5,6,15)          -74.1802         estimate D2E/DX2                !
 ! D46   D(5,6,7,8)             69.5235         estimate D2E/DX2                !
 ! D47   D(5,6,7,16)          -172.3314         estimate D2E/DX2                !
 ! D48   D(5,6,7,17)           -49.1287         estimate D2E/DX2                !
 ! D49   D(9,6,7,8)            -36.0412         estimate D2E/DX2                !
 ! D50   D(9,6,7,16)            82.1039         estimate D2E/DX2                !
 ! D51   D(9,6,7,17)          -154.6934         estimate D2E/DX2                !
 ! D52   D(15,6,7,8)          -161.0323         estimate D2E/DX2                !
 ! D53   D(15,6,7,16)          -42.8872         estimate D2E/DX2                !
 ! D54   D(15,6,7,17)           80.3155         estimate D2E/DX2                !
 ! D55   D(5,6,9,3)            -57.7311         estimate D2E/DX2                !
 ! D56   D(5,6,9,18)            58.516          estimate D2E/DX2                !
 ! D57   D(5,6,9,19)          -173.6623         estimate D2E/DX2                !
 ! D58   D(7,6,9,3)             53.1363         estimate D2E/DX2                !
 ! D59   D(7,6,9,18)           169.3834         estimate D2E/DX2                !
 ! D60   D(7,6,9,19)           -62.7949         estimate D2E/DX2                !
 ! D61   D(15,6,9,3)           176.1849         estimate D2E/DX2                !
 ! D62   D(15,6,9,18)          -67.568          estimate D2E/DX2                !
 ! D63   D(15,6,9,19)           60.2537         estimate D2E/DX2                !
 ! D64   D(6,7,8,3)              0.5908         estimate D2E/DX2                !
 ! D65   D(16,7,8,3)          -119.8282         estimate D2E/DX2                !
 ! D66   D(17,7,8,3)           121.4778         estimate D2E/DX2                !
 --------------------------------------------------------------------------------
 Trust Radius=3.00D-01 FncErr=1.00D-07 GrdErr=1.00D-06
 Number of steps in this run=    114 maximum allowed number of steps=    114.
 GradGradGradGradGradGradGradGradGradGradGradGradGradGradGradGradGradGrad

                          Input orientation:                          
 ---------------------------------------------------------------------
 Center     Atomic      Atomic             Coordinates (Angstroms)
 Number     Number       Type             X           Y           Z
 ---------------------------------------------------------------------
      1          8           0        0.198628   -0.137151    0.921063
      2          6           0        0.428717   -0.146235   -0.261549
      3          6           0       -0.283155    0.722296   -1.265026
      4          6           0       -0.732161    2.121329   -0.802358
      5          6           0       -1.758462    2.514031   -1.914380
      6          6           0       -1.726653    1.286725   -2.856864
      7          6           0       -0.337688    1.223425   -3.511979
      8          8           0        0.543908    0.863689   -2.427251
      9          6           0       -1.589186    0.127408   -1.848007
     10          1           0        1.180936   -0.827864   -0.715518
     11          1           0       -1.179151    2.072302    0.192959
     12          1           0        0.126866    2.794058   -0.758532
     13          1           0       -2.760243    2.657594   -1.499623
     14          1           0       -1.483327    3.436584   -2.432937
     15          1           0       -2.553335    1.223647   -3.566028
     16          1           0       -0.276302    0.458677   -4.297027
     17          1           0       -0.023350    2.183825   -3.937360
     18          1           0       -2.398088    0.076121   -1.116162
     19          1           0       -1.436825   -0.852128   -2.308416
 ---------------------------------------------------------------------
                    Distance matrix (angstroms):
                    1          2          3          4          5
     1  O    0.000000
     2  C    1.204821   0.000000
     3  C    2.397863   1.506012   0.000000
     4  C    2.989528   2.604219   1.540442   0.000000
     5  C    4.347264   3.820028   2.410084   1.563363   0.000000
     6  C    4.472903   3.665331   2.221760   2.430345   1.547762
     7  C    4.668047   3.609521   2.302804   2.881647   2.497316
     8  O    3.511710   2.392380   1.433455   2.418737   2.878815
     9  C    3.306663   2.581407   1.549025   2.409066   2.393539
    10  H    2.029879   1.111998   2.201935   3.516422   4.609295
    11  H    2.703719   2.777359   2.179689   1.092181   2.229710
    12  H    3.379079   2.997236   2.171830   1.091976   2.229094
    13  H    4.735529   4.423092   3.152202   2.210628   1.093708
    14  H    5.181686   4.605152   3.189324   2.225519   1.093483
    15  H    5.436824   4.657122   3.271037   3.429342   2.241619
    16  H    5.273427   4.141021   3.043448   3.896785   3.478259
    17  H    5.388921   4.375515   3.056949   3.214741   2.685535
    18  H    3.307371   2.961525   2.216448   2.656438   2.643800
    19  H    3.689909   2.858005   2.213240   3.406789   3.404371
                    6          7          8          9         10
     6  C    0.000000
     7  C    1.537012   0.000000
     8  O    2.349250   1.443349   0.000000
     9  C    1.542954   2.352935   2.329748   0.000000
    10  H    4.184606   3.786054   2.489415   3.141442   0.000000
    11  H    3.196610   3.892971   3.360831   2.848910   3.847896
    12  H    3.179714   3.203774   2.585512   3.353030   3.772430
    13  H    2.188537   3.460519   3.872467   2.809730   5.319410
    14  H    2.204726   2.715676   3.275592   3.362142   5.313506
    15  H    1.091007   2.216306   3.319532   2.254533   5.126294
    16  H    2.205278   1.097683   2.081548   2.798411   4.075039
    17  H    2.207600   1.096415   2.084459   3.323566   4.571744
    18  H    2.224058   3.361769   3.315804   1.092039   3.713101
    19  H    2.226991   2.639051   2.623252   1.093015   3.064406
                   11         12         13         14         15
    11  H    0.000000
    12  H    1.769731   0.000000
    13  H    2.388986   2.983829   0.000000
    14  H    2.974747   2.410226   1.763070   0.000000
    15  H    4.091282   4.187087   2.523697   2.706641   0.000000
    16  H    4.855811   4.258814   4.339432   3.714791   2.510860
    17  H    4.290437   3.240354   3.695619   2.442176   2.731420
    18  H    2.680363   3.726992   2.634805   3.723358   2.709753
    19  H    3.856886   4.259336   3.837151   4.290772   2.671521
                   16         17         18         19
    16  H    0.000000
    17  H    1.780304   0.000000
    18  H    3.842685   4.247464   0.000000
    19  H    2.649453   3.724028   1.790849   0.000000
 Stoichiometry    C7H10O2
 Framework group  C1[X(C7H10O2)]
 Deg. of freedom    51
 Full point group                 C1      NOp   1
 Largest Abelian subgroup         C1      NOp   1
 Largest concise Abelian subgroup C1      NOp   1
                         Standard orientation:                         
 ---------------------------------------------------------------------
 Center     Atomic      Atomic             Coordinates (Angstroms)
 Number     Number       Type             X           Y           Z
 ---------------------------------------------------------------------
      1          8           0        2.827356    0.319695    0.124510
      2          6           0        1.949038   -0.493370   -0.013601
      3          6           0        0.483727   -0.149766   -0.067204
      4          6           0        0.092300    1.196966   -0.704431
      5          6           0       -1.377000    1.376087   -0.201264
      6          6           0       -1.610808    0.093416    0.632796
      7          6           0       -1.594004   -1.108713   -0.324809
      8          8           0       -0.216097   -1.201698   -0.744314
      9          6           0       -0.234092   -0.092309    1.304260
     10          1           0        2.154670   -1.583655   -0.087991
     11          1           0        0.759775    1.991830   -0.364537
     12          1           0        0.165231    1.131083   -1.791975
     13          1           0       -1.478474    2.267916    0.423670
     14          1           0       -2.093716    1.467936   -1.021988
     15          1           0       -2.478550    0.120312    1.293550
     16          1           0       -1.886061   -2.044791    0.168516
     17          1           0       -2.235715   -0.963464   -1.201869
     18          1           0        0.081137    0.756207    1.915163
     19          1           0       -0.133339   -1.021215    1.871413
 ---------------------------------------------------------------------
 Rotational constants (GHZ):      3.1238238      1.4628797      1.2847801
 Standard basis: 6-31G(2df,p) (6D, 7F)
 There are   329 symmetry adapted cartesian basis functions of A   symmetry.
 There are   302 symmetry adapted basis functions of A   symmetry.
   302 basis functions,   466 primitive gaussians,   329 cartesian basis functions
    34 alpha electrons       34 beta electrons
       nuclear repulsion energy       478.4703686770 Hartrees.
 NAtoms=   19 NActive=   19 NUniq=   19 SFac= 1.00D+00 NAtFMM=   60 NAOKFM=F Big=F
 Integral buffers will be    131072 words long.
 Raffenetti 2 integral format.
 Two-electron integral symmetry is turned on.
 One-electron integrals computed using PRISM.
 NBasis=   302 RedAO= T EigKep=  4.39D-04  NBF=   302
 NBsUse=   302 1.00D-06 EigRej= -1.00D+00 NBFU=   302
 ExpMin= 1.61D-01 ExpMax= 5.48D+03 ExpMxC= 8.25D+02 IAcc=1 IRadAn=         1 AccDes= 0.00D+00
 Harris functional with IExCor=  402 and IRadAn=       1 diagonalized for initial guess.
 HarFok:  IExCor=  402 AccDes= 0.00D+00 IRadAn=         1 IDoV= 1 UseB2=F ITyADJ=14
 ICtDFT=  3500011 ScaDFX=  1.000000  1.000000  1.000000  1.000000
 FoFCou: FMM=F IPFlag=           0 FMFlag=      100000 FMFlg1=           0
         NFxFlg=           0 DoJE=T BraDBF=F KetDBF=T FulRan=T
         wScrn=  0.000000 ICntrl=     500 IOpCl=  0 I1Cent=   200000004 NGrid=           0
         NMat0=    1 NMatS0=      1 NMatT0=    0 NMatD0=    1 NMtDS0=    0 NMtDT0=    0
 Petite list used in FoFCou.
 Requested convergence on RMS density matrix=1.00D-08 within 128 cycles.
 Requested convergence on MAX density matrix=1.00D-06.
 Requested convergence on             energy=1.00D-06.
 No special actions if energy rises.
 Integral accuracy reduced to 1.0D-05 until final iterations.
 Initial convergence to 1.0D-05 achieved.  Increase integral accuracy.
 SCF Done:  E(RB3LYP) =  -423.211137068     A.U. after   14 cycles
            NFock= 14  Conv=0.57D-08     -V/T= 2.0074

 **********************************************************************

            Population analysis using the SCF density.

 **********************************************************************

 Orbital symmetries:
       Occupied  (A) (A) (A) (A) (A) (A) (A) (A) (A) (A) (A) (A)
                 (A) (A) (A) (A) (A) (A) (A) (A) (A) (A) (A) (A)
                 (A) (A) (A) (A) (A) (A) (A) (A) (A) (A)
       Virtual   (A) (A) (A) (A) (A) (A) (A) (A) (A) (A) (A) (A)
                 (A) (A) (A) (A) (A) (A) (A) (A) (A) (A) (A) (A)
                 (A) (A) (A) (A) (A) (A) (A) (A) (A) (A) (A) (A)
                 (A) (A) (A) (A) (A) (A) (A) (A) (A) (A) (A) (A)
                 (A) (A) (A) (A) (A) (A) (A) (A) (A) (A) (A) (A)
                 (A) (A) (A) (A) (A) (A) (A) (A) (A) (A) (A) (A)
                 (A) (A) (A) (A) (A) (A) (A) (A) (A) (A) (A) (A)
                 (A) (A) (A) (A) (A) (A) (A) (A) (A) (A) (A) (A)
                 (A) (A) (A) (A) (A) (A) (A) (A) (A) (A) (A) (A)
                 (A) (A) (A) (A) (A) (A) (A) (A) (A) (A) (A) (A)
                 (A) (A) (A) (A) (A) (A) (A) (A) (A) (A) (A) (A)
                 (A) (A) (A) (A) (A) (A) (A) (A) (A) (A) (A) (A)
                 (A) (A) (A) (A) (A) (A) (A) (A) (A) (A) (A) (A)
                 (A) (A) (A) (A) (A) (A) (A) (A) (A) (A) (A) (A)
                 (A) (A) (A) (A) (A) (A) (A) (A) (A) (A) (A) (A)
                 (A) (A) (A) (A) (A) (A) (A) (A) (A) (A) (A) (A)
                 (A) (A) (A) (A) (A) (A) (A) (A) (A) (A) (A) (A)
                 (A) (A) (A) (A) (A) (A) (A) (A) (A) (A) (A) (A)
                 (A) (A) (A) (A) (A) (A) (A) (A) (A) (A) (A) (A)
                 (A) (A) (A) (A) (A) (A) (A) (A) (A) (A) (A) (A)
                 (A) (A) (A) (A) (A) (A) (A) (A) (A) (A) (A) (A)
                 (A) (A) (A) (A) (A) (A) (A) (A) (A) (A) (A) (A)
                 (A) (A) (A) (A)
 The electronic state is 1-A.
 Alpha  occ. eigenvalues --  -19.14345 -19.14169 -10.26920 -10.24311 -10.23291
 Alpha  occ. eigenvalues --  -10.20210 -10.19646 -10.19082 -10.18513  -1.05271
 Alpha  occ. eigenvalues --   -1.03964  -0.83846  -0.76739  -0.72396  -0.64276
 Alpha  occ. eigenvalues --   -0.63508  -0.57868  -0.53662  -0.51206  -0.49608
 Alpha  occ. eigenvalues --   -0.47775  -0.45409  -0.42821  -0.40782  -0.40010
 Alpha  occ. eigenvalues --   -0.38510  -0.37755  -0.36918  -0.35633  -0.34092
 Alpha  occ. eigenvalues --   -0.33819  -0.30906  -0.25600  -0.25008
 Alpha virt. eigenvalues --   -0.02734   0.07736   0.09651   0.11987   0.12688
 Alpha virt. eigenvalues --    0.14318   0.14858   0.15324   0.15706   0.16080
 Alpha virt. eigenvalues --    0.17424   0.18052   0.19758   0.20365   0.22253
 Alpha virt. eigenvalues --    0.23474   0.24154   0.26312   0.29185   0.29855
 Alpha virt. eigenvalues --    0.32998   0.42225   0.44585   0.45027   0.47309
 Alpha virt. eigenvalues --    0.48419   0.50356   0.51752   0.52633   0.53808
 Alpha virt. eigenvalues --    0.55114   0.55703   0.56900   0.57603   0.59969
 Alpha virt. eigenvalues --    0.61564   0.62404   0.64632   0.66800   0.66974
 Alpha virt. eigenvalues --    0.68831   0.70630   0.74083   0.74708   0.75555
 Alpha virt. eigenvalues --    0.76384   0.76873   0.78463   0.80024   0.81378
 Alpha virt. eigenvalues --    0.82382   0.82637   0.84832   0.85268   0.89054
 Alpha virt. eigenvalues --    0.90107   0.91154   0.94197   0.95789   0.98188
 Alpha virt. eigenvalues --    0.98922   1.03163   1.05272   1.07012   1.11229
 Alpha virt. eigenvalues --    1.12182   1.15475   1.17599   1.21148   1.22488
 Alpha virt. eigenvalues --    1.26695   1.30382   1.31414   1.31792   1.33781
 Alpha virt. eigenvalues --    1.36183   1.37112   1.38622   1.40748   1.41825
 Alpha virt. eigenvalues --    1.42831   1.44447   1.46899   1.47306   1.49342
 Alpha virt. eigenvalues --    1.49948   1.52747   1.55043   1.56345   1.58198
 Alpha virt. eigenvalues --    1.58632   1.63001   1.64291   1.65514   1.67080
 Alpha virt. eigenvalues --    1.67857   1.71733   1.72199   1.77437   1.79642
 Alpha virt. eigenvalues --    1.81643   1.83899   1.85032   1.89179   1.93109
 Alpha virt. eigenvalues --    1.95869   1.99803   2.00061   2.08229   2.10900
 Alpha virt. eigenvalues --    2.13888   2.20416   2.24327   2.26020   2.28571
 Alpha virt. eigenvalues --    2.30391   2.31917   2.35326   2.38606   2.39966
 Alpha virt. eigenvalues --    2.42570   2.44835   2.49815   2.51320   2.54908
 Alpha virt. eigenvalues --    2.57203   2.61852   2.67961   2.69750   2.75605
 Alpha virt. eigenvalues --    2.76030   2.78913   2.80149   2.83173   2.84006
 Alpha virt. eigenvalues --    2.86693   2.90031   2.91147   2.91990   2.94575
 Alpha virt. eigenvalues --    2.97909   2.98267   3.00124   3.02379   3.03455
 Alpha virt. eigenvalues --    3.06044   3.09605   3.11089   3.13752   3.17012
 Alpha virt. eigenvalues --    3.18173   3.21620   3.22332   3.25613   3.28436
 Alpha virt. eigenvalues --    3.29649   3.31449   3.32715   3.36481   3.39251
 Alpha virt. eigenvalues --    3.40631   3.42390   3.43790   3.47464   3.48522
 Alpha virt. eigenvalues --    3.50912   3.53279   3.55783   3.60533   3.62230
 Alpha virt. eigenvalues --    3.67043   3.67905   3.72968   3.75376   3.77807
 Alpha virt. eigenvalues --    3.80204   3.84797   3.87077   3.98338   4.00674
 Alpha virt. eigenvalues --    4.05111   4.12670   4.12954   4.15970   4.18779
 Alpha virt. eigenvalues --    4.19969   4.21633   4.23979   4.27824   4.30895
 Alpha virt. eigenvalues --    4.32409   4.35439   4.36037   4.37853   4.38976
 Alpha virt. eigenvalues --    4.43348   4.45430   4.47671   4.50546   4.50798
 Alpha virt. eigenvalues --    4.51892   4.55625   4.56663   4.58478   4.59633
 Alpha virt. eigenvalues --    4.61006   4.62557   4.65326   4.66475   4.69484
 Alpha virt. eigenvalues --    4.70909   4.71970   4.75383   4.76351   4.76485
 Alpha virt. eigenvalues --    4.79050   4.80907   4.84439   4.86539   4.88647
 Alpha virt. eigenvalues --    4.91836   4.93644   4.94882   4.98269   5.01197
 Alpha virt. eigenvalues --    5.04480   5.04886   5.07654   5.08654   5.11063
 Alpha virt. eigenvalues --    5.15001   5.17435   5.19113   5.22222   5.26561
 Alpha virt. eigenvalues --    5.27139   5.38195   5.38811   5.47018   5.48380
 Alpha virt. eigenvalues --    5.50032   5.55256   5.58323   5.62101   5.77448
 Alpha virt. eigenvalues --    5.79220   5.87282   5.92173   5.95159   6.00574
 Alpha virt. eigenvalues --    6.02369   6.09535   6.13500   6.20457   6.34565
 Alpha virt. eigenvalues --    6.58893   6.83084   7.03320   7.71466  10.79773
 Alpha virt. eigenvalues --   11.29966  11.71441  12.02790  12.06431  12.72768
 Alpha virt. eigenvalues --   12.91435  13.05947  13.84184
          Condensed to atoms (all electrons):
               1          2          3          4          5          6
     1  O    7.614900   0.760016  -0.063685  -0.002564   0.000160  -0.000001
     2  C    0.760016   4.663892   0.197396  -0.027563   0.004071   0.000174
     3  C   -0.063685   0.197396   4.875032   0.343057  -0.029163  -0.014603
     4  C   -0.002564  -0.027563   0.343057   5.054297   0.361808  -0.038348
     5  C    0.000160   0.004071  -0.029163   0.361808   4.915084   0.405654
     6  C   -0.000001   0.000174  -0.014603  -0.038348   0.405654   4.760621
     7  C   -0.000056   0.003474  -0.088317  -0.011779  -0.011798   0.386064
     8  O    0.001028  -0.015786   0.324313  -0.045266  -0.003538  -0.042620
     9  C   -0.001252  -0.019729   0.315732  -0.062222  -0.050246   0.390968
    10  H   -0.055165   0.345855  -0.118346   0.008460  -0.000240  -0.000135
    11  H    0.008471   0.000528  -0.022240   0.348557  -0.025558   0.001359
    12  H    0.000362   0.003496  -0.020281   0.354110  -0.027428   0.002153
    13  H    0.000000  -0.000010  -0.000652  -0.024532   0.365603  -0.027268
    14  H    0.000000  -0.000135   0.000983  -0.023934   0.366346  -0.027337
    15  H    0.000001  -0.000164   0.002588   0.005956  -0.041153   0.365886
    16  H    0.000000   0.000014  -0.000774  -0.000441   0.004137  -0.024911
    17  H    0.000002  -0.000097   0.004232   0.001259  -0.009921  -0.030484
    18  H    0.000917   0.002832  -0.020441  -0.002244  -0.002721  -0.026873
    19  H   -0.000011  -0.000111  -0.019534   0.006326   0.004020  -0.028449
               7          8          9         10         11         12
     1  O   -0.000056   0.001028  -0.001252  -0.055165   0.008471   0.000362
     2  C    0.003474  -0.015786  -0.019729   0.345855   0.000528   0.003496
     3  C   -0.088317   0.324313   0.315732  -0.118346  -0.022240  -0.020281
     4  C   -0.011779  -0.045266  -0.062222   0.008460   0.348557   0.354110
     5  C   -0.011798  -0.003538  -0.050246  -0.000240  -0.025558  -0.027428
     6  C    0.386064  -0.042620   0.390968  -0.000135   0.001359   0.002153
     7  C    4.797279   0.363448  -0.050538  -0.000860  -0.000355   0.000361
     8  O    0.363448   7.823773  -0.045276   0.012051   0.003211  -0.000514
     9  C   -0.050538  -0.045276   5.084364   0.002898   0.002759   0.006342
    10  H   -0.000860   0.012051   0.002898   0.713427   0.000342   0.000074
    11  H   -0.000355   0.003211   0.002759   0.000342   0.602093  -0.034419
    12  H    0.000361  -0.000514   0.006342   0.000074  -0.034419   0.609120
    13  H    0.003409  -0.000078  -0.000478   0.000005  -0.010663   0.004125
    14  H   -0.008327   0.000065   0.004443   0.000002   0.003626  -0.008507
    15  H   -0.036127   0.003005  -0.034129   0.000006  -0.000129  -0.000128
    16  H    0.358025  -0.027183  -0.001138  -0.000077   0.000036   0.000034
    17  H    0.366285  -0.027819   0.003739   0.000040  -0.000062  -0.000547
    18  H    0.004636   0.003009   0.359695   0.000172   0.000174  -0.000053
    19  H   -0.001088  -0.002139   0.356374   0.001993  -0.000077  -0.000185
              13         14         15         16         17         18
     1  O    0.000000   0.000000   0.000001   0.000000   0.000002   0.000917
     2  C   -0.000010  -0.000135  -0.000164   0.000014  -0.000097   0.002832
     3  C   -0.000652   0.000983   0.002588  -0.000774   0.004232  -0.020441
     4  C   -0.024532  -0.023934   0.005956  -0.000441   0.001259  -0.002244
     5  C    0.365603   0.366346  -0.041153   0.004137  -0.009921  -0.002721
     6  C   -0.027268  -0.027337   0.365886  -0.024911  -0.030484  -0.026873
     7  C    0.003409  -0.008327  -0.036127   0.358025   0.366285   0.004636
     8  O   -0.000078   0.000065   0.003005  -0.027183  -0.027819   0.003009
     9  C   -0.000478   0.004443  -0.034129  -0.001138   0.003739   0.359695
    10  H    0.000005   0.000002   0.000006  -0.000077   0.000040   0.000172
    11  H   -0.010663   0.003626  -0.000129   0.000036  -0.000062   0.000174
    12  H    0.004125  -0.008507  -0.000128   0.000034  -0.000547  -0.000053
    13  H    0.628597  -0.040627  -0.002743  -0.000216   0.000138   0.001962
    14  H   -0.040627   0.623920   0.001368  -0.000011   0.005770  -0.000006
    15  H   -0.002743   0.001368   0.663492  -0.001402   0.002332  -0.000632
    16  H   -0.000216  -0.000011  -0.001402   0.647668  -0.054766  -0.000183
    17  H    0.000138   0.005770   0.002332  -0.054766   0.637664  -0.000134
    18  H    0.001962  -0.000006  -0.000632  -0.000183  -0.000134   0.599074
    19  H   -0.000039  -0.000189  -0.000732   0.001107   0.000036  -0.035221
              19
     1  O   -0.000011
     2  C   -0.000111
     3  C   -0.019534
     4  C    0.006326
     5  C    0.004020
     6  C   -0.028449
     7  C   -0.001088
     8  O   -0.002139
     9  C    0.356374
    10  H    0.001993
    11  H   -0.000077
    12  H   -0.000185
    13  H   -0.000039
    14  H   -0.000189
    15  H   -0.000732
    16  H    0.001107
    17  H    0.000036
    18  H   -0.035221
    19  H    0.610622
 Mulliken charges:
               1
     1  O   -0.263122
     2  C    0.081846
     3  C    0.334705
     4  C   -0.244936
     5  C   -0.225118
     6  C   -0.051848
     7  C   -0.073736
     8  O   -0.323684
     9  C   -0.262306
    10  H    0.089500
    11  H    0.122347
    12  H    0.111885
    13  H    0.103466
    14  H    0.102551
    15  H    0.072704
    16  H    0.100080
    17  H    0.102333
    18  H    0.116036
    19  H    0.107297
 Sum of Mulliken charges =   0.00000
 Mulliken charges with hydrogens summed into heavy atoms:
               1
     1  O   -0.263122
     2  C    0.171346
     3  C    0.334705
     4  C   -0.010703
     5  C   -0.019101
     6  C    0.020856
     7  C    0.128677
     8  O   -0.323684
     9  C   -0.038973
 Electronic spatial extent (au):  <R**2>=           1039.0881
 Charge=              0.0000 electrons
 Dipole moment (field-independent basis, Debye):
    X=             -2.9909    Y=             -0.0520    Z=              0.8442  Tot=              3.1082
 Quadrupole moment (field-independent basis, Debye-Ang):
   XX=            -58.8782   YY=            -53.1215   ZZ=            -52.3183
   XY=             -2.1926   XZ=             -0.5760   YZ=             -1.5575
 Traceless Quadrupole moment (field-independent basis, Debye-Ang):
   XX=             -4.1056   YY=              1.6511   ZZ=              2.4544
   XY=             -2.1926   XZ=             -0.5760   YZ=             -1.5575
 Octapole moment (field-independent basis, Debye-Ang**2):
  XXX=            -24.6276  YYY=             -1.8526  ZZZ=             -1.9056  XYY=              2.8169
  XXY=            -11.6946  XXZ=             -4.2057  XZZ=              2.9059  YZZ=              0.6643
  YYZ=              2.9738  XYZ=             -0.2995
 Hexadecapole moment (field-independent basis, Debye-Ang**3):
 XXXX=           -850.3935 YYYY=           -342.4460 ZZZZ=           -215.5235 XXXY=            -12.3648
 XXXZ=             -4.5121 YYYX=              6.5967 YYYZ=              2.4559 ZZZX=              3.4693
 ZZZY=              1.3212 XXYY=           -178.7537 XXZZ=           -156.8666 YYZZ=            -93.8825
 XXYZ=              1.6340 YYXZ=              0.0160 ZZXY=              1.7373
 N-N= 4.784703686770D+02 E-N=-1.943609111816D+03  KE= 4.200900744658D+02
 Calling FoFJK, ICntrl=      2127 FMM=F ISym2X=0 I1Cent= 0 IOpClX= 0 NMat=1 NMatS=1 NMatT=0.
 ***** Axes restored to original set *****
 -------------------------------------------------------------------
 Center     Atomic                   Forces (Hartrees/Bohr)
 Number     Number              X              Y              Z
 -------------------------------------------------------------------
      1        8          -0.000002449   -0.000011080   -0.000000881
      2        6           0.000004568   -0.000003719   -0.000006784
      3        6          -0.000010339   -0.000005887   -0.000000020
      4        6          -0.000002355   -0.000003325    0.000009443
      5        6          -0.000005068   -0.000004089    0.000005891
      6        6          -0.000003313    0.000009022   -0.000004682
      7        6           0.000016346    0.000004928    0.000010221
      8        8          -0.000005105    0.000009424   -0.000001082
      9        6           0.000016652   -0.000000631   -0.000015820
     10        1           0.000002778    0.000001557   -0.000002940
     11        1          -0.000008994   -0.000010296    0.000003583
     12        1          -0.000008810   -0.000001104    0.000011986
     13        1          -0.000004425   -0.000005856    0.000003593
     14        1          -0.000005290    0.000002903    0.000010842
     15        1           0.000004241    0.000002735   -0.000003053
     16        1           0.000005197    0.000014270   -0.000004403
     17        1           0.000000246    0.000012890    0.000008242
     18        1           0.000001513   -0.000009559   -0.000011724
     19        1           0.000004608   -0.000002182   -0.000012410
 -------------------------------------------------------------------
 Cartesian Forces:  Max     0.000016652 RMS     0.000007587

 GradGradGradGradGradGradGradGradGradGradGradGradGradGradGradGradGradGrad
 Berny optimization.
 FormGI is forming the generalized inverse of G from B-inverse, IUseBI=4.
 Internal  Forces:  Max     0.000006612 RMS     0.000001728
 Search for a local minimum.
 Step number   1 out of a maximum of  114
 All quantities printed in internal units (Hartrees-Bohrs-Radians)
 Mixed Optimization -- En-DIIS/RFO-DIIS
 Second derivative matrix not updated -- first step.
 ITU=  0
     Eigenvalues ---    0.00409   0.00686   0.00689   0.01074   0.01682
     Eigenvalues ---    0.02356   0.02910   0.03721   0.04199   0.04363
     Eigenvalues ---    0.04545   0.05057   0.05119   0.05410   0.05668
     Eigenvalues ---    0.05678   0.05931   0.06591   0.06690   0.07130
     Eigenvalues ---    0.07374   0.08380   0.09328   0.09842   0.10139
     Eigenvalues ---    0.11047   0.11685   0.12773   0.16000   0.18056
     Eigenvalues ---    0.22001   0.23198   0.24219   0.25811   0.25981
     Eigenvalues ---    0.27575   0.28125   0.31755   0.32389   0.33940
     Eigenvalues ---    0.34082   0.34388   0.34413   0.34467   0.34562
     Eigenvalues ---    0.34578   0.34585   0.34697   0.35544   0.38243
     Eigenvalues ---    1.02438
 RFO step:  Lambda= 0.00000000D+00 EMin= 4.08533589D-03
 Linear search not attempted -- first point.
 Iteration  1 RMS(Cart)=  0.00004877 RMS(Int)=  0.00000000
 Iteration  2 RMS(Cart)=  0.00000000 RMS(Int)=  0.00000000
 Variable       Old X    -DE/DX   Delta X   Delta X   Delta X     New X
                                 (Linear)    (Quad)   (Total)
    R1        2.27678   0.00000   0.00000   0.00000   0.00000   2.27678
    R2        2.84595   0.00000   0.00000   0.00001   0.00001   2.84596
    R3        2.10137   0.00000   0.00000  -0.00001  -0.00001   2.10137
    R4        2.91101   0.00000   0.00000   0.00001   0.00001   2.91102
    R5        2.70884   0.00000   0.00000   0.00000   0.00000   2.70883
    R6        2.92723   0.00000   0.00000  -0.00001  -0.00001   2.92723
    R7        2.95433   0.00000   0.00000  -0.00001  -0.00001   2.95432
    R8        2.06392   0.00000   0.00000   0.00000   0.00000   2.06392
    R9        2.06353   0.00000   0.00000   0.00000   0.00000   2.06354
   R10        2.92485   0.00000   0.00000   0.00001   0.00001   2.92486
   R11        2.06681   0.00000   0.00000   0.00000   0.00000   2.06681
   R12        2.06638   0.00000   0.00000   0.00000   0.00000   2.06639
   R13        2.90453   0.00000   0.00000   0.00000   0.00000   2.90453
   R14        2.91576   0.00000   0.00000   0.00000   0.00000   2.91576
   R15        2.06170   0.00000   0.00000   0.00000   0.00000   2.06170
   R16        2.72753  -0.00001   0.00000  -0.00001  -0.00001   2.72752
   R17        2.07432   0.00000   0.00000   0.00001   0.00001   2.07433
   R18        2.07192   0.00000   0.00000  -0.00001  -0.00001   2.07192
   R19        2.06365   0.00000   0.00000   0.00000   0.00000   2.06365
   R20        2.06550   0.00000   0.00000   0.00001   0.00001   2.06550
    A1        2.16447   0.00000   0.00000   0.00000   0.00000   2.16448
    A2        2.13474   0.00000   0.00000  -0.00001  -0.00001   2.13474
    A3        1.98367   0.00000   0.00000   0.00001   0.00001   1.98368
    A4        2.05039   0.00000   0.00000  -0.00002  -0.00002   2.05037
    A5        1.90117   0.00000   0.00000  -0.00002  -0.00002   1.90115
    A6        2.01288   0.00000   0.00000   0.00005   0.00005   2.01293
    A7        1.89875   0.00000   0.00000   0.00000   0.00000   1.89875
    A8        1.78858   0.00000   0.00000   0.00003   0.00003   1.78861
    A9        1.79179   0.00000   0.00000  -0.00004  -0.00004   1.79175
   A10        1.77812   0.00000   0.00000   0.00000   0.00000   1.77811
   A11        1.93075   0.00000   0.00000   0.00001   0.00001   1.93077
   A12        1.92013   0.00000   0.00000   0.00001   0.00001   1.92014
   A13        1.97232   0.00000   0.00000  -0.00001  -0.00001   1.97231
   A14        1.97167   0.00000   0.00000  -0.00001  -0.00001   1.97166
   A15        1.88918   0.00000   0.00000  -0.00001  -0.00001   1.88918
   A16        1.79308   0.00000   0.00000   0.00001   0.00001   1.79309
   A17        1.94392   0.00000   0.00000  -0.00001  -0.00001   1.94391
   A18        1.96499   0.00000   0.00000  -0.00001  -0.00001   1.96498
   A19        1.93246   0.00000   0.00000   0.00002   0.00002   1.93248
   A20        1.95526   0.00000   0.00000   0.00000   0.00000   1.95526
   A21        1.87503   0.00000   0.00000  -0.00001  -0.00001   1.87501
   A22        1.88680   0.00000   0.00000   0.00001   0.00001   1.88682
   A23        1.77162   0.00000   0.00000   0.00003   0.00003   1.77165
   A24        2.01096   0.00000   0.00000   0.00001   0.00001   2.01097
   A25        1.73882   0.00000   0.00000  -0.00006  -0.00006   1.73876
   A26        1.98811   0.00000   0.00000   0.00001   0.00001   1.98812
   A27        2.03652   0.00000   0.00000  -0.00001  -0.00001   2.03651
   A28        1.81513   0.00000   0.00000   0.00000   0.00000   1.81513
   A29        1.96499   0.00000   0.00000  -0.00002  -0.00002   1.96496
   A30        1.96966   0.00000   0.00000  -0.00002  -0.00002   1.96964
   A31        1.90677   0.00000   0.00000   0.00003   0.00003   1.90680
   A32        1.91217   0.00000   0.00000   0.00001   0.00001   1.91218
   A33        1.89311   0.00000   0.00000   0.00000   0.00000   1.89311
   A34        1.85616   0.00000   0.00000   0.00001   0.00001   1.85617
   A35        1.60344   0.00000   0.00000   0.00001   0.00001   1.60345
   A36        1.97180   0.00000   0.00000   0.00000   0.00000   1.97180
   A37        1.96619   0.00000   0.00000   0.00003   0.00003   1.96622
   A38        1.99049   0.00000   0.00000  -0.00002  -0.00002   1.99047
   A39        1.99364   0.00000   0.00000   0.00001   0.00001   1.99365
   A40        1.92139   0.00000   0.00000  -0.00002  -0.00002   1.92137
    D1        0.57917   0.00000   0.00000  -0.00008  -0.00008   0.57909
    D2        2.74700   0.00000   0.00000  -0.00012  -0.00012   2.74689
    D3       -1.53337   0.00000   0.00000  -0.00015  -0.00015  -1.53352
    D4       -2.58822   0.00000   0.00000   0.00009   0.00009  -2.58813
    D5       -0.42039   0.00000   0.00000   0.00006   0.00006  -0.42033
    D6        1.58243   0.00000   0.00000   0.00003   0.00003   1.58245
    D7       -2.86062   0.00000   0.00000  -0.00006  -0.00006  -2.86069
    D8       -0.75942   0.00000   0.00000  -0.00007  -0.00007  -0.75949
    D9        1.32699   0.00000   0.00000  -0.00006  -0.00006   1.32693
   D10        1.25352   0.00000   0.00000  -0.00002  -0.00002   1.25350
   D11       -2.92846   0.00000   0.00000  -0.00003  -0.00003  -2.92849
   D12       -0.84205   0.00000   0.00000  -0.00002  -0.00002  -0.84207
   D13       -0.63504   0.00000   0.00000   0.00001   0.00001  -0.63503
   D14        1.46617   0.00000   0.00000   0.00000   0.00000   1.46617
   D15       -2.73061   0.00000   0.00000   0.00001   0.00001  -2.73060
   D16        2.75856   0.00000   0.00000   0.00001   0.00001   2.75856
   D17       -1.26977   0.00000   0.00000  -0.00004  -0.00004  -1.26981
   D18        0.61660   0.00000   0.00000  -0.00002  -0.00002   0.61658
   D19       -3.02394   0.00000   0.00000  -0.00001  -0.00001  -3.02395
   D20        1.21420   0.00000   0.00000   0.00000   0.00000   1.21420
   D21       -0.97680   0.00000   0.00000   0.00000   0.00000  -0.97679
   D22        1.00999   0.00000   0.00000  -0.00004  -0.00004   1.00995
   D23       -1.03506   0.00000   0.00000  -0.00003  -0.00003  -1.03509
   D24        3.05713   0.00000   0.00000  -0.00002  -0.00002   3.05711
   D25       -0.95910   0.00000   0.00000  -0.00004  -0.00004  -0.95913
   D26       -3.00415   0.00000   0.00000  -0.00003  -0.00003  -3.00417
   D27        1.08804   0.00000   0.00000  -0.00002  -0.00002   1.08802
   D28       -0.01314   0.00000   0.00000   0.00002   0.00002  -0.01312
   D29        2.05607   0.00000   0.00000   0.00004   0.00004   2.05612
   D30       -2.11968   0.00000   0.00000   0.00001   0.00001  -2.11967
   D31       -2.08500   0.00000   0.00000   0.00001   0.00001  -2.08499
   D32       -0.01578   0.00000   0.00000   0.00003   0.00003  -0.01575
   D33        2.09165   0.00000   0.00000   0.00001   0.00001   2.09165
   D34        2.04584   0.00000   0.00000   0.00003   0.00003   2.04587
   D35       -2.16813   0.00000   0.00000   0.00005   0.00005  -2.16808
   D36       -0.06070   0.00000   0.00000   0.00003   0.00003  -0.06067
   D37       -1.16154   0.00000   0.00000   0.00000   0.00000  -1.16154
   D38        0.65793   0.00000   0.00000  -0.00005  -0.00005   0.65788
   D39        2.87528   0.00000   0.00000  -0.00003  -0.00003   2.87525
   D40        3.04441   0.00000   0.00000  -0.00001  -0.00001   3.04440
   D41       -1.41932   0.00000   0.00000  -0.00005  -0.00005  -1.41937
   D42        0.79804   0.00000   0.00000  -0.00004  -0.00004   0.79800
   D43        0.95168   0.00000   0.00000   0.00000   0.00000   0.95167
   D44        2.77114   0.00000   0.00000  -0.00005  -0.00005   2.77109
   D45       -1.29469   0.00000   0.00000  -0.00004  -0.00004  -1.29473
   D46        1.21341   0.00000   0.00000  -0.00005  -0.00005   1.21336
   D47       -3.00775   0.00000   0.00000  -0.00002  -0.00002  -3.00777
   D48       -0.85746   0.00000   0.00000  -0.00005  -0.00005  -0.85751
   D49       -0.62904   0.00000   0.00000  -0.00006  -0.00006  -0.62910
   D50        1.43298   0.00000   0.00000  -0.00004  -0.00004   1.43295
   D51       -2.69991   0.00000   0.00000  -0.00007  -0.00007  -2.69998
   D52       -2.81054   0.00000   0.00000  -0.00002  -0.00002  -2.81056
   D53       -0.74852   0.00000   0.00000   0.00001   0.00001  -0.74851
   D54        1.40177   0.00000   0.00000  -0.00002  -0.00002   1.40175
   D55       -1.00760   0.00000   0.00000   0.00006   0.00006  -1.00754
   D56        1.02130   0.00000   0.00000   0.00006   0.00006   1.02136
   D57       -3.03098   0.00000   0.00000   0.00002   0.00002  -3.03096
   D58        0.92740   0.00000   0.00000   0.00007   0.00007   0.92747
   D59        2.95630   0.00000   0.00000   0.00007   0.00007   2.95636
   D60       -1.09598   0.00000   0.00000   0.00003   0.00003  -1.09595
   D61        3.07501   0.00000   0.00000   0.00003   0.00003   3.07504
   D62       -1.17928   0.00000   0.00000   0.00004   0.00004  -1.17925
   D63        1.05162   0.00000   0.00000  -0.00001  -0.00001   1.05162
   D64        0.01031   0.00000   0.00000   0.00005   0.00005   0.01036
   D65       -2.09140   0.00000   0.00000   0.00006   0.00006  -2.09133
   D66        2.12019   0.00000   0.00000   0.00004   0.00004   2.12022
         Item               Value     Threshold  Converged?
 Maximum Force            0.000007     0.000450     YES
 RMS     Force            0.000002     0.000300     YES
 Maximum Displacement     0.000174     0.001800     YES
 RMS     Displacement     0.000049     0.001200     YES
 Predicted change in Energy=-2.154737D-09
 Optimization completed.
    -- Stationary point found.
                           ----------------------------
                           !   Optimized Parameters   !
                           ! (Angstroms and Degrees)  !
 --------------------------                            --------------------------
 ! Name  Definition              Value          Derivative Info.                !
 --------------------------------------------------------------------------------
 ! R1    R(1,2)                  1.2048         -DE/DX =    0.0                 !
 ! R2    R(2,3)                  1.506          -DE/DX =    0.0                 !
 ! R3    R(2,10)                 1.112          -DE/DX =    0.0                 !
 ! R4    R(3,4)                  1.5404         -DE/DX =    0.0                 !
 ! R5    R(3,8)                  1.4335         -DE/DX =    0.0                 !
 ! R6    R(3,9)                  1.549          -DE/DX =    0.0                 !
 ! R7    R(4,5)                  1.5634         -DE/DX =    0.0                 !
 ! R8    R(4,11)                 1.0922         -DE/DX =    0.0                 !
 ! R9    R(4,12)                 1.092          -DE/DX =    0.0                 !
 ! R10   R(5,6)                  1.5478         -DE/DX =    0.0                 !
 ! R11   R(5,13)                 1.0937         -DE/DX =    0.0                 !
 ! R12   R(5,14)                 1.0935         -DE/DX =    0.0                 !
 ! R13   R(6,7)                  1.537          -DE/DX =    0.0                 !
 ! R14   R(6,9)                  1.543          -DE/DX =    0.0                 !
 ! R15   R(6,15)                 1.091          -DE/DX =    0.0                 !
 ! R16   R(7,8)                  1.4433         -DE/DX =    0.0                 !
 ! R17   R(7,16)                 1.0977         -DE/DX =    0.0                 !
 ! R18   R(7,17)                 1.0964         -DE/DX =    0.0                 !
 ! R19   R(9,18)                 1.092          -DE/DX =    0.0                 !
 ! R20   R(9,19)                 1.093          -DE/DX =    0.0                 !
 ! A1    A(1,2,3)              124.0152         -DE/DX =    0.0                 !
 ! A2    A(1,2,10)             122.3118         -DE/DX =    0.0                 !
 ! A3    A(3,2,10)             113.6558         -DE/DX =    0.0                 !
 ! A4    A(2,3,4)              117.4788         -DE/DX =    0.0                 !
 ! A5    A(2,3,8)              108.929          -DE/DX =    0.0                 !
 ! A6    A(2,3,9)              115.3297         -DE/DX =    0.0                 !
 ! A7    A(4,3,8)              108.7906         -DE/DX =    0.0                 !
 ! A8    A(4,3,9)              102.4783         -DE/DX =    0.0                 !
 ! A9    A(8,3,9)              102.6621         -DE/DX =    0.0                 !
 ! A10   A(3,4,5)              101.8787         -DE/DX =    0.0                 !
 ! A11   A(3,4,11)             110.624          -DE/DX =    0.0                 !
 ! A12   A(3,4,12)             110.0151         -DE/DX =    0.0                 !
 ! A13   A(5,4,11)             113.0057         -DE/DX =    0.0                 !
 ! A14   A(5,4,12)             112.9685         -DE/DX =    0.0                 !
 ! A15   A(11,4,12)            108.2423         -DE/DX =    0.0                 !
 ! A16   A(4,5,6)              102.7361         -DE/DX =    0.0                 !
 ! A17   A(4,5,13)             111.3783         -DE/DX =    0.0                 !
 ! A18   A(4,5,14)             112.5857         -DE/DX =    0.0                 !
 ! A19   A(6,5,13)             110.7218         -DE/DX =    0.0                 !
 ! A20   A(6,5,14)             112.028          -DE/DX =    0.0                 !
 ! A21   A(13,5,14)            107.431          -DE/DX =    0.0                 !
 ! A22   A(5,6,7)              108.1058         -DE/DX =    0.0                 !
 ! A23   A(5,6,9)              101.5064         -DE/DX =    0.0                 !
 ! A24   A(5,6,15)             115.2194         -DE/DX =    0.0                 !
 ! A25   A(7,6,9)               99.6269         -DE/DX =    0.0                 !
 ! A26   A(7,6,15)             113.9103         -DE/DX =    0.0                 !
 ! A27   A(9,6,15)             116.6842         -DE/DX =    0.0                 !
 ! A28   A(6,7,8)              103.9991         -DE/DX =    0.0                 !
 ! A29   A(6,7,16)             112.5855         -DE/DX =    0.0                 !
 ! A30   A(6,7,17)             112.8532         -DE/DX =    0.0                 !
 ! A31   A(8,7,16)             109.2499         -DE/DX =    0.0                 !
 ! A32   A(8,7,17)             109.5592         -DE/DX =    0.0                 !
 ! A33   A(16,7,17)            108.467          -DE/DX =    0.0                 !
 ! A34   A(3,8,7)              106.3501         -DE/DX =    0.0                 !
 ! A35   A(3,9,6)               91.8706         -DE/DX =    0.0                 !
 ! A36   A(3,9,18)             112.9761         -DE/DX =    0.0                 !
 ! A37   A(3,9,19)             112.6543         -DE/DX =    0.0                 !
 ! A38   A(6,9,18)             114.0466         -DE/DX =    0.0                 !
 ! A39   A(6,9,19)             114.2271         -DE/DX =    0.0                 !
 ! A40   A(18,9,19)            110.0876         -DE/DX =    0.0                 !
 ! D1    D(1,2,3,4)             33.1841         -DE/DX =    0.0                 !
 ! D2    D(1,2,3,8)            157.3916         -DE/DX =    0.0                 !
 ! D3    D(1,2,3,9)            -87.8555         -DE/DX =    0.0                 !
 ! D4    D(10,2,3,4)          -148.2942         -DE/DX =    0.0                 !
 ! D5    D(10,2,3,8)           -24.0867         -DE/DX =    0.0                 !
 ! D6    D(10,2,3,9)            90.6663         -DE/DX =    0.0                 !
 ! D7    D(2,3,4,5)           -163.9017         -DE/DX =    0.0                 !
 ! D8    D(2,3,4,11)           -43.5114         -DE/DX =    0.0                 !
 ! D9    D(2,3,4,12)            76.0309         -DE/DX =    0.0                 !
 ! D10   D(8,3,4,5)             71.8213         -DE/DX =    0.0                 !
 ! D11   D(8,3,4,11)          -167.7884         -DE/DX =    0.0                 !
 ! D12   D(8,3,4,12)           -48.2461         -DE/DX =    0.0                 !
 ! D13   D(9,3,4,5)            -36.3849         -DE/DX =    0.0                 !
 ! D14   D(9,3,4,11)            84.0054         -DE/DX =    0.0                 !
 ! D15   D(9,3,4,12)          -156.4523         -DE/DX =    0.0                 !
 ! D16   D(2,3,8,7)            158.0536         -DE/DX =    0.0                 !
 ! D17   D(4,3,8,7)            -72.7525         -DE/DX =    0.0                 !
 ! D18   D(9,3,8,7)             35.3286         -DE/DX =    0.0                 !
 ! D19   D(2,3,9,6)           -173.2588         -DE/DX =    0.0                 !
 ! D20   D(2,3,9,18)            69.5686         -DE/DX =    0.0                 !
 ! D21   D(2,3,9,19)           -55.9664         -DE/DX =    0.0                 !
 ! D22   D(4,3,9,6)             57.8681         -DE/DX =    0.0                 !
 ! D23   D(4,3,9,18)           -59.3045         -DE/DX =    0.0                 !
 ! D24   D(4,3,9,19)           175.1605         -DE/DX =    0.0                 !
 ! D25   D(8,3,9,6)            -54.9522         -DE/DX =    0.0                 !
 ! D26   D(8,3,9,18)          -172.1249         -DE/DX =    0.0                 !
 ! D27   D(8,3,9,19)            62.3401         -DE/DX =    0.0                 !
 ! D28   D(3,4,5,6)             -0.7531         -DE/DX =    0.0                 !
 ! D29   D(3,4,5,13)           117.8043         -DE/DX =    0.0                 !
 ! D30   D(3,4,5,14)          -121.4488         -DE/DX =    0.0                 !
 ! D31   D(11,4,5,6)          -119.4616         -DE/DX =    0.0                 !
 ! D32   D(11,4,5,13)           -0.9042         -DE/DX =    0.0                 !
 ! D33   D(11,4,5,14)          119.8427         -DE/DX =    0.0                 !
 ! D34   D(12,4,5,6)           117.2179         -DE/DX =    0.0                 !
 ! D35   D(12,4,5,13)         -124.2247         -DE/DX =    0.0                 !
 ! D36   D(12,4,5,14)           -3.4778         -DE/DX =    0.0                 !
 ! D37   D(4,5,6,7)            -66.5511         -DE/DX =    0.0                 !
 ! D38   D(4,5,6,9)             37.6964         -DE/DX =    0.0                 !
 ! D39   D(4,5,6,15)           164.7417         -DE/DX =    0.0                 !
 ! D40   D(13,5,6,7)           174.4317         -DE/DX =    0.0                 !
 ! D41   D(13,5,6,9)           -81.3208         -DE/DX =    0.0                 !
 ! D42   D(13,5,6,15)           45.7244         -DE/DX =    0.0                 !
 ! D43   D(14,5,6,7)            54.5271         -DE/DX =    0.0                 !
 ! D44   D(14,5,6,9)           158.7746         -DE/DX =    0.0                 !
 ! D45   D(14,5,6,15)          -74.1802         -DE/DX =    0.0                 !
 ! D46   D(5,6,7,8)             69.5235         -DE/DX =    0.0                 !
 ! D47   D(5,6,7,16)          -172.3314         -DE/DX =    0.0                 !
 ! D48   D(5,6,7,17)           -49.1287         -DE/DX =    0.0                 !
 ! D49   D(9,6,7,8)            -36.0412         -DE/DX =    0.0                 !
 ! D50   D(9,6,7,16)            82.1039         -DE/DX =    0.0                 !
 ! D51   D(9,6,7,17)          -154.6934         -DE/DX =    0.0                 !
 ! D52   D(15,6,7,8)          -161.0323         -DE/DX =    0.0                 !
 ! D53   D(15,6,7,16)          -42.8872         -DE/DX =    0.0                 !
 ! D54   D(15,6,7,17)           80.3155         -DE/DX =    0.0                 !
 ! D55   D(5,6,9,3)            -57.7311         -DE/DX =    0.0                 !
 ! D56   D(5,6,9,18)            58.516          -DE/DX =    0.0                 !
 ! D57   D(5,6,9,19)          -173.6623         -DE/DX =    0.0                 !
 ! D58   D(7,6,9,3)             53.1363         -DE/DX =    0.0                 !
 ! D59   D(7,6,9,18)           169.3834         -DE/DX =    0.0                 !
 ! D60   D(7,6,9,19)           -62.7949         -DE/DX =    0.0                 !
 ! D61   D(15,6,9,3)           176.1849         -DE/DX =    0.0                 !
 ! D62   D(15,6,9,18)          -67.568          -DE/DX =    0.0                 !
 ! D63   D(15,6,9,19)           60.2537         -DE/DX =    0.0                 !
 ! D64   D(6,7,8,3)              0.5908         -DE/DX =    0.0                 !
 ! D65   D(16,7,8,3)          -119.8282         -DE/DX =    0.0                 !
 ! D66   D(17,7,8,3)           121.4778         -DE/DX =    0.0                 !
 --------------------------------------------------------------------------------
 GradGradGradGradGradGradGradGradGradGradGradGradGradGradGradGradGradGrad

                          Input orientation:                          
 ---------------------------------------------------------------------
 Center     Atomic      Atomic             Coordinates (Angstroms)
 Number     Number       Type             X           Y           Z
 ---------------------------------------------------------------------
      1          8           0        0.198628   -0.137151    0.921063
      2          6           0        0.428717   -0.146235   -0.261549
      3          6           0       -0.283155    0.722296   -1.265026
      4          6           0       -0.732161    2.121329   -0.802358
      5          6           0       -1.758462    2.514031   -1.914380
      6          6           0       -1.726653    1.286725   -2.856864
      7          6           0       -0.337688    1.223425   -3.511979
      8          8           0        0.543908    0.863689   -2.427251
      9          6           0       -1.589186    0.127408   -1.848007
     10          1           0        1.180936   -0.827864   -0.715518
     11          1           0       -1.179151    2.072302    0.192959
     12          1           0        0.126866    2.794058   -0.758532
     13          1           0       -2.760243    2.657594   -1.499623
     14          1           0       -1.483327    3.436584   -2.432937
     15          1           0       -2.553335    1.223647   -3.566028
     16          1           0       -0.276302    0.458677   -4.297027
     17          1           0       -0.023350    2.183825   -3.937360
     18          1           0       -2.398088    0.076121   -1.116162
     19          1           0       -1.436825   -0.852128   -2.308416
 ---------------------------------------------------------------------
                    Distance matrix (angstroms):
                    1          2          3          4          5
     1  O    0.000000
     2  C    1.204821   0.000000
     3  C    2.397863   1.506012   0.000000
     4  C    2.989528   2.604219   1.540442   0.000000
     5  C    4.347264   3.820028   2.410084   1.563363   0.000000
     6  C    4.472903   3.665331   2.221760   2.430345   1.547762
     7  C    4.668047   3.609521   2.302804   2.881647   2.497316
     8  O    3.511710   2.392380   1.433455   2.418737   2.878815
     9  C    3.306663   2.581407   1.549025   2.409066   2.393539
    10  H    2.029879   1.111998   2.201935   3.516422   4.609295
    11  H    2.703719   2.777359   2.179689   1.092181   2.229710
    12  H    3.379079   2.997236   2.171830   1.091976   2.229094
    13  H    4.735529   4.423092   3.152202   2.210628   1.093708
    14  H    5.181686   4.605152   3.189324   2.225519   1.093483
    15  H    5.436824   4.657122   3.271037   3.429342   2.241619
    16  H    5.273427   4.141021   3.043448   3.896785   3.478259
    17  H    5.388921   4.375515   3.056949   3.214741   2.685535
    18  H    3.307371   2.961525   2.216448   2.656438   2.643800
    19  H    3.689909   2.858005   2.213240   3.406789   3.404371
                    6          7          8          9         10
     6  C    0.000000
     7  C    1.537012   0.000000
     8  O    2.349250   1.443349   0.000000
     9  C    1.542954   2.352935   2.329748   0.000000
    10  H    4.184606   3.786054   2.489415   3.141442   0.000000
    11  H    3.196610   3.892971   3.360831   2.848910   3.847896
    12  H    3.179714   3.203774   2.585512   3.353030   3.772430
    13  H    2.188537   3.460519   3.872467   2.809730   5.319410
    14  H    2.204726   2.715676   3.275592   3.362142   5.313506
    15  H    1.091007   2.216306   3.319532   2.254533   5.126294
    16  H    2.205278   1.097683   2.081548   2.798411   4.075039
    17  H    2.207600   1.096415   2.084459   3.323566   4.571744
    18  H    2.224058   3.361769   3.315804   1.092039   3.713101
    19  H    2.226991   2.639051   2.623252   1.093015   3.064406
                   11         12         13         14         15
    11  H    0.000000
    12  H    1.769731   0.000000
    13  H    2.388986   2.983829   0.000000
    14  H    2.974747   2.410226   1.763070   0.000000
    15  H    4.091282   4.187087   2.523697   2.706641   0.000000
    16  H    4.855811   4.258814   4.339432   3.714791   2.510860
    17  H    4.290437   3.240354   3.695619   2.442176   2.731420
    18  H    2.680363   3.726992   2.634805   3.723358   2.709753
    19  H    3.856886   4.259336   3.837151   4.290772   2.671521
                   16         17         18         19
    16  H    0.000000
    17  H    1.780304   0.000000
    18  H    3.842685   4.247464   0.000000
    19  H    2.649453   3.724028   1.790849   0.000000
 Stoichiometry    C7H10O2
 Framework group  C1[X(C7H10O2)]
 Deg. of freedom    51
 Full point group                 C1      NOp   1
 Largest Abelian subgroup         C1      NOp   1
 Largest concise Abelian subgroup C1      NOp   1
                         Standard orientation:                         
 ---------------------------------------------------------------------
 Center     Atomic      Atomic             Coordinates (Angstroms)
 Number     Number       Type             X           Y           Z
 ---------------------------------------------------------------------
      1          8           0        2.827356    0.319695    0.124510
      2          6           0        1.949038   -0.493370   -0.013601
      3          6           0        0.483727   -0.149766   -0.067204
      4          6           0        0.092300    1.196966   -0.704431
      5          6           0       -1.377000    1.376087   -0.201264
      6          6           0       -1.610808    0.093416    0.632796
      7          6           0       -1.594004   -1.108713   -0.324809
      8          8           0       -0.216097   -1.201698   -0.744314
      9          6           0       -0.234092   -0.092309    1.304260
     10          1           0        2.154670   -1.583655   -0.087991
     11          1           0        0.759775    1.991830   -0.364537
     12          1           0        0.165231    1.131083   -1.791975
     13          1           0       -1.478474    2.267916    0.423670
     14          1           0       -2.093716    1.467936   -1.021988
     15          1           0       -2.478550    0.120312    1.293550
     16          1           0       -1.886061   -2.044791    0.168516
     17          1           0       -2.235715   -0.963464   -1.201869
     18          1           0        0.081137    0.756207    1.915163
     19          1           0       -0.133339   -1.021215    1.871413
 ---------------------------------------------------------------------
 Rotational constants (GHZ):      3.1238238      1.4628797      1.2847801
 1\1\GINC-ALCHEMY-P\FOpt\RB3LYP\6-31G(2df,p)\C7H10O2\PUCK\27-Jan-2020\0
 \\# b3lyp 6-31G(2df,p) opt Freq\\titel\\0,1\O,0.1986282462,-0.13715121
 65,0.9210626482\C,0.4287167114,-0.1462346687,-0.2615489039\C,-0.283154
 991,0.7222963541,-1.2650256603\C,-0.7321605664,2.1213293155,-0.8023575
 298\C,-1.7584624894,2.5140307961,-1.9143802403\C,-1.7266528022,1.28672
 53081,-2.8568642594\C,-0.3376881243,1.2234248752,-3.5119793933\O,0.543
 9080136,0.8636887831,-2.4272513434\C,-1.5891864138,0.127407998,-1.8480
 073636\H,1.1809362664,-0.8278637754,-0.7155176621\H,-1.179150705,2.072
 3024309,0.1929593532\H,0.1268658909,2.7940577086,-0.758532467\H,-2.760
 2430395,2.6575935303,-1.4996229469\H,-1.4833266615,3.4365841449,-2.432
 9369739\H,-2.55333466,1.2236465259,-3.5660284209\H,-0.2763017991,0.458
 6772925,-4.2970274352\H,-0.0233498728,2.1838253001,-3.9373597551\H,-2.
 3980877649,0.0761210577,-1.1161620362\H,-1.4368249888,-0.8521283102,-2
 .3084155202\\Version=ES64L-G09RevD.01\State=1-A\HF=-423.2111371\RMSD=5
 .748e-09\RMSF=7.587e-06\Dipole=-0.6770222,0.2660682,-0.9829852\Quadrup
 ole=0.9091921,2.2283683,-3.1375605,0.257723,-0.1854149,1.8274809\PG=C0
 1 [X(C7H10O2)]\\@


 GETTING A SIMPLE ANSWER FROM A PROFESSOR IS LIKE
 GETTING A THIMBLE OF WATER FROM A FIRE HYDRANT.
     -- PROF. LEN SHAPIRO, NDSU
 Job cpu time:       0 days  0 hours  7 minutes 23.0 seconds.
 File lengths (MBytes):  RWF=     52 Int=      0 D2E=      0 Chk=      7 Scr=      1
 Normal termination of Gaussian 09 at Mon Jan 27 13:16:13 2020.
 Link1:  Proceeding to internal job step number  2.
 ----------------------------------------------------------------------
 #N Geom=AllCheck Guess=TCheck SCRF=Check GenChk RB3LYP/6-31G(2df,p) Fr
 eq
 ----------------------------------------------------------------------
 1/10=4,29=7,30=1,38=1,40=1/1,3;
 2/12=2,40=1/2;
 3/5=1,6=6,7=104,11=2,14=-4,16=1,25=1,30=1,70=2,71=2,74=-5,116=1,140=1/1,2,3;
 4/5=101/1;
 5/5=2,98=1/2;
 8/6=4,10=90,11=11/1;
 11/6=1,8=1,9=11,15=111,16=1/1,2,10;
 10/6=1/2;
 6/7=2,8=2,9=2,10=2,18=1,28=1/1;
 7/8=1,10=1,25=1/1,2,3,16;
 1/10=4,30=1/3;
 99//99;
 Structure from the checkpoint file:  "/scratch/puck/g09_57e19cbe-4b3c-4d88-a8be-83bd19006fce/Gau-169359.chk"
 -----
 titel
 -----
 Charge =  0 Multiplicity = 1
 Redundant internal coordinates found in file.
 O,0,0.1986282462,-0.1371512165,0.9210626482
 C,0,0.4287167114,-0.1462346687,-0.2615489039
 C,0,-0.283154991,0.7222963541,-1.2650256603
 C,0,-0.7321605664,2.1213293155,-0.8023575298
 C,0,-1.7584624894,2.5140307961,-1.9143802403
 C,0,-1.7266528022,1.2867253081,-2.8568642594
 C,0,-0.3376881243,1.2234248752,-3.5119793933
 O,0,0.5439080136,0.8636887831,-2.4272513434
 C,0,-1.5891864138,0.127407998,-1.8480073636
 H,0,1.1809362664,-0.8278637754,-0.7155176621
 H,0,-1.179150705,2.0723024309,0.1929593532
 H,0,0.1268658909,2.7940577086,-0.758532467
 H,0,-2.7602430395,2.6575935303,-1.4996229469
 H,0,-1.4833266615,3.4365841449,-2.4329369739
 H,0,-2.55333466,1.2236465259,-3.5660284209
 H,0,-0.2763017991,0.4586772925,-4.2970274352
 H,0,-0.0233498728,2.1838253001,-3.9373597551
 H,0,-2.3980877649,0.0761210577,-1.1161620362
 H,0,-1.4368249888,-0.8521283102,-2.3084155202
 Recover connectivity data from disk.

 GradGradGradGradGradGradGradGradGradGradGradGradGradGradGradGradGradGrad
 Berny optimization.
 Initialization pass.
                           ----------------------------
                           !    Initial Parameters    !
                           ! (Angstroms and Degrees)  !
 --------------------------                            --------------------------
 ! Name  Definition              Value          Derivative Info.                !
 --------------------------------------------------------------------------------
 ! R1    R(1,2)                  1.2048         calculate D2E/DX2 analytically  !
 ! R2    R(2,3)                  1.506          calculate D2E/DX2 analytically  !
 ! R3    R(2,10)                 1.112          calculate D2E/DX2 analytically  !
 ! R4    R(3,4)                  1.5404         calculate D2E/DX2 analytically  !
 ! R5    R(3,8)                  1.4335         calculate D2E/DX2 analytically  !
 ! R6    R(3,9)                  1.549          calculate D2E/DX2 analytically  !
 ! R7    R(4,5)                  1.5634         calculate D2E/DX2 analytically  !
 ! R8    R(4,11)                 1.0922         calculate D2E/DX2 analytically  !
 ! R9    R(4,12)                 1.092          calculate D2E/DX2 analytically  !
 ! R10   R(5,6)                  1.5478         calculate D2E/DX2 analytically  !
 ! R11   R(5,13)                 1.0937         calculate D2E/DX2 analytically  !
 ! R12   R(5,14)                 1.0935         calculate D2E/DX2 analytically  !
 ! R13   R(6,7)                  1.537          calculate D2E/DX2 analytically  !
 ! R14   R(6,9)                  1.543          calculate D2E/DX2 analytically  !
 ! R15   R(6,15)                 1.091          calculate D2E/DX2 analytically  !
 ! R16   R(7,8)                  1.4433         calculate D2E/DX2 analytically  !
 ! R17   R(7,16)                 1.0977         calculate D2E/DX2 analytically  !
 ! R18   R(7,17)                 1.0964         calculate D2E/DX2 analytically  !
 ! R19   R(9,18)                 1.092          calculate D2E/DX2 analytically  !
 ! R20   R(9,19)                 1.093          calculate D2E/DX2 analytically  !
 ! A1    A(1,2,3)              124.0152         calculate D2E/DX2 analytically  !
 ! A2    A(1,2,10)             122.3118         calculate D2E/DX2 analytically  !
 ! A3    A(3,2,10)             113.6558         calculate D2E/DX2 analytically  !
 ! A4    A(2,3,4)              117.4788         calculate D2E/DX2 analytically  !
 ! A5    A(2,3,8)              108.929          calculate D2E/DX2 analytically  !
 ! A6    A(2,3,9)              115.3297         calculate D2E/DX2 analytically  !
 ! A7    A(4,3,8)              108.7906         calculate D2E/DX2 analytically  !
 ! A8    A(4,3,9)              102.4783         calculate D2E/DX2 analytically  !
 ! A9    A(8,3,9)              102.6621         calculate D2E/DX2 analytically  !
 ! A10   A(3,4,5)              101.8787         calculate D2E/DX2 analytically  !
 ! A11   A(3,4,11)             110.624          calculate D2E/DX2 analytically  !
 ! A12   A(3,4,12)             110.0151         calculate D2E/DX2 analytically  !
 ! A13   A(5,4,11)             113.0057         calculate D2E/DX2 analytically  !
 ! A14   A(5,4,12)             112.9685         calculate D2E/DX2 analytically  !
 ! A15   A(11,4,12)            108.2423         calculate D2E/DX2 analytically  !
 ! A16   A(4,5,6)              102.7361         calculate D2E/DX2 analytically  !
 ! A17   A(4,5,13)             111.3783         calculate D2E/DX2 analytically  !
 ! A18   A(4,5,14)             112.5857         calculate D2E/DX2 analytically  !
 ! A19   A(6,5,13)             110.7218         calculate D2E/DX2 analytically  !
 ! A20   A(6,5,14)             112.028          calculate D2E/DX2 analytically  !
 ! A21   A(13,5,14)            107.431          calculate D2E/DX2 analytically  !
 ! A22   A(5,6,7)              108.1058         calculate D2E/DX2 analytically  !
 ! A23   A(5,6,9)              101.5064         calculate D2E/DX2 analytically  !
 ! A24   A(5,6,15)             115.2194         calculate D2E/DX2 analytically  !
 ! A25   A(7,6,9)               99.6269         calculate D2E/DX2 analytically  !
 ! A26   A(7,6,15)             113.9103         calculate D2E/DX2 analytically  !
 ! A27   A(9,6,15)             116.6842         calculate D2E/DX2 analytically  !
 ! A28   A(6,7,8)              103.9991         calculate D2E/DX2 analytically  !
 ! A29   A(6,7,16)             112.5855         calculate D2E/DX2 analytically  !
 ! A30   A(6,7,17)             112.8532         calculate D2E/DX2 analytically  !
 ! A31   A(8,7,16)             109.2499         calculate D2E/DX2 analytically  !
 ! A32   A(8,7,17)             109.5592         calculate D2E/DX2 analytically  !
 ! A33   A(16,7,17)            108.467          calculate D2E/DX2 analytically  !
 ! A34   A(3,8,7)              106.3501         calculate D2E/DX2 analytically  !
 ! A35   A(3,9,6)               91.8706         calculate D2E/DX2 analytically  !
 ! A36   A(3,9,18)             112.9761         calculate D2E/DX2 analytically  !
 ! A37   A(3,9,19)             112.6543         calculate D2E/DX2 analytically  !
 ! A38   A(6,9,18)             114.0466         calculate D2E/DX2 analytically  !
 ! A39   A(6,9,19)             114.2271         calculate D2E/DX2 analytically  !
 ! A40   A(18,9,19)            110.0876         calculate D2E/DX2 analytically  !
 ! D1    D(1,2,3,4)             33.1841         calculate D2E/DX2 analytically  !
 ! D2    D(1,2,3,8)            157.3916         calculate D2E/DX2 analytically  !
 ! D3    D(1,2,3,9)            -87.8555         calculate D2E/DX2 analytically  !
 ! D4    D(10,2,3,4)          -148.2942         calculate D2E/DX2 analytically  !
 ! D5    D(10,2,3,8)           -24.0867         calculate D2E/DX2 analytically  !
 ! D6    D(10,2,3,9)            90.6663         calculate D2E/DX2 analytically  !
 ! D7    D(2,3,4,5)           -163.9017         calculate D2E/DX2 analytically  !
 ! D8    D(2,3,4,11)           -43.5114         calculate D2E/DX2 analytically  !
 ! D9    D(2,3,4,12)            76.0309         calculate D2E/DX2 analytically  !
 ! D10   D(8,3,4,5)             71.8213         calculate D2E/DX2 analytically  !
 ! D11   D(8,3,4,11)          -167.7884         calculate D2E/DX2 analytically  !
 ! D12   D(8,3,4,12)           -48.2461         calculate D2E/DX2 analytically  !
 ! D13   D(9,3,4,5)            -36.3849         calculate D2E/DX2 analytically  !
 ! D14   D(9,3,4,11)            84.0054         calculate D2E/DX2 analytically  !
 ! D15   D(9,3,4,12)          -156.4523         calculate D2E/DX2 analytically  !
 ! D16   D(2,3,8,7)            158.0536         calculate D2E/DX2 analytically  !
 ! D17   D(4,3,8,7)            -72.7525         calculate D2E/DX2 analytically  !
 ! D18   D(9,3,8,7)             35.3286         calculate D2E/DX2 analytically  !
[...]
 724451,-0.00069518,-0.06992405,0.01581523,0.00576641,0.52212558,0.0012
 1067,0.00136211,-0.00373171,0.00513434,-0.01748028,0.00142086,0.016119
 22,-0.14243538,-0.02480656,0.10391608,0.45999599,0.00103639,-0.0017749
 2,-0.00180509,-0.00483144,0.01839943,0.01321000,0.00362230,-0.01119769
 ,-0.07549708,-0.05344731,0.01891790,0.55555502,0.00058082,-0.00101999,
 -0.00039649,-0.00074341,0.00097890,0.00207955,-0.01424450,0.01722571,-
 0.00915537,-0.10969618,0.01139034,-0.03602309,0.54337109,-0.00014609,0
 .00075823,0.00025853,0.00058137,-0.00392217,-0.00358446,0.02058846,-0.
 02166014,0.01821479,0.01051345,-0.07345363,0.01540702,-0.00594955,0.54
 895184,0.00011626,-0.00009129,0.00062883,-0.00135182,-0.00062314,-0.00
 068777,-0.00232817,0.01073714,0.00327198,-0.02990630,0.01656929,-0.112
 88365,-0.08775119,-0.06890082,0.43586187,0.00085394,0.00067247,-0.0014
 9629,-0.00323152,-0.00426081,0.00293510,-0.02550058,0.01368391,-0.0328
 8654,-0.00411962,-0.01221428,-0.01976501,-0.07883084,0.00454955,0.0022
 8342,0.57050605,-0.00029448,0.00031381,-0.00186655,0.00148667,-0.00280
 804,0.00161637,0.01155836,0.00488243,0.00789616,-0.00896209,0.00190694
 ,-0.00549179,0.00126874,-0.12590385,-0.04233088,-0.01299577,0.40001453
 ,0.00026259,0.00098155,-0.00049270,-0.00209901,-0.00357039,-0.00113217
 ,-0.03479809,0.00963811,-0.02617068,-0.01038765,-0.01426840,-0.0264045
 3,0.00201694,-0.03934318,-0.10204705,0.13062147,0.01279251,0.53528921,
 0.00168657,-0.00015664,0.00261495,-0.00522643,-0.00096377,0.00160906,0
 .01740407,-0.00219902,-0.00376999,-0.00077977,-0.00146286,0.00276113,-
 0.00364496,0.00626093,0.00952720,-0.14074716,0.00126204,0.04649145,0.4
 0098241,0.00080229,-0.00002997,0.00037229,-0.00212482,-0.00016185,0.00
 353022,-0.00309697,-0.00931820,0.01374108,0.00140945,0.00097645,-0.001
 97337,0.02675854,-0.00403233,-0.01801093,0.00217654,-0.07473840,-0.006
 47553,0.04659551,0.60010343,-0.00050129,0.00097021,0.00130519,0.002144
 42,-0.00229888,-0.00389568,-0.00766807,0.01690418,-0.05681795,-0.00113
 068,-0.00083916,0.00212928,0.02261864,-0.00457300,-0.01371393,0.033035
 62,-0.00599588,-0.09649475,-0.07238002,0.01593834,0.54702853,-0.001753
 20,0.00169190,-0.00492979,0.00842929,-0.00052575,-0.00943770,-0.125890
 73,0.01153740,0.03077575,-0.01147887,0.00403571,0.02223183,0.00291389,
 -0.00197722,-0.00016068,-0.04300519,0.00558475,-0.02744046,-0.12113249
 ,0.00860540,-0.02089814,0.33586701,0.00244174,-0.00059155,0.00309694,-
 0.01167545,-0.00100599,0.01740292,0.00039734,-0.05981734,0.00584375,0.
 01786181,0.00458012,-0.02687535,-0.00187862,0.00143933,-0.00013275,0.0
 0712965,-0.00180345,0.01022716,0.02355883,-0.06586472,0.01723221,-0.02
 761373,0.10656531,-0.00661573,0.00455661,-0.00463763,0.02626831,0.0039
 4225,-0.03509072,0.06754265,0.00618017,-0.12497969,0.02197799,-0.00240
 965,-0.02917632,-0.00286991,0.00037919,-0.00110973,-0.01406966,0.00235
 352,-0.00524784,-0.05513855,0.01704243,-0.12539035,-0.01213006,-0.0559
 6115,0.37545838,-0.00082653,-0.00020520,0.00573563,-0.01295823,0.00061
 711,-0.01526436,-0.10231206,-0.02530893,-0.01853761,0.00296972,-0.0062
 6855,-0.00446853,0.00182268,0.00782435,-0.00301178,-0.06807584,0.00729
 488,-0.00037798,-0.00992628,-0.02309954,0.01857432,-0.04241808,-0.0216
 5794,0.01749056,0.48276675,-0.00111936,-0.00185713,0.00391407,0.011542
 82,0.01277435,-0.00061220,-0.01242281,-0.07490321,-0.01180350,-0.02359
 867,-0.02929228,-0.01127869,-0.00548787,-0.04293386,0.01061466,0.00828
 982,-0.11491255,0.03913288,-0.01167517,-0.00363790,0.00792911,-0.00624
 750,-0.00005314,0.00501740,0.01174046,0.56929816,0.00071361,0.00177845
 ,0.00083845,-0.01630492,-0.00811432,-0.00922383,-0.03164029,-0.0223981
 3,-0.07319100,-0.01269890,-0.01746149,-0.00316452,-0.00183517,-0.00875
 767,0.00813866,-0.00169552,0.04083262,-0.10526740,0.01989758,0.0246862
 4,-0.01928290,0.02791727,0.01568287,-0.00948945,-0.14401468,0.06432474
 ,0.48746488,0.00873511,0.00821740,0.02072386,-0.16000317,0.09239355,0.
 03744314,-0.00114170,0.02184284,0.01214640,-0.00145068,-0.00060648,-0.
 00357621,-0.00018953,0.00095890,0.00054680,0.00064667,0.00045797,0.000
 32314,0.00004078,-0.00000847,-0.00037499,0.00145448,-0.00182809,-0.001
 28180,0.00084115,-0.00137074,0.00115792,0.15171660,0.00561135,0.016965
 61,-0.01218428,0.09193717,-0.14800144,-0.03712146,0.02081940,0.0001158
 4,-0.00705936,0.00110515,0.00016554,0.00181213,0.00025923,-0.00035433,
 0.00007205,0.00129466,0.00039869,0.00039975,0.00028511,0.00011185,0.00
 037435,-0.00169256,0.00141100,-0.00204541,0.00035820,-0.00352456,0.001
 77301,-0.11981999,0.13270306,0.03415178,-0.02470087,-0.03287080,0.0428
 3246,-0.04355014,-0.07530626,-0.00886273,0.01525603,0.00738439,-0.0008
 5360,0.00062197,-0.00293110,-0.00040387,0.00089794,0.00003725,0.000148
 36,0.00032199,0.00035366,-0.00007289,-0.00046052,-0.00013960,-0.000542
 92,-0.00086285,0.00267175,0.00025081,-0.00075076,0.00027559,-0.0661758
 3,0.05309782,0.10063466,0.00037493,-0.00095528,-0.00156914,-0.00004893
 ,-0.00035285,0.00243188,-0.00561937,-0.00303342,0.00766100,-0.09361513
 ,-0.00617516,0.10288577,0.00775532,0.00048989,-0.02110306,-0.00193954,
 0.00137120,-0.00210991,-0.00131753,0.00053653,-0.00103907,-0.00040341,
 0.00379119,0.00371456,0.00012356,-0.00021137,-0.00020868,0.00016580,-0
 .00008512,-0.00016053,0.10303881,-0.00083484,-0.00010844,0.00149398,0.
 00013416,0.00137413,-0.00181616,0.01130614,0.00597704,-0.02391799,-0.0
 0832493,-0.05026829,0.01165034,-0.00422821,-0.00128195,0.00845218,0.00
 005941,-0.00095590,0.00019254,0.00107476,-0.00079758,0.00159433,0.0044
 1491,-0.00521454,-0.00635922,-0.00048030,0.00093128,0.00038666,-0.0000
 5096,0.00032038,0.00005640,0.00543345,0.04874748,-0.00119711,0.0013590
 1,0.00078221,0.00012537,-0.00006827,-0.00172520,0.00437891,0.00065628,
 -0.00712456,0.10355691,0.00960485,-0.26637910,0.00745142,0.00091375,-0
 .01527153,-0.00203100,0.00113732,-0.00137282,0.00021929,0.00007262,0.0
 0092448,0.00049091,-0.00171505,-0.00040256,0.00020914,0.00034465,-0.00
 016744,0.00007790,-0.00004541,0.00004899,-0.11045441,-0.01085204,0.288
 31474,0.00026622,-0.00015249,-0.00003820,0.00030190,-0.00034099,0.0003
 9758,0.00830025,0.00799100,0.00079392,-0.21393690,-0.13248693,-0.00558
 972,-0.01405868,-0.01002498,0.00112718,-0.00119889,0.00048189,-0.00052
 501,-0.00033639,-0.00033713,0.00011517,0.00155001,-0.00012565,-0.00127
 089,-0.00051320,0.00205672,0.00068794,-0.00004583,-0.00012536,-0.00005
 577,-0.01006427,-0.00845631,-0.00093646,0.22846623,0.00009110,0.000120
 83,0.00115082,-0.00096592,0.00062406,-0.00236888,-0.02381908,-0.020842
 96,0.00017107,-0.12993139,-0.14654504,-0.00524021,0.00999270,0.0060077
 3,0.00111129,0.00098162,-0.00053353,0.00095640,-0.00044185,0.00022624,
 -0.00057445,0.00007139,0.00415183,0.00278758,0.00233406,-0.00572476,-0
 .00199976,0.00018718,-0.00015942,0.00016529,-0.00001423,0.00017827,0.0
 0000865,0.14104356,0.16122210,-0.00060239,-0.00003795,0.00001467,0.000
 24941,0.00025909,-0.00020710,-0.00521332,-0.00627788,-0.00180386,-0.00
 372626,-0.00237156,-0.04695685,-0.01618519,-0.01277712,-0.00087765,-0.
 00178624,0.00021407,-0.00146946,-0.00083955,-0.00029975,-0.00054730,-0
 .00047800,0.00096293,0.00156590,0.00034984,-0.00152787,-0.00090004,0.0
 0002578,0.00002262,0.00003976,0.02240536,0.01891841,0.00205931,0.00759
 479,0.00406853,0.04990864,0.00006233,0.00004317,-0.00034096,0.00006384
 ,0.00023566,0.00089576,-0.00126958,-0.00024457,-0.00219982,-0.01670086
 ,0.00133809,0.00579207,-0.26708999,0.02851723,0.09456297,0.00187532,-0
 .00071305,-0.00069355,0.00082413,-0.00050596,0.00015260,0.00081046,-0.
 00022532,0.00016214,-0.00011003,-0.00012315,0.00015277,-0.00023243,0.0
 0012500,-0.00013646,0.00207247,-0.00034419,0.00026120,-0.00144080,0.00
 171280,-0.00170628,0.28780557,-0.00010060,0.00003107,0.00020811,0.0001
 6375,-0.00023325,-0.00045572,0.00091583,-0.00072713,0.00053473,0.00540
 048,-0.00115935,-0.00147560,0.02720584,-0.05331300,-0.01040973,0.02419
 831,-0.00311279,-0.00985769,-0.00125638,-0.00446244,-0.00260485,-0.000
 66048,0.00021256,0.00070184,0.00053017,0.00154562,-0.00066779,0.000138
 83,-0.00005637,0.00008269,0.00004048,0.00131451,-0.00012947,0.00035108
 ,-0.00014604,-0.00010892,-0.03206208,0.05469657,0.00008350,-0.00002528
 ,-0.00010661,0.00001437,0.00033041,0.00064909,-0.00180765,0.00009179,-
 0.00284361,-0.02354835,0.00362726,0.00711055,0.09429251,-0.01159407,-0
 .08360771,0.02023681,-0.00136261,-0.00920140,-0.00103196,-0.00428747,-
 0.00343348,0.00017657,0.00004395,0.00096288,-0.00024119,0.00087173,0.0
 0048292,-0.00024662,0.00011606,-0.00013319,0.00028752,-0.00049995,0.00
 200050,-0.00256192,0.00122561,-0.00169259,-0.09999846,0.01332104,0.094
 78143,-0.00002620,0.00004740,-0.00001762,-0.00018036,0.00064240,0.0005
 1321,-0.00108947,0.00141540,-0.00258070,0.00472891,0.01747972,-0.00999
 242,-0.06629757,-0.05997681,0.03530206,-0.00117887,0.00022871,0.001054
 25,0.00054449,0.00172785,-0.00061567,0.00000025,0.00003532,0.00049182,
 -0.00043069,0.00007887,-0.00060541,-0.00028325,0.00009257,-0.00019197,
 -0.00108321,0.00119361,-0.00149690,0.00167255,-0.00013066,0.00041312,-
 0.00780993,-0.02543832,0.01373188,0.07093420,-0.00000974,-0.00000104,0
 .00017666,-0.00002249,-0.00000819,-0.00053279,-0.00072639,-0.00050258,
 0.00068702,-0.00186891,-0.00286481,0.00083426,-0.05715378,-0.23110845,
 0.10531028,-0.00504197,-0.01958776,0.01198085,-0.00159263,0.00043784,0
 .00231802,0.00033987,0.00046871,-0.00069325,0.00043940,-0.00412514,-0.
 00385658,0.00007336,-0.00008759,0.00008179,0.00046212,-0.00017551,-0.0
 0028452,0.00025878,0.00112035,-0.00015557,0.00097872,0.00405000,-0.001
 97982,0.06268980,0.25216882,-0.00016229,0.00015467,0.00005721,0.000070
 39,0.00041445,0.00032780,-0.00060156,0.00025692,-0.00266408,0.00618955
 ,0.01654038,-0.01061548,0.03465764,0.10665311,-0.10683127,-0.00468844,
 -0.01777725,0.01060958,-0.00133418,-0.00029942,0.00152750,0.00005992,-
 0.00002299,0.00043211,0.00026748,-0.00395801,-0.00269501,-0.00024773,0
 .00011923,-0.00012543,-0.00227412,0.00132010,-0.00165744,0.00036353,-0
 .00062610,0.00155097,0.00345341,0.01084026,-0.00578863,-0.03565983,-0.
 11359616,0.11447332,-0.00002664,0.00000359,-0.00021060,0.00008783,0.00
 020731,0.00003318,-0.00154856,-0.00042433,0.00294619,0.00108368,0.0007
 4451,0.00087432,0.00266441,0.00031855,0.00318323,-0.20438379,-0.012193
 17,-0.13186863,-0.01373898,-0.00109737,-0.01997145,-0.00548552,0.00119
 690,-0.00180342,0.00175754,-0.00001381,0.00265264,0.00002730,-0.000100
 98,-0.00003655,0.00008798,-0.00009845,0.00013138,0.00011713,-0.0000310
 6,0.00016193,0.00059133,-0.00050173,-0.00025209,-0.00006911,-0.0002719
 5,-0.00023153,0.21798628,-0.00020222,-0.00021072,0.00091504,0.00050151
 ,0.00183604,-0.00113010,0.00338138,-0.00407352,0.00379875,0.00058472,-
 0.00384364,-0.00269373,-0.01957098,0.00129302,-0.01512538,-0.01317615,
 -0.04738421,-0.01127535,-0.00038410,-0.00154992,-0.00018348,0.00056288
 ,0.00066193,0.00173607,0.01871126,0.00338205,0.01253647,-0.00022398,-0
 .00039609,-0.00008400,-0.00069825,0.00018925,-0.00060268,-0.00054181,0
 .00033586,-0.00066441,0.00056316,0.00119451,0.00079293,-0.00016758,-0.
 00020317,0.00052981,0.01143089,0.04756913,0.00005855,0.00037797,-0.000
 45106,-0.00055361,-0.00119895,0.00069066,-0.00026989,0.00192956,-0.005
 08362,-0.00054049,-0.00151312,-0.00142593,-0.01127716,0.00160322,-0.00
 899023,-0.13224918,-0.01042117,-0.15915338,0.00968759,0.00063970,0.011
 09633,0.00537081,-0.00098575,0.00191822,-0.01283743,-0.00372639,-0.009
 51215,-0.00006827,0.00045620,-0.00010097,-0.00053733,-0.00008138,-0.00
 036036,-0.00028998,0.00006520,-0.00055943,0.00038073,0.00043424,0.0003
 4880,-0.00001157,-0.00035741,0.00012844,0.14379241,0.01263953,0.170471
 13,-0.00012268,0.00016017,-0.00021182,0.00045609,-0.00039212,-0.000148
 35,-0.00425101,-0.00203990,0.00140304,0.00038757,-0.00000656,-0.001121
 50,-0.00601297,-0.00138840,0.00241005,0.00063588,0.02324383,0.02018522
 ,-0.05139417,0.01097483,0.01885442,0.00043944,-0.00838664,-0.02624565,
 0.00131849,0.00085910,-0.00062483,-0.00001494,-0.00001667,0.00002186,0
 .00027881,-0.00031009,-0.00004324,0.00010528,0.00007057,0.00016478,0.0
 0001079,0.00161521,0.00155322,-0.00005368,-0.00013698,-0.00023371,0.00
 104602,-0.00004775,-0.00095539,0.05382427,0.00002377,-0.00004413,-0.00
 001890,-0.00009866,0.00012025,0.00018900,0.00065837,0.00010183,0.00180
 948,0.00008041,-0.00027103,0.00040446,0.00119682,0.00029345,0.00015290
 ,-0.00062629,-0.00137989,0.00063057,0.01122860,-0.18438718,-0.12489168
 ,-0.00128388,0.01356883,0.00909500,-0.00024992,0.00059461,-0.00004817,
 0.00001552,-0.00001812,0.00002935,-0.00011074,0.00005108,-0.00002778,0
 .00002813,0.00002869,0.00005300,0.00007981,0.00015755,-0.00050079,-0.0
 0008766,0.00062192,0.00005819,0.00063846,0.00026058,-0.00015574,-0.014
 15386,0.19053133,-0.00024902,0.00038538,-0.00062692,0.00094021,-0.0008
 3579,0.00005020,-0.00464867,-0.00228163,0.00057122,0.00032445,0.000704
 57,-0.00042363,0.00233552,0.00077486,0.00031974,0.00112190,-0.00852452
 ,-0.00630474,0.01637792,-0.12164916,-0.16334667,-0.00833092,-0.0076428
 1,-0.03023249,-0.00025916,-0.00083989,0.00026874,-0.00011273,0.0000496
 3,0.00003312,0.00025005,-0.00029000,-0.00011866,-0.00007230,0.00015305
 ,0.00004956,-0.00014240,-0.00062172,-0.00031002,-0.00003271,-0.0001685
 4,0.00012840,0.00045425,0.00009848,0.00054090,-0.00898124,0.13287511,0
 .19013446,-0.00027294,0.00004076,-0.00054204,0.00098525,0.00024975,-0.
 00063284,-0.00303553,0.00259759,0.00060819,0.00011454,-0.00000172,0.00
 019968,0.00146650,-0.00184586,-0.00137667,-0.00625783,-0.02541983,0.01
 174433,-0.07173502,-0.07095187,0.03197436,0.00396049,0.01968643,-0.018
 21947,-0.00599599,0.00080560,0.00244781,-0.00001546,-0.00015217,0.0001
 0612,0.00000565,-0.00002846,-0.00002358,0.00005194,0.00003195,0.000028
 68,0.00019623,0.00001890,-0.00047976,0.00014979,0.00118468,0.00008557,
 -0.00027395,0.00013019,-0.00030490,0.00327288,0.00283632,0.00066879,0.
 07649219,0.00013203,-0.00006033,0.00047148,-0.00059745,0.00016258,-0.0
 0014779,0.00155615,-0.00129318,-0.00207028,0.00008952,-0.00042141,0.00
 013434,0.00080365,0.00106697,-0.00088815,0.00090053,0.00244116,-0.0023
 3999,-0.06999358,-0.24900012,0.07732119,0.00492466,-0.00024310,0.01123
 582,0.00051369,0.00043082,-0.00084748,0.00000017,0.00004307,-0.0000920
 2,-0.00012350,0.00008582,0.00003636,0.00010496,0.00002232,-0.00005215,
 0.00008272,0.00033905,-0.00019054,-0.00016605,0.00063543,0.00042017,-0
 .00055764,-0.00013910,0.00045520,-0.00931552,-0.02051844,0.00684336,0.
 07175275,0.26584876,-0.00046161,0.00018242,-0.00087822,0.00142682,-0.0
 0029253,-0.00067198,-0.00332147,0.00364866,0.00080774,-0.00000837,0.00
 034964,-0.00015144,-0.00004904,0.00169533,0.00044541,0.00529517,0.0084
 0058,-0.00354387,0.02762576,0.07245260,-0.07930812,0.00120986,0.023771
 44,-0.02035430,0.00118585,-0.00012075,-0.00106731,0.00000972,-0.000075
 05,0.00017766,0.00004496,-0.00021635,0.00000426,-0.00005151,-0.0000973
 8,-0.00018262,-0.00015351,-0.00023170,0.00028835,0.00012326,-0.0009001
 2,0.00005464,0.00074570,0.00010961,-0.00034463,-0.00591264,-0.01943996
 ,0.00915781,-0.02762509,-0.08998979,0.09576721,0.00105988,0.00027691,-
 0.00163694,0.00012540,-0.00078998,0.00283341,-0.01453692,0.00196480,0.
 01760775,0.00070084,0.00082330,0.00040863,0.00029683,-0.00025795,0.000
 08904,0.00615318,0.00065392,-0.00593437,-0.00195684,0.00268291,-0.0033
 4966,-0.00589831,-0.00499540,0.00277415,-0.19315952,-0.00874316,0.1333
 7690,0.00005191,-0.00012226,0.00001800,0.00015449,-0.00047982,-0.00062
 990,0.00009073,0.00038996,-0.00027372,0.00009222,-0.00015580,0.0000188
 8,0.00001147,-0.00006397,-0.00014849,0.00019072,-0.00067382,0.00033514
 ,-0.00019748,0.00022331,0.00025912,0.00097335,-0.00012170,0.00004668,0
 .20789561,-0.00014391,-0.00009735,0.00001803,0.00035462,-0.00015370,-0
 .00036122,-0.00304295,-0.00153481,0.00618690,-0.00040712,-0.00001800,-
 0.00022586,-0.00057285,0.00118754,0.00063372,-0.01715004,-0.00084543,0
 .01142678,-0.00106476,-0.00364539,0.00228851,-0.00164732,0.00011218,0.
 00190026,-0.00661243,-0.05023105,0.00262587,-0.00000733,0.00009926,0.0
 0003973,-0.00044297,-0.00037383,-0.00030988,0.00019567,0.00018500,0.00
 006509,0.00039552,-0.00044296,0.00004516,0.00026179,0.00027714,-0.0001
 0340,0.00041917,0.00059838,-0.00038700,-0.00019017,0.00002722,0.000322
 64,-0.00112433,0.00029980,0.00049344,0.00976812,0.05222586,0.00042726,
 0.00003988,-0.00021459,0.00026944,-0.00015199,0.00116914,-0.00899900,0
 .00036674,0.00809330,0.00009979,0.00021719,0.00031283,0.00006323,-0.00
 124756,0.00040501,0.01692041,-0.00042605,-0.01305557,-0.00164593,0.004
 61355,-0.00296582,-0.00476439,-0.00198817,0.00228313,0.13611407,0.0044
 0505,-0.16699988,-0.00002069,-0.00004541,-0.00000943,-0.00022255,-0.00
 034970,0.00015130,-0.00005857,0.00020608,-0.00000409,-0.00034661,0.000
 42977,0.00054733,-0.00041629,-0.00010937,-0.00004552,-0.00030851,-0.00
 054934,0.00020701,-0.00030966,0.00000022,0.00030403,0.00160439,-0.0001
 1571,-0.00008120,-0.14745921,-0.00679525,0.17767669,-0.00017455,0.0002
 2446,-0.00013070,0.00141702,-0.00093229,0.00057372,0.00445238,-0.02313
 030,-0.01050480,-0.00446005,-0.00296945,-0.00099689,-0.00006291,0.0009
 6418,-0.00215855,-0.00220136,0.00568543,0.00353529,0.00045358,-0.00104
 771,0.00045951,0.00204048,0.00228764,-0.00077704,-0.05487342,0.0356402
 2,0.02062397,-0.00030282,0.00022725,-0.00003629,0.00003355,0.00002012,
 -0.00008983,0.00067273,-0.00157269,-0.00058274,0.00024892,-0.00040348,
 -0.00022725,0.00046070,0.00046211,0.00043439,-0.00011367,-0.00017935,0
 .00026997,0.00027141,-0.00039854,0.00009693,-0.00008211,0.00001461,-0.
 00013054,-0.00204756,0.02101131,0.00905284,0.05426768,-0.00006227,0.00
 024528,-0.00040220,0.00022186,-0.00051518,0.00076270,0.00214208,-0.006
 40712,-0.00287893,-0.00064244,-0.00093400,0.00066731,-0.00121861,-0.00
 303440,0.00285956,0.00152884,-0.01599177,-0.01122858,0.00092497,-0.000
 22981,-0.00090907,-0.00012043,0.00142201,0.00054053,0.03351924,-0.2577
 6132,-0.10047551,-0.00036969,0.00026362,-0.00014983,0.00007803,0.00000
 679,-0.00009838,0.00007984,-0.00027153,-0.00029053,0.00014647,0.000111
 88,-0.00002542,0.00007366,-0.00111599,-0.00092397,0.00033109,0.0004796
 0,0.00022611,-0.00053905,0.00026146,0.00064698,0.00018930,0.00029990,0
 .00025991,-0.00037938,0.00233014,0.00150009,-0.03590352,0.28084046,-0.
 00027979,0.00041568,-0.00044470,0.00114080,-0.00135337,0.00069418,0.00
 343292,-0.01235891,-0.00846981,-0.00371698,-0.00117226,-0.00050298,0.0
 0043104,0.00398014,-0.00308822,-0.00193038,0.01863157,0.01110588,-0.00
 059886,0.00036707,0.00132523,0.00088014,0.00192269,0.00081871,0.018835
 02,-0.10193621,-0.09650830,-0.00034978,0.00028353,-0.00004003,-0.00000
 228,0.00031785,0.00029388,0.00037023,-0.00116279,0.00001218,-0.0000956
 1,0.00001053,-0.00005462,-0.00000852,0.00124526,0.00113291,-0.00029244
 ,-0.00084823,0.00058026,0.00019544,-0.00021426,-0.00019503,-0.00026355
 ,-0.00018402,-0.00011938,0.00166460,-0.01786352,-0.00777366,-0.0194119
 9,0.10991923,0.10123352\\0.00000242,0.00001109,0.00000097,-0.00000452,
 0.00000368,0.00000673,0.00001032,0.00000589,0.00000002,0.00000237,0.00
 000333,-0.00000939,0.00000502,0.00000416,-0.00000588,0.00000328,-0.000
 00903,0.00000460,-0.00001635,-0.00000490,-0.00001028,0.00000518,-0.000
 00945,0.00000112,-0.00001665,0.00000059,0.00001581,-0.00000277,-0.0000
 0155,0.00000294,0.00000899,0.00001029,-0.00000358,0.00000883,0.0000011
 2,-0.00001199,0.00000442,0.00000585,-0.00000359,0.00000530,-0.00000290
 ,-0.00001085,-0.00000425,-0.00000273,0.00000305,-0.00000520,-0.0000142
 8,0.00000441,-0.00000025,-0.00001289,-0.00000823,-0.00000155,0.0000095
 6,0.00001176,-0.00000461,0.00000217,0.00001240\\\@


 A BIRD IN THE HAND IS SAFER THAN ONE OVERHEAD.

                       -- NEWTON'S SEVENTH LAW
 Job cpu time:       0 days  0 hours 46 minutes 46.9 seconds.
 File lengths (MBytes):  RWF=    152 Int=      0 D2E=      0 Chk=      8 Scr=      1
 Normal termination of Gaussian 09 at Mon Jan 27 14:02:57 2020.
