 Entering Gaussian System, Link 0=/home/puck/opt/gaussian_09/g09
 Input=dsC7O2H10nsd_5284.com
 Output=dsC7O2H10nsd_5284.log
 Initial command:
 /home/puck/opt/gaussian_09/l1.exe "/scratch/puck/g09_3743536d-ba34-4600-ad02-d8e5ff0e0cde/Gau-25493.inp" -scrdir="/scratch/puck/g09_3743536d-ba34-4600-ad02-d8e5ff0e0cde/"
 Entering Link 1 = /home/puck/opt/gaussian_09/l1.exe PID=     25497.
  
 Copyright (c) 1988,1990,1992,1993,1995,1998,2003,2009,2013,
            Gaussian, Inc.  All Rights Reserved.
  
 This is part of the Gaussian(R) 09 program.  It is based on
 the Gaussian(R) 03 system (copyright 2003, Gaussian, Inc.),
 the Gaussian(R) 98 system (copyright 1998, Gaussian, Inc.),
 the Gaussian(R) 94 system (copyright 1995, Gaussian, Inc.),
 the Gaussian 92(TM) system (copyright 1992, Gaussian, Inc.),
 the Gaussian 90(TM) system (copyright 1990, Gaussian, Inc.),
 the Gaussian 88(TM) system (copyright 1988, Gaussian, Inc.),
 the Gaussian 86(TM) system (copyright 1986, Carnegie Mellon
 University), and the Gaussian 82(TM) system (copyright 1983,
 Carnegie Mellon University). Gaussian is a federally registered
 trademark of Gaussian, Inc.
  
 This software contains proprietary and confidential information,
 including trade secrets, belonging to Gaussian, Inc.
  
 This software is provided under written license and may be
 used, copied, transmitted, or stored only in accord with that
 written license.
  
 The following legend is applicable only to US Government
 contracts under FAR:
  
                    RESTRICTED RIGHTS LEGEND
  
 Use, reproduction and disclosure by the US Government is
 subject to restrictions as set forth in subparagraphs (a)
 and (c) of the Commercial Computer Software - Restricted
 Rights clause in FAR 52.227-19.
  
 Gaussian, Inc.
 340 Quinnipiac St., Bldg. 40, Wallingford CT 06492
  
  
 ---------------------------------------------------------------
 Warning -- This program may not be used in any manner that
 competes with the business of Gaussian, Inc. or will provide
 assistance to any competitor of Gaussian, Inc.  The licensee
 of this program is prohibited from giving any competitor of
 Gaussian, Inc. access to this program.  By using this program,
 the user acknowledges that Gaussian, Inc. is engaged in the
 business of creating and licensing software in the field of
 computational chemistry and represents and warrants to the
 licensee that it is not a competitor of Gaussian, Inc. and that
 it will not use this program in any manner prohibited above.
 ---------------------------------------------------------------
  

 Cite this work as:
 Gaussian 09, Revision D.01,
 M. J. Frisch, G. W. Trucks, H. B. Schlegel, G. E. Scuseria, 
 M. A. Robb, J. R. Cheeseman, G. Scalmani, V. Barone, B. Mennucci, 
 G. A. Petersson, H. Nakatsuji, M. Caricato, X. Li, H. P. Hratchian, 
 A. F. Izmaylov, J. Bloino, G. Zheng, J. L. Sonnenberg, M. Hada, 
 M. Ehara, K. Toyota, R. Fukuda, J. Hasegawa, M. Ishida, T. Nakajima, 
 Y. Honda, O. Kitao, H. Nakai, T. Vreven, J. A. Montgomery, Jr., 
 J. E. Peralta, F. Ogliaro, M. Bearpark, J. J. Heyd, E. Brothers, 
 K. N. Kudin, V. N. Staroverov, T. Keith, R. Kobayashi, J. Normand, 
 K. Raghavachari, A. Rendell, J. C. Burant, S. S. Iyengar, J. Tomasi, 
 M. Cossi, N. Rega, J. M. Millam, M. Klene, J. E. Knox, J. B. Cross, 
 V. Bakken, C. Adamo, J. Jaramillo, R. Gomperts, R. E. Stratmann, 
 O. Yazyev, A. J. Austin, R. Cammi, C. Pomelli, J. W. Ochterski, 
 R. L. Martin, K. Morokuma, V. G. Zakrzewski, G. A. Voth, 
 P. Salvador, J. J. Dannenberg, S. Dapprich, A. D. Daniels, 
 O. Farkas, J. B. Foresman, J. V. Ortiz, J. Cioslowski, 
 and D. J. Fox, Gaussian, Inc., Wallingford CT, 2013.
 
 ******************************************
 Gaussian 09:  ES64L-G09RevD.01 24-Apr-2013
                28-Jan-2020 
 ******************************************
 -----------------------------
 # b3lyp 6-31G(2df,p) opt Freq
 -----------------------------
 1/14=-1,18=20,19=15,26=3,38=1/1,3;
 2/9=110,12=2,17=6,18=5,40=1/2;
 3/5=1,6=6,7=104,11=2,16=1,25=1,30=1,71=1,74=-5/1,2,3;
 4//1;
 5/5=2,38=5/2;
 6/7=2,8=2,9=2,10=2,28=1/1;
 7//1,2,3,16;
 1/14=-1,18=20,19=15,26=3/3(2);
 2/9=110/2;
 99//99;
 2/9=110/2;
 3/5=1,6=6,7=104,11=2,16=1,25=1,30=1,71=1,74=-5/1,2,3;
 4/5=5,16=3,69=1/1;
 5/5=2,38=5/2;
 7//1,2,3,16;
 1/14=-1,18=20,19=15,26=3/3(-5);
 2/9=110/2;
 6/7=2,8=2,9=2,10=2,19=2,28=1/1;
 99/9=1/99;
 -----
 titel
 -----
 Symbolic Z-matrix:
 Charge =  0 Multiplicity = 1
 O                     1.343     0.02661   0.53198 
 C                     0.14264  -0.4063   -0.0557 
 C                    -0.34308   0.33546  -1.2832 
 C                    -1.76021   0.08131  -1.83399 
 C                    -1.20875   0.23897  -3.28873 
 C                     0.1694    0.51819  -2.69517 
 C                     0.08804   1.72774  -1.75986 
 C                     1.39979   2.29942  -1.38031 
 O                     2.45727   1.70247  -1.37856 
 H                     1.99738   0.17137  -0.16396 
 H                     0.17703  -1.48015  -0.31415 
 H                    -0.62779  -0.30366   0.7206 
 H                    -2.10591  -0.9346   -1.62606 
 H                    -2.53332   0.78475  -1.51021 
 H                    -1.2497   -0.69727  -3.84983 
 H                    -1.64158   1.03428  -3.90326 
 H                     1.13901   0.26856  -3.10966 
 H                    -0.68934   2.47429  -1.91324 
 H                     1.37362   3.38183  -1.13345 
 

 GradGradGradGradGradGradGradGradGradGradGradGradGradGradGradGradGradGrad
 Berny optimization.
 Initialization pass.
                           ----------------------------
                           !    Initial Parameters    !
                           ! (Angstroms and Degrees)  !
 --------------------------                            --------------------------
 ! Name  Definition              Value          Derivative Info.                !
 --------------------------------------------------------------------------------
 ! R1    R(1,2)                  1.4049         estimate D2E/DX2                !
 ! R2    R(1,10)                 0.9662         estimate D2E/DX2                !
 ! R3    R(2,3)                  1.5142         estimate D2E/DX2                !
 ! R4    R(2,11)                 1.105          estimate D2E/DX2                !
 ! R5    R(2,12)                 1.0985         estimate D2E/DX2                !
 ! R6    R(3,4)                  1.5415         estimate D2E/DX2                !
 ! R7    R(3,6)                  1.5132         estimate D2E/DX2                !
 ! R8    R(3,7)                  1.5335         estimate D2E/DX2                !
 ! R9    R(4,5)                  1.5637         estimate D2E/DX2                !
 ! R10   R(4,13)                 1.0931         estimate D2E/DX2                !
 ! R11   R(4,14)                 1.0942         estimate D2E/DX2                !
 ! R12   R(5,6)                  1.5263         estimate D2E/DX2                !
 ! R13   R(5,15)                 1.0923         estimate D2E/DX2                !
 ! R14   R(5,16)                 1.0943         estimate D2E/DX2                !
 ! R15   R(6,7)                  1.5312         estimate D2E/DX2                !
 ! R16   R(6,17)                 1.0836         estimate D2E/DX2                !
 ! R17   R(7,8)                  1.4804         estimate D2E/DX2                !
 ! R18   R(7,18)                 1.0887         estimate D2E/DX2                !
 ! R19   R(8,9)                  1.2143         estimate D2E/DX2                !
 ! R20   R(8,19)                 1.1105         estimate D2E/DX2                !
 ! A1    A(2,1,10)             108.8778         estimate D2E/DX2                !
 ! A2    A(1,2,3)              117.5314         estimate D2E/DX2                !
 ! A3    A(1,2,11)             111.759          estimate D2E/DX2                !
 ! A4    A(1,2,12)             105.9523         estimate D2E/DX2                !
 ! A5    A(3,2,11)             107.2422         estimate D2E/DX2                !
 ! A6    A(3,2,12)             107.5849         estimate D2E/DX2                !
 ! A7    A(11,2,12)            106.1354         estimate D2E/DX2                !
 ! A8    A(2,3,4)              120.2502         estimate D2E/DX2                !
 ! A9    A(2,3,6)              134.9868         estimate D2E/DX2                !
 ! A10   A(2,3,7)              127.341          estimate D2E/DX2                !
 ! A11   A(4,3,6)               89.8771         estimate D2E/DX2                !
 ! A12   A(4,3,7)              107.2826         estimate D2E/DX2                !
 ! A13   A(3,4,5)               89.5175         estimate D2E/DX2                !
 ! A14   A(3,4,13)             112.0866         estimate D2E/DX2                !
 ! A15   A(3,4,14)             115.9645         estimate D2E/DX2                !
 ! A16   A(5,4,13)             112.4702         estimate D2E/DX2                !
 ! A17   A(5,4,14)             117.362          estimate D2E/DX2                !
 ! A18   A(13,4,14)            108.5267         estimate D2E/DX2                !
 ! A19   A(4,5,6)               88.5723         estimate D2E/DX2                !
 ! A20   A(4,5,15)             112.2255         estimate D2E/DX2                !
 ! A21   A(4,5,16)             117.1437         estimate D2E/DX2                !
 ! A22   A(6,5,15)             112.9814         estimate D2E/DX2                !
 ! A23   A(6,5,16)             116.2682         estimate D2E/DX2                !
 ! A24   A(15,5,16)            108.6414         estimate D2E/DX2                !
 ! A25   A(3,6,5)               92.0047         estimate D2E/DX2                !
 ! A26   A(3,6,17)             129.2084         estimate D2E/DX2                !
 ! A27   A(5,6,7)              109.5173         estimate D2E/DX2                !
 ! A28   A(5,6,17)             128.0996         estimate D2E/DX2                !
 ! A29   A(7,6,17)             117.5925         estimate D2E/DX2                !
 ! A30   A(3,7,8)              121.3345         estimate D2E/DX2                !
 ! A31   A(3,7,18)             117.7523         estimate D2E/DX2                !
 ! A32   A(6,7,8)              114.4935         estimate D2E/DX2                !
 ! A33   A(6,7,18)             119.5775         estimate D2E/DX2                !
 ! A34   A(8,7,18)             113.8304         estimate D2E/DX2                !
 ! A35   A(7,8,9)              125.6022         estimate D2E/DX2                !
 ! A36   A(7,8,19)             114.3629         estimate D2E/DX2                !
 ! A37   A(9,8,19)             119.9568         estimate D2E/DX2                !
 ! D1    D(10,1,2,3)           -45.3565         estimate D2E/DX2                !
 ! D2    D(10,1,2,11)           79.2519         estimate D2E/DX2                !
 ! D3    D(10,1,2,12)         -165.5781         estimate D2E/DX2                !
 ! D4    D(1,2,3,4)           -169.3863         estimate D2E/DX2                !
 ! D5    D(1,2,3,6)             65.2048         estimate D2E/DX2                !
 ! D6    D(1,2,3,7)            -18.0433         estimate D2E/DX2                !
 ! D7    D(11,2,3,4)            63.7802         estimate D2E/DX2                !
 ! D8    D(11,2,3,6)           -61.6287         estimate D2E/DX2                !
 ! D9    D(11,2,3,7)          -144.8769         estimate D2E/DX2                !
 ! D10   D(12,2,3,4)           -50.0239         estimate D2E/DX2                !
 ! D11   D(12,2,3,6)          -175.4328         estimate D2E/DX2                !
 ! D12   D(12,2,3,7)           101.3191         estimate D2E/DX2                !
 ! D13   D(2,3,4,5)           -143.5314         estimate D2E/DX2                !
 ! D14   D(2,3,4,13)           -29.3851         estimate D2E/DX2                !
 ! D15   D(2,3,4,14)            95.9959         estimate D2E/DX2                !
 ! D16   D(6,3,4,5)              1.2672         estimate D2E/DX2                !
 ! D17   D(6,3,4,13)           115.4135         estimate D2E/DX2                !
 ! D18   D(6,3,4,14)          -119.2055         estimate D2E/DX2                !
 ! D19   D(7,3,4,5)             60.0031         estimate D2E/DX2                !
 ! D20   D(7,3,4,13)           174.1494         estimate D2E/DX2                !
 ! D21   D(7,3,4,14)           -60.4696         estimate D2E/DX2                !
 ! D22   D(2,3,6,5)            133.9475         estimate D2E/DX2                !
 ! D23   D(2,3,6,17)           -11.678          estimate D2E/DX2                !
 ! D24   D(4,3,6,5)             -1.299          estimate D2E/DX2                !
 ! D25   D(4,3,6,17)          -146.9245         estimate D2E/DX2                !
 ! D26   D(2,3,7,8)             24.4197         estimate D2E/DX2                !
 ! D27   D(2,3,7,18)          -124.3247         estimate D2E/DX2                !
 ! D28   D(4,3,7,8)            178.7074         estimate D2E/DX2                !
 ! D29   D(4,3,7,18)            29.963          estimate D2E/DX2                !
 ! D30   D(3,4,5,6)             -1.2567         estimate D2E/DX2                !
 ! D31   D(3,4,5,15)           113.056          estimate D2E/DX2                !
 ! D32   D(3,4,5,16)          -120.2511         estimate D2E/DX2                !
 ! D33   D(13,4,5,6)          -115.0495         estimate D2E/DX2                !
 ! D34   D(13,4,5,15)           -0.7368         estimate D2E/DX2                !
 ! D35   D(13,4,5,16)          125.9561         estimate D2E/DX2                !
 ! D36   D(14,4,5,6)           117.9938         estimate D2E/DX2                !
 ! D37   D(14,4,5,15)         -127.6936         estimate D2E/DX2                !
 ! D38   D(14,4,5,16)           -1.0007         estimate D2E/DX2                !
 ! D39   D(4,5,6,3)              1.2809         estimate D2E/DX2                !
 ! D40   D(4,5,6,7)            -58.0193         estimate D2E/DX2                !
 ! D41   D(4,5,6,17)           147.5063         estimate D2E/DX2                !
 ! D42   D(15,5,6,3)          -112.3236         estimate D2E/DX2                !
 ! D43   D(15,5,6,7)          -171.6238         estimate D2E/DX2                !
 ! D44   D(15,5,6,17)           33.9018         estimate D2E/DX2                !
 ! D45   D(16,5,6,3)           121.0575         estimate D2E/DX2                !
 ! D46   D(16,5,6,7)            61.7572         estimate D2E/DX2                !
 ! D47   D(16,5,6,17)          -92.7172         estimate D2E/DX2                !
 ! D48   D(5,6,7,8)           -165.9107         estimate D2E/DX2                !
 ! D49   D(5,6,7,18)           -25.6389         estimate D2E/DX2                !
 ! D50   D(17,6,7,8)            -8.4069         estimate D2E/DX2                !
 ! D51   D(17,6,7,18)          131.8649         estimate D2E/DX2                !
 ! D52   D(3,7,8,9)             43.3886         estimate D2E/DX2                !
 ! D53   D(3,7,8,19)          -139.8473         estimate D2E/DX2                !
 ! D54   D(6,7,8,9)            -24.1625         estimate D2E/DX2                !
 ! D55   D(6,7,8,19)           152.6016         estimate D2E/DX2                !
 ! D56   D(18,7,8,9)          -166.7416         estimate D2E/DX2                !
 ! D57   D(18,7,8,19)           10.0225         estimate D2E/DX2                !
 --------------------------------------------------------------------------------
 Trust Radius=3.00D-01 FncErr=1.00D-07 GrdErr=1.00D-06
 Number of steps in this run=    114 maximum allowed number of steps=    114.
 GradGradGradGradGradGradGradGradGradGradGradGradGradGradGradGradGradGrad

                          Input orientation:                          
 ---------------------------------------------------------------------
 Center     Atomic      Atomic             Coordinates (Angstroms)
 Number     Number       Type             X           Y           Z
 ---------------------------------------------------------------------
      1          8           0        1.342997    0.026606    0.531985
      2          6           0        0.142642   -0.406304   -0.055696
      3          6           0       -0.343084    0.335459   -1.283198
      4          6           0       -1.760210    0.081311   -1.833985
      5          6           0       -1.208752    0.238973   -3.288730
      6          6           0        0.169398    0.518193   -2.695169
      7          6           0        0.088038    1.727741   -1.759863
      8          6           0        1.399785    2.299424   -1.380308
      9          8           0        2.457265    1.702465   -1.378556
     10          1           0        1.997380    0.171369   -0.163956
     11          1           0        0.177029   -1.480148   -0.314154
     12          1           0       -0.627793   -0.303661    0.720599
     13          1           0       -2.105905   -0.934604   -1.626057
     14          1           0       -2.533325    0.784753   -1.510212
     15          1           0       -1.249704   -0.697269   -3.849829
     16          1           0       -1.641583    1.034282   -3.903261
     17          1           0        1.139007    0.268555   -3.109662
     18          1           0       -0.689340    2.474286   -1.913235
     19          1           0        1.373622    3.381833   -1.133450
 ---------------------------------------------------------------------
                    Distance matrix (angstroms):
                    1          2          3          4          5
     1  O    0.000000
     2  C    1.404860   0.000000
     3  C    2.496627   1.514233   0.000000
     4  C    3.902653   2.649703   1.541495   0.000000
     5  C    4.599390   3.563027   2.186516   1.563729   0.000000
     6  C    3.468935   2.796824   1.513172   2.157751   1.526295
     7  C    3.117908   2.731541   1.533468   2.476338   2.497105
     8  C    2.970823   3.264348   2.627581   3.887341   3.833015
     9  O    2.774935   3.399169   3.117652   4.541217   4.385232
    10  H    0.966182   1.945631   2.599500   4.112979   4.477507
    11  H    2.084644   1.105045   2.122733   2.915637   3.704575
    12  H    2.007154   1.098517   2.122437   2.820722   4.087382
    13  H    4.180430   2.793045   2.199580   1.093079   2.224106
    14  H    4.446485   3.270326   2.247344   1.094242   2.283746
    15  H    5.142605   4.052004   2.911372   2.220457   1.092272
    16  H    5.440086   4.479119   3.006524   2.281256   1.094307
    17  H    3.655371   3.282512   2.353091   3.172991   2.354764
    18  H    4.012559   3.527101   2.256417   2.622856   2.675519
    19  H    3.745953   4.126361   3.499985   4.604899   4.603418
                    6          7          8          9         10
     6  C    0.000000
     7  C    1.531151   0.000000
     8  C    2.532883   1.480393   0.000000
     9  O    2.893148   2.399848   1.214342   0.000000
    10  H    3.141472   2.935098   2.522944   2.007735   0.000000
    11  H    3.108482   3.519737   4.113026   4.057272   2.462468
    12  H    3.602559   3.285073   3.911641   4.236576   2.810627
    13  H    2.903553   3.452444   4.775897   5.276165   4.494204
    14  H    2.963087   2.796979   4.216688   5.075974   4.766124
    15  H    2.196460   3.469609   4.700904   5.060389   4.988362
    16  H    2.237294   2.840181   4.149192   4.860160   5.288580
    17  H    1.083635   2.248492   2.680130   2.605884   3.069761
    18  H    2.274896   1.088654   2.163108   3.283704   3.947388
    19  H    3.477004   2.186582   1.110510   2.013613   3.411169
                   11         12         13         14         15
    11  H    0.000000
    12  H    1.761413   0.000000
    13  H    2.688959   2.844240   0.000000
    14  H    3.729122   3.129252   1.775470   0.000000
    15  H    3.892232   4.629311   2.394697   3.052520   0.000000
    16  H    4.744619   4.919141   3.045943   2.565960   1.776146
    17  H    3.434855   4.256749   3.765386   4.038653   2.680784
    18  H    4.352609   3.828559   3.702655   2.533224   3.758080
    19  H    5.073652   4.585415   5.566094   4.706485   5.558743
                   16         17         18         19
    16  H    0.000000
    17  H    2.991290   0.000000
    18  H    2.634498   3.104760   0.000000
    19  H    4.719566   3.694991   2.384852   0.000000
 Stoichiometry    C7H10O2
 Framework group  C1[X(C7H10O2)]
 Deg. of freedom    51
 Full point group                 C1      NOp   1
 Largest Abelian subgroup         C1      NOp   1
 Largest concise Abelian subgroup C1      NOp   1
                         Standard orientation:                         
 ---------------------------------------------------------------------
 Center     Atomic      Atomic             Coordinates (Angstroms)
 Number     Number       Type             X           Y           Z
 ---------------------------------------------------------------------
      1          8           0       -1.715543    1.594663   -0.083150
      2          6           0       -0.318898    1.736976   -0.030619
      3          6           0        0.506856    0.479326    0.140703
      4          6           0        2.013862    0.575961    0.450217
      5          6           0        2.264938   -0.681067   -0.445376
      6          6           0        0.761192   -0.755619   -0.695906
      7          6           0        0.025892   -0.888276    0.640567
      8          6           0       -1.392470   -1.295678    0.522935
      9          8           0       -2.097347   -1.129052   -0.451750
     10          1           0       -1.932982    0.859832   -0.671581
     11          1           0        0.072454    2.267493   -0.917479
     12          1           0       -0.113946    2.388356    0.829868
     13          1           0        2.461732    1.481901    0.033675
     14          1           0        2.291584    0.504693    1.506228
     15          1           0        2.835717   -0.440113   -1.344937
     16          1           0        2.719812   -1.553089    0.034391
     17          1           0        0.247939   -1.096867   -1.587190
     18          1           0        0.539480   -1.324853    1.495432
     19          1           0       -1.786900   -1.841977    1.405667
 ---------------------------------------------------------------------
 Rotational constants (GHZ):      2.4708612      1.5249862      1.0860681
 Standard basis: 6-31G(2df,p) (6D, 7F)
 There are   329 symmetry adapted cartesian basis functions of A   symmetry.
 There are   302 symmetry adapted basis functions of A   symmetry.
   302 basis functions,   466 primitive gaussians,   329 cartesian basis functions
    34 alpha electrons       34 beta electrons
       nuclear repulsion energy       460.9432120307 Hartrees.
 NAtoms=   19 NActive=   19 NUniq=   19 SFac= 1.00D+00 NAtFMM=   60 NAOKFM=F Big=F
 Integral buffers will be    131072 words long.
 Raffenetti 2 integral format.
 Two-electron integral symmetry is turned on.
 One-electron integrals computed using PRISM.
 NBasis=   302 RedAO= T EigKep=  3.77D-04  NBF=   302
 NBsUse=   302 1.00D-06 EigRej= -1.00D+00 NBFU=   302
 ExpMin= 1.61D-01 ExpMax= 5.48D+03 ExpMxC= 8.25D+02 IAcc=1 IRadAn=         1 AccDes= 0.00D+00
 Harris functional with IExCor=  402 and IRadAn=       1 diagonalized for initial guess.
 HarFok:  IExCor=  402 AccDes= 0.00D+00 IRadAn=         1 IDoV= 1 UseB2=F ITyADJ=14
 ICtDFT=  3500011 ScaDFX=  1.000000  1.000000  1.000000  1.000000
 FoFCou: FMM=F IPFlag=           0 FMFlag=      100000 FMFlg1=           0
         NFxFlg=           0 DoJE=T BraDBF=F KetDBF=T FulRan=T
         wScrn=  0.000000 ICntrl=     500 IOpCl=  0 I1Cent=   200000004 NGrid=           0
         NMat0=    1 NMatS0=      1 NMatT0=    0 NMatD0=    1 NMtDS0=    0 NMtDT0=    0
 Petite list used in FoFCou.
 Requested convergence on RMS density matrix=1.00D-08 within 128 cycles.
 Requested convergence on MAX density matrix=1.00D-06.
 Requested convergence on             energy=1.00D-06.
 No special actions if energy rises.
 Integral accuracy reduced to 1.0D-05 until final iterations.
 Initial convergence to 1.0D-05 achieved.  Increase integral accuracy.
 SCF Done:  E(RB3LYP) =  -423.160125264     A.U. after   14 cycles
            NFock= 14  Conv=0.51D-08     -V/T= 2.0075

 **********************************************************************

            Population analysis using the SCF density.

 **********************************************************************

 Orbital symmetries:
       Occupied  (A) (A) (A) (A) (A) (A) (A) (A) (A) (A) (A) (A)
                 (A) (A) (A) (A) (A) (A) (A) (A) (A) (A) (A) (A)
                 (A) (A) (A) (A) (A) (A) (A) (A) (A) (A)
       Virtual   (A) (A) (A) (A) (A) (A) (A) (A) (A) (A) (A) (A)
                 (A) (A) (A) (A) (A) (A) (A) (A) (A) (A) (A) (A)
                 (A) (A) (A) (A) (A) (A) (A) (A) (A) (A) (A) (A)
                 (A) (A) (A) (A) (A) (A) (A) (A) (A) (A) (A) (A)
                 (A) (A) (A) (A) (A) (A) (A) (A) (A) (A) (A) (A)
                 (A) (A) (A) (A) (A) (A) (A) (A) (A) (A) (A) (A)
                 (A) (A) (A) (A) (A) (A) (A) (A) (A) (A) (A) (A)
                 (A) (A) (A) (A) (A) (A) (A) (A) (A) (A) (A) (A)
                 (A) (A) (A) (A) (A) (A) (A) (A) (A) (A) (A) (A)
                 (A) (A) (A) (A) (A) (A) (A) (A) (A) (A) (A) (A)
                 (A) (A) (A) (A) (A) (A) (A) (A) (A) (A) (A) (A)
                 (A) (A) (A) (A) (A) (A) (A) (A) (A) (A) (A) (A)
                 (A) (A) (A) (A) (A) (A) (A) (A) (A) (A) (A) (A)
                 (A) (A) (A) (A) (A) (A) (A) (A) (A) (A) (A) (A)
                 (A) (A) (A) (A) (A) (A) (A) (A) (A) (A) (A) (A)
                 (A) (A) (A) (A) (A) (A) (A) (A) (A) (A) (A) (A)
                 (A) (A) (A) (A) (A) (A) (A) (A) (A) (A) (A) (A)
                 (A) (A) (A) (A) (A) (A) (A) (A) (A) (A) (A) (A)
                 (A) (A) (A) (A) (A) (A) (A) (A) (A) (A) (A) (A)
                 (A) (A) (A) (A) (A) (A) (A) (A) (A) (A) (A) (A)
                 (A) (A) (A) (A) (A) (A) (A) (A) (A) (A) (A) (A)
                 (A) (A) (A) (A) (A) (A) (A) (A) (A) (A) (A) (A)
                 (A) (A) (A) (A)
 The electronic state is 1-A.
 Alpha  occ. eigenvalues --  -19.14097 -19.12440 -10.27778 -10.23225 -10.21747
 Alpha  occ. eigenvalues --  -10.20858 -10.20824 -10.19882 -10.19830  -1.04920
 Alpha  occ. eigenvalues --   -1.00946  -0.91277  -0.75551  -0.71628  -0.66276
 Alpha  occ. eigenvalues --   -0.64131  -0.55507  -0.53924  -0.52736  -0.49187
 Alpha  occ. eigenvalues --   -0.46608  -0.45742  -0.44149  -0.41893  -0.41752
 Alpha  occ. eigenvalues --   -0.40174  -0.38253  -0.36434  -0.34806  -0.32265
 Alpha  occ. eigenvalues --   -0.29151  -0.27983  -0.25914  -0.25499
 Alpha virt. eigenvalues --   -0.03471   0.08663   0.09140   0.10183   0.10854
 Alpha virt. eigenvalues --    0.12724   0.13071   0.14880   0.15899   0.16502
 Alpha virt. eigenvalues --    0.17673   0.17879   0.19606   0.21723   0.22037
 Alpha virt. eigenvalues --    0.22953   0.25492   0.27747   0.31291   0.32786
 Alpha virt. eigenvalues --    0.34842   0.41361   0.43455   0.44441   0.46211
 Alpha virt. eigenvalues --    0.47501   0.48933   0.50753   0.51855   0.52754
 Alpha virt. eigenvalues --    0.53422   0.54634   0.56386   0.58159   0.60541
 Alpha virt. eigenvalues --    0.61156   0.63634   0.64456   0.66542   0.67263
 Alpha virt. eigenvalues --    0.67946   0.69366   0.71574   0.72423   0.74025
 Alpha virt. eigenvalues --    0.74726   0.76293   0.77710   0.78755   0.80924
 Alpha virt. eigenvalues --    0.81310   0.82520   0.84227   0.87330   0.90051
 Alpha virt. eigenvalues --    0.91992   0.93392   0.94278   0.98010   0.98617
 Alpha virt. eigenvalues --    0.99661   1.02403   1.04097   1.06264   1.06982
 Alpha virt. eigenvalues --    1.09335   1.12524   1.13059   1.16233   1.18869
 Alpha virt. eigenvalues --    1.20414   1.23415   1.26617   1.27427   1.29561
 Alpha virt. eigenvalues --    1.30355   1.30825   1.35255   1.36137   1.39255
 Alpha virt. eigenvalues --    1.40795   1.43582   1.45742   1.46447   1.46764
 Alpha virt. eigenvalues --    1.47756   1.51347   1.52145   1.52909   1.54316
 Alpha virt. eigenvalues --    1.56357   1.60684   1.62824   1.65334   1.66650
 Alpha virt. eigenvalues --    1.67960   1.70852   1.73936   1.75333   1.76483
 Alpha virt. eigenvalues --    1.79149   1.84436   1.85224   1.88680   1.90200
 Alpha virt. eigenvalues --    1.94394   1.97502   2.04155   2.05848   2.12143
 Alpha virt. eigenvalues --    2.14952   2.16185   2.20378   2.22983   2.25576
 Alpha virt. eigenvalues --    2.28452   2.37195   2.37959   2.40191   2.42273
 Alpha virt. eigenvalues --    2.45383   2.48386   2.51200   2.56293   2.56803
 Alpha virt. eigenvalues --    2.60102   2.60552   2.65408   2.70832   2.73290
 Alpha virt. eigenvalues --    2.76986   2.77833   2.81421   2.83493   2.84092
 Alpha virt. eigenvalues --    2.85761   2.86246   2.88332   2.91441   2.93295
 Alpha virt. eigenvalues --    2.94846   2.97889   2.99251   3.00906   3.02180
 Alpha virt. eigenvalues --    3.04228   3.05204   3.08168   3.08289   3.12081
 Alpha virt. eigenvalues --    3.13530   3.18795   3.22032   3.22476   3.25186
 Alpha virt. eigenvalues --    3.26200   3.28296   3.31804   3.33269   3.33449
 Alpha virt. eigenvalues --    3.36307   3.40825   3.42513   3.45656   3.46597
 Alpha virt. eigenvalues --    3.47788   3.50229   3.51678   3.54307   3.56844
 Alpha virt. eigenvalues --    3.60329   3.62623   3.65955   3.69810   3.73540
 Alpha virt. eigenvalues --    3.74752   3.79921   3.85015   3.87935   3.97593
 Alpha virt. eigenvalues --    4.01014   4.03021   4.08462   4.12570   4.14148
 Alpha virt. eigenvalues --    4.16657   4.19825   4.21795   4.23720   4.25699
 Alpha virt. eigenvalues --    4.28159   4.29691   4.31774   4.33398   4.34851
 Alpha virt. eigenvalues --    4.39264   4.40480   4.42993   4.44533   4.46065
 Alpha virt. eigenvalues --    4.47581   4.49701   4.53191   4.55849   4.59218
 Alpha virt. eigenvalues --    4.59513   4.61554   4.64158   4.64883   4.66406
 Alpha virt. eigenvalues --    4.67914   4.70820   4.71004   4.73785   4.74810
 Alpha virt. eigenvalues --    4.76994   4.79420   4.82845   4.83920   4.84699
 Alpha virt. eigenvalues --    4.87636   4.89122   4.92841   4.94591   4.97765
 Alpha virt. eigenvalues --    4.98674   5.00984   5.06149   5.06760   5.08116
 Alpha virt. eigenvalues --    5.10437   5.12764   5.17389   5.27181   5.29950
 Alpha virt. eigenvalues --    5.31619   5.36310   5.38478   5.43925   5.47356
 Alpha virt. eigenvalues --    5.50277   5.52420   5.54234   5.60396   5.61471
 Alpha virt. eigenvalues --    5.65892   5.74598   5.79929   5.86338   5.99080
 Alpha virt. eigenvalues --    6.02119   6.08325   6.11863   6.18790   6.33855
 Alpha virt. eigenvalues --    6.40055   6.70460   6.82850   7.08616  10.49876
 Alpha virt. eigenvalues --   11.05796  11.48910  11.70463  12.07476  12.32868
 Alpha virt. eigenvalues --   12.84516  13.00473  13.19618
          Condensed to atoms (all electrons):
               1          2          3          4          5          6
     1  O    7.812146   0.400372  -0.044962   0.002617  -0.000118   0.000507
     2  C    0.400372   4.889990   0.376890  -0.045136   0.007602  -0.045062
     3  C   -0.044962   0.376890   4.550674   0.350016  -0.047356   0.371398
     4  C    0.002617  -0.045136   0.350016   5.079061   0.319205  -0.067053
     5  C   -0.000118   0.007602  -0.047356   0.319205   4.973928   0.372389
     6  C    0.000507  -0.045062   0.371398  -0.067053   0.372389   4.893407
     7  C   -0.009917  -0.033413   0.313610  -0.028503  -0.003830   0.232510
     8  C    0.018066  -0.005254  -0.003854   0.003222   0.000167   0.001632
     9  O   -0.014955  -0.000483  -0.000137  -0.000073   0.000399   0.000913
    10  H    0.302412  -0.066355   0.003731  -0.000169   0.000064   0.004403
    11  H   -0.030070   0.347576  -0.043677   0.003754  -0.000837  -0.007501
    12  H   -0.018906   0.335225  -0.018154  -0.004229  -0.000156   0.005791
    13  H    0.000026  -0.004459  -0.023688   0.362804  -0.020001   0.001282
    14  H   -0.000026   0.002436  -0.015023   0.349677  -0.023681   0.002309
    15  H    0.000001   0.000327   0.001651  -0.019043   0.362911  -0.019323
    16  H    0.000001  -0.000289  -0.000759  -0.021872   0.356459  -0.017431
    17  H    0.000047  -0.002901  -0.031489   0.011619  -0.045260   0.381712
    18  H   -0.000158   0.002043  -0.037585  -0.012807  -0.003755  -0.034418
    19  H   -0.000170  -0.000080   0.003669  -0.000092  -0.000053   0.006710
               7          8          9         10         11         12
     1  O   -0.009917   0.018066  -0.014955   0.302412  -0.030070  -0.018906
     2  C   -0.033413  -0.005254  -0.000483  -0.066355   0.347576   0.335225
     3  C    0.313610  -0.003854  -0.000137   0.003731  -0.043677  -0.018154
     4  C   -0.028503   0.003222  -0.000073  -0.000169   0.003754  -0.004229
     5  C   -0.003830   0.000167   0.000399   0.000064  -0.000837  -0.000156
     6  C    0.232510   0.001632   0.000913   0.004403  -0.007501   0.005791
     7  C    5.307754   0.289385  -0.075210  -0.008359   0.003623  -0.001981
     8  C    0.289385   4.548867   0.680178  -0.005836   0.001204  -0.000552
     9  O   -0.075210   0.680178   7.704966   0.036014  -0.000230   0.000005
    10  H   -0.008359  -0.005836   0.036014   0.433110  -0.005776   0.007165
    11  H    0.003623   0.001204  -0.000230  -0.005776   0.691343  -0.053733
    12  H   -0.001981  -0.000552   0.000005   0.007165  -0.053733   0.637843
    13  H    0.002868  -0.000029   0.000001  -0.000003   0.003782   0.000538
    14  H   -0.009083  -0.000029   0.000003   0.000003  -0.000266   0.001400
    15  H    0.001997  -0.000010  -0.000002   0.000000   0.000021  -0.000012
    16  H   -0.008633   0.000041   0.000003   0.000001  -0.000012   0.000023
    17  H   -0.053750   0.005184   0.010345   0.000426   0.000990  -0.000050
    18  H    0.359150  -0.028975   0.003254   0.000063  -0.000159   0.000375
    19  H   -0.115334   0.364078  -0.048929   0.001430   0.000005  -0.000026
              13         14         15         16         17         18
     1  O    0.000026  -0.000026   0.000001   0.000001   0.000047  -0.000158
     2  C   -0.004459   0.002436   0.000327  -0.000289  -0.002901   0.002043
     3  C   -0.023688  -0.015023   0.001651  -0.000759  -0.031489  -0.037585
     4  C    0.362804   0.349677  -0.019043  -0.021872   0.011619  -0.012807
     5  C   -0.020001  -0.023681   0.362911   0.356459  -0.045260  -0.003755
     6  C    0.001282   0.002309  -0.019323  -0.017431   0.381712  -0.034418
     7  C    0.002868  -0.009083   0.001997  -0.008633  -0.053750   0.359150
     8  C   -0.000029  -0.000029  -0.000010   0.000041   0.005184  -0.028975
     9  O    0.000001   0.000003  -0.000002   0.000003   0.010345   0.003254
    10  H   -0.000003   0.000003   0.000000   0.000001   0.000426   0.000063
    11  H    0.003782  -0.000266   0.000021  -0.000012   0.000990  -0.000159
    12  H    0.000538   0.001400  -0.000012   0.000023  -0.000050   0.000375
    13  H    0.609856  -0.040820  -0.009389   0.003084  -0.000099  -0.000018
    14  H   -0.040820   0.622433   0.003258  -0.003610  -0.000471   0.006425
    15  H   -0.009389   0.003258   0.608096  -0.041706  -0.002553  -0.000055
    16  H    0.003084  -0.003610  -0.041706   0.623356   0.002153   0.004868
    17  H   -0.000099  -0.000471  -0.002553   0.002153   0.611368   0.001285
    18  H   -0.000018   0.006425  -0.000055   0.004868   0.001285   0.657682
    19  H    0.000002  -0.000021   0.000002  -0.000018   0.000847  -0.003061
              19
     1  O   -0.000170
     2  C   -0.000080
     3  C    0.003669
     4  C   -0.000092
     5  C   -0.000053
     6  C    0.006710
     7  C   -0.115334
     8  C    0.364078
     9  O   -0.048929
    10  H    0.001430
    11  H    0.000005
    12  H   -0.000026
    13  H    0.000002
    14  H   -0.000021
    15  H    0.000002
    16  H   -0.000018
    17  H    0.000847
    18  H   -0.003061
    19  H    0.699492
 Mulliken charges:
               1
     1  O   -0.416914
     2  C   -0.159027
     3  C    0.295044
     4  C   -0.282997
     5  C   -0.248077
     6  C   -0.084174
     7  C   -0.162885
     8  C    0.132518
     9  O   -0.296061
    10  H    0.297675
    11  H    0.089963
    12  H    0.109431
    13  H    0.114262
    14  H    0.105085
    15  H    0.113828
    16  H    0.104339
    17  H    0.110597
    18  H    0.085845
    19  H    0.091548
 Sum of Mulliken charges =   0.00000
 Mulliken charges with hydrogens summed into heavy atoms:
               1
     1  O   -0.119239
     2  C    0.040367
     3  C    0.295044
     4  C   -0.063651
     5  C   -0.029910
     6  C    0.026424
     7  C   -0.077040
     8  C    0.224066
     9  O   -0.296061
 Electronic spatial extent (au):  <R**2>=           1140.4405
 Charge=              0.0000 electrons
 Dipole moment (field-independent basis, Debye):
    X=              3.2669    Y=             -0.8010    Z=              0.7086  Tot=              3.4375
 Quadrupole moment (field-independent basis, Debye-Ang):
   XX=            -58.6668   YY=            -54.3283   ZZ=            -51.0290
   XY=              2.2062   XZ=             -1.5680   YZ=             -2.4737
 Traceless Quadrupole moment (field-independent basis, Debye-Ang):
   XX=             -3.9921   YY=              0.3464   ZZ=              3.6457
   XY=              2.2062   XZ=             -1.5680   YZ=             -2.4737
 Octapole moment (field-independent basis, Debye-Ang**2):
  XXX=              1.8758  YYY=             -1.7644  ZZZ=             -2.5742  XYY=              4.1317
  XXY=             -0.8843  XXZ=              0.9648  XZZ=             -5.0957  YZZ=             -0.4760
  YYZ=              3.1817  XYZ=              4.2892
 Hexadecapole moment (field-independent basis, Debye-Ang**3):
 XXXX=           -834.1320 YYYY=           -492.2423 ZZZZ=           -156.1383 XXXY=             -2.9887
 XXXZ=             -4.8469 YYYX=             15.5048 YYYZ=             -0.7539 ZZZX=              4.3534
 ZZZY=              0.2713 XXYY=           -233.2917 XXZZ=           -153.7103 YYZZ=           -103.4016
 XXYZ=            -11.8634 YYXZ=             -3.9255 ZZXY=             -0.4687
 N-N= 4.609432120307D+02 E-N=-1.908394070114D+03  KE= 4.200115529315D+02
 Calling FoFJK, ICntrl=      2127 FMM=F ISym2X=0 I1Cent= 0 IOpClX= 0 NMat=1 NMatS=1 NMatT=0.
 ***** Axes restored to original set *****
 -------------------------------------------------------------------
 Center     Atomic                   Forces (Hartrees/Bohr)
 Number     Number              X              Y              Z
 -------------------------------------------------------------------
      1        8           0.000023335    0.000003805   -0.000007322
      2        6           0.000018127    0.000026941   -0.000000799
      3        6          -0.000020865   -0.000051615   -0.000004584
      4        6          -0.000003329    0.000012904    0.000004409
      5        6           0.000013049   -0.000027412    0.000004813
      6        6          -0.000019656    0.000000559   -0.000034749
      7        6          -0.000006794    0.000013899    0.000037946
      8        6          -0.000028861    0.000032627   -0.000031634
      9        8           0.000038092   -0.000007228    0.000005376
     10        1          -0.000029692    0.000008631    0.000017827
     11        1          -0.000015441    0.000003028   -0.000000750
     12        1           0.000008395   -0.000000254   -0.000001225
     13        1           0.000009180   -0.000002422    0.000001887
     14        1          -0.000008243   -0.000001467   -0.000007025
     15        1           0.000001806   -0.000004534   -0.000001373
     16        1          -0.000000049   -0.000004363    0.000002160
     17        1           0.000025109    0.000005040    0.000016516
     18        1           0.000000023   -0.000003504   -0.000007552
     19        1          -0.000004186   -0.000004637    0.000006079
 -------------------------------------------------------------------
 Cartesian Forces:  Max     0.000051615 RMS     0.000017047

 GradGradGradGradGradGradGradGradGradGradGradGradGradGradGradGradGradGrad
 Berny optimization.
 FormGI is forming the generalized inverse of G from B-inverse, IUseBI=4.
 Internal  Forces:  Max     0.000041531 RMS     0.000007880
 Search for a local minimum.
 Step number   1 out of a maximum of  114
 All quantities printed in internal units (Hartrees-Bohrs-Radians)
 Mixed Optimization -- En-DIIS/RFO-DIIS
 Second derivative matrix not updated -- first step.
 ITU=  0
     Eigenvalues ---    0.00578   0.00582   0.01025   0.01034   0.01544
     Eigenvalues ---    0.01627   0.01922   0.02230   0.03280   0.03304
     Eigenvalues ---    0.03663   0.04436   0.04777   0.04831   0.05516
     Eigenvalues ---    0.05983   0.06041   0.06134   0.06486   0.07824
     Eigenvalues ---    0.07955   0.09812   0.11777   0.12145   0.14339
     Eigenvalues ---    0.15823   0.16000   0.16000   0.17385   0.21908
     Eigenvalues ---    0.22005   0.22096   0.23672   0.25844   0.26585
     Eigenvalues ---    0.29206   0.29375   0.30929   0.32546   0.33130
     Eigenvalues ---    0.33847   0.34320   0.34327   0.34459   0.34525
     Eigenvalues ---    0.34551   0.34969   0.35559   0.44824   0.54165
     Eigenvalues ---    0.97935
 RFO step:  Lambda=-7.86542356D-08 EMin= 5.77666741D-03
 Linear search not attempted -- first point.
 Iteration  1 RMS(Cart)=  0.00024781 RMS(Int)=  0.00000005
 Iteration  2 RMS(Cart)=  0.00000005 RMS(Int)=  0.00000002
 Variable       Old X    -DE/DX   Delta X   Delta X   Delta X     New X
                                 (Linear)    (Quad)   (Total)
    R1        2.65480   0.00000   0.00000   0.00000   0.00000   2.65480
    R2        1.82582  -0.00003   0.00000  -0.00006  -0.00006   1.82576
    R3        2.86149  -0.00001   0.00000  -0.00004  -0.00004   2.86145
    R4        2.08823   0.00000   0.00000   0.00000   0.00000   2.08823
    R5        2.07590  -0.00001   0.00000  -0.00002  -0.00002   2.07587
    R6        2.91300   0.00000   0.00000  -0.00002  -0.00002   2.91298
    R7        2.85948   0.00000   0.00000   0.00001   0.00001   2.85950
    R8        2.89783   0.00001   0.00000   0.00002   0.00002   2.89786
    R9        2.95502   0.00000   0.00000   0.00000   0.00000   2.95502
   R10        2.06562   0.00000   0.00000  -0.00001  -0.00001   2.06561
   R11        2.06782   0.00001   0.00000   0.00002   0.00002   2.06784
   R12        2.88428   0.00000   0.00000   0.00001   0.00001   2.88429
   R13        2.06409   0.00000   0.00000   0.00000   0.00000   2.06409
   R14        2.06794   0.00000   0.00000   0.00000   0.00000   2.06794
   R15        2.89346   0.00001   0.00000   0.00006   0.00006   2.89352
   R16        2.04777   0.00001   0.00000   0.00004   0.00004   2.04781
   R17        2.79754   0.00001   0.00000   0.00004   0.00004   2.79758
   R18        2.05726   0.00000   0.00000  -0.00001  -0.00001   2.05725
   R19        2.29477   0.00004   0.00000   0.00004   0.00004   2.29482
   R20        2.09856  -0.00001   0.00000  -0.00002  -0.00002   2.09854
    A1        1.90028  -0.00002   0.00000  -0.00010  -0.00010   1.90018
    A2        2.05131   0.00000   0.00000   0.00002   0.00002   2.05133
    A3        1.95056   0.00001   0.00000   0.00011   0.00011   1.95067
    A4        1.84922  -0.00001   0.00000  -0.00002  -0.00002   1.84920
    A5        1.87173  -0.00002   0.00000  -0.00012  -0.00012   1.87161
    A6        1.87771   0.00001   0.00000   0.00006   0.00006   1.87777
    A7        1.85241   0.00000   0.00000  -0.00006  -0.00006   1.85235
    A8        2.09876   0.00000   0.00000   0.00006   0.00006   2.09882
    A9        2.35596   0.00000   0.00000  -0.00002  -0.00002   2.35594
   A10        2.22252  -0.00001   0.00000  -0.00004  -0.00004   2.22248
   A11        1.56865   0.00000   0.00000   0.00005   0.00005   1.56870
   A12        1.87243   0.00001   0.00000  -0.00007  -0.00007   1.87236
   A13        1.56238   0.00000   0.00000  -0.00004  -0.00004   1.56233
   A14        1.95628   0.00000   0.00000  -0.00006  -0.00006   1.95622
   A15        2.02396   0.00001   0.00000   0.00010   0.00010   2.02406
   A16        1.96297   0.00000   0.00000  -0.00001  -0.00001   1.96297
   A17        2.04835   0.00000   0.00000  -0.00002  -0.00002   2.04834
   A18        1.89415   0.00000   0.00000   0.00002   0.00002   1.89417
   A19        1.54588   0.00000   0.00000   0.00004   0.00004   1.54592
   A20        1.95871   0.00000   0.00000   0.00004   0.00004   1.95875
   A21        2.04454  -0.00001   0.00000  -0.00008  -0.00008   2.04446
   A22        1.97190   0.00000   0.00000   0.00006   0.00006   1.97195
   A23        2.02926   0.00000   0.00000  -0.00004  -0.00004   2.02922
   A24        1.89615   0.00000   0.00000   0.00000   0.00000   1.89615
   A25        1.60579  -0.00001   0.00000  -0.00006  -0.00006   1.60573
   A26        2.25511   0.00000   0.00000  -0.00012  -0.00012   2.25499
   A27        1.91144   0.00001   0.00000   0.00013   0.00013   1.91156
   A28        2.23576   0.00001   0.00000   0.00010   0.00010   2.23586
   A29        2.05238  -0.00001   0.00000  -0.00012  -0.00012   2.05226
   A30        2.11769   0.00001   0.00000   0.00017   0.00017   2.11785
   A31        2.05516   0.00000   0.00000  -0.00002  -0.00002   2.05515
   A32        1.99829   0.00000   0.00000  -0.00012  -0.00012   1.99817
   A33        2.08702   0.00000   0.00000  -0.00001  -0.00001   2.08701
   A34        1.98672   0.00000   0.00000  -0.00003  -0.00003   1.98669
   A35        2.19217   0.00001   0.00000   0.00007   0.00007   2.19224
   A36        1.99601   0.00000   0.00000   0.00001   0.00001   1.99602
   A37        2.09364  -0.00001   0.00000  -0.00004  -0.00004   2.09360
    D1       -0.79162   0.00001   0.00000   0.00038   0.00038  -0.79124
    D2        1.38321   0.00000   0.00000   0.00033   0.00033   1.38354
    D3       -2.88988   0.00000   0.00000   0.00030   0.00030  -2.88958
    D4       -2.95635   0.00000   0.00000  -0.00025  -0.00025  -2.95660
    D5        1.13804  -0.00001   0.00000  -0.00041  -0.00041   1.13763
    D6       -0.31492   0.00000   0.00000  -0.00039  -0.00039  -0.31530
    D7        1.11317   0.00000   0.00000  -0.00031  -0.00031   1.11286
    D8       -1.07562  -0.00001   0.00000  -0.00047  -0.00047  -1.07610
    D9       -2.52858   0.00000   0.00000  -0.00045  -0.00045  -2.52903
   D10       -0.87308   0.00000   0.00000  -0.00021  -0.00021  -0.87329
   D11       -3.06188   0.00000   0.00000  -0.00037  -0.00037  -3.06225
   D12        1.76835   0.00000   0.00000  -0.00035  -0.00035   1.76800
   D13       -2.50510   0.00000   0.00000   0.00022   0.00022  -2.50487
   D14       -0.51287   0.00000   0.00000   0.00019   0.00019  -0.51268
   D15        1.67544   0.00000   0.00000   0.00024   0.00024   1.67569
   D16        0.02212   0.00000   0.00000   0.00029   0.00029   0.02240
   D17        2.01434   0.00000   0.00000   0.00025   0.00025   2.01460
   D18       -2.08053   0.00000   0.00000   0.00031   0.00031  -2.08022
   D19        1.04725   0.00001   0.00000   0.00034   0.00034   1.04759
   D20        3.03948   0.00000   0.00000   0.00030   0.00030   3.03978
   D21       -1.05539   0.00000   0.00000   0.00036   0.00036  -1.05504
   D22        2.33782   0.00000   0.00000  -0.00014  -0.00014   2.33768
   D23       -0.20382   0.00000   0.00000  -0.00008  -0.00008  -0.20390
   D24       -0.02267  -0.00001   0.00000  -0.00029  -0.00029  -0.02297
   D25       -2.56432  -0.00001   0.00000  -0.00024  -0.00024  -2.56455
   D26        0.42620   0.00001   0.00000   0.00022   0.00022   0.42643
   D27       -2.16988   0.00000   0.00000  -0.00002  -0.00002  -2.16990
   D28        3.11903   0.00001   0.00000   0.00013   0.00013   3.11916
   D29        0.52295   0.00000   0.00000  -0.00012  -0.00012   0.52283
   D30       -0.02193   0.00000   0.00000  -0.00029  -0.00029  -0.02222
   D31        1.97320   0.00000   0.00000  -0.00020  -0.00020   1.97300
   D32       -2.09878   0.00000   0.00000  -0.00024  -0.00024  -2.09902
   D33       -2.00799   0.00000   0.00000  -0.00020  -0.00020  -2.00819
   D34       -0.01286   0.00000   0.00000  -0.00011  -0.00011  -0.01297
   D35        2.19835   0.00000   0.00000  -0.00015  -0.00015   2.19820
   D36        2.05938   0.00000   0.00000  -0.00020  -0.00020   2.05917
   D37       -2.22867   0.00000   0.00000  -0.00012  -0.00012  -2.22879
   D38       -0.01746   0.00000   0.00000  -0.00016  -0.00016  -0.01762
   D39        0.02236   0.00000   0.00000   0.00029   0.00029   0.02265
   D40       -1.01263   0.00001   0.00000   0.00034   0.00034  -1.01229
   D41        2.57447   0.00000   0.00000   0.00011   0.00011   2.57458
   D42       -1.96042   0.00000   0.00000   0.00022   0.00022  -1.96020
   D43       -2.99540   0.00000   0.00000   0.00027   0.00027  -2.99513
   D44        0.59170   0.00000   0.00000   0.00004   0.00004   0.59174
   D45        2.11285   0.00000   0.00000   0.00021   0.00021   2.11306
   D46        1.07787   0.00000   0.00000   0.00026   0.00026   1.07812
   D47       -1.61822   0.00000   0.00000   0.00003   0.00003  -1.61819
   D48       -2.89569   0.00000   0.00000   0.00010   0.00010  -2.89559
   D49       -0.44748   0.00000   0.00000  -0.00013  -0.00013  -0.44761
   D50       -0.14673   0.00001   0.00000   0.00036   0.00036  -0.14637
   D51        2.30148   0.00001   0.00000   0.00013   0.00013   2.30160
   D52        0.75727   0.00000   0.00000  -0.00021  -0.00021   0.75707
   D53       -2.44080   0.00000   0.00000   0.00057   0.00057  -2.44023
   D54       -0.42172   0.00000   0.00000  -0.00018  -0.00018  -0.42189
   D55        2.66340   0.00001   0.00000   0.00059   0.00059   2.66399
   D56       -2.91019   0.00000   0.00000   0.00003   0.00003  -2.91016
   D57        0.17492   0.00001   0.00000   0.00080   0.00080   0.17573
         Item               Value     Threshold  Converged?
 Maximum Force            0.000042     0.000450     YES
 RMS     Force            0.000008     0.000300     YES
 Maximum Displacement     0.000926     0.001800     YES
 RMS     Displacement     0.000248     0.001200     YES
 Predicted change in Energy=-3.932804D-08
 Optimization completed.
    -- Stationary point found.
                           ----------------------------
                           !   Optimized Parameters   !
                           ! (Angstroms and Degrees)  !
 --------------------------                            --------------------------
 ! Name  Definition              Value          Derivative Info.                !
 --------------------------------------------------------------------------------
 ! R1    R(1,2)                  1.4049         -DE/DX =    0.0                 !
 ! R2    R(1,10)                 0.9662         -DE/DX =    0.0                 !
 ! R3    R(2,3)                  1.5142         -DE/DX =    0.0                 !
 ! R4    R(2,11)                 1.105          -DE/DX =    0.0                 !
 ! R5    R(2,12)                 1.0985         -DE/DX =    0.0                 !
 ! R6    R(3,4)                  1.5415         -DE/DX =    0.0                 !
 ! R7    R(3,6)                  1.5132         -DE/DX =    0.0                 !
 ! R8    R(3,7)                  1.5335         -DE/DX =    0.0                 !
 ! R9    R(4,5)                  1.5637         -DE/DX =    0.0                 !
 ! R10   R(4,13)                 1.0931         -DE/DX =    0.0                 !
 ! R11   R(4,14)                 1.0942         -DE/DX =    0.0                 !
 ! R12   R(5,6)                  1.5263         -DE/DX =    0.0                 !
 ! R13   R(5,15)                 1.0923         -DE/DX =    0.0                 !
 ! R14   R(5,16)                 1.0943         -DE/DX =    0.0                 !
 ! R15   R(6,7)                  1.5312         -DE/DX =    0.0                 !
 ! R16   R(6,17)                 1.0836         -DE/DX =    0.0                 !
 ! R17   R(7,8)                  1.4804         -DE/DX =    0.0                 !
 ! R18   R(7,18)                 1.0887         -DE/DX =    0.0                 !
 ! R19   R(8,9)                  1.2143         -DE/DX =    0.0                 !
 ! R20   R(8,19)                 1.1105         -DE/DX =    0.0                 !
 ! A1    A(2,1,10)             108.8778         -DE/DX =    0.0                 !
 ! A2    A(1,2,3)              117.5314         -DE/DX =    0.0                 !
 ! A3    A(1,2,11)             111.759          -DE/DX =    0.0                 !
 ! A4    A(1,2,12)             105.9523         -DE/DX =    0.0                 !
 ! A5    A(3,2,11)             107.2422         -DE/DX =    0.0                 !
 ! A6    A(3,2,12)             107.5849         -DE/DX =    0.0                 !
 ! A7    A(11,2,12)            106.1354         -DE/DX =    0.0                 !
 ! A8    A(2,3,4)              120.2502         -DE/DX =    0.0                 !
 ! A9    A(2,3,6)              134.9868         -DE/DX =    0.0                 !
 ! A10   A(2,3,7)              127.341          -DE/DX =    0.0                 !
 ! A11   A(4,3,6)               89.8771         -DE/DX =    0.0                 !
 ! A12   A(4,3,7)              107.2826         -DE/DX =    0.0                 !
 ! A13   A(3,4,5)               89.5175         -DE/DX =    0.0                 !
 ! A14   A(3,4,13)             112.0866         -DE/DX =    0.0                 !
 ! A15   A(3,4,14)             115.9645         -DE/DX =    0.0                 !
 ! A16   A(5,4,13)             112.4702         -DE/DX =    0.0                 !
 ! A17   A(5,4,14)             117.362          -DE/DX =    0.0                 !
 ! A18   A(13,4,14)            108.5267         -DE/DX =    0.0                 !
 ! A19   A(4,5,6)               88.5723         -DE/DX =    0.0                 !
 ! A20   A(4,5,15)             112.2255         -DE/DX =    0.0                 !
 ! A21   A(4,5,16)             117.1437         -DE/DX =    0.0                 !
 ! A22   A(6,5,15)             112.9814         -DE/DX =    0.0                 !
 ! A23   A(6,5,16)             116.2682         -DE/DX =    0.0                 !
 ! A24   A(15,5,16)            108.6414         -DE/DX =    0.0                 !
 ! A25   A(3,6,5)               92.0047         -DE/DX =    0.0                 !
 ! A26   A(3,6,17)             129.2084         -DE/DX =    0.0                 !
 ! A27   A(5,6,7)              109.5173         -DE/DX =    0.0                 !
 ! A28   A(5,6,17)             128.0996         -DE/DX =    0.0                 !
 ! A29   A(7,6,17)             117.5925         -DE/DX =    0.0                 !
 ! A30   A(3,7,8)              121.3345         -DE/DX =    0.0                 !
 ! A31   A(3,7,18)             117.7523         -DE/DX =    0.0                 !
 ! A32   A(6,7,8)              114.4935         -DE/DX =    0.0                 !
 ! A33   A(6,7,18)             119.5775         -DE/DX =    0.0                 !
 ! A34   A(8,7,18)             113.8304         -DE/DX =    0.0                 !
 ! A35   A(7,8,9)              125.6022         -DE/DX =    0.0                 !
 ! A36   A(7,8,19)             114.3629         -DE/DX =    0.0                 !
 ! A37   A(9,8,19)             119.9568         -DE/DX =    0.0                 !
 ! D1    D(10,1,2,3)           -45.3565         -DE/DX =    0.0                 !
 ! D2    D(10,1,2,11)           79.2519         -DE/DX =    0.0                 !
 ! D3    D(10,1,2,12)         -165.5781         -DE/DX =    0.0                 !
 ! D4    D(1,2,3,4)           -169.3863         -DE/DX =    0.0                 !
 ! D5    D(1,2,3,6)             65.2048         -DE/DX =    0.0                 !
 ! D6    D(1,2,3,7)            -18.0433         -DE/DX =    0.0                 !
 ! D7    D(11,2,3,4)            63.7802         -DE/DX =    0.0                 !
 ! D8    D(11,2,3,6)           -61.6287         -DE/DX =    0.0                 !
 ! D9    D(11,2,3,7)          -144.8769         -DE/DX =    0.0                 !
 ! D10   D(12,2,3,4)           -50.0239         -DE/DX =    0.0                 !
 ! D11   D(12,2,3,6)          -175.4328         -DE/DX =    0.0                 !
 ! D12   D(12,2,3,7)           101.3191         -DE/DX =    0.0                 !
 ! D13   D(2,3,4,5)           -143.5314         -DE/DX =    0.0                 !
 ! D14   D(2,3,4,13)           -29.3851         -DE/DX =    0.0                 !
 ! D15   D(2,3,4,14)            95.9959         -DE/DX =    0.0                 !
 ! D16   D(6,3,4,5)              1.2672         -DE/DX =    0.0                 !
 ! D17   D(6,3,4,13)           115.4135         -DE/DX =    0.0                 !
 ! D18   D(6,3,4,14)          -119.2055         -DE/DX =    0.0                 !
 ! D19   D(7,3,4,5)             60.0031         -DE/DX =    0.0                 !
 ! D20   D(7,3,4,13)           174.1494         -DE/DX =    0.0                 !
 ! D21   D(7,3,4,14)           -60.4696         -DE/DX =    0.0                 !
 ! D22   D(2,3,6,5)            133.9475         -DE/DX =    0.0                 !
 ! D23   D(2,3,6,17)           -11.678          -DE/DX =    0.0                 !
 ! D24   D(4,3,6,5)             -1.299          -DE/DX =    0.0                 !
 ! D25   D(4,3,6,17)          -146.9245         -DE/DX =    0.0                 !
 ! D26   D(2,3,7,8)             24.4197         -DE/DX =    0.0                 !
 ! D27   D(2,3,7,18)          -124.3247         -DE/DX =    0.0                 !
 ! D28   D(4,3,7,8)            178.7074         -DE/DX =    0.0                 !
 ! D29   D(4,3,7,18)            29.963          -DE/DX =    0.0                 !
 ! D30   D(3,4,5,6)             -1.2567         -DE/DX =    0.0                 !
 ! D31   D(3,4,5,15)           113.056          -DE/DX =    0.0                 !
 ! D32   D(3,4,5,16)          -120.2511         -DE/DX =    0.0                 !
 ! D33   D(13,4,5,6)          -115.0495         -DE/DX =    0.0                 !
 ! D34   D(13,4,5,15)           -0.7368         -DE/DX =    0.0                 !
 ! D35   D(13,4,5,16)          125.9561         -DE/DX =    0.0                 !
 ! D36   D(14,4,5,6)           117.9938         -DE/DX =    0.0                 !
 ! D37   D(14,4,5,15)         -127.6936         -DE/DX =    0.0                 !
 ! D38   D(14,4,5,16)           -1.0007         -DE/DX =    0.0                 !
 ! D39   D(4,5,6,3)              1.2809         -DE/DX =    0.0                 !
 ! D40   D(4,5,6,7)            -58.0193         -DE/DX =    0.0                 !
 ! D41   D(4,5,6,17)           147.5063         -DE/DX =    0.0                 !
 ! D42   D(15,5,6,3)          -112.3236         -DE/DX =    0.0                 !
 ! D43   D(15,5,6,7)          -171.6238         -DE/DX =    0.0                 !
 ! D44   D(15,5,6,17)           33.9018         -DE/DX =    0.0                 !
 ! D45   D(16,5,6,3)           121.0575         -DE/DX =    0.0                 !
 ! D46   D(16,5,6,7)            61.7572         -DE/DX =    0.0                 !
 ! D47   D(16,5,6,17)          -92.7172         -DE/DX =    0.0                 !
 ! D48   D(5,6,7,8)           -165.9107         -DE/DX =    0.0                 !
 ! D49   D(5,6,7,18)           -25.6389         -DE/DX =    0.0                 !
 ! D50   D(17,6,7,8)            -8.4069         -DE/DX =    0.0                 !
 ! D51   D(17,6,7,18)          131.8649         -DE/DX =    0.0                 !
 ! D52   D(3,7,8,9)             43.3886         -DE/DX =    0.0                 !
 ! D53   D(3,7,8,19)          -139.8473         -DE/DX =    0.0                 !
 ! D54   D(6,7,8,9)            -24.1625         -DE/DX =    0.0                 !
 ! D55   D(6,7,8,19)           152.6016         -DE/DX =    0.0                 !
 ! D56   D(18,7,8,9)          -166.7416         -DE/DX =    0.0                 !
 ! D57   D(18,7,8,19)           10.0225         -DE/DX =    0.0                 !
 --------------------------------------------------------------------------------
 GradGradGradGradGradGradGradGradGradGradGradGradGradGradGradGradGradGrad

                          Input orientation:                          
 ---------------------------------------------------------------------
 Center     Atomic      Atomic             Coordinates (Angstroms)
 Number     Number       Type             X           Y           Z
 ---------------------------------------------------------------------
      1          8           0        1.342997    0.026606    0.531985
      2          6           0        0.142642   -0.406304   -0.055696
      3          6           0       -0.343084    0.335459   -1.283198
      4          6           0       -1.760210    0.081311   -1.833985
      5          6           0       -1.208752    0.238973   -3.288730
      6          6           0        0.169398    0.518193   -2.695169
      7          6           0        0.088038    1.727741   -1.759863
      8          6           0        1.399785    2.299424   -1.380308
      9          8           0        2.457265    1.702465   -1.378556
     10          1           0        1.997380    0.171369   -0.163956
     11          1           0        0.177029   -1.480148   -0.314154
     12          1           0       -0.627793   -0.303661    0.720599
     13          1           0       -2.105905   -0.934604   -1.626057
     14          1           0       -2.533325    0.784753   -1.510212
     15          1           0       -1.249704   -0.697269   -3.849829
     16          1           0       -1.641583    1.034282   -3.903261
     17          1           0        1.139007    0.268555   -3.109662
     18          1           0       -0.689340    2.474286   -1.913235
     19          1           0        1.373622    3.381833   -1.133450
 ---------------------------------------------------------------------
                    Distance matrix (angstroms):
                    1          2          3          4          5
     1  O    0.000000
     2  C    1.404860   0.000000
     3  C    2.496627   1.514233   0.000000
     4  C    3.902653   2.649703   1.541495   0.000000
     5  C    4.599390   3.563027   2.186516   1.563729   0.000000
     6  C    3.468935   2.796824   1.513172   2.157751   1.526295
     7  C    3.117908   2.731541   1.533468   2.476338   2.497105
     8  C    2.970823   3.264348   2.627581   3.887341   3.833015
     9  O    2.774935   3.399169   3.117652   4.541217   4.385232
    10  H    0.966182   1.945631   2.599500   4.112979   4.477507
    11  H    2.084644   1.105045   2.122733   2.915637   3.704575
    12  H    2.007154   1.098517   2.122437   2.820722   4.087382
    13  H    4.180430   2.793045   2.199580   1.093079   2.224106
    14  H    4.446485   3.270326   2.247344   1.094242   2.283746
    15  H    5.142605   4.052004   2.911372   2.220457   1.092272
    16  H    5.440086   4.479119   3.006524   2.281256   1.094307
    17  H    3.655371   3.282512   2.353091   3.172991   2.354764
    18  H    4.012559   3.527101   2.256417   2.622856   2.675519
    19  H    3.745953   4.126361   3.499985   4.604899   4.603418
                    6          7          8          9         10
     6  C    0.000000
     7  C    1.531151   0.000000
     8  C    2.532883   1.480393   0.000000
     9  O    2.893148   2.399848   1.214342   0.000000
    10  H    3.141472   2.935098   2.522944   2.007735   0.000000
    11  H    3.108482   3.519737   4.113026   4.057272   2.462468
    12  H    3.602559   3.285073   3.911641   4.236576   2.810627
    13  H    2.903553   3.452444   4.775897   5.276165   4.494204
    14  H    2.963087   2.796979   4.216688   5.075974   4.766124
    15  H    2.196460   3.469609   4.700904   5.060389   4.988362
    16  H    2.237294   2.840181   4.149192   4.860160   5.288580
    17  H    1.083635   2.248492   2.680130   2.605884   3.069761
    18  H    2.274896   1.088654   2.163108   3.283704   3.947388
    19  H    3.477004   2.186582   1.110510   2.013613   3.411169
                   11         12         13         14         15
    11  H    0.000000
    12  H    1.761413   0.000000
    13  H    2.688959   2.844240   0.000000
    14  H    3.729122   3.129252   1.775470   0.000000
    15  H    3.892232   4.629311   2.394697   3.052520   0.000000
    16  H    4.744619   4.919141   3.045943   2.565960   1.776146
    17  H    3.434855   4.256749   3.765386   4.038653   2.680784
    18  H    4.352609   3.828559   3.702655   2.533224   3.758080
    19  H    5.073652   4.585415   5.566094   4.706485   5.558743
                   16         17         18         19
    16  H    0.000000
    17  H    2.991290   0.000000
    18  H    2.634498   3.104760   0.000000
    19  H    4.719566   3.694991   2.384852   0.000000
 Stoichiometry    C7H10O2
 Framework group  C1[X(C7H10O2)]
 Deg. of freedom    51
 Full point group                 C1      NOp   1
 Largest Abelian subgroup         C1      NOp   1
 Largest concise Abelian subgroup C1      NOp   1
                         Standard orientation:                         
 ---------------------------------------------------------------------
 Center     Atomic      Atomic             Coordinates (Angstroms)
 Number     Number       Type             X           Y           Z
 ---------------------------------------------------------------------
      1          8           0       -1.715543    1.594663   -0.083150
      2          6           0       -0.318898    1.736976   -0.030619
      3          6           0        0.506856    0.479326    0.140703
      4          6           0        2.013862    0.575961    0.450217
      5          6           0        2.264938   -0.681067   -0.445376
      6          6           0        0.761192   -0.755619   -0.695906
      7          6           0        0.025892   -0.888276    0.640567
      8          6           0       -1.392470   -1.295678    0.522935
      9          8           0       -2.097347   -1.129052   -0.451750
     10          1           0       -1.932982    0.859832   -0.671581
     11          1           0        0.072454    2.267493   -0.917479
     12          1           0       -0.113946    2.388356    0.829868
     13          1           0        2.461732    1.481901    0.033675
     14          1           0        2.291584    0.504693    1.506228
     15          1           0        2.835717   -0.440113   -1.344937
     16          1           0        2.719812   -1.553089    0.034391
     17          1           0        0.247939   -1.096867   -1.587190
     18          1           0        0.539480   -1.324853    1.495432
     19          1           0       -1.786900   -1.841977    1.405667
 ---------------------------------------------------------------------
 Rotational constants (GHZ):      2.4708612      1.5249862      1.0860681
 1\1\GINC-ALCHEMY-SC\FOpt\RB3LYP\6-31G(2df,p)\C7H10O2\PUCK\28-Jan-2020\
 0\\# b3lyp 6-31G(2df,p) opt Freq\\titel\\0,1\O,1.3429972658,0.02660580
 68,0.5319847169\C,0.1426420995,-0.4063040865,-0.055695871\C,-0.3430835
 381,0.3354593221,-1.2831975873\C,-1.7602098977,0.0813108097,-1.8339850
 201\C,-1.2087523358,0.2389730295,-3.2887304894\C,0.1693976784,0.518193
 0516,-2.6951686227\C,0.0880379257,1.7277413696,-1.7598627366\C,1.39978
 54267,2.2994240143,-1.3803078728\O,2.4572651488,1.7024653579,-1.378555
 8275\H,1.9973803976,0.1713694917,-0.1639560459\H,0.1770294047,-1.48014
 84343,-0.3141536555\H,-0.6277927323,-0.3036614254,0.7205994753\H,-2.10
 59054365,-0.9346036966,-1.6260569258\H,-2.5333245989,0.7847532079,-1.5
 102123145\H,-1.2497039211,-0.6972687288,-3.8498294367\H,-1.6415826581,
 1.0342824727,-3.9032611523\H,1.1390068436,0.2685552898,-3.1096615777\H
 ,-0.6893403385,2.4742857724,-1.9132351054\H,1.3736216661,3.3818334858,
 -1.133450111\\Version=ES64L-G09RevD.01\State=1-A\HF=-423.1601253\RMSD=
 5.141e-09\RMSF=1.705e-05\Dipole=-1.1280421,0.060356,-0.7435608\Quadrup
 ole=-2.0522668,3.9256908,-1.873424,-0.4925897,-1.7051199,0.9092302\PG=
 C01 [X(C7H10O2)]\\@


 It is also a good rule not to put too much confidence in
 experimental results until they have been confirmed by
 Theory.
                             -- Sir Arthur Eddington
 Job cpu time:       0 days  0 hours  7 minutes 19.7 seconds.
 File lengths (MBytes):  RWF=     52 Int=      0 D2E=      0 Chk=      7 Scr=      1
 Normal termination of Gaussian 09 at Tue Jan 28 12:10:25 2020.
 Link1:  Proceeding to internal job step number  2.
 ----------------------------------------------------------------------
 #N Geom=AllCheck Guess=TCheck SCRF=Check GenChk RB3LYP/6-31G(2df,p) Fr
 eq
 ----------------------------------------------------------------------
 1/10=4,29=7,30=1,38=1,40=1/1,3;
 2/12=2,40=1/2;
 3/5=1,6=6,7=104,11=2,14=-4,16=1,25=1,30=1,70=2,71=2,74=-5,116=1,140=1/1,2,3;
 4/5=101/1;
 5/5=2,98=1/2;
 8/6=4,10=90,11=11/1;
 11/6=1,8=1,9=11,15=111,16=1/1,2,10;
 10/6=1/2;
 6/7=2,8=2,9=2,10=2,18=1,28=1/1;
 7/8=1,10=1,25=1/1,2,3,16;
 1/10=4,30=1/3;
 99//99;
 Structure from the checkpoint file:  "/scratch/puck/g09_3743536d-ba34-4600-ad02-d8e5ff0e0cde/Gau-25497.chk"
 -----
 titel
 -----
 Charge =  0 Multiplicity = 1
 Redundant internal coordinates found in file.
 O,0,1.3429972658,0.0266058068,0.5319847169
 C,0,0.1426420995,-0.4063040865,-0.055695871
 C,0,-0.3430835381,0.3354593221,-1.2831975873
 C,0,-1.7602098977,0.0813108097,-1.8339850201
 C,0,-1.2087523358,0.2389730295,-3.2887304894
 C,0,0.1693976784,0.5181930516,-2.6951686227
 C,0,0.0880379257,1.7277413696,-1.7598627366
 C,0,1.3997854267,2.2994240143,-1.3803078728
 O,0,2.4572651488,1.7024653579,-1.3785558275
 H,0,1.9973803976,0.1713694917,-0.1639560459
 H,0,0.1770294047,-1.4801484343,-0.3141536555
 H,0,-0.6277927323,-0.3036614254,0.7205994753
 H,0,-2.1059054365,-0.9346036966,-1.6260569258
 H,0,-2.5333245989,0.7847532079,-1.5102123145
 H,0,-1.2497039211,-0.6972687288,-3.8498294367
 H,0,-1.6415826581,1.0342824727,-3.9032611523
 H,0,1.1390068436,0.2685552898,-3.1096615777
 H,0,-0.6893403385,2.4742857724,-1.9132351054
 H,0,1.3736216661,3.3818334858,-1.133450111
 Recover connectivity data from disk.

 GradGradGradGradGradGradGradGradGradGradGradGradGradGradGradGradGradGrad
 Berny optimization.
 Initialization pass.
                           ----------------------------
                           !    Initial Parameters    !
                           ! (Angstroms and Degrees)  !
 --------------------------                            --------------------------
 ! Name  Definition              Value          Derivative Info.                !
 --------------------------------------------------------------------------------
 ! R1    R(1,2)                  1.4049         calculate D2E/DX2 analytically  !
 ! R2    R(1,10)                 0.9662         calculate D2E/DX2 analytically  !
 ! R3    R(2,3)                  1.5142         calculate D2E/DX2 analytically  !
 ! R4    R(2,11)                 1.105          calculate D2E/DX2 analytically  !
 ! R5    R(2,12)                 1.0985         calculate D2E/DX2 analytically  !
 ! R6    R(3,4)                  1.5415         calculate D2E/DX2 analytically  !
 ! R7    R(3,6)                  1.5132         calculate D2E/DX2 analytically  !
 ! R8    R(3,7)                  1.5335         calculate D2E/DX2 analytically  !
 ! R9    R(4,5)                  1.5637         calculate D2E/DX2 analytically  !
 ! R10   R(4,13)                 1.0931         calculate D2E/DX2 analytically  !
 ! R11   R(4,14)                 1.0942         calculate D2E/DX2 analytically  !
 ! R12   R(5,6)                  1.5263         calculate D2E/DX2 analytically  !
 ! R13   R(5,15)                 1.0923         calculate D2E/DX2 analytically  !
 ! R14   R(5,16)                 1.0943         calculate D2E/DX2 analytically  !
 ! R15   R(6,7)                  1.5312         calculate D2E/DX2 analytically  !
 ! R16   R(6,17)                 1.0836         calculate D2E/DX2 analytically  !
 ! R17   R(7,8)                  1.4804         calculate D2E/DX2 analytically  !
 ! R18   R(7,18)                 1.0887         calculate D2E/DX2 analytically  !
 ! R19   R(8,9)                  1.2143         calculate D2E/DX2 analytically  !
 ! R20   R(8,19)                 1.1105         calculate D2E/DX2 analytically  !
 ! A1    A(2,1,10)             108.8778         calculate D2E/DX2 analytically  !
 ! A2    A(1,2,3)              117.5314         calculate D2E/DX2 analytically  !
 ! A3    A(1,2,11)             111.759          calculate D2E/DX2 analytically  !
 ! A4    A(1,2,12)             105.9523         calculate D2E/DX2 analytically  !
 ! A5    A(3,2,11)             107.2422         calculate D2E/DX2 analytically  !
 ! A6    A(3,2,12)             107.5849         calculate D2E/DX2 analytically  !
 ! A7    A(11,2,12)            106.1354         calculate D2E/DX2 analytically  !
 ! A8    A(2,3,4)              120.2502         calculate D2E/DX2 analytically  !
 ! A9    A(2,3,6)              134.9868         calculate D2E/DX2 analytically  !
 ! A10   A(2,3,7)              127.341          calculate D2E/DX2 analytically  !
 ! A11   A(4,3,6)               89.8771         calculate D2E/DX2 analytically  !
 ! A12   A(4,3,7)              107.2826         calculate D2E/DX2 analytically  !
 ! A13   A(3,4,5)               89.5175         calculate D2E/DX2 analytically  !
 ! A14   A(3,4,13)             112.0866         calculate D2E/DX2 analytically  !
 ! A15   A(3,4,14)             115.9645         calculate D2E/DX2 analytically  !
 ! A16   A(5,4,13)             112.4702         calculate D2E/DX2 analytically  !
 ! A17   A(5,4,14)             117.362          calculate D2E/DX2 analytically  !
 ! A18   A(13,4,14)            108.5267         calculate D2E/DX2 analytically  !
 ! A19   A(4,5,6)               88.5723         calculate D2E/DX2 analytically  !
 ! A20   A(4,5,15)             112.2255         calculate D2E/DX2 analytically  !
 ! A21   A(4,5,16)             117.1437         calculate D2E/DX2 analytically  !
 ! A22   A(6,5,15)             112.9814         calculate D2E/DX2 analytically  !
 ! A23   A(6,5,16)             116.2682         calculate D2E/DX2 analytically  !
 ! A24   A(15,5,16)            108.6414         calculate D2E/DX2 analytically  !
 ! A25   A(3,6,5)               92.0047         calculate D2E/DX2 analytically  !
 ! A26   A(3,6,17)             129.2084         calculate D2E/DX2 analytically  !
 ! A27   A(5,6,7)              109.5173         calculate D2E/DX2 analytically  !
 ! A28   A(5,6,17)             128.0996         calculate D2E/DX2 analytically  !
 ! A29   A(7,6,17)             117.5925         calculate D2E/DX2 analytically  !
 ! A30   A(3,7,8)              121.3345         calculate D2E/DX2 analytically  !
 ! A31   A(3,7,18)             117.7523         calculate D2E/DX2 analytically  !
 ! A32   A(6,7,8)              114.4935         calculate D2E/DX2 analytically  !
 ! A33   A(6,7,18)             119.5775         calculate D2E/DX2 analytically  !
 ! A34   A(8,7,18)             113.8304         calculate D2E/DX2 analytically  !
 ! A35   A(7,8,9)              125.6022         calculate D2E/DX2 analytically  !
 ! A36   A(7,8,19)             114.3629         calculate D2E/DX2 analytically  !
 ! A37   A(9,8,19)             119.9568         calculate D2E/DX2 analytically  !
 ! D1    D(10,1,2,3)           -45.3565         calculate D2E/DX2 analytically  !
 ! D2    D(10,1,2,11)           79.2519         calculate D2E/DX2 analytically  !
 ! D3    D(10,1,2,12)         -165.5781         calculate D2E/DX2 analytically  !
 ! D4    D(1,2,3,4)           -169.3863         calculate D2E/DX2 analytically  !
 ! D5    D(1,2,3,6)             65.2048         calculate D2E/DX2 analytically  !
 ! D6    D(1,2,3,7)            -18.0433         calculate D2E/DX2 analytically  !
 ! D7    D(11,2,3,4)            63.7802         calculate D2E/DX2 analytically  !
 ! D8    D(11,2,3,6)           -61.6287         calculate D2E/DX2 analytically  !
 ! D9    D(11,2,3,7)          -144.8769         calculate D2E/DX2 analytically  !
 ! D10   D(12,2,3,4)           -50.0239         calculate D2E/DX2 analytically  !
 ! D11   D(12,2,3,6)          -175.4328         calculate D2E/DX2 analytically  !
 ! D12   D(12,2,3,7)           101.3191         calculate D2E/DX2 analytically  !
 ! D13   D(2,3,4,5)           -143.5314         calculate D2E/DX2 analytically  !
 ! D14   D(2,3,4,13)           -29.3851         calculate D2E/DX2 analytically  !
 ! D15   D(2,3,4,14)            95.9959         calculate D2E/DX2 analytically  !
 ! D16   D(6,3,4,5)              1.2672         calculate D2E/DX2 analytically  !
 ! D17   D(6,3,4,13)           115.4135         calculate D2E/DX2 analytically  !
 ! D18   D(6,3,4,14)          -119.2055         calculate D2E/DX2 analytically  !
 ! D19   D(7,3,4,5)             60.0031         calculate D2E/DX2 analytically  !
 ! D20   D(7,3,4,13)           174.1494         calculate D2E/DX2 analytically  !
 ! D21   D(7,3,4,14)           -60.4696         calculate D2E/DX2 analytically  !
 ! D22   D(2,3,6,5)            133.9475         calculate D2E/DX2 analytically  !
 ! D23   D(2,3,6,17)           -11.678          calculate D2E/DX2 analytically  !
 ! D24   D(4,3,6,5)             -1.299          calculate D2E/DX2 analytically  !
 ! D25   D(4,3,6,17)          -146.9245         calculate D2E/DX2 analytically  !
 ! D26   D(2,3,7,8)             24.4197         calculate D2E/DX2 analytically  !
 ! D27   D(2,3,7,18)          -124.3247         calculate D2E/DX2 analytically  !
 ! D28   D(4,3,7,8)            178.7074         calculate D2E/DX2 analytically  !
 ! D29   D(4,3,7,18)            29.963          calculate D2E/DX2 analytically  !
 ! D30   D(3,4,5,6)             -1.2567         calculate D2E/DX2 analytically  !
 ! D31   D(3,4,5,15)           113.056          calculate D2E/DX2 analytically  !
 ! D32   D(3,4,5,16)          -120.2511         calculate D2E/DX2 analytically  !
 ! D33   D(13,4,5,6)          -115.0495         calculate D2E/DX2 analytically  !
 ! D34   D(13,4,5,15)           -0.7368         calculate D2E/DX2 analytically  !
 ! D35   D(13,4,5,16)          125.9561         calculate D2E/DX2 analytically  !
 ! D36   D(14,4,5,6)           117.9938         calculate D2E/DX2 analytically  !
 ! D37   D(14,4,5,15)         -127.6936         calculate D2E/DX2 analytically  !
 ! D38   D(14,4,5,16)           -1.0007         calculate D2E/DX2 analytically  !
 ! D39   D(4,5,6,3)              1.2809         calculate D2E/DX2 analytically  !
 ! D40   D(4,5,6,7)            -58.0193         calculate D2E/DX2 analytically  !
 ! D41   D(4,5,6,17)           147.5063         calculate D2E/DX2 analytically  !
 ! D42   D(15,5,6,3)          -112.3236         calculate D2E/DX2 analytically  !
 ! D43   D(15,5,6,7)          -171.6238         calculate D2E/DX2 analytically  !
 ! D44   D(15,5,6,17)           33.9018         calculate D2E/DX2 analytically  !
 ! D45   D(16,5,6,3)           121.0575         calculate D2E/DX2 analytically  !
 ! D46   D(16,5,6,7)            61.7572         calculate D2E/DX2 analytically  !
 ! D47   D(16,5,6,17)          -92.7172         calculate D2E/DX2 analytically  !
 ! D48   D(5,6,7,8)           -165.9107         calculate D2E/DX2 analytically  !
 ! D49   D(5,6,7,18)           -25.6389         calculate D2E/DX2 analytically  !
 ! D50   D(17,6,7,8)            -8.4069         calculate D2E/DX2 analytically  !
 ! D51   D(17,6,7,18)          131.8649         calculate D2E/DX2 analytically  !
 ! D52   D(3,7,8,9)             43.3886         calculate D2E/DX2 analytically  !
 ! D53   D(3,7,8,19)          -139.8473         calculate D2E/DX2 analytically  !
 ! D54   D(6,7,8,9)            -24.1625         calculate D2E/DX2 analytically  !
 ! D55   D(6,7,8,19)           152.6016         calculate D2E/DX2 analytically  !
[...]
 0.00655342,-0.00089911,-0.00371218,-0.15272848,-0.01437575,-0.03683735
 ,0.52878563,0.00212361,-0.00039912,0.00343139,0.01212885,0.00445986,-0
 .00254618,-0.01057545,-0.07648622,0.00130905,-0.01447933,0.59927897,-0
 .00272927,0.00236316,-0.00278676,-0.01863780,-0.00678510,-0.00511538,-
 0.04980933,-0.00122539,-0.06013464,-0.08136845,-0.00679375,0.37929987,
 -0.00091425,0.00004180,-0.00084320,-0.00252933,-0.00226264,-0.00019212
 ,-0.01625550,-0.00311993,-0.02957733,-0.05839458,0.00132774,0.04580456
 ,0.39778802,0.00022907,0.00061745,-0.00027357,-0.00217498,0.00155762,0
 .00278351,0.00660449,0.00709036,0.01068282,0.00379294,-0.08214228,0.00
 923025,-0.04276587,0.59428373,-0.00072288,0.00083327,-0.00068823,-0.00
 177418,-0.00316842,-0.00215552,-0.02090171,-0.00006958,-0.06749326,0.0
 3110102,0.01056332,-0.14367550,0.08872834,0.01677217,0.52831269,-0.001
 01919,0.00089041,-0.00055522,0.00609929,-0.00714868,-0.00863610,-0.058
 10419,-0.00233982,0.04418287,-0.06595905,0.00026122,0.02758533,-0.1741
 0686,-0.01208257,-0.04225824,0.65957597,-0.00091135,-0.00053432,-0.001
 24053,-0.00831231,0.00122942,0.01212563,0.01501528,-0.02714365,-0.0025
 4276,-0.01448483,0.00624759,0.00466677,-0.01413472,-0.07239140,-0.0175
 5031,-0.04905488,0.27643159,-0.00041723,0.00095408,0.00091954,0.008242
 14,-0.00492824,-0.01317134,0.06210151,0.05445545,-0.17805829,0.0307898
 0,0.00372827,-0.02003293,-0.05789868,-0.01840787,-0.06583588,-0.103693
 95,0.10736364,0.46194657,0.00353007,0.00132757,0.00082173,-0.00333345,
 0.00649026,0.00085796,-0.06217516,0.00384632,0.00120225,-0.00842722,-0
 .03661391,-0.00257506,-0.00092581,-0.02853510,-0.00851092,-0.06475551,
 0.02727962,-0.00283238,0.56564004,0.00356990,0.00522755,-0.00101478,-0
 .00677249,-0.01951325,-0.00635086,-0.04401485,-0.12905623,0.08780887,-
 0.00150721,-0.01311266,0.00023778,0.00116138,-0.00948354,-0.00374310,0
 .02775713,-0.10569916,-0.11376907,-0.08206047,0.54959385,0.00190620,-0
 .00167814,0.00234058,0.00450317,0.01987602,0.00029488,-0.00659317,0.03
 142770,-0.03740361,0.00245986,-0.00153237,0.00196821,-0.00493393,-0.02
 353762,-0.00959374,0.00031755,-0.04001252,-0.07500469,0.09480731,0.026
 20363,0.21638042,-0.01246275,-0.00822806,0.00394075,0.01238104,0.00727
 805,0.00905087,-0.00684622,-0.02943553,-0.01190973,-0.00163005,0.00365
 210,-0.00088776,-0.00285731,0.00714970,0.00332186,0.00234074,-0.022264
 93,0.00185286,-0.16918808,-0.00960595,-0.03504588,0.81278233,0.0009628
 6,0.00207868,-0.00191460,-0.00247275,-0.00068026,0.00134950,-0.0148157
 2,-0.00854564,-0.01430811,0.00050938,-0.00284017,-0.00088685,0.0000335
 0,-0.00210521,0.00077702,-0.01611783,-0.01497975,-0.00296654,-0.056438
 67,-0.12823110,-0.01804870,-0.19854315,0.66970933,-0.00089020,-0.00096
 531,-0.00125786,0.00355347,0.00041924,0.00193332,0.02227599,-0.0009780
 9,0.00282047,0.00035263,0.00710294,-0.00253345,0.00012951,-0.00459248,
 -0.00233021,-0.02811128,-0.01957784,-0.01073253,-0.03302575,-0.0058198
 6,-0.07468877,0.04515200,0.08134288,0.23017850,0.00770061,0.00169591,0
 .00184564,-0.00589856,-0.00353472,-0.00565371,0.00041060,0.01256195,0.
 00579096,0.00075708,-0.00258087,0.00138943,0.00166175,-0.00210261,-0.0
 0123327,-0.00109683,0.01177499,-0.00066192,-0.06233435,0.00198546,-0.0
 1088889,-0.56550443,0.27760388,-0.00476273,0.64349528,-0.00850285,-0.0
 0735815,0.00822740,0.00702270,0.00304194,0.00359818,0.00209246,-0.0074
 9041,-0.00197243,-0.00017204,0.00190917,-0.00041725,-0.00082897,0.0023
 1436,0.00132348,-0.00164487,-0.00527618,-0.00148134,0.00837843,0.03696
 117,0.00208730,0.26641580,-0.26826394,-0.01138419,-0.31308795,0.265148
 23,0.00680958,0.00848810,-0.00515078,-0.00423239,0.00007009,-0.0025776
 8,-0.00428785,-0.00030723,-0.00043047,-0.00044923,-0.00199817,0.000895
 21,0.00031858,0.00065581,0.00107902,0.00137874,0.00364710,0.00083391,-
 0.01043541,-0.00132021,0.00963537,-0.00147141,-0.00907002,-0.06606882,
 0.00843776,0.00753868,0.03618847,-0.23427630,-0.05487548,0.19562446,-0
 .03444250,-0.00623722,0.02634570,0.00158421,0.00296360,0.00040947,0.00
 017978,-0.00094025,0.00050911,0.00015870,-0.00020794,-0.00006384,0.000
 08797,0.00062346,-0.00096452,-0.00195599,-0.00105247,-0.00089814,0.005
 01023,0.00225208,-0.00012239,-0.00597043,-0.00079761,-0.00041153,0.272
 22039,-0.05067383,-0.01795565,0.03692339,-0.01336537,-0.00562239,0.007
 54104,0.00090394,0.00491184,-0.00056746,0.00013490,-0.00074909,0.00035
 581,0.00033510,-0.00055421,-0.00014443,-0.00023686,0.00139631,-0.00050
 851,-0.00157716,-0.00333780,-0.00072309,0.01113085,-0.00561226,0.00268
 153,-0.00621993,0.00233843,-0.00316091,0.06048938,0.02496546,0.2447419
 9,0.04995098,-0.29375826,-0.01842381,-0.00418534,0.01378846,-0.0024193
 3,-0.00234454,0.00224199,0.00004142,0.00037147,-0.00059682,-0.00030991
 ,0.00000569,-0.00002312,0.00017705,-0.00037552,-0.00033616,0.00107966,
 0.00224234,0.00077852,-0.00833238,0.00357749,-0.00095489,0.00494591,-0
 .00343498,0.00035453,-0.21812823,-0.04341427,0.28090451,-0.01133765,-0
 .03727010,-0.01625226,-0.05167941,0.02405296,0.00921784,0.00270619,0.0
 0670351,0.00157382,0.00067158,0.00015448,0.00035653,0.00008875,-0.0000
 1173,0.00003572,0.00048083,-0.00094102,-0.00013448,0.00006134,0.001443
 43,-0.00036640,-0.00220859,0.00020252,-0.00065380,0.00093922,-0.001082
 41,0.00080475,0.00178903,-0.00037569,-0.00147317,0.05897802,-0.0145946
 8,-0.00731811,-0.00795824,0.02120951,-0.26244922,-0.04963014,0.0039714
 6,-0.02045532,-0.00022636,-0.00069655,-0.00061087,0.00036548,-0.000194
 77,0.00026705,0.00022439,-0.00106843,0.00146496,-0.00007464,0.00168980
 ,-0.00007818,0.00046296,0.00070089,0.00080694,-0.00040145,-0.00048076,
 -0.00013741,0.00064329,0.00036483,-0.00000973,-0.00089801,-0.01374505,
 0.29278630,-0.01145884,-0.01652813,-0.00342052,0.00817745,-0.04967266,
 -0.05966431,-0.00307738,0.02870948,0.00034179,0.00073230,0.00003032,0.
 00026080,0.00019008,-0.00017542,0.00028796,0.00054462,-0.00158394,0.00
 271083,-0.00162096,0.00481468,-0.00212833,-0.00318562,-0.00015247,-0.0
 0041097,0.00155264,-0.00113565,0.00040488,0.00084792,0.00129883,-0.000
 96766,0.00189043,0.05742717,0.06859992,-0.03769989,-0.00624361,0.01781
 916,-0.15665245,0.01985016,0.11842495,0.00619196,-0.00042140,-0.006447
 02,0.00099196,-0.00024764,0.00066557,0.00088291,0.00015009,0.00000042,
 0.00008724,0.00093980,-0.00302533,0.00013944,-0.00030239,0.00055562,-0
 .00098608,0.00037995,-0.00041956,0.00057865,-0.00085121,0.00087360,-0.
 00411829,0.00118566,-0.00425430,-0.00059964,0.00204039,0.00454821,0.19
 093297,-0.01443176,0.00216404,0.00872297,0.02382247,-0.05432886,-0.022
 98794,-0.01290003,0.00174022,0.01719708,0.00014567,0.00078196,-0.00070
 055,-0.00014833,-0.00070125,0.00009166,0.00126196,-0.00044707,0.001516
 02,-0.00029457,0.00060247,-0.00059139,-0.00021175,0.00009397,0.0001679
 0,0.00018319,-0.00024373,0.00004672,-0.00266451,0.00039316,-0.00102204
 ,0.02097638,-0.00433050,-0.02362498,-0.01647622,0.05445410,-0.01386058
 ,0.00034256,0.01408307,0.12809120,-0.02044668,-0.18021069,0.01678913,-
 0.00158744,-0.02499086,-0.00024813,0.00022920,0.00127189,0.00049843,0.
 00066021,0.00013602,-0.00186810,0.00149469,-0.00025628,0.00025106,0.00
 017292,-0.00002492,-0.00053239,-0.00012438,-0.00029996,0.00023786,-0.0
 0002678,0.00042448,-0.00378224,-0.00077354,0.00010322,0.00531626,-0.00
 131979,-0.00468451,-0.12931018,0.02138355,0.19462915,0.00065688,0.0007
 6838,0.00016990,0.00113476,-0.00131532,0.00042233,-0.00734033,-0.02666
 408,0.00483329,-0.07274574,-0.07489299,0.01359079,-0.00341513,-0.00376
 416,0.00230280,0.00124856,0.00138847,0.00076320,-0.00545209,-0.0004325
 7,-0.00177643,0.00168504,-0.00053242,0.00199568,-0.00092015,0.00054836
 ,-0.00056286,-0.00005001,-0.00034247,0.00028120,-0.00032970,0.00072845
 ,-0.00014234,0.00018228,0.00018945,-0.00035413,0.07679160,0.00010480,0
 .00035606,-0.00020543,0.00040607,0.00007793,0.00091367,-0.00129983,-0.
 00431935,0.00008313,-0.07512347,-0.28050054,0.04531858,0.00083044,-0.0
 0022252,-0.00093207,-0.00003604,0.00012478,0.00028604,-0.00113776,0.00
 002825,-0.00069236,0.00066755,0.00036657,0.00072736,-0.00057130,0.0001
 0380,-0.00019824,0.00005284,-0.00017071,0.00016671,-0.00026930,0.00048
 190,-0.00036245,-0.00012128,-0.00009148,-0.00038050,0.08357837,0.30005
 657,0.00064390,0.00033950,0.00015672,0.00006263,-0.00011903,0.00061912
 ,-0.00355214,-0.01541891,0.00311887,0.01478820,0.04553308,-0.05173581,
 0.00931540,0.02833954,-0.00701608,0.00096399,-0.00008416,-0.00397592,-
 0.00458734,-0.00229484,-0.00057203,0.00104985,-0.00067253,0.00126758,-
 0.00057816,0.00063349,-0.00017852,-0.00008421,-0.00017861,0.00015754,-
 0.00004802,0.00015090,0.00003964,0.00018625,-0.00013467,-0.00013816,-0
 .01724613,-0.04803560,0.05737357,-0.00019902,0.00018858,-0.00075285,-0
 .00120247,-0.00120081,0.00179332,-0.01905149,0.01494493,0.00864495,-0.
 17053057,0.12037458,0.05312724,-0.00290515,0.00218341,-0.00059645,-0.0
 0553623,0.00097295,-0.00013991,0.00213321,0.00187435,-0.00162139,0.000
 28165,0.00011267,-0.00021355,0.00026868,-0.00025688,0.00007926,0.00027
 456,0.00001949,0.00009916,0.00026363,0.00021674,0.00002606,0.00015389,
 0.00013503,-0.00058358,0.00795814,-0.00683767,-0.00290550,0.18814927,0
 .00004578,0.00009920,0.00007417,0.00019539,-0.00040894,-0.00003808,-0.
 00548137,0.00357220,0.00148404,0.11996779,-0.16162196,-0.05038115,-0.0
 0454036,0.00211753,0.00158595,-0.00163673,-0.00004903,0.00195785,-0.00
 043076,0.00256625,-0.00031072,-0.00051902,0.00018004,-0.00005698,0.000
 21503,-0.00009767,-0.00001414,-0.00001214,0.00000752,-0.00001146,-0.00
 015715,0.00019969,-0.00008960,0.00016260,-0.00005309,0.00008735,0.0213
 7078,-0.01873835,-0.00889167,-0.12953850,0.17103554,-0.00032672,-0.000
 18061,-0.00079839,-0.00111818,-0.00048950,0.00135953,-0.00782435,0.011
 69139,0.00389076,0.05190190,-0.05055861,-0.07286755,0.01471775,-0.0214
 7265,-0.00351208,0.00015778,-0.00027010,-0.00032689,0.00206384,0.00112
 807,0.00008125,-0.00016099,0.00043271,-0.00022071,-0.00007051,-0.00016
 278,0.00012854,0.00022706,0.00007624,-0.00004958,0.00016032,-0.0001918
 6,0.00011298,0.00030163,-0.00007600,-0.00019535,-0.00412501,0.00389530
 ,0.00210264,-0.05878813,0.05451037,0.07073373,0.00024487,0.00026430,-0
 .00000746,-0.00004601,-0.00015971,-0.00011998,-0.00019179,0.00034526,0
 .00254973,-0.00062372,0.01485591,0.00739730,-0.04609562,-0.00587581,-0
 .00625649,0.00088637,-0.02818430,-0.01531530,-0.00643326,-0.00159704,-
 0.00355913,0.00276718,-0.00034450,-0.00130175,-0.00105866,0.00069375,-
 0.00001880,-0.00005005,-0.00029404,0.00014775,0.00001621,0.00011074,-0
 .00007057,0.00007462,0.00004610,-0.00006388,0.00143678,0.00011016,-0.0
 0120164,-0.00031397,-0.00027906,0.00282701,0.04763587,-0.00003368,0.00
 006902,-0.00001473,0.00026020,-0.00015889,0.00001355,-0.00022539,-0.00
 027046,0.00036898,0.00017911,0.00480240,0.00455075,-0.00621451,-0.2482
 6774,-0.11657424,-0.00006792,-0.00493461,-0.00221083,-0.00170928,0.000
 39363,-0.00024965,0.00075181,0.00033134,-0.00047494,-0.00042393,0.0000
 2031,0.00002799,0.00003422,-0.00008196,0.00004818,-0.00001242,0.000005
 94,-0.00005083,0.00002101,0.00002140,-0.00005143,-0.00019152,0.0017290
 5,0.00006514,-0.00033673,0.00052003,0.00070328,0.00939516,0.26487981,-
 0.00037138,0.00031732,-0.00029528,-0.00045944,-0.00051491,0.00020811,0
 .00244663,0.00143657,-0.00218165,-0.00058723,-0.02090789,-0.01507874,-
 0.00756739,-0.11602859,-0.11205183,-0.00013073,-0.00666543,-0.00357363
 ,-0.00133145,0.00104354,0.00075568,0.00074083,0.00005765,-0.00016470,-
 0.00018336,0.00008805,-0.00000439,0.00004832,-0.00007771,0.00000339,-0
 .00001849,0.00019773,-0.00005407,-0.00005977,-0.00004472,0.00011161,0.
 00074951,-0.00019347,0.00197163,-0.00045167,0.00010999,-0.00323488,0.0
 0647107,0.12553368,0.12335327,0.00003085,0.00003242,0.00008143,0.00146
 190,-0.00068603,-0.00086090,-0.00359382,0.00068692,-0.00138967,0.00492
 939,-0.01318787,0.00496488,-0.08737890,0.07459145,-0.05337877,-0.00953
 989,0.02065972,-0.01592345,0.00193842,0.00089823,0.00301306,-0.0001702
 2,0.00033226,0.00050981,0.00002964,-0.00038274,-0.00019632,0.00009718,
 0.00002284,0.00015401,-0.00007631,0.00003828,0.00005923,-0.00018266,0.
 00026991,-0.00057203,-0.00039575,-0.00041938,0.00283054,0.00073984,0.0
 0049256,-0.00124019,0.00115988,-0.00097344,0.00084657,0.09155098,0.000
 06164,-0.00000317,0.00007104,0.00005247,-0.00008229,-0.00063323,0.0001
 3031,0.00037626,-0.00265475,-0.00046521,-0.00182845,-0.00196428,0.0745
 8686,-0.19209821,0.10615890,-0.00308175,0.00615731,-0.00428628,-0.0004
 0510,0.00273614,0.00053743,-0.00059467,0.00023468,-0.00005985,0.000168
 55,-0.00017993,0.00002600,-0.00003141,0.00001743,0.00000213,0.00001169
 ,0.00002413,0.00004601,-0.00001675,0.00006545,-0.00006609,-0.00014047,
 0.00052004,0.00066083,0.00007133,0.00088351,0.00029097,0.01085757,-0.0
 1974002,0.01576025,-0.08179094,0.20285453,-0.00064818,0.00007232,-0.00
 051179,-0.00031962,-0.00139741,-0.00043803,-0.00273022,0.00153720,-0.0
 0331004,-0.00984824,0.01817238,-0.00797599,-0.05209221,0.10610945,-0.1
 2566294,-0.00450801,0.00306516,-0.00673063,-0.00075521,0.00073413,0.00
 110175,-0.00000744,-0.00016827,0.00010027,0.00017445,-0.00017836,0.000
 02307,0.00015434,0.00008119,-0.00006467,0.00002323,-0.00010958,0.00011
 466,0.00021994,0.00007545,-0.00001425,-0.00032590,-0.00003526,-0.00309
 077,0.00028807,-0.00036180,0.00183736,0.00668784,-0.01210521,0.0097381
 8,0.06331219,-0.11496174,0.13559562,0.00035195,-0.00005481,0.00027993,
 0.00051265,-0.00026777,-0.00054382,-0.00151740,0.00057065,-0.00114487,
 -0.00384802,0.00021103,0.00062188,-0.00615295,0.00511337,0.00987315,-0
 .28448548,0.06339287,0.09887447,0.00144862,-0.00196332,-0.00112790,0.0
 0048326,-0.00045763,-0.00031935,-0.00048027,-0.00082015,-0.00042944,0.
 00005431,0.00004471,0.00013581,-0.00007030,-0.00010830,0.00032171,-0.0
 0007572,0.00007540,-0.00016763,-0.00036727,0.00007809,0.00044592,-0.00
 055524,-0.00061834,0.00090201,0.00106447,-0.00019640,-0.00015586,-0.00
 115532,-0.00022141,0.00013938,0.29472253,0.00034725,-0.00011456,0.0002
 1086,0.00027993,0.00035164,-0.00127416,-0.01188083,0.00236217,-0.00064
 456,-0.00398866,0.00244915,0.00110669,-0.00570301,-0.00063626,0.003826
 55,0.06132245,-0.04974638,-0.02592695,0.02046514,-0.00969037,-0.011466
 90,0.00560838,0.00010981,0.00191230,-0.00247345,0.00166211,0.00114835,
 0.00004031,0.00012643,0.00016415,0.00010236,-0.00030797,0.00008368,0.0
 0001184,-0.00010542,-0.00000211,0.00003471,-0.00018384,-0.00002893,-0.
 00154608,-0.00028108,0.00059979,0.00048797,0.00048732,0.00000251,0.000
 33927,-0.00017234,0.00018448,-0.06456658,0.05428376,-0.00048694,0.0000
 3063,-0.00000310,-0.00003146,0.00057450,0.00221689,0.01491499,-0.01071
 737,0.00068156,0.00073095,-0.00272768,-0.00168586,-0.00805006,0.007313
 20,0.00767075,0.09355805,-0.02793834,-0.09322206,0.00389458,-0.0026885
 2,-0.00673896,0.00422128,-0.00188940,0.00071216,-0.00140472,0.00202947
 ,0.00069433,-0.00012190,-0.00012058,-0.00060195,-0.00024226,0.00065174
 ,-0.00044682,-0.00005310,0.00002348,0.00005153,-0.00003133,0.00004318,
 0.00064646,0.00130401,0.00046410,0.00074454,0.00122942,-0.00011010,0.0
 0060714,-0.00160941,0.00013162,-0.00024953,-0.10720395,0.03377537,0.08
 932623,0.00035758,0.00043432,-0.00016562,-0.00052714,-0.00146966,-0.00
 081227,0.00670780,-0.00835055,0.00250557,0.00213578,-0.00107551,0.0002
 7573,0.00109088,-0.00126481,0.00020995,-0.00240570,-0.00218158,-0.0021
 0572,-0.19292320,0.13386449,-0.03299718,-0.01580945,0.02408569,-0.0011
 0011,-0.00568041,-0.00423796,-0.00242090,-0.00010445,-0.00042575,0.000
 36933,0.00023286,-0.00022709,0.00062003,-0.00002121,0.00007387,0.00001
 515,0.00009330,0.00003296,0.00000565,0.00011515,0.00070053,0.00032773,
 -0.00008629,-0.00015832,0.00008721,0.00053033,0.00069921,0.00027727,0.
 00006111,0.00087131,-0.00034465,0.20564728,0.00035681,0.00046761,0.000
 09749,-0.00029470,-0.00173004,-0.00200085,0.01156820,-0.01661544,-0.00
 169439,0.00137951,0.00094435,0.00100126,0.00122267,0.00122397,-0.00001
 824,0.00558251,-0.01331023,0.00399685,0.13769039,-0.16822296,0.0248103
 7,-0.01243299,0.01042232,-0.00256741,-0.00276261,-0.00108252,-0.000224
 40,-0.00017904,-0.00032865,0.00009164,0.00022508,-0.00025767,0.0009112
 3,-0.00000563,0.00008363,0.00026170,-0.00012642,0.00047119,0.00022825,
 -0.00129099,0.00003592,0.00002581,-0.00005350,0.00031609,-0.00005603,-
 0.00088549,0.00017025,-0.00064488,-0.00053494,-0.00079130,0.00081553,-
 0.14015551,0.18760569,0.00022036,0.00005782,-0.00006214,-0.00043513,0.
 00269145,0.00183743,-0.01351153,0.00782148,-0.00382997,-0.00092355,-0.
 00198961,0.00022691,0.00196971,0.00110333,0.00187224,0.01900765,-0.012
 71360,0.00416292,-0.03486333,0.02322824,-0.04633359,-0.00300995,0.0093
 5875,-0.00345345,-0.00323829,-0.00141683,0.00297204,0.00014325,-0.0003
 7102,0.00009849,-0.00026260,0.00074305,-0.00108361,0.00018397,-0.00001
 173,0.00012455,-0.00015742,-0.00035385,-0.00036850,0.00066824,-0.00020
 078,0.00018161,0.00022300,0.00048433,-0.00008595,-0.00055852,0.0009355
 7,-0.00036255,-0.00068537,-0.00379929,-0.00004644,0.03461110,-0.025431
 29,0.04452170,0.00079272,0.00050864,-0.00045318,-0.00078622,0.00025282
 ,-0.00029332,-0.00100740,-0.00115107,-0.00250649,0.00030642,-0.0004956
 9,-0.00028067,0.00026038,-0.00102895,0.00012350,-0.00379805,-0.0015772
 5,0.00048887,0.00301299,-0.02324561,-0.00775433,-0.06006829,-0.0167521
 3,-0.00304861,-0.00689743,0.04751415,0.00621390,-0.00048836,-0.0007557
 7,0.00116784,0.00007393,0.00004455,0.00004503,0.00012001,-0.00005225,0
 .00014379,-0.00017116,-0.00004525,-0.00008921,-0.00004388,0.00006298,0
 .00006703,-0.00038689,-0.00009796,-0.00007337,0.00002444,0.00010808,-0
 .00004167,0.00000906,0.00024768,-0.00027350,0.00058578,0.00069668,0.00
 061838,0.06846194,0.00001909,0.00012529,0.00056321,-0.00014563,0.00026
 302,-0.00046180,-0.00079366,0.00061438,-0.00066109,0.00025973,-0.00058
 208,-0.00004221,0.00037362,-0.00086944,0.00004369,-0.00255928,0.001459
 82,0.00030207,0.00203525,-0.01168407,-0.00656194,-0.02151908,-0.253075
 33,-0.04747575,0.02804917,-0.02336958,-0.00599881,0.00017735,0.0002658
 7,-0.00093463,-0.00000754,-0.00008194,0.00005476,-0.00005541,-0.000098
 99,0.00014656,-0.00020456,-0.00008933,-0.00009177,-0.00008639,0.000032
 69,0.00004818,-0.00037894,-0.00012267,-0.00005854,-0.00003797,0.000064
 69,-0.00006925,0.00032353,0.00019715,0.00033917,-0.00121565,0.00059778
 ,-0.00013601,-0.00423363,0.28635276,-0.00056592,-0.00048717,0.00066501
 ,0.00049425,0.00040838,0.00014489,-0.00378394,0.00109044,-0.00263268,0
 .00022500,-0.00141716,0.00029653,-0.00020755,0.00083222,0.00067970,0.0
 0188800,-0.00180795,0.00068346,-0.00444058,-0.01061296,0.01915199,-0.0
 0478673,-0.04669412,-0.07389599,0.00430091,-0.00391545,0.02077682,0.00
 026737,0.00108211,-0.00107752,0.00007257,-0.00005664,-0.00001265,-0.00
 021007,-0.00003081,-0.00012056,-0.00038713,-0.00004471,-0.00037796,0.0
 0002272,0.00008255,0.00003248,0.00038191,0.00004609,-0.00002390,-0.000
 04246,0.00000547,-0.00009974,0.00018393,0.00012817,-0.00035687,0.00064
 173,0.00039735,-0.00037170,0.00594601,0.06099417,0.03653868\\-0.000023
 35,-0.00000382,0.00000740,-0.00001824,-0.00002697,0.00000075,0.0000208
 9,0.00005157,0.00000458,0.00000335,-0.00001290,-0.00000440,-0.00001297
 ,0.00002745,-0.00000480,0.00001963,-0.00000060,0.00003474,0.00000671,-
 0.00001394,-0.00003801,0.00002866,-0.00003246,0.00003166,-0.00003783,0
 .00000708,-0.00000539,0.00002975,-0.00000860,-0.00001788,0.00001546,-0
 .00000300,0.00000076,-0.00000837,0.00000026,0.00000122,-0.00000918,0.0
 0000242,-0.00000188,0.00000824,0.00000147,0.00000703,-0.00000181,0.000
 00453,0.00000138,0.00000005,0.00000436,-0.00000215,-0.00002514,-0.0000
 0502,-0.00001650,-0.00000001,0.00000352,0.00000756,0.00000419,0.000004
 66,-0.00000607\\\@


 NATURE WILL TELL YOU A DIRECT LIE IF SHE CAN.

                                -- CHARLES DARWIN
 Job cpu time:       0 days  0 hours 46 minutes 56.2 seconds.
 File lengths (MBytes):  RWF=    152 Int=      0 D2E=      0 Chk=      8 Scr=      1
 Normal termination of Gaussian 09 at Tue Jan 28 12:57:20 2020.
