 Entering Gaussian System, Link 0=/home/puck/opt/gaussian_09/g09
 Input=dsC7O2H10nsd_4647.com
 Output=dsC7O2H10nsd_4647.log
 Initial command:
 /home/puck/opt/gaussian_09/l1.exe "/scratch/puck/g09_15a9b76d-efa4-426b-adce-82af49085587/Gau-127853.inp" -scrdir="/scratch/puck/g09_15a9b76d-efa4-426b-adce-82af49085587/"
 Entering Link 1 = /home/puck/opt/gaussian_09/l1.exe PID=    127870.
  
 Copyright (c) 1988,1990,1992,1993,1995,1998,2003,2009,2013,
            Gaussian, Inc.  All Rights Reserved.
  
 This is part of the Gaussian(R) 09 program.  It is based on
 the Gaussian(R) 03 system (copyright 2003, Gaussian, Inc.),
 the Gaussian(R) 98 system (copyright 1998, Gaussian, Inc.),
 the Gaussian(R) 94 system (copyright 1995, Gaussian, Inc.),
 the Gaussian 92(TM) system (copyright 1992, Gaussian, Inc.),
 the Gaussian 90(TM) system (copyright 1990, Gaussian, Inc.),
 the Gaussian 88(TM) system (copyright 1988, Gaussian, Inc.),
 the Gaussian 86(TM) system (copyright 1986, Carnegie Mellon
 University), and the Gaussian 82(TM) system (copyright 1983,
 Carnegie Mellon University). Gaussian is a federally registered
 trademark of Gaussian, Inc.
  
 This software contains proprietary and confidential information,
 including trade secrets, belonging to Gaussian, Inc.
  
 This software is provided under written license and may be
 used, copied, transmitted, or stored only in accord with that
 written license.
  
 The following legend is applicable only to US Government
 contracts under FAR:
  
                    RESTRICTED RIGHTS LEGEND
  
 Use, reproduction and disclosure by the US Government is
 subject to restrictions as set forth in subparagraphs (a)
 and (c) of the Commercial Computer Software - Restricted
 Rights clause in FAR 52.227-19.
  
 Gaussian, Inc.
 340 Quinnipiac St., Bldg. 40, Wallingford CT 06492
  
  
 ---------------------------------------------------------------
 Warning -- This program may not be used in any manner that
 competes with the business of Gaussian, Inc. or will provide
 assistance to any competitor of Gaussian, Inc.  The licensee
 of this program is prohibited from giving any competitor of
 Gaussian, Inc. access to this program.  By using this program,
 the user acknowledges that Gaussian, Inc. is engaged in the
 business of creating and licensing software in the field of
 computational chemistry and represents and warrants to the
 licensee that it is not a competitor of Gaussian, Inc. and that
 it will not use this program in any manner prohibited above.
 ---------------------------------------------------------------
  

 Cite this work as:
 Gaussian 09, Revision D.01,
 M. J. Frisch, G. W. Trucks, H. B. Schlegel, G. E. Scuseria, 
 M. A. Robb, J. R. Cheeseman, G. Scalmani, V. Barone, B. Mennucci, 
 G. A. Petersson, H. Nakatsuji, M. Caricato, X. Li, H. P. Hratchian, 
 A. F. Izmaylov, J. Bloino, G. Zheng, J. L. Sonnenberg, M. Hada, 
 M. Ehara, K. Toyota, R. Fukuda, J. Hasegawa, M. Ishida, T. Nakajima, 
 Y. Honda, O. Kitao, H. Nakai, T. Vreven, J. A. Montgomery, Jr., 
 J. E. Peralta, F. Ogliaro, M. Bearpark, J. J. Heyd, E. Brothers, 
 K. N. Kudin, V. N. Staroverov, T. Keith, R. Kobayashi, J. Normand, 
 K. Raghavachari, A. Rendell, J. C. Burant, S. S. Iyengar, J. Tomasi, 
 M. Cossi, N. Rega, J. M. Millam, M. Klene, J. E. Knox, J. B. Cross, 
 V. Bakken, C. Adamo, J. Jaramillo, R. Gomperts, R. E. Stratmann, 
 O. Yazyev, A. J. Austin, R. Cammi, C. Pomelli, J. W. Ochterski, 
 R. L. Martin, K. Morokuma, V. G. Zakrzewski, G. A. Voth, 
 P. Salvador, J. J. Dannenberg, S. Dapprich, A. D. Daniels, 
 O. Farkas, J. B. Foresman, J. V. Ortiz, J. Cioslowski, 
 and D. J. Fox, Gaussian, Inc., Wallingford CT, 2013.
 
 ******************************************
 Gaussian 09:  ES64L-G09RevD.01 24-Apr-2013
                28-Jan-2020 
 ******************************************
 -----------------------------
 # b3lyp 6-31G(2df,p) opt Freq
 -----------------------------
 1/14=-1,18=20,19=15,26=3,38=1/1,3;
 2/9=110,12=2,17=6,18=5,40=1/2;
 3/5=1,6=6,7=104,11=2,16=1,25=1,30=1,71=1,74=-5/1,2,3;
 4//1;
 5/5=2,38=5/2;
 6/7=2,8=2,9=2,10=2,28=1/1;
 7//1,2,3,16;
 1/14=-1,18=20,19=15,26=3/3(2);
 2/9=110/2;
 99//99;
 2/9=110/2;
 3/5=1,6=6,7=104,11=2,16=1,25=1,30=1,71=1,74=-5/1,2,3;
 4/5=5,16=3,69=1/1;
 5/5=2,38=5/2;
 7//1,2,3,16;
 1/14=-1,18=20,19=15,26=3/3(-5);
 2/9=110/2;
 6/7=2,8=2,9=2,10=2,19=2,28=1/1;
 99/9=1/99;
 -----
 titel
 -----
 Symbolic Z-matrix:
 Charge =  0 Multiplicity = 1
 C                    -0.16666  -0.02769   0.11565 
 C                     1.37265  -0.03584   0.08527 
 C                     1.94961   1.29497  -0.07709 
 C                     2.39634   2.40706  -0.19846 
 C                     2.95904   3.73821  -0.38804 
 C                     3.51799   3.90991  -1.80783 
 O                     4.1677    5.19014  -1.95441 
 C                     3.3774    6.23009  -2.25699 
 O                     2.18667   6.2002   -2.40671 
 H                    -0.53531   0.58255   0.94452 
 H                    -0.57122   0.38542  -0.81224 
 H                    -0.55121  -1.04466   0.23776 
 H                     1.75545  -0.48768   1.00948 
 H                     1.71941  -0.68359  -0.73025 
 H                     2.19376   4.50413  -0.21932 
 H                     3.76432   3.92274   0.33371 
 H                     4.29493   3.17162  -2.01088 
 H                     2.71947   3.82063  -2.54648 
 H                     4.00446   7.13008  -2.35188 
 

 GradGradGradGradGradGradGradGradGradGradGradGradGradGradGradGradGradGrad
 Berny optimization.
 Initialization pass.
                           ----------------------------
                           !    Initial Parameters    !
                           ! (Angstroms and Degrees)  !
 --------------------------                            --------------------------
 ! Name  Definition              Value          Derivative Info.                !
 --------------------------------------------------------------------------------
 ! R1    R(1,2)                  1.5396         estimate D2E/DX2                !
 ! R2    R(1,10)                 1.0933         estimate D2E/DX2                !
 ! R3    R(1,11)                 1.0933         estimate D2E/DX2                !
 ! R4    R(1,12)                 1.0941         estimate D2E/DX2                !
 ! R5    R(2,3)                  1.4596         estimate D2E/DX2                !
 ! R6    R(2,13)                 1.0977         estimate D2E/DX2                !
 ! R7    R(2,14)                 1.0977         estimate D2E/DX2                !
 ! R8    R(3,4)                  1.2046         estimate D2E/DX2                !
 ! R9    R(4,5)                  1.4576         estimate D2E/DX2                !
 ! R10   R(5,6)                  1.5355         estimate D2E/DX2                !
 ! R11   R(5,15)                 1.0958         estimate D2E/DX2                !
 ! R12   R(5,16)                 1.097          estimate D2E/DX2                !
 ! R13   R(6,7)                  1.4431         estimate D2E/DX2                !
 ! R14   R(6,17)                 1.0908         estimate D2E/DX2                !
 ! R15   R(6,18)                 1.0914         estimate D2E/DX2                !
 ! R16   R(7,8)                  1.3408         estimate D2E/DX2                !
 ! R17   R(8,9)                  1.2005         estimate D2E/DX2                !
 ! R18   R(8,19)                 1.101          estimate D2E/DX2                !
 ! A1    A(2,1,10)             110.7951         estimate D2E/DX2                !
 ! A2    A(2,1,11)             110.8066         estimate D2E/DX2                !
 ! A3    A(2,1,12)             110.4071         estimate D2E/DX2                !
 ! A4    A(10,1,11)            107.9239         estimate D2E/DX2                !
 ! A5    A(10,1,12)            108.4023         estimate D2E/DX2                !
 ! A6    A(11,1,12)            108.4148         estimate D2E/DX2                !
 ! A7    A(1,2,3)              113.1152         estimate D2E/DX2                !
 ! A8    A(1,2,13)             109.5259         estimate D2E/DX2                !
 ! A9    A(1,2,14)             109.4884         estimate D2E/DX2                !
 ! A10   A(3,2,13)             109.338          estimate D2E/DX2                !
 ! A11   A(3,2,14)             109.3014         estimate D2E/DX2                !
 ! A12   A(13,2,14)            105.8112         estimate D2E/DX2                !
 ! A13   A(4,5,6)              111.2795         estimate D2E/DX2                !
 ! A14   A(4,5,15)             110.4079         estimate D2E/DX2                !
 ! A15   A(4,5,16)             110.5751         estimate D2E/DX2                !
 ! A16   A(6,5,15)             108.5684         estimate D2E/DX2                !
 ! A17   A(6,5,16)             108.8041         estimate D2E/DX2                !
 ! A18   A(15,5,16)            107.0839         estimate D2E/DX2                !
 ! A19   A(5,6,7)              110.9164         estimate D2E/DX2                !
 ! A20   A(5,6,17)             110.8366         estimate D2E/DX2                !
 ! A21   A(5,6,18)             110.5067         estimate D2E/DX2                !
 ! A22   A(7,6,17)             105.1197         estimate D2E/DX2                !
 ! A23   A(7,6,18)             109.464          estimate D2E/DX2                !
 ! A24   A(17,6,18)            109.8622         estimate D2E/DX2                !
 ! A25   A(6,7,8)              116.4645         estimate D2E/DX2                !
 ! A26   A(7,8,9)              126.4046         estimate D2E/DX2                !
 ! A27   A(7,8,19)             108.5285         estimate D2E/DX2                !
 ! A28   A(9,8,19)             125.0664         estimate D2E/DX2                !
 ! A29   L(2,3,4,11,-1)        178.8568         estimate D2E/DX2                !
 ! A30   L(3,4,5,17,-1)        178.0585         estimate D2E/DX2                !
 ! A31   L(2,3,4,11,-2)        178.4695         estimate D2E/DX2                !
 ! A32   L(3,4,5,17,-2)        179.5437         estimate D2E/DX2                !
 ! D1    D(10,1,2,3)           -59.9401         estimate D2E/DX2                !
 ! D2    D(10,1,2,13)           62.2946         estimate D2E/DX2                !
 ! D3    D(10,1,2,14)          177.8995         estimate D2E/DX2                !
 ! D4    D(11,1,2,3)            59.8269         estimate D2E/DX2                !
 ! D5    D(11,1,2,13)         -177.9384         estimate D2E/DX2                !
 ! D6    D(11,1,2,14)          -62.3335         estimate D2E/DX2                !
 ! D7    D(12,1,2,3)           179.9549         estimate D2E/DX2                !
 ! D8    D(12,1,2,13)          -57.8104         estimate D2E/DX2                !
 ! D9    D(12,1,2,14)           57.7945         estimate D2E/DX2                !
 ! D10   D(1,2,5,6)           -106.6599         estimate D2E/DX2                !
 ! D11   D(1,2,5,15)            13.5965         estimate D2E/DX2                !
 ! D12   D(1,2,5,16)           132.4859         estimate D2E/DX2                !
 ! D13   D(13,2,5,6)           131.0765         estimate D2E/DX2                !
 ! D14   D(13,2,5,15)         -108.6671         estimate D2E/DX2                !
 ! D15   D(13,2,5,16)           10.2223         estimate D2E/DX2                !
 ! D16   D(14,2,5,6)            15.2979         estimate D2E/DX2                !
 ! D17   D(14,2,5,15)          135.5543         estimate D2E/DX2                !
 ! D18   D(14,2,5,16)         -105.5563         estimate D2E/DX2                !
 ! D19   D(4,5,6,7)           -175.4147         estimate D2E/DX2                !
 ! D20   D(4,5,6,17)           -59.0401         estimate D2E/DX2                !
 ! D21   D(4,5,6,18)            62.9977         estimate D2E/DX2                !
 ! D22   D(15,5,6,7)            62.8768         estimate D2E/DX2                !
 ! D23   D(15,5,6,17)          179.2514         estimate D2E/DX2                !
 ! D24   D(15,5,6,18)          -58.7107         estimate D2E/DX2                !
 ! D25   D(16,5,6,7)           -53.3395         estimate D2E/DX2                !
 ! D26   D(16,5,6,17)           63.0351         estimate D2E/DX2                !
 ! D27   D(16,5,6,18)         -174.9271         estimate D2E/DX2                !
 ! D28   D(5,6,7,8)            -84.6303         estimate D2E/DX2                !
 ! D29   D(17,6,7,8)           155.5207         estimate D2E/DX2                !
 ! D30   D(18,6,7,8)            37.5667         estimate D2E/DX2                !
 ! D31   D(6,7,8,9)              0.6082         estimate D2E/DX2                !
 ! D32   D(6,7,8,19)          -179.1682         estimate D2E/DX2                !
 ! D33   D(7,8,9,19)          -179.741          estimate D2E/DX2                !
 --------------------------------------------------------------------------------
 Trust Radius=3.00D-01 FncErr=1.00D-07 GrdErr=1.00D-06
 Number of steps in this run=     93 maximum allowed number of steps=    114.
 GradGradGradGradGradGradGradGradGradGradGradGradGradGradGradGradGradGrad

                          Input orientation:                          
 ---------------------------------------------------------------------
 Center     Atomic      Atomic             Coordinates (Angstroms)
 Number     Number       Type             X           Y           Z
 ---------------------------------------------------------------------
      1          6           0       -0.166660   -0.027689    0.115646
      2          6           0        1.372654   -0.035839    0.085270
      3          6           0        1.949610    1.294972   -0.077092
      4          6           0        2.396344    2.407064   -0.198461
      5          6           0        2.959045    3.738207   -0.388041
      6          6           0        3.517986    3.909906   -1.807827
      7          8           0        4.167703    5.190137   -1.954408
      8          6           0        3.377405    6.230094   -2.256989
      9          8           0        2.186674    6.200198   -2.406706
     10          1           0       -0.535306    0.582549    0.944515
     11          1           0       -0.571219    0.385424   -0.812240
     12          1           0       -0.551209   -1.044660    0.237762
     13          1           0        1.755449   -0.487682    1.009478
     14          1           0        1.719411   -0.683591   -0.730250
     15          1           0        2.193762    4.504134   -0.219317
     16          1           0        3.764316    3.922741    0.333713
     17          1           0        4.294934    3.171621   -2.010877
     18          1           0        2.719475    3.820629   -2.546479
     19          1           0        4.004465    7.130077   -2.351876
 ---------------------------------------------------------------------
                    Distance matrix (angstroms):
                    1          2          3          4          5
     1  C    0.000000
     2  C    1.539635   0.000000
     3  C    2.503034   1.459555   0.000000
     4  C    3.549038   2.663873   1.204595   0.000000
     5  C    4.919929   4.121175   2.661775   1.457572   0.000000
     6  C    5.725471   4.873928   3.506156   2.471169   1.535477
     7  O    7.092075   6.267648   4.859687   3.737186   2.454070
     8  C    7.572954   6.983346   5.580857   4.451469   3.142847
     9  O    7.119481   6.764668   5.435489   4.394107   3.276120
    10  H    1.093304   2.181975   2.779575   3.637282   4.893299
    11  H    1.093299   2.182116   2.778903   3.642827   4.887112
    12  H    1.094085   2.177664   3.439057   4.559908   5.965680
    13  H    2.169108   1.097658   2.096709   3.201471   4.610839
    14  H    2.168643   1.097679   2.096264   3.208300   4.605008
    15  H    5.120664   4.623672   3.221576   2.106935   1.095796
    16  H    5.577277   4.631644   3.219796   2.109937   1.097016
    17  H    5.887572   4.818854   3.572377   2.733870   2.176974
    18  H    5.497838   4.859256   3.615177   2.759668   2.173256
    19  H    8.644105   8.013518   6.591321   5.434160   4.056394
                    6          7          8          9         10
     6  C    0.000000
     7  O    1.443125   0.000000
     8  C    2.367441   1.340759   0.000000
     9  O    2.715968   2.269201   1.200478   0.000000
    10  H    5.922488   7.193880   7.579821   7.085043   0.000000
    11  H    5.489514   6.844502   7.199937   6.630226   1.768145
    12  H    6.729822   8.120741   8.635961   8.183959   1.774138
    13  H    5.512035   6.844064   7.643890   7.522234   2.529263
    14  H    5.049383   6.480230   7.271789   7.100380   3.080861
    15  H    2.151753   2.716171   2.920968   2.767915   4.917432
    16  H    2.155699   2.646604   3.490746   3.896878   5.478751
    17  H    1.090845   2.023310   3.202606   3.711296   6.226464
    18  H    1.091419   2.079295   2.514398   2.442491   5.767651
    19  H    3.301840   1.986956   1.100990   2.042558   8.622403
                   11         12         13         14         15
    11  H    0.000000
    12  H    1.774273   0.000000
    13  H    3.081291   2.495284   0.000000
    14  H    2.529131   2.494621   1.751095   0.000000
    15  H    4.996043   6.207487   5.159484   5.234363   0.000000
    16  H    5.711628   6.580884   4.893264   5.150918   1.763661
    17  H    5.734027   6.805770   5.381638   4.809988   3.065974
    18  H    5.063288   6.490023   5.668837   4.958509   2.481781
    19  H    8.294438   9.710135   8.624791   8.300877   3.836930
                   16         17         18         19
    16  H    0.000000
    17  H    2.518499   0.000000
    18  H    3.065554   1.786099   0.000000
    19  H    4.190114   3.983720   3.555491   0.000000
 Stoichiometry    C7H10O2
 Framework group  C1[X(C7H10O2)]
 Deg. of freedom    51
 Full point group                 C1      NOp   1
 Largest Abelian subgroup         C1      NOp   1
 Largest concise Abelian subgroup C1      NOp   1
                         Standard orientation:                         
 ---------------------------------------------------------------------
 Center     Atomic      Atomic             Coordinates (Angstroms)
 Number     Number       Type             X           Y           Z
 ---------------------------------------------------------------------
      1          6           0       -4.138132    1.017851   -0.066075
      2          6           0       -3.529949   -0.385152   -0.245439
      3          6           0       -2.112742   -0.443599    0.098663
      4          6           0       -0.947291   -0.463552    0.402597
      5          6           0        0.473982   -0.502222    0.723537
      6          6           0        1.329355   -0.612003   -0.546886
      7          8           0        2.726581   -0.757168   -0.216284
      8          6           0        3.407079    0.375070    0.013052
      9          8           0        2.965469    1.490879   -0.020103
     10          1           0       -4.048401    1.350033    0.971672
     11          1           0       -3.624980    1.747312   -0.698424
     12          1           0       -5.198317    1.011461   -0.336238
     13          1           0       -4.083402   -1.106315    0.369757
     14          1           0       -3.664863   -0.712679   -1.284391
     15          1           0        0.768209    0.403825    1.265088
     16          1           0        0.698825   -1.354978    1.375991
     17          1           0        1.075109   -1.511430   -1.109319
     18          1           0        1.194205    0.269440   -1.176162
     19          1           0        4.453399    0.115270    0.236426
 ---------------------------------------------------------------------
 Rotational constants (GHZ):      4.6773961      0.5182792      0.4872881
 Standard basis: 6-31G(2df,p) (6D, 7F)
 There are   329 symmetry adapted cartesian basis functions of A   symmetry.
 There are   302 symmetry adapted basis functions of A   symmetry.
   302 basis functions,   466 primitive gaussians,   329 cartesian basis functions
    34 alpha electrons       34 beta electrons
       nuclear repulsion energy       399.6279338492 Hartrees.
 NAtoms=   19 NActive=   19 NUniq=   19 SFac= 1.00D+00 NAtFMM=   60 NAOKFM=F Big=F
 Integral buffers will be    131072 words long.
 Raffenetti 2 integral format.
 Two-electron integral symmetry is turned on.
 One-electron integrals computed using PRISM.
 NBasis=   302 RedAO= T EigKep=  6.45D-05  NBF=   302
 NBsUse=   302 1.00D-06 EigRej= -1.00D+00 NBFU=   302
 ExpMin= 1.61D-01 ExpMax= 5.48D+03 ExpMxC= 8.25D+02 IAcc=1 IRadAn=         1 AccDes= 0.00D+00
 Harris functional with IExCor=  402 and IRadAn=       1 diagonalized for initial guess.
 HarFok:  IExCor=  402 AccDes= 0.00D+00 IRadAn=         1 IDoV= 1 UseB2=F ITyADJ=14
 ICtDFT=  3500011 ScaDFX=  1.000000  1.000000  1.000000  1.000000
 FoFCou: FMM=F IPFlag=           0 FMFlag=      100000 FMFlg1=           0
         NFxFlg=           0 DoJE=T BraDBF=F KetDBF=T FulRan=T
         wScrn=  0.000000 ICntrl=     500 IOpCl=  0 I1Cent=   200000004 NGrid=           0
         NMat0=    1 NMatS0=      1 NMatT0=    0 NMatD0=    1 NMtDS0=    0 NMtDT0=    0
 Petite list used in FoFCou.
 Requested convergence on RMS density matrix=1.00D-08 within 128 cycles.
 Requested convergence on MAX density matrix=1.00D-06.
 Requested convergence on             energy=1.00D-06.
 No special actions if energy rises.
 Integral accuracy reduced to 1.0D-05 until final iterations.
 Initial convergence to 1.0D-05 achieved.  Increase integral accuracy.
 SCF Done:  E(RB3LYP) =  -423.190720466     A.U. after   14 cycles
            NFock= 14  Conv=0.62D-08     -V/T= 2.0075

 **********************************************************************

            Population analysis using the SCF density.

 **********************************************************************

 Orbital symmetries:
       Occupied  (A) (A) (A) (A) (A) (A) (A) (A) (A) (A) (A) (A)
                 (A) (A) (A) (A) (A) (A) (A) (A) (A) (A) (A) (A)
                 (A) (A) (A) (A) (A) (A) (A) (A) (A) (A)
       Virtual   (A) (A) (A) (A) (A) (A) (A) (A) (A) (A) (A) (A)
                 (A) (A) (A) (A) (A) (A) (A) (A) (A) (A) (A) (A)
                 (A) (A) (A) (A) (A) (A) (A) (A) (A) (A) (A) (A)
                 (A) (A) (A) (A) (A) (A) (A) (A) (A) (A) (A) (A)
                 (A) (A) (A) (A) (A) (A) (A) (A) (A) (A) (A) (A)
                 (A) (A) (A) (A) (A) (A) (A) (A) (A) (A) (A) (A)
                 (A) (A) (A) (A) (A) (A) (A) (A) (A) (A) (A) (A)
                 (A) (A) (A) (A) (A) (A) (A) (A) (A) (A) (A) (A)
                 (A) (A) (A) (A) (A) (A) (A) (A) (A) (A) (A) (A)
                 (A) (A) (A) (A) (A) (A) (A) (A) (A) (A) (A) (A)
                 (A) (A) (A) (A) (A) (A) (A) (A) (A) (A) (A) (A)
                 (A) (A) (A) (A) (A) (A) (A) (A) (A) (A) (A) (A)
                 (A) (A) (A) (A) (A) (A) (A) (A) (A) (A) (A) (A)
                 (A) (A) (A) (A) (A) (A) (A) (A) (A) (A) (A) (A)
                 (A) (A) (A) (A) (A) (A) (A) (A) (A) (A) (A) (A)
                 (A) (A) (A) (A) (A) (A) (A) (A) (A) (A) (A) (A)
                 (A) (A) (A) (A) (A) (A) (A) (A) (A) (A) (A) (A)
                 (A) (A) (A) (A) (A) (A) (A) (A) (A) (A) (A) (A)
                 (A) (A) (A) (A) (A) (A) (A) (A) (A) (A) (A) (A)
                 (A) (A) (A) (A) (A) (A) (A) (A) (A) (A) (A) (A)
                 (A) (A) (A) (A) (A) (A) (A) (A) (A) (A) (A) (A)
                 (A) (A) (A) (A) (A) (A) (A) (A) (A) (A) (A) (A)
                 (A) (A) (A) (A)
 The electronic state is 1-A.
 Alpha  occ. eigenvalues --  -19.19259 -19.13696 -10.31149 -10.24773 -10.21120
 Alpha  occ. eigenvalues --  -10.20756 -10.18216 -10.17362 -10.17103  -1.10825
 Alpha  occ. eigenvalues --   -1.02463  -0.80799  -0.78769  -0.72263  -0.67803
 Alpha  occ. eigenvalues --   -0.63096  -0.58412  -0.53559  -0.50179  -0.47389
 Alpha  occ. eigenvalues --   -0.46647  -0.45671  -0.45506  -0.43744  -0.39889
 Alpha  occ. eigenvalues --   -0.39457  -0.39266  -0.36963  -0.36146  -0.35207
 Alpha  occ. eigenvalues --   -0.31271  -0.28394  -0.25122  -0.25067
 Alpha virt. eigenvalues --    0.00527   0.05229   0.05574   0.10820   0.11317
 Alpha virt. eigenvalues --    0.12081   0.13329   0.14846   0.15032   0.15430
 Alpha virt. eigenvalues --    0.16729   0.17176   0.19354   0.20390   0.21393
 Alpha virt. eigenvalues --    0.23803   0.24606   0.26480   0.28252   0.29428
 Alpha virt. eigenvalues --    0.37683   0.39357   0.43662   0.45859   0.47698
 Alpha virt. eigenvalues --    0.48491   0.49595   0.49995   0.50747   0.52602
 Alpha virt. eigenvalues --    0.54008   0.55342   0.56507   0.59515   0.60105
 Alpha virt. eigenvalues --    0.62954   0.65652   0.66914   0.69207   0.69995
 Alpha virt. eigenvalues --    0.71740   0.72019   0.72543   0.73356   0.73651
 Alpha virt. eigenvalues --    0.74539   0.74796   0.75255   0.75755   0.77935
 Alpha virt. eigenvalues --    0.78225   0.80106   0.82028   0.83267   0.84574
 Alpha virt. eigenvalues --    0.85756   0.86432   0.88081   0.88858   0.90759
 Alpha virt. eigenvalues --    0.92628   0.96209   0.99499   1.00857   1.03556
 Alpha virt. eigenvalues --    1.04111   1.07149   1.08957   1.10124   1.10696
 Alpha virt. eigenvalues --    1.12524   1.14187   1.16377   1.18295   1.20508
 Alpha virt. eigenvalues --    1.21179   1.26018   1.27721   1.30388   1.31968
 Alpha virt. eigenvalues --    1.33773   1.41623   1.42598   1.44909   1.45991
 Alpha virt. eigenvalues --    1.47377   1.48783   1.50159   1.50853   1.52598
 Alpha virt. eigenvalues --    1.55099   1.56634   1.58491   1.60272   1.61463
 Alpha virt. eigenvalues --    1.64168   1.66202   1.67869   1.71995   1.74381
 Alpha virt. eigenvalues --    1.76914   1.83338   1.87234   1.89823   1.94623
 Alpha virt. eigenvalues --    1.95347   1.96536   1.96967   2.00780   2.04260
 Alpha virt. eigenvalues --    2.12483   2.14997   2.16032   2.18703   2.26760
 Alpha virt. eigenvalues --    2.27365   2.30636   2.32089   2.35930   2.38416
 Alpha virt. eigenvalues --    2.39788   2.45041   2.47485   2.51640   2.60388
 Alpha virt. eigenvalues --    2.62073   2.63503   2.66043   2.67220   2.68241
 Alpha virt. eigenvalues --    2.73109   2.73307   2.74431   2.76912   2.78415
 Alpha virt. eigenvalues --    2.79308   2.80170   2.80863   2.86110   2.86588
 Alpha virt. eigenvalues --    2.87475   2.92876   2.95739   2.96351   2.97001
 Alpha virt. eigenvalues --    2.99537   3.01240   3.01878   3.04523   3.05185
 Alpha virt. eigenvalues --    3.08193   3.09410   3.11145   3.13887   3.15626
 Alpha virt. eigenvalues --    3.16464   3.17946   3.24507   3.26596   3.28126
 Alpha virt. eigenvalues --    3.32700   3.33606   3.34288   3.36301   3.39637
 Alpha virt. eigenvalues --    3.43313   3.50311   3.51240   3.51563   3.53282
 Alpha virt. eigenvalues --    3.57993   3.59304   3.60986   3.64626   3.65350
 Alpha virt. eigenvalues --    3.68139   3.70340   3.72210   3.74894   3.78301
 Alpha virt. eigenvalues --    3.79860   3.84424   3.92189   3.97098   3.99030
 Alpha virt. eigenvalues --    4.04398   4.05489   4.06626   4.10758   4.14574
 Alpha virt. eigenvalues --    4.16797   4.17493   4.20530   4.21063   4.22145
 Alpha virt. eigenvalues --    4.23675   4.25787   4.28843   4.32450   4.38172
 Alpha virt. eigenvalues --    4.39127   4.40386   4.41061   4.43219   4.44474
 Alpha virt. eigenvalues --    4.46554   4.47859   4.49578   4.50356   4.53630
 Alpha virt. eigenvalues --    4.55142   4.58631   4.59808   4.62482   4.67339
 Alpha virt. eigenvalues --    4.68385   4.70109   4.71844   4.72837   4.73786
 Alpha virt. eigenvalues --    4.77536   4.78284   4.80532   4.83506   4.87365
 Alpha virt. eigenvalues --    4.89132   4.93987   4.96626   4.99123   5.01097
 Alpha virt. eigenvalues --    5.05553   5.06913   5.08195   5.10474   5.14688
 Alpha virt. eigenvalues --    5.17459   5.27117   5.28283   5.34811   5.35674
 Alpha virt. eigenvalues --    5.37654   5.48550   5.49232   5.58301   5.59194
 Alpha virt. eigenvalues --    5.70025   5.81433   5.83587   5.87830   5.98064
 Alpha virt. eigenvalues --    6.10641   6.19507   6.33609   6.35566   6.44936
 Alpha virt. eigenvalues --    6.61966   6.79494   6.94895   7.17392   9.86393
 Alpha virt. eigenvalues --   10.62419  10.90774  11.41901  11.71186  12.10714
 Alpha virt. eigenvalues --   12.35267  12.95771  13.40570
          Condensed to atoms (all electrons):
               1          2          3          4          5          6
     1  C    4.947886   0.393495  -0.035644  -0.001244   0.000012   0.000000
     2  C    0.393495   4.859942   0.445454  -0.044882  -0.000706   0.000087
     3  C   -0.035644   0.445454   4.753441   0.840601  -0.071572   0.003327
     4  C   -0.001244  -0.044882   0.840601   4.901395   0.365395  -0.048351
     5  C    0.000012  -0.000706  -0.071572   0.365395   5.072370   0.391051
     6  C    0.000000   0.000087   0.003327  -0.048351   0.391051   4.821295
     7  O    0.000000   0.000000   0.000014   0.003140  -0.027817   0.299991
     8  C    0.000000   0.000000  -0.000006  -0.000122  -0.001132  -0.065257
     9  O    0.000000   0.000000  -0.000019  -0.000495  -0.002384  -0.003713
    10  H    0.381758  -0.026995  -0.002001   0.000367   0.000007   0.000000
    11  H    0.381533  -0.026712  -0.001727  -0.000024  -0.000025  -0.000002
    12  H    0.366552  -0.022039   0.003306   0.000028   0.000000   0.000000
    13  H   -0.035433   0.368370  -0.024480  -0.004225  -0.000127  -0.000003
    14  H   -0.035000   0.367877  -0.025781  -0.002349   0.000081   0.000009
    15  H    0.000018   0.000026  -0.002285  -0.017712   0.360549  -0.030366
    16  H   -0.000004  -0.000079  -0.000859  -0.014660   0.351761  -0.035001
    17  H    0.000001   0.000030   0.003006   0.003448  -0.039601   0.367124
    18  H   -0.000002   0.000012   0.003267   0.007397  -0.041502   0.357639
    19  H    0.000000   0.000000  -0.000001  -0.000023  -0.000546   0.006836
               7          8          9         10         11         12
     1  C    0.000000   0.000000   0.000000   0.381758   0.381533   0.366552
     2  C    0.000000   0.000000   0.000000  -0.026995  -0.026712  -0.022039
     3  C    0.000014  -0.000006  -0.000019  -0.002001  -0.001727   0.003306
     4  C    0.003140  -0.000122  -0.000495   0.000367  -0.000024   0.000028
     5  C   -0.027817  -0.001132  -0.002384   0.000007  -0.000025   0.000000
     6  C    0.299991  -0.065257  -0.003713   0.000000  -0.000002   0.000000
     7  O    7.702595   0.390921  -0.059954   0.000000   0.000000   0.000000
     8  C    0.390921   4.393011   0.734834   0.000000   0.000000   0.000000
     9  O   -0.059954   0.734834   7.655743   0.000000   0.000000   0.000000
    10  H    0.000000   0.000000   0.000000   0.578756  -0.031749  -0.030087
    11  H    0.000000   0.000000   0.000000  -0.031749   0.578607  -0.029987
    12  H    0.000000   0.000000   0.000000  -0.030087  -0.029987   0.601632
    13  H    0.000000   0.000000   0.000000  -0.004243   0.005102  -0.001751
    14  H    0.000000   0.000000   0.000000   0.005097  -0.004234  -0.001862
    15  H   -0.003473   0.004767   0.005669  -0.000005  -0.000002   0.000000
    16  H    0.001478   0.000835   0.000116   0.000000   0.000001   0.000000
    17  H   -0.016942   0.003802   0.000434   0.000000   0.000000   0.000000
    18  H   -0.026030  -0.000589   0.014993   0.000000   0.000003   0.000000
    19  H   -0.062469   0.359297  -0.041391   0.000000   0.000000   0.000000
              13         14         15         16         17         18
     1  C   -0.035433  -0.035000   0.000018  -0.000004   0.000001  -0.000002
     2  C    0.368370   0.367877   0.000026  -0.000079   0.000030   0.000012
     3  C   -0.024480  -0.025781  -0.002285  -0.000859   0.003006   0.003267
     4  C   -0.004225  -0.002349  -0.017712  -0.014660   0.003448   0.007397
     5  C   -0.000127   0.000081   0.360549   0.351761  -0.039601  -0.041502
     6  C   -0.000003   0.000009  -0.030366  -0.035001   0.367124   0.357639
     7  O    0.000000   0.000000  -0.003473   0.001478  -0.016942  -0.026030
     8  C    0.000000   0.000000   0.004767   0.000835   0.003802  -0.000589
     9  O    0.000000   0.000000   0.005669   0.000116   0.000434   0.014993
    10  H   -0.004243   0.005097  -0.000005   0.000000   0.000000   0.000000
    11  H    0.005102  -0.004234  -0.000002   0.000001   0.000000   0.000003
    12  H   -0.001751  -0.001862   0.000000   0.000000   0.000000   0.000000
    13  H    0.607470  -0.039727  -0.000002   0.000027   0.000000   0.000001
    14  H   -0.039727   0.607545  -0.000004  -0.000002  -0.000009  -0.000005
    15  H   -0.000002  -0.000004   0.571082  -0.039122   0.005283  -0.006337
    16  H    0.000027  -0.000002  -0.039122   0.601037  -0.005465   0.005733
    17  H    0.000000  -0.000009   0.005283  -0.005465   0.587863  -0.037048
    18  H    0.000001  -0.000005  -0.006337   0.005733  -0.037048   0.578527
    19  H    0.000000   0.000000   0.000226   0.000026  -0.000133   0.000770
              19
     1  C    0.000000
     2  C    0.000000
     3  C   -0.000001
     4  C   -0.000023
     5  C   -0.000546
     6  C    0.006836
     7  O   -0.062469
     8  C    0.359297
     9  O   -0.041391
    10  H    0.000000
    11  H    0.000000
    12  H    0.000000
    13  H    0.000000
    14  H    0.000000
    15  H    0.000226
    16  H    0.000026
    17  H   -0.000133
    18  H    0.000770
    19  H    0.624886
 Mulliken charges:
               1
     1  C   -0.363927
     2  C   -0.313881
     3  C    0.111958
     4  C    0.012316
     5  C   -0.355815
     6  C   -0.064666
     7  O   -0.201454
     8  C    0.179638
     9  O   -0.303832
    10  H    0.129093
    11  H    0.129217
    12  H    0.114208
    13  H    0.129022
    14  H    0.128364
    15  H    0.151687
    16  H    0.134178
    17  H    0.128205
    18  H    0.143170
    19  H    0.112519
 Sum of Mulliken charges =   0.00000
 Mulliken charges with hydrogens summed into heavy atoms:
               1
     1  C    0.008591
     2  C   -0.056496
     3  C    0.111958
     4  C    0.012316
     5  C   -0.069949
     6  C    0.206709
     7  O   -0.201454
     8  C    0.292158
     9  O   -0.303832
 Electronic spatial extent (au):  <R**2>=           2243.7957
 Charge=              0.0000 electrons
 Dipole moment (field-independent basis, Debye):
    X=             -0.9115    Y=             -1.5450    Z=             -0.1956  Tot=              1.8045
 Quadrupole moment (field-independent basis, Debye-Ang):
   XX=            -45.6928   YY=            -57.7356   ZZ=            -51.7081
   XY=             -3.9276   XZ=              1.7154   YZ=              0.1143
 Traceless Quadrupole moment (field-independent basis, Debye-Ang):
   XX=              6.0194   YY=             -6.0235   ZZ=              0.0040
   XY=             -3.9276   XZ=              1.7154   YZ=              0.1143
 Octapole moment (field-independent basis, Debye-Ang**2):
  XXX=             16.8950  YYY=             -4.3005  ZZZ=             -2.0751  XYY=             -5.6519
  XXY=            -10.6382  XXZ=             -0.5607  XZZ=             10.0654  YZZ=              0.8715
  YYZ=             -0.7042  XYZ=             -0.7293
 Hexadecapole moment (field-independent basis, Debye-Ang**3):
 XXXX=          -2254.8078 YYYY=           -275.4248 ZZZZ=           -123.4849 XXXY=             -3.9453
 XXXZ=             19.1648 YYYX=            -12.1255 YYYZ=              0.4602 ZZZX=             -0.1396
 ZZZY=              1.9753 XXYY=           -511.6729 XXZZ=           -432.2538 YYZZ=            -61.2530
 XXYZ=             -1.1652 YYXZ=             -0.4063 ZZXY=              2.5399
 N-N= 3.996279338492D+02 E-N=-1.785672348531D+03  KE= 4.200309288245D+02
 Calling FoFJK, ICntrl=      2127 FMM=F ISym2X=0 I1Cent= 0 IOpClX= 0 NMat=1 NMatS=1 NMatT=0.
 ***** Axes restored to original set *****
 -------------------------------------------------------------------
 Center     Atomic                   Forces (Hartrees/Bohr)
 Number     Number              X              Y              Z
 -------------------------------------------------------------------
      1        6          -0.000042098    0.000005814    0.000009040
      2        6           0.000045436    0.000008461   -0.000002917
      3        6          -0.000003778   -0.000011715   -0.000011785
      4        6          -0.000006209    0.000004858    0.000004945
      5        6           0.000067743   -0.000007261   -0.000021371
      6        6          -0.000040271    0.000030077   -0.000020029
      7        8          -0.000001293    0.000026490   -0.000019894
      8        6          -0.000012483   -0.000014994   -0.000001451
      9        8           0.000015242   -0.000003614    0.000005923
     10        1           0.000010791   -0.000002906   -0.000001581
     11        1           0.000001885   -0.000000958   -0.000001581
     12        1           0.000011561   -0.000003566   -0.000002324
     13        1          -0.000003999    0.000003511    0.000000146
     14        1          -0.000019689   -0.000006319    0.000005605
     15        1          -0.000042605   -0.000018374    0.000067336
     16        1           0.000005440    0.000010403   -0.000027711
     17        1           0.000019526   -0.000000459   -0.000025661
     18        1          -0.000003926   -0.000019933    0.000042251
     19        1          -0.000001274    0.000000485    0.000001061
 -------------------------------------------------------------------
 Cartesian Forces:  Max     0.000067743 RMS     0.000021277

 GradGradGradGradGradGradGradGradGradGradGradGradGradGradGradGradGradGrad
 Berny optimization.
 FormGI is forming the generalized inverse of G from B-inverse, IUseBI=4.
 GSVD:  received Info=                   1 from GESDD.
 Internal  Forces:  Max     0.000076853 RMS     0.000022273
 Search for a local minimum.
 Step number   1 out of a maximum of   93
 All quantities printed in internal units (Hartrees-Bohrs-Radians)
 Mixed Optimization -- En-DIIS/RFO-DIIS
 Second derivative matrix not updated -- first step.
 ITU=  0
     Eigenvalues ---    0.00230   0.00242   0.00297   0.01005   0.01090
     Eigenvalues ---    0.01121   0.02475   0.03001   0.03387   0.03827
     Eigenvalues ---    0.03908   0.04495   0.04960   0.05446   0.05491
     Eigenvalues ---    0.05511   0.05600   0.05606   0.08500   0.09150
     Eigenvalues ---    0.11544   0.12367   0.12738   0.13803   0.16000
     Eigenvalues ---    0.16000   0.16000   0.16000   0.21884   0.21893
     Eigenvalues ---    0.22000   0.22086   0.25000   0.28551   0.28923
     Eigenvalues ---    0.33573   0.33940   0.33942   0.34014   0.34151
     Eigenvalues ---    0.34345   0.34434   0.34434   0.34649   0.34715
     Eigenvalues ---    0.37020   0.37270   0.39160   0.57035   1.02547
     Eigenvalues ---    1.04583
 RFO step:  Lambda=-1.71948968D-06 EMin= 2.30000000D-03
 Linear search not attempted -- first point.
 Iteration  1 RMS(Cart)=  0.00765728 RMS(Int)=  0.00001183
 Iteration  2 RMS(Cart)=  0.00002830 RMS(Int)=  0.00000153
 Iteration  3 RMS(Cart)=  0.00000000 RMS(Int)=  0.00000153
 Variable       Old X    -DE/DX   Delta X   Delta X   Delta X     New X
                                 (Linear)    (Quad)   (Total)
    R1        2.90949   0.00003   0.00000   0.00009   0.00009   2.90958
    R2        2.06605  -0.00001   0.00000  -0.00003  -0.00003   2.06602
    R3        2.06604   0.00001   0.00000   0.00002   0.00002   2.06605
    R4        2.06752   0.00000   0.00000   0.00000   0.00000   2.06752
    R5        2.75816   0.00000   0.00000  -0.00001  -0.00001   2.75815
    R6        2.07427   0.00000   0.00000  -0.00001  -0.00001   2.07427
    R7        2.07431  -0.00001   0.00000  -0.00003  -0.00003   2.07428
    R8        2.27635   0.00001   0.00000   0.00001   0.00001   2.27636
    R9        2.75441   0.00000   0.00000   0.00001   0.00001   2.75442
   R10        2.90163   0.00001   0.00000   0.00005   0.00005   2.90168
   R11        2.07075   0.00003   0.00000   0.00009   0.00009   2.07084
   R12        2.07306  -0.00001   0.00000  -0.00004  -0.00004   2.07302
   R13        2.72711   0.00001   0.00000   0.00002   0.00002   2.72713
   R14        2.06140   0.00002   0.00000   0.00006   0.00006   2.06146
   R15        2.06248  -0.00003   0.00000  -0.00009  -0.00009   2.06240
   R16        2.53367  -0.00003   0.00000  -0.00005  -0.00005   2.53362
   R17        2.26858  -0.00002   0.00000  -0.00002  -0.00002   2.26856
   R18        2.08057   0.00000   0.00000   0.00000   0.00000   2.08057
    A1        1.93374   0.00001   0.00000   0.00007   0.00007   1.93381
    A2        1.93394  -0.00001   0.00000  -0.00008  -0.00008   1.93386
    A3        1.92697  -0.00001   0.00000  -0.00009  -0.00009   1.92687
    A4        1.88363   0.00000   0.00000   0.00005   0.00005   1.88367
    A5        1.89198   0.00001   0.00000   0.00010   0.00010   1.89208
    A6        1.89219   0.00000   0.00000  -0.00004  -0.00004   1.89216
    A7        1.97423   0.00000   0.00000  -0.00001  -0.00001   1.97423
    A8        1.91159   0.00001   0.00000   0.00012   0.00012   1.91171
    A9        1.91093  -0.00001   0.00000  -0.00028  -0.00028   1.91065
   A10        1.90831  -0.00001   0.00000   0.00004   0.00003   1.90834
   A11        1.90767   0.00001   0.00000   0.00011   0.00011   1.90778
   A12        1.84675  -0.00001   0.00000   0.00002   0.00002   1.84678
   A13        1.94219  -0.00004   0.00000  -0.00018  -0.00018   1.94201
   A14        1.92698  -0.00005   0.00000  -0.00069  -0.00068   1.92630
   A15        1.92990   0.00005   0.00000   0.00045   0.00045   1.93035
   A16        1.89488   0.00007   0.00000   0.00035   0.00034   1.89522
   A17        1.89899  -0.00001   0.00000   0.00015   0.00015   1.89914
   A18        1.86897  -0.00001   0.00000  -0.00007  -0.00006   1.86890
   A19        1.93586   0.00006   0.00000   0.00031   0.00031   1.93617
   A20        1.93446   0.00000   0.00000   0.00005   0.00005   1.93451
   A21        1.92871  -0.00005   0.00000  -0.00030  -0.00030   1.92840
   A22        1.83469  -0.00003   0.00000  -0.00011  -0.00011   1.83458
   A23        1.91051   0.00000   0.00000   0.00013   0.00013   1.91063
   A24        1.91746   0.00001   0.00000  -0.00007  -0.00007   1.91739
   A25        2.03269  -0.00002   0.00000  -0.00007  -0.00007   2.03262
   A26        2.20618  -0.00001   0.00000  -0.00004  -0.00004   2.20614
   A27        1.89418   0.00000   0.00000   0.00000   0.00000   1.89418
   A28        2.18282   0.00001   0.00000   0.00004   0.00004   2.18286
   A29        3.12164  -0.00004   0.00000  -0.00115  -0.00115   3.12049
   A30        3.10771   0.00002   0.00000   0.00180   0.00179   3.10950
   A31        3.11488  -0.00001   0.00000  -0.00026  -0.00026   3.11462
   A32        3.13363  -0.00008   0.00000  -0.00628  -0.00628   3.12735
    D1       -1.04615   0.00001   0.00000   0.00041   0.00041  -1.04575
    D2        1.08725   0.00001   0.00000   0.00053   0.00053   1.08778
    D3        3.10493   0.00000   0.00000   0.00047   0.00047   3.10540
    D4        1.04418   0.00001   0.00000   0.00046   0.00045   1.04463
    D5       -3.10561   0.00001   0.00000   0.00058   0.00058  -3.10503
    D6       -1.08792   0.00000   0.00000   0.00052   0.00052  -1.08741
    D7        3.14081   0.00000   0.00000   0.00030   0.00029   3.14110
    D8       -1.00898   0.00000   0.00000   0.00042   0.00042  -1.00856
    D9        1.00870  -0.00001   0.00000   0.00036   0.00036   1.00906
   D10       -1.86157   0.00003   0.00000   0.00745   0.00745  -1.85412
   D11        0.23730   0.00003   0.00000   0.00503   0.00503   0.24233
   D12        2.31232   0.00001   0.00000   0.00494   0.00493   2.31725
   D13        2.28772   0.00002   0.00000   0.00753   0.00753   2.29525
   D14       -1.89660   0.00002   0.00000   0.00511   0.00511  -1.89148
   D15        0.17841   0.00001   0.00000   0.00502   0.00502   0.18343
   D16        0.26700   0.00000   0.00000   0.00587   0.00586   0.27286
   D17        2.36587   0.00000   0.00000   0.00344   0.00345   2.36932
   D18       -1.84231  -0.00001   0.00000   0.00335   0.00335  -1.83895
   D19       -3.06156  -0.00003   0.00000  -0.00301  -0.00301  -3.06458
   D20       -1.03044  -0.00002   0.00000  -0.00292  -0.00292  -1.03337
   D21        1.09952  -0.00004   0.00000  -0.00318  -0.00318   1.09634
   D22        1.09741   0.00002   0.00000  -0.00228  -0.00228   1.09513
   D23        3.12853   0.00002   0.00000  -0.00219  -0.00219   3.12634
   D24       -1.02470   0.00000   0.00000  -0.00244  -0.00244  -1.02714
   D25       -0.93095   0.00000   0.00000  -0.00247  -0.00247  -0.93342
   D26        1.10017   0.00000   0.00000  -0.00238  -0.00238   1.09779
   D27       -3.05305  -0.00002   0.00000  -0.00264  -0.00264  -3.05569
   D28       -1.47708   0.00000   0.00000  -0.00115  -0.00115  -1.47823
   D29        2.71435  -0.00002   0.00000  -0.00131  -0.00131   2.71303
   D30        0.65566  -0.00002   0.00000  -0.00124  -0.00124   0.65442
   D31        0.01061  -0.00001   0.00000  -0.00025  -0.00025   0.01036
   D32       -3.12708   0.00000   0.00000  -0.00016  -0.00016  -3.12724
   D33       -3.13707   0.00000   0.00000   0.00011   0.00011  -3.13697
         Item               Value     Threshold  Converged?
 Maximum Force            0.000077     0.000450     YES
 RMS     Force            0.000022     0.000300     YES
 Maximum Displacement     0.024786     0.001800     NO 
 RMS     Displacement     0.007662     0.001200     NO 
 Predicted change in Energy=-8.598291D-07
 GradGradGradGradGradGradGradGradGradGradGradGradGradGradGradGradGradGrad

                          Input orientation:                          
 ---------------------------------------------------------------------
 Center     Atomic      Atomic             Coordinates (Angstroms)
 Number     Number       Type             X           Y           Z
 ---------------------------------------------------------------------
      1          6           0       -0.166962   -0.021330    0.111016
      2          6           0        1.372454   -0.035667    0.086061
      3          6           0        1.955314    1.292853   -0.073907
      4          6           0        2.405664    2.403653   -0.193761
      5          6           0        2.965774    3.735729   -0.384509
      6          6           0        3.519811    3.908682   -1.806093
      7          8           0        4.163787    5.191441   -1.955997
      8          6           0        3.368397    6.227478   -2.258564
      9          8           0        2.177542    6.192117   -2.406004
     10          1           0       -0.536139    0.590482    0.938467
     11          1           0       -0.566509    0.393235   -0.818404
     12          1           0       -0.555925   -1.036779    0.231803
     13          1           0        1.750290   -0.489382    1.011387
     14          1           0        1.719179   -0.684600   -0.728514
     15          1           0        2.199329    4.499927   -0.212936
     16          1           0        3.772893    3.921702    0.334776
     17          1           0        4.299233    3.173463   -2.010956
     18          1           0        2.719357    3.815248   -2.542055
     19          1           0        3.991349    7.130041   -2.355988
 ---------------------------------------------------------------------
                    Distance matrix (angstroms):
                    1          2          3          4          5
     1  C    0.000000
     2  C    1.539685   0.000000
     3  C    2.503064   1.459548   0.000000
     4  C    3.548498   2.663852   1.204598   0.000000
     5  C    4.916815   4.121108   2.661793   1.457578   0.000000
     6  C    5.719493   4.873323   3.505806   2.471042   1.535503
     7  O    7.085260   6.267710   4.859897   3.737410   2.454365
     8  C    7.560508   6.979114   5.578535   4.451056   3.143724
     9  O    7.102043   6.756023   5.430548   4.393008   3.277437
    10  H    1.093289   2.182060   2.779491   3.636446   4.889401
    11  H    1.093309   2.182106   2.779061   3.642220   4.882371
    12  H    1.094083   2.177639   3.439036   4.559462   5.963140
    13  H    2.169238   1.097655   2.096726   3.201804   4.612753
    14  H    2.168471   1.097663   2.096327   3.208509   4.605610
    15  H    5.113320   4.620036   3.219347   2.106491   1.095844
    16  H    5.578532   4.635163   3.222027   2.110246   1.096995
    17  H    5.886966   4.823073   3.575305   2.735034   2.177059
    18  H    5.485340   4.852904   3.610815   2.757805   2.173028
    19  H    8.632483   8.010592   6.589847   5.434000   4.057079
                    6          7          8          9         10
     6  C    0.000000
     7  O    1.443137   0.000000
     8  C    2.367376   1.340733   0.000000
     9  O    2.715816   2.269147   1.200468   0.000000
    10  H    5.915555   7.185823   7.565853   7.065966   0.000000
    11  H    5.480137   6.833197   7.183031   6.608882   1.768170
    12  H    6.724748   8.114978   8.623901   8.166199   1.774188
    13  H    5.514741   6.848509   7.643759   7.516883   2.529660
    14  H    5.049919   6.481564   7.268961   7.093187   3.080766
    15  H    2.152067   2.715796   2.921600   2.770114   4.908388
    16  H    2.155815   2.648146   3.493656   3.900231   5.479893
    17  H    1.090878   2.023264   3.202307   3.710782   6.225087
    18  H    1.091374   2.079363   2.514055   2.441635   5.754251
    19  H    3.301800   1.986932   1.100990   2.042571   8.609147
                   11         12         13         14         15
    11  H    0.000000
    12  H    1.774257   0.000000
    13  H    3.081348   2.495200   0.000000
    14  H    2.528671   2.494462   1.751095   0.000000
    15  H    4.988123   6.200349   5.156918   5.232177   0.000000
    16  H    5.710543   6.582993   4.899631   5.154254   1.763642
    17  H    5.729510   6.806517   5.389629   4.815183   3.066265
    18  H    5.047579   6.477957   5.665322   4.953576   2.482742
    19  H    8.277848   9.699036   8.626538   8.299399   3.836861
                   16         17         18         19
    16  H    0.000000
    17  H    2.517807   0.000000
    18  H    3.065522   1.786047   0.000000
    19  H    4.193015   3.983509   3.555339   0.000000
 Stoichiometry    C7H10O2
 Framework group  C1[X(C7H10O2)]
 Deg. of freedom    51
 Full point group                 C1      NOp   1
 Largest Abelian subgroup         C1      NOp   1
 Largest concise Abelian subgroup C1      NOp   1
                         Standard orientation:                         
 ---------------------------------------------------------------------
 Center     Atomic      Atomic             Coordinates (Angstroms)
 Number     Number       Type             X           Y           Z
 ---------------------------------------------------------------------
      1          6           0       -4.129348    1.024436   -0.064052
      2          6           0       -3.529151   -0.381627   -0.246748
      3          6           0       -2.112497   -0.449131    0.097951
      4          6           0       -0.947311   -0.475183    0.402449
      5          6           0        0.474070   -0.513136    0.723023
      6          6           0        1.329329   -0.612914   -0.548334
      7          8           0        2.727461   -0.753460   -0.219518
      8          6           0        3.403313    0.380781    0.013478
      9          8           0        2.956935    1.494801   -0.015332
     10          1           0       -4.037935    1.353630    0.974484
     11          1           0       -3.611895    1.752421   -0.694612
     12          1           0       -5.189471    1.024696   -0.334528
     13          1           0       -4.087090   -1.101298    0.366134
     14          1           0       -3.665466   -0.705375   -1.286685
     15          1           0        0.765890    0.390290    1.270322
     16          1           0        0.701068   -1.369330    1.370171
     17          1           0        1.078796   -1.510687   -1.115124
     18          1           0        1.189609    0.270976   -1.173084
     19          1           0        4.450894    0.124597    0.235115
 ---------------------------------------------------------------------
 Rotational constants (GHZ):      4.6468041      0.5194571      0.4880280
 Standard basis: 6-31G(2df,p) (6D, 7F)
 There are   329 symmetry adapted cartesian basis functions of A   symmetry.
 There are   302 symmetry adapted basis functions of A   symmetry.
   302 basis functions,   466 primitive gaussians,   329 cartesian basis functions
    34 alpha electrons       34 beta electrons
       nuclear repulsion energy       399.6751266558 Hartrees.
 NAtoms=   19 NActive=   19 NUniq=   19 SFac= 1.00D+00 NAtFMM=   60 NAOKFM=F Big=F
 Integral buffers will be    131072 words long.
 Raffenetti 2 integral format.
 Two-electron integral symmetry is turned on.
 One-electron integrals computed using PRISM.
 NBasis=   302 RedAO= T EigKep=  6.44D-05  NBF=   302
 NBsUse=   302 1.00D-06 EigRej= -1.00D+00 NBFU=   302
 Initial guess from the checkpoint file:  "/scratch/puck/g09_15a9b76d-efa4-426b-adce-82af49085587/Gau-127870.chk"
 B after Tr=     0.000000    0.000000    0.000000
         Rot=    0.999998   -0.002146    0.000012   -0.000043 Ang=  -0.25 deg.
 ExpMin= 1.61D-01 ExpMax= 5.48D+03 ExpMxC= 8.25D+02 IAcc=1 IRadAn=         1 AccDes= 0.00D+00
 Harris functional with IExCor=  402 and IRadAn=       1 diagonalized for initial guess.
 HarFok:  IExCor=  402 AccDes= 0.00D+00 IRadAn=         1 IDoV= 1 UseB2=F ITyADJ=14
 ICtDFT=  3500011 ScaDFX=  1.000000  1.000000  1.000000  1.000000
 FoFCou: FMM=F IPFlag=           0 FMFlag=      100000 FMFlg1=           0
         NFxFlg=           0 DoJE=T BraDBF=F KetDBF=T FulRan=T
         wScrn=  0.000000 ICntrl=     500 IOpCl=  0 I1Cent=   200000004 NGrid=           0
         NMat0=    1 NMatS0=      1 NMatT0=    0 NMatD0=    1 NMtDS0=    0 NMtDT0=    0
 Petite list used in FoFCou.
 Requested convergence on RMS density matrix=1.00D-08 within 128 cycles.
 Requested convergence on MAX density matrix=1.00D-06.
 Requested convergence on             energy=1.00D-06.
 No special actions if energy rises.
 Integral accuracy reduced to 1.0D-05 until final iterations.
 Initial convergence to 1.0D-05 achieved.  Increase integral accuracy.
 SCF Done:  E(RB3LYP) =  -423.190721627     A.U. after    9 cycles
            NFock=  9  Conv=0.73D-08     -V/T= 2.0075
 Calling FoFJK, ICntrl=      2127 FMM=F ISym2X=0 I1Cent= 0 IOpClX= 0 NMat=1 NMatS=1 NMatT=0.
 ***** Axes restored to original set *****
 -------------------------------------------------------------------
 Center     Atomic                   Forces (Hartrees/Bohr)
 Number     Number              X              Y              Z
 -------------------------------------------------------------------
      1        6          -0.000009060    0.000022098   -0.000000215
      2        6           0.000103128   -0.000031076    0.000027078
      3        6          -0.000024057    0.000004195   -0.000023341
      4        6          -0.000204840    0.000066775   -0.000081329
      5        6           0.000193502   -0.000032680    0.000041679
      6        6          -0.000020806   -0.000000939   -0.000034306
      7        8          -0.000002950   -0.000014031    0.000026752
      8        6          -0.000016204   -0.000002350   -0.000015420
      9        8          -0.000001267    0.000011578    0.000014066
     10        1           0.000007702   -0.000002174    0.000005014
     11        1           0.000001378    0.000002403    0.000006668
     12        1           0.000009050   -0.000002501    0.000003132
     13        1          -0.000016745   -0.000010079    0.000002044
     14        1           0.000006717   -0.000011080    0.000005025
     15        1          -0.000021344   -0.000022754    0.000036880
     16        1           0.000017339    0.000021787   -0.000023726
     17        1          -0.000003372   -0.000000258   -0.000009853
     18        1          -0.000013993   -0.000001813    0.000018703
     19        1          -0.000004180    0.000002898    0.000001148
 -------------------------------------------------------------------
 Cartesian Forces:  Max     0.000204840 RMS     0.000045087

 GradGradGradGradGradGradGradGradGradGradGradGradGradGradGradGradGradGrad
 Berny optimization.
 Using GEDIIS/GDIIS optimizer.
 FormGI is forming the generalized inverse of G from B-inverse, IUseBI=4.
 GSVD:  received Info=                   1 from GESDD.
 Internal  Forces:  Max     0.000214288 RMS     0.000036735
 Search for a local minimum.
 Step number   2 out of a maximum of   93
 All quantities printed in internal units (Hartrees-Bohrs-Radians)
 Mixed Optimization -- En-DIIS/RFO-DIIS
 Swapping is turned off.
 Update second derivatives using D2CorX and points    1    2
 DE= -1.16D-06 DEPred=-8.60D-07 R= 1.35D+00
 TightC=F SS=  1.41D+00  RLast= 1.96D-02 DXNew= 5.0454D-01 5.8858D-02
 Trust test= 1.35D+00 RLast= 1.96D-02 DXMaxT set to 3.00D-01
 ITU=  1  0
     Eigenvalues ---    0.00112   0.00242   0.00290   0.01007   0.01099
     Eigenvalues ---    0.02467   0.02797   0.03057   0.03367   0.03826
     Eigenvalues ---    0.04296   0.04650   0.04958   0.05478   0.05492
     Eigenvalues ---    0.05508   0.05587   0.06745   0.08459   0.09623
     Eigenvalues ---    0.11529   0.12494   0.12783   0.13730   0.15982
     Eigenvalues ---    0.16000   0.16000   0.16001   0.21642   0.21934
     Eigenvalues ---    0.22004   0.22348   0.25003   0.28536   0.28963
     Eigenvalues ---    0.33573   0.33939   0.33942   0.34009   0.34114
     Eigenvalues ---    0.34345   0.34428   0.34434   0.34615   0.34706
     Eigenvalues ---    0.37019   0.37269   0.39177   0.57041   1.02547
     Eigenvalues ---    1.04568
 En-DIIS/RFO-DIIS IScMMF=        0 using points:     2    1
 RFO step:  Lambda=-4.36098834D-07.
 DidBck=T Rises=F RFO-DIIS coefs:    0.56804    0.43196
 Iteration  1 RMS(Cart)=  0.00488022 RMS(Int)=  0.00000947
 Iteration  2 RMS(Cart)=  0.00001432 RMS(Int)=  0.00000106
 Iteration  3 RMS(Cart)=  0.00000000 RMS(Int)=  0.00000106
 Variable       Old X    -DE/DX   Delta X   Delta X   Delta X     New X
                                 (Linear)    (Quad)   (Total)
    R1        2.90958   0.00000  -0.00004   0.00015   0.00011   2.90969
    R2        2.06602   0.00000   0.00001  -0.00005  -0.00004   2.06598
    R3        2.06605   0.00000  -0.00001   0.00003   0.00002   2.06607
    R4        2.06752   0.00000   0.00000  -0.00001   0.00000   2.06751
    R5        2.75815  -0.00001   0.00001  -0.00003  -0.00002   2.75812
    R6        2.07427   0.00000   0.00000  -0.00001  -0.00001   2.07426
    R7        2.07428   0.00000   0.00001  -0.00004  -0.00003   2.07425
    R8        2.27636   0.00000   0.00000   0.00001   0.00001   2.27637
    R9        2.75442   0.00001   0.00000   0.00003   0.00002   2.75444
   R10        2.90168  -0.00002  -0.00002   0.00004   0.00002   2.90170
   R11        2.07084   0.00001  -0.00004   0.00016   0.00012   2.07096
   R12        2.07302   0.00000   0.00002  -0.00006  -0.00004   2.07298
   R13        2.72713  -0.00002  -0.00001   0.00002   0.00001   2.72714
   R14        2.06146   0.00000  -0.00003   0.00010   0.00008   2.06154
   R15        2.06240  -0.00001   0.00004  -0.00015  -0.00011   2.06229
   R16        2.53362   0.00001   0.00002  -0.00007  -0.00005   2.53357
   R17        2.26856   0.00000   0.00001  -0.00003  -0.00002   2.26853
   R18        2.08057   0.00000   0.00000   0.00000   0.00000   2.08057
    A1        1.93381   0.00000  -0.00003   0.00013   0.00010   1.93392
    A2        1.93386   0.00000   0.00004  -0.00015  -0.00011   1.93374
    A3        1.92687  -0.00001   0.00004  -0.00018  -0.00014   1.92673
    A4        1.88367   0.00000  -0.00002   0.00008   0.00006   1.88373
    A5        1.89208   0.00000  -0.00004   0.00018   0.00014   1.89221
    A6        1.89216   0.00001   0.00002  -0.00005  -0.00003   1.89212
    A7        1.97423  -0.00006   0.00000  -0.00015  -0.00015   1.97408
    A8        1.91171  -0.00001  -0.00005   0.00016   0.00011   1.91182
    A9        1.91065  -0.00003   0.00012  -0.00049  -0.00036   1.91029
   A10        1.90834   0.00004  -0.00001   0.00018   0.00017   1.90851
   A11        1.90778   0.00003  -0.00005   0.00023   0.00018   1.90796
   A12        1.84678   0.00002  -0.00001   0.00008   0.00007   1.84685
   A13        1.94201  -0.00003   0.00008  -0.00038  -0.00030   1.94172
   A14        1.92630  -0.00003   0.00030  -0.00137  -0.00107   1.92522
   A15        1.93035   0.00004  -0.00019   0.00100   0.00080   1.93115
   A16        1.89522  -0.00001  -0.00015   0.00052   0.00038   1.89560
   A17        1.89914   0.00005  -0.00006   0.00037   0.00031   1.89944
   A18        1.86890  -0.00001   0.00003  -0.00012  -0.00010   1.86881
   A19        1.93617  -0.00001  -0.00013   0.00044   0.00031   1.93648
   A20        1.93451   0.00000  -0.00002   0.00008   0.00006   1.93457
   A21        1.92840  -0.00001   0.00013  -0.00054  -0.00041   1.92800
   A22        1.83458   0.00000   0.00005  -0.00016  -0.00011   1.83446
   A23        1.91063   0.00002  -0.00006   0.00027   0.00022   1.91085
   A24        1.91739   0.00001   0.00003  -0.00007  -0.00004   1.91735
   A25        2.03262   0.00000   0.00003  -0.00010  -0.00007   2.03254
   A26        2.20614   0.00001   0.00002  -0.00003  -0.00002   2.20612
   A27        1.89418   0.00000   0.00000  -0.00002  -0.00001   1.89416
   A28        2.18286  -0.00001  -0.00002   0.00005   0.00003   2.18289
   A29        3.12049   0.00015   0.00050   0.00033   0.00082   3.12132
   A30        3.10950  -0.00011  -0.00077  -0.00241  -0.00319   3.10631
   A31        3.11462   0.00000   0.00011  -0.00040  -0.00030   3.11433
   A32        3.12735   0.00021   0.00271   0.00034   0.00306   3.13040
    D1       -1.04575  -0.00001  -0.00018   0.00060   0.00043  -1.04532
    D2        1.08778   0.00000  -0.00023   0.00085   0.00062   1.08840
    D3        3.10540   0.00001  -0.00020   0.00077   0.00057   3.10597
    D4        1.04463  -0.00001  -0.00020   0.00069   0.00050   1.04513
    D5       -3.10503   0.00000  -0.00025   0.00094   0.00069  -3.10434
    D6       -1.08741   0.00001  -0.00022   0.00086   0.00063  -1.08677
    D7        3.14110  -0.00001  -0.00013   0.00041   0.00028   3.14138
    D8       -1.00856   0.00000  -0.00018   0.00066   0.00048  -1.00808
    D9        1.00906   0.00001  -0.00015   0.00058   0.00042   1.00948
   D10       -1.85412  -0.00003  -0.00322   0.01184   0.00862  -1.84550
   D11        0.24233   0.00002  -0.00217   0.01140   0.00923   0.25156
   D12        2.31725   0.00002  -0.00213   0.01188   0.00975   2.32700
   D13        2.29525  -0.00003  -0.00325   0.01119   0.00793   2.30318
   D14       -1.89148   0.00002  -0.00221   0.01075   0.00854  -1.88295
   D15        0.18343   0.00002  -0.00217   0.01123   0.00906   0.19249
   D16        0.27286   0.00000  -0.00253   0.01123   0.00870   0.28156
   D17        2.36932   0.00004  -0.00149   0.01079   0.00930   2.37862
   D18       -1.83895   0.00005  -0.00145   0.01127   0.00983  -1.82913
   D19       -3.06458  -0.00004   0.00130  -0.00501  -0.00370  -3.06828
   D20       -1.03337  -0.00004   0.00126  -0.00488  -0.00362  -1.03699
   D21        1.09634  -0.00004   0.00137  -0.00528  -0.00391   1.09243
   D22        1.09513   0.00002   0.00098  -0.00341  -0.00243   1.09271
   D23        3.12634   0.00002   0.00094  -0.00328  -0.00234   3.12400
   D24       -1.02714   0.00002   0.00105  -0.00369  -0.00263  -1.02977
   D25       -0.93342   0.00002   0.00107  -0.00375  -0.00268  -0.93610
   D26        1.09779   0.00002   0.00103  -0.00363  -0.00260   1.09519
   D27       -3.05569   0.00002   0.00114  -0.00403  -0.00289  -3.05858
   D28       -1.47823   0.00000   0.00050  -0.00193  -0.00144  -1.47967
   D29        2.71303   0.00000   0.00057  -0.00217  -0.00160   2.71143
   D30        0.65442  -0.00001   0.00054  -0.00214  -0.00160   0.65282
   D31        0.01036   0.00001   0.00011  -0.00024  -0.00013   0.01023
   D32       -3.12724   0.00000   0.00007  -0.00015  -0.00008  -3.12731
   D33       -3.13697   0.00000  -0.00005   0.00011   0.00006  -3.13690
         Item               Value     Threshold  Converged?
 Maximum Force            0.000214     0.000450     YES
 RMS     Force            0.000037     0.000300     YES
 Maximum Displacement     0.014405     0.001800     NO 
 RMS     Displacement     0.004880     0.001200     NO 
 Predicted change in Energy=-1.255528D-06
 GradGradGradGradGradGradGradGradGradGradGradGradGradGradGradGradGradGrad

                          Input orientation:                          
 ---------------------------------------------------------------------
 Center     Atomic      Atomic             Coordinates (Angstroms)
 Number     Number       Type             X           Y           Z
 ---------------------------------------------------------------------
      1          6           0       -0.166922   -0.021583    0.107272
      2          6           0        1.372647   -0.034284    0.088066
      3          6           0        1.954459    1.294707   -0.071705
      4          6           0        2.404632    2.405656   -0.190869
      5          6           0        2.969626    3.735631   -0.381962
      6          6           0        3.517609    3.908225   -1.805943
      7          8           0        4.162298    5.190266   -1.958923
      8          6           0        3.366843    6.226735   -2.259724
      9          8           0        2.175515    6.192248   -2.403394
     10          1           0       -0.539939    0.591367    0.932128
     11          1           0       -0.563349    0.390731   -0.824495
     12          1           0       -0.555083   -1.037296    0.228408
     13          1           0        1.747635   -0.486383    1.015337
     14          1           0        1.722721   -0.684003   -0.724425
     15          1           0        2.206372    4.502035   -0.205673
     16          1           0        3.780515    3.917934    0.333978
     17          1           0        4.295368    3.172199   -2.014410
     18          1           0        2.713633    3.815420   -2.538048
     19          1           0        3.990259    7.128688   -2.359796
 ---------------------------------------------------------------------
                    Distance matrix (angstroms):
                    1          2          3          4          5
     1  C    0.000000
     2  C    1.539742   0.000000
     3  C    2.502980   1.459537   0.000000
     4  C    3.548700   2.663852   1.204602   0.000000
     5  C    4.918734   4.121107   2.661754   1.457589   0.000000
     6  C    5.716604   4.871500   3.504497   2.470809   1.535512
     7  O    7.083409   6.266437   4.859169   3.737573   2.454636
     8  C    7.558548   6.977771   5.577379   4.450467   3.144737
     9  O    7.099447   6.754381   5.428770   4.391587   3.278989
    10  H    1.093269   2.182170   2.779278   3.636381   4.891858
    11  H    1.093319   2.182083   2.779069   3.642845   4.885295
    12  H    1.094081   2.177584   3.438910   4.559564   5.964642
    13  H    2.169366   1.097652   2.096835   3.201635   4.612061
    14  H    2.168242   1.097646   2.096434   3.208688   4.604912
    15  H    5.117967   4.621641   3.219994   2.105784   1.095906
    16  H    5.581528   4.634472   3.221860   2.110807   1.096971
    17  H    5.883351   4.821227   3.574763   2.736379   2.177139
    18  H    5.478860   4.849220   3.607379   2.755388   2.172696
    19  H    8.631047   8.009500   6.589020   5.433736   4.057876
                    6          7          8          9         10
     6  C    0.000000
     7  O    1.443140   0.000000
     8  C    2.367306   1.340708   0.000000
     9  O    2.715681   2.269103   1.200455   0.000000
    10  H    5.912891   7.184642   7.563613   7.061817   0.000000
    11  H    5.476333   6.830388   7.180894   6.606958   1.768199
    12  H    6.721873   8.112991   8.621975   8.163874   1.774259
    13  H    5.514074   6.848442   7.642893   7.514979   2.530112
    14  H    5.047758   6.479394   7.267639   7.092727   3.080644
    15  H    2.152398   2.715363   2.922398   2.772679   4.912244
    16  H    2.156032   2.649902   3.496995   3.904066   5.485450
    17  H    1.090918   2.023210   3.201957   3.710227   6.222778
    18  H    1.091315   2.079475   2.513681   2.440700   5.746509
    19  H    3.301747   1.986902   1.100991   2.042577   8.607905
                   11         12         13         14         15
    11  H    0.000000
    12  H    1.774241   0.000000
    13  H    3.081389   2.495049   0.000000
    14  H    2.528078   2.494213   1.751127   0.000000
    15  H    4.995710   6.204695   5.156124   5.234311   0.000000
    16  H    5.714226   6.585048   4.898455   5.150977   1.763611
    17  H    5.723600   6.802716   5.390318   4.811742   3.066577
    18  H    5.040175   6.471988   5.662614   4.951357   2.483693
    19  H    8.276024   9.697537   8.626134   8.297850   3.836901
                   16         17         18         19
    16  H    0.000000
    17  H    2.517165   0.000000
    18  H    3.065499   1.786006   0.000000
    19  H    4.196350   3.983239   3.555179   0.000000
 Stoichiometry    C7H10O2
 Framework group  C1[X(C7H10O2)]
 Deg. of freedom    51
 Full point group                 C1      NOp   1
 Largest Abelian subgroup         C1      NOp   1
 Largest concise Abelian subgroup C1      NOp   1
                         Standard orientation:                         
 ---------------------------------------------------------------------
 Center     Atomic      Atomic             Coordinates (Angstroms)
 Number     Number       Type             X           Y           Z
 ---------------------------------------------------------------------
      1          6           0       -4.127965    1.025492   -0.066028
      2          6           0       -3.528471   -0.381336   -0.245605
      3          6           0       -2.111910   -0.448634    0.099466
      4          6           0       -0.946913   -0.475393    0.404638
      5          6           0        0.474700   -0.519205    0.723484
      6          6           0        1.328117   -0.610584   -0.549751
      7          8           0        2.726953   -0.752067   -0.224338
      8          6           0        3.402678    0.381388    0.012676
      9          8           0        2.955701    1.495292   -0.010139
     10          1           0       -4.036169    1.357158    0.971666
     11          1           0       -3.610295    1.751656   -0.698523
     12          1           0       -5.188113    1.025511   -0.336397
     13          1           0       -4.086922   -1.099500    0.368573
     14          1           0       -3.664885   -0.706859   -1.284958
     15          1           0        0.768129    0.379723    1.277412
     16          1           0        0.701081   -1.380483    1.364030
     17          1           0        1.077383   -1.505054   -1.121729
     18          1           0        1.186344    0.277007   -1.168662
     19          1           0        4.450800    0.124677    0.231133
 ---------------------------------------------------------------------
 Rotational constants (GHZ):      4.6402311      0.5196967      0.4882444
 Standard basis: 6-31G(2df,p) (6D, 7F)
 There are   329 symmetry adapted cartesian basis functions of A   symmetry.
 There are   302 symmetry adapted basis functions of A   symmetry.
   302 basis functions,   466 primitive gaussians,   329 cartesian basis functions
    34 alpha electrons       34 beta electrons
       nuclear repulsion energy       399.6854085889 Hartrees.
 NAtoms=   19 NActive=   19 NUniq=   19 SFac= 1.00D+00 NAtFMM=   60 NAOKFM=F Big=F
 Integral buffers will be    131072 words long.
 Raffenetti 2 integral format.
 Two-electron integral symmetry is turned on.
 One-electron integrals computed using PRISM.
 NBasis=   302 RedAO= T EigKep=  6.47D-05  NBF=   302
 NBsUse=   302 1.00D-06 EigRej= -1.00D+00 NBFU=   302
 Initial guess from the checkpoint file:  "/scratch/puck/g09_15a9b76d-efa4-426b-adce-82af49085587/Gau-127870.chk"
 B after Tr=     0.000000    0.000000    0.000000
         Rot=    0.999999   -0.001125   -0.000028    0.000003 Ang=  -0.13 deg.
 Requested convergence on RMS density matrix=1.00D-08 within 128 cycles.
 Requested convergence on MAX density matrix=1.00D-06.
 Requested convergence on             energy=1.00D-06.
 No special actions if energy rises.
 SCF Done:  E(RB3LYP) =  -423.190723474     A.U. after    8 cycles
            NFock=  8  Conv=0.71D-08     -V/T= 2.0075
 Calling FoFJK, ICntrl=      2127 FMM=F ISym2X=0 I1Cent= 0 IOpClX= 0 NMat=1 NMatS=1 NMatT=0.
 ***** Axes restored to original set *****
 -------------------------------------------------------------------
 Center     Atomic                   Forces (Hartrees/Bohr)
 Number     Number              X              Y              Z
 -------------------------------------------------------------------
      1        6           0.000013344   -0.000012982   -0.000008954
      2        6          -0.000030410    0.000009023   -0.000002491
      3        6          -0.000003141   -0.000011088    0.000014100
      4        6           0.000106937   -0.000062055   -0.000083332
      5        6          -0.000056055    0.000078988    0.000043956
      6        6          -0.000005811   -0.000036891   -0.000043542
      7        8          -0.000004475   -0.000060469    0.000065796
      8        6          -0.000024862    0.000021766   -0.000022476
      9        8          -0.000013670    0.000023938    0.000017438
     10        1           0.000005312   -0.000002365    0.000014936
     11        1          -0.000000358    0.000005519    0.000017059
     12        1          -0.000008376    0.000001356    0.000009659
     13        1          -0.000012825    0.000011841    0.000003100
     14        1           0.000040655   -0.000002177    0.000001543
     15        1           0.000052734    0.000047918   -0.000020775
     16        1           0.000001963   -0.000041485    0.000002706
     17        1          -0.000032589   -0.000001363    0.000011131
     18        1          -0.000021088    0.000025055   -0.000021349
     19        1          -0.000007286    0.000005469    0.000001497
 -------------------------------------------------------------------
 Cartesian Forces:  Max     0.000106937 RMS     0.000032989

 GradGradGradGradGradGradGradGradGradGradGradGradGradGradGradGradGradGrad
 Berny optimization.
 Using GEDIIS/GDIIS optimizer.
 FormGI is forming the generalized inverse of G from B-inverse, IUseBI=4.
 GSVD:  received Info=                   1 from GESDD.
 Internal  Forces:  Max     0.000109364 RMS     0.000028860
 Search for a local minimum.
 Step number   3 out of a maximum of   93
 All quantities printed in internal units (Hartrees-Bohrs-Radians)
 Mixed Optimization -- En-DIIS/RFO-DIIS
 Swapping is turned off.
 Update second derivatives using D2CorX and points    1    2    3
 DE= -1.85D-06 DEPred=-1.26D-06 R= 1.47D+00
 TightC=F SS=  1.41D+00  RLast= 2.91D-02 DXNew= 5.0454D-01 8.7292D-02
 Trust test= 1.47D+00 RLast= 2.91D-02 DXMaxT set to 3.00D-01
 ITU=  1  1  0
     Eigenvalues ---    0.00036   0.00242   0.00336   0.01086   0.01613
     Eigenvalues ---    0.02483   0.02786   0.03075   0.03503   0.03840
     Eigenvalues ---    0.04319   0.04781   0.04956   0.05459   0.05493
     Eigenvalues ---    0.05528   0.05683   0.06828   0.08750   0.10802
     Eigenvalues ---    0.11519   0.12690   0.13558   0.14625   0.15994
     Eigenvalues ---    0.16000   0.16001   0.16086   0.21572   0.22003
     Eigenvalues ---    0.22156   0.23726   0.25309   0.28532   0.29218
     Eigenvalues ---    0.33573   0.33941   0.33955   0.34005   0.34131
     Eigenvalues ---    0.34346   0.34433   0.34441   0.34676   0.34856
     Eigenvalues ---    0.37021   0.37273   0.39312   0.57392   1.02546
     Eigenvalues ---    1.04583
 En-DIIS/RFO-DIIS IScMMF=        0 using points:     3    2    1
 RFO step:  Lambda=-2.28249686D-07.
 DidBck=F Rises=F RFO-DIIS coefs:    1.20714    0.07414   -0.28128
 Iteration  1 RMS(Cart)=  0.01296770 RMS(Int)=  0.00006420
 Iteration  2 RMS(Cart)=  0.00009734 RMS(Int)=  0.00000264
 Iteration  3 RMS(Cart)=  0.00000001 RMS(Int)=  0.00000264
 Variable       Old X    -DE/DX   Delta X   Delta X   Delta X     New X
                                 (Linear)    (Quad)   (Total)
    R1        2.90969   0.00000   0.00005   0.00020   0.00025   2.90994
    R2        2.06598   0.00000  -0.00002  -0.00005  -0.00007   2.06591
    R3        2.06607  -0.00001   0.00001   0.00002   0.00003   2.06610
    R4        2.06751   0.00000   0.00000   0.00000   0.00000   2.06751
    R5        2.75812  -0.00001  -0.00001  -0.00006  -0.00006   2.75806
    R6        2.07426  -0.00001   0.00000  -0.00003  -0.00003   2.07423
    R7        2.07425   0.00001  -0.00001  -0.00003  -0.00005   2.07421
    R8        2.27637   0.00000   0.00000   0.00002   0.00002   2.27639
    R9        2.75444   0.00001   0.00001   0.00006   0.00007   2.75451
   R10        2.90170  -0.00005   0.00002  -0.00010  -0.00008   2.90162
   R11        2.07096   0.00000   0.00005   0.00020   0.00025   2.07121
   R12        2.07298   0.00000  -0.00002  -0.00010  -0.00012   2.07286
   R13        2.72714  -0.00004   0.00001  -0.00007  -0.00006   2.72708
   R14        2.06154  -0.00002   0.00003   0.00008   0.00011   2.06165
   R15        2.06229   0.00002  -0.00005  -0.00014  -0.00018   2.06210
   R16        2.53357   0.00006  -0.00002   0.00000  -0.00002   2.53355
   R17        2.26853   0.00001  -0.00001  -0.00004  -0.00005   2.26848
   R18        2.08057   0.00000   0.00000   0.00001   0.00001   2.08058
    A1        1.93392   0.00000   0.00004   0.00013   0.00017   1.93409
    A2        1.93374   0.00000  -0.00005  -0.00019  -0.00024   1.93350
    A3        1.92673   0.00002  -0.00006  -0.00014  -0.00019   1.92654
    A4        1.88373   0.00000   0.00002   0.00007   0.00009   1.88382
    A5        1.89221  -0.00001   0.00006   0.00018   0.00023   1.89245
    A6        1.89212   0.00000  -0.00002  -0.00004  -0.00006   1.89207
    A7        1.97408   0.00002  -0.00003  -0.00011  -0.00015   1.97393
    A8        1.91182   0.00000   0.00006   0.00015   0.00020   1.91202
    A9        1.91029   0.00001  -0.00015  -0.00041  -0.00057   1.90972
   A10        1.90851   0.00000   0.00004   0.00015   0.00019   1.90871
   A11        1.90796  -0.00002   0.00007   0.00017   0.00024   1.90820
   A12        1.84685   0.00000   0.00002   0.00007   0.00010   1.84695
   A13        1.94172  -0.00004  -0.00011  -0.00068  -0.00080   1.94092
   A14        1.92522   0.00010  -0.00041  -0.00087  -0.00129   1.92394
   A15        1.93115  -0.00004   0.00029   0.00075   0.00104   1.93220
   A16        1.89560  -0.00006   0.00017   0.00037   0.00055   1.89614
   A17        1.89944   0.00003   0.00010   0.00055   0.00066   1.90010
   A18        1.86881   0.00001  -0.00004  -0.00008  -0.00012   1.86869
   A19        1.93648  -0.00009   0.00015   0.00014   0.00029   1.93677
   A20        1.93457   0.00000   0.00003   0.00001   0.00004   1.93461
   A21        1.92800   0.00004  -0.00017  -0.00050  -0.00067   1.92732
   A22        1.83446   0.00004  -0.00005  -0.00007  -0.00013   1.83434
   A23        1.91085   0.00002   0.00008   0.00040   0.00048   1.91133
   A24        1.91735   0.00000  -0.00003   0.00006   0.00003   1.91738
   A25        2.03254   0.00003  -0.00004  -0.00001  -0.00004   2.03250
   A26        2.20612   0.00002  -0.00001   0.00006   0.00005   2.20617
   A27        1.89416  -0.00001   0.00000  -0.00005  -0.00005   1.89411
   A28        2.18289  -0.00002   0.00002  -0.00001   0.00000   2.18290
[...]
 00220833,-0.00017056,0.01103825,0.02327327,-0.06926065,-0.06372840,-0.
 14808008,0.10969620,0.00130006,-0.00001977,0.00017562,0.00283230,-0.00
 232997,-0.00068325,-0.19252668,-0.37378785,0.05024830,0.29236238,0.004
 54327,-0.00073522,0.00053566,0.00061426,-0.00371270,0.00034904,-0.3752
 7358,-0.90975044,0.11622885,0.47853887,1.20152691,-0.00079294,0.000560
 55,0.00047647,0.00023535,0.00073401,0.00319030,0.05043725,0.11742376,-
 0.04857583,-0.06872077,-0.15690643,0.11178004,0.00023580,0.00138541,-0
 .00044643,0.00564313,-0.00229946,0.00103994,0.00167813,-0.00140732,-0.
 00036159,-0.09715867,-0.07729027,0.01088368,0.54713044,-0.00083983,-0.
 00060119,0.00014406,-0.00244741,0.00228661,0.00032439,-0.00255752,-0.0
 0450215,0.00102210,-0.07521592,-0.23764681,0.02600184,-0.01536604,0.54
 253027,-0.00002053,-0.00010830,-0.00001341,-0.00024818,0.00108416,0.00
 670284,0.00006994,-0.00085476,0.00240261,0.01171722,0.02776589,-0.0673
 0968,0.03586689,0.02285930,0.45722620,-0.00006350,0.00020560,0.0001302
 8,0.00013267,-0.00064599,-0.00053436,0.00100763,0.00134932,0.00002533,
 -0.00852691,-0.00794725,0.01187421,-0.08196813,0.00837950,0.02374113,0
 .58916560,-0.00005431,0.00017061,-0.00007660,0.00015249,-0.00076453,-0
 .00078317,-0.00002123,0.00011465,-0.00076683,-0.01198756,-0.01375686,0
 .02965887,0.00563273,-0.06685488,0.00228153,-0.09545118,0.48999074,0.0
 0036100,-0.00048801,0.00020640,0.00032916,0.00089268,-0.00036667,-0.00
 211017,-0.00562644,-0.00008276,0.00470667,0.01285034,-0.00123883,0.019
 31890,-0.01092683,-0.17382011,0.05154297,0.03718991,0.49879493,-0.0000
 2912,0.00000492,-0.00006641,-0.00002577,-0.00002777,-0.00004438,0.0002
 8972,0.00024975,0.00005256,0.00086189,-0.00089836,0.00278402,-0.006700
 41,-0.01428870,0.00451396,-0.12012339,-0.02769569,-0.00248658,0.345208
 22,0.00047348,-0.00040260,0.00011196,0.00068224,0.00050143,-0.00052112
 ,-0.00023189,0.00041133,0.00017025,-0.00316426,0.00055389,0.00685806,-
 0.01147684,-0.02174976,0.00574390,-0.04826859,-0.13643448,0.00327249,-
 0.04961025,0.48242718,-0.00025708,0.00023115,-0.00009972,-0.00040399,-
 0.00018241,0.00042306,0.00046605,0.00062328,0.00006659,0.00361062,0.00
 226255,-0.00786149,0.01539998,0.03516380,-0.00026742,0.00198601,0.0058
 3398,-0.06842244,0.02220889,-0.06987549,0.09419572,0.00030831,-0.00020
 455,0.00008818,0.00050800,0.00018778,-0.00024586,-0.00048417,-0.000193
 20,-0.00002764,-0.00237893,-0.00002971,0.00378133,0.00006245,-0.007801
 02,-0.00285499,0.03039316,0.00817466,0.00297833,-0.15962095,0.06747288
 ,-0.01501994,1.03885766,-0.00033900,0.00035202,-0.00006523,-0.00036395
 ,-0.00055762,0.00019651,0.00034162,0.00052791,0.00003721,0.00076312,-0
 .00014764,-0.00235871,0.00132321,0.00271485,0.00076320,0.00778681,-0.0
 6804172,0.01051236,0.05711372,-0.23369532,0.03136480,0.07891766,0.6185
 7237,0.00010401,-0.00012199,0.00004775,0.00005599,0.00018196,-0.000008
 06,-0.00009879,-0.00017110,-0.00007852,0.00028622,-0.00024339,0.000077
 49,-0.00067079,0.00223026,-0.00038613,0.00068715,0.00963885,-0.0008355
 6,-0.01550017,0.03558528,-0.06679019,0.01933173,-0.07098341,0.20860485
 ,-0.00019140,0.00012810,-0.00005890,-0.00028896,-0.00010749,0.00012106
 ,0.00027235,0.00012450,0.00001814,0.00124505,0.00000397,-0.00181424,0.
 00018309,0.00313405,0.00187000,-0.00995626,-0.01746942,0.00145636,-0.0
 7026339,0.06076147,-0.01510671,-0.77212663,-0.03563644,-0.02042511,0.8
 8175085,0.00009642,-0.00012991,0.00000823,0.00005787,0.00023108,-0.000
 04982,-0.00003597,-0.00006445,0.00005870,0.00020313,0.00021461,0.00007
 111,-0.00038287,0.00080446,0.00014178,0.00206583,0.00509653,-0.0040557
 5,0.05823093,0.00487762,0.00570958,-0.02374885,-0.11695379,0.00643745,
 -0.01136052,0.09613094,-0.00006459,0.00010464,-0.00006140,0.00001446,-
 0.00015579,0.00003597,0.00008526,0.00017395,0.00002098,-0.00047849,0.0
 0028061,-0.00006789,0.00200182,0.00009918,-0.00089568,-0.00061186,-0.0
 0317534,-0.00517801,-0.01369389,0.00411139,0.02703917,-0.02501257,0.00
 674682,-0.07574520,0.03526720,-0.01130020,0.03287745,-0.08687696,0.062
 46784,0.07180510,-0.01607816,0.02032896,0.02363067,0.00215763,0.002071
 61,0.00011067,0.00002264,-0.00096953,-0.00018228,-0.00007398,0.0000179
 6,-0.00000415,-0.00001976,0.00000688,0.00003489,0.00001554,-0.00001794
 ,-0.00000881,-0.00003261,0.00000534,0.00000346,0.00002312,0.00000308,-
 0.00001174,0.09812382,0.06438689,-0.14574171,-0.11159205,-0.00051025,-
 0.00026123,0.00083237,-0.00016151,0.00107209,0.00075428,0.00015882,0.0
 0006718,-0.00010190,-0.00004657,-0.00006697,-0.00004537,-0.00001527,-0
 .00002801,0.00008014,0.00000273,0.00011207,-0.00005541,0.00004360,-0.0
 0008385,0.00002328,-0.00002275,0.00003345,-0.00001976,-0.07075632,0.15
 398111,0.07340960,-0.11145914,-0.17505163,-0.00208154,0.00280164,0.002
 76985,0.00008136,0.00005687,0.00019210,-0.00002715,0.00023760,-0.00005
 694,0.00001809,-0.00001192,-0.00001089,-0.00000677,-0.00001426,-0.0000
 0601,-0.00002352,0.00005738,-0.00000538,0.00007853,-0.00003941,0.00000
 428,-0.00005719,0.00000303,0.00001249,-0.07936657,0.12252578,0.1860951
 3,-0.06463180,0.02222610,-0.06282419,-0.01165645,0.01070203,-0.0314830
 8,0.00221173,0.00196690,-0.00051291,-0.00005469,-0.00084145,0.00045509
 ,-0.00002909,0.00002131,0.00002603,-0.00005912,-0.00004398,-0.00003329
 ,0.00001525,0.00004342,0.00001801,-0.00000280,-0.00003719,0.00000121,0
 .00000438,0.00002298,0.00000365,0.00334771,-0.00519796,0.01171909,0.07
 338294,0.02335257,-0.07594974,0.07862477,-0.00017923,-0.00078660,-0.00
 026851,0.00002275,0.00076238,-0.00096973,0.00010424,-0.00002923,0.0000
 7480,0.00000128,-0.00005749,0.00006076,-0.00006521,-0.00003068,0.00005
 710,0.00002510,0.00007790,-0.00004005,0.00000325,-0.00006655,0.0000204
 1,0.00000621,0.00003516,-0.00001950,-0.00612594,0.00674209,-0.01863573
 ,-0.02587553,0.07726398,-0.06489250,0.07824668,-0.26748202,-0.00021907
 ,0.00030370,-0.00104615,0.00024893,0.00006569,0.00047151,-0.00001993,-
 0.00039896,0.00009275,-0.00000104,0.00002966,-0.00000984,-0.00002308,0
 .00000958,-0.00006890,0.00003684,-0.00006475,0.00004453,-0.00009549,0.
 00004373,-0.00002066,0.00006862,0.00000318,0.00001224,-0.00583719,0.00
 809208,-0.01948550,0.07143932,-0.08635809,0.28786499,-0.07915602,-0.08
 434490,0.01234295,-0.01229162,-0.03103322,0.00456686,-0.00690392,0.000
 38331,-0.00069960,-0.00025024,-0.00061960,0.00022236,0.00044334,-0.000
 06642,-0.00007371,0.00010121,0.00011974,-0.00029076,0.00001212,-0.0003
 1916,0.00016478,-0.00016965,0.00025658,-0.00008426,0.00010520,-0.00008
 889,0.00006453,0.00455582,0.01215815,-0.00299705,0.00274856,0.00866200
 ,-0.00022953,0.08797546,-0.08668440,-0.27420075,0.03280591,0.00241562,
 0.00170192,-0.00030389,-0.00032747,0.00018657,0.00011956,0.00006033,0.
 00101874,-0.00007990,0.00003493,0.00000882,-0.00006041,0.00007071,0.00
 008742,-0.00012715,-0.00001787,-0.00018203,0.00007918,-0.00004343,0.00
 014973,-0.00004388,0.00001742,-0.00006767,0.00003938,-0.00659809,-0.01
 677540,0.00386045,-0.00284274,-0.00871930,0.00019091,0.09499284,0.2960
 7514,0.01273670,0.03299330,-0.05292224,-0.00133152,-0.00298790,-0.0006
 5713,-0.00057729,0.00017999,0.00097248,-0.00009149,-0.00018227,0.00021
 141,0.00012509,-0.00004619,-0.00000762,-0.00005802,0.00001022,-0.00002
 933,0.00002118,0.00000986,0.00000576,-0.00000851,-0.00001397,-0.000000
 77,0.00000799,0.00001055,0.00000531,-0.00904182,-0.02093544,0.00352213
 ,0.01115851,0.02741609,-0.00272924,-0.01335218,-0.03632984,0.05155974,
 -0.01162378,0.01143321,-0.03145023,-0.05957172,0.02172004,-0.05649862,
 0.00258965,-0.00567477,0.01369934,0.00009380,-0.00116046,-0.00056025,-
 0.00032867,0.00031891,-0.00045577,0.00012442,0.00004348,-0.00019379,-0
 .00002345,-0.00031961,0.00016828,-0.00019143,0.00021936,-0.00006856,0.
 00011303,-0.00006165,0.00003857,0.00159346,0.00028475,0.00046537,-0.00
 691168,-0.00008553,-0.00004390,0.00156534,-0.00046303,0.00023919,0.069
 92028,0.00091524,0.00033494,0.00014242,0.02326729,-0.07558487,0.079272
 83,0.00393863,-0.01915373,0.02953589,-0.00012404,0.00019392,-0.0004012
 9,-0.00099355,0.00030042,-0.00126787,0.00035152,0.00019815,-0.00037976
 ,-0.00002886,-0.00038303,0.00018030,-0.00020534,0.00033091,-0.00009522
 ,0.00012052,-0.00011463,0.00005428,0.00000703,-0.00021783,0.00035237,-
 0.00025307,0.00090618,-0.00011031,0.00007857,0.00028382,-0.00040542,-0
 .02170105,0.08609617,-0.00092000,0.00016149,-0.00161290,-0.05850952,0.
 07762780,-0.25242850,0.00290479,0.00607413,-0.00172002,-0.00093982,-0.
 00170430,0.00047114,0.00011826,0.00008759,-0.00003419,-0.00009011,-0.0
 0005810,0.00011834,0.00001928,0.00017849,-0.00007080,0.00006457,-0.000
 12503,0.00003143,-0.00003162,0.00004791,-0.00001843,-0.00016260,0.0000
 3384,0.00080167,-0.00023175,-0.00029898,0.00157538,-0.00036967,-0.0003
 8841,0.00011564,0.06356270,-0.08867957,0.27389147,-0.01613534,0.021106
 89,0.02340190,-0.07943449,0.05932610,0.06466790,0.00515575,-0.00945870
 ,-0.01084536,-0.00038092,-0.00130379,0.00075325,-0.00014906,0.00041610
 ,0.00078101,-0.00000750,-0.00014832,-0.00026096,-0.00004755,-0.0003587
 8,0.00024054,-0.00019714,0.00021472,-0.00005383,0.00011193,-0.00005964
 ,0.00003387,-0.00675639,-0.00035654,-0.00122672,0.00163100,0.00011488,
 -0.00040982,0.00148690,-0.00053310,0.00018473,0.00273023,-0.00514071,-
 0.00537754,0.09203997,0.00086120,0.00059896,0.00009878,0.06165746,-0.1
 4449534,-0.10812144,0.00681458,-0.02835334,-0.01926343,-0.00039689,0.0
 0063391,0.00041626,-0.00039985,0.00039785,0.00139012,-0.00003665,-0.00
 018674,-0.00068927,-0.00003538,-0.00051218,0.00041092,-0.00025473,0.00
 033110,-0.00009856,0.00013650,-0.00010132,0.00009579,-0.00040924,0.001
 10728,0.00021994,0.00010308,-0.00021828,0.00001375,0.00017231,0.000513
 42,0.00028886,-0.00425056,0.00751583,0.00697972,-0.06380544,0.16283932
 ,-0.00174037,0.00254394,0.00245959,0.06599272,-0.10672684,-0.16298523,
 -0.00463971,0.00204403,0.00526853,0.00108529,0.00134518,-0.00008404,0.
 00008319,-0.00012781,-0.00008663,0.00008320,0.00002214,0.00000656,-0.0
 0002948,-0.00003441,-0.00000288,-0.00000415,0.00003283,-0.00000711,-0.
 00000261,-0.00001300,-0.00000197,-0.00097301,0.00042045,0.00122200,0.0
 0027472,0.00035489,0.00076842,0.00057472,0.00017700,-0.00003680,0.0111
 0819,-0.01837275,-0.02109544,-0.07182135,0.11828495,0.17463015,0.00004
 220,-0.00026843,0.00011093,-0.00056099,0.00050874,0.00004429,-0.000973
 14,-0.00177210,0.00056748,0.01241018,-0.01091991,-0.00426569,-0.164730
 91,0.12187475,0.03691580,-0.00710332,0.00686214,0.00365041,0.00031471,
 -0.00045501,-0.00070318,-0.00079727,-0.00022472,0.00060706,0.00033152,
 0.00026100,-0.00089717,-0.00001085,0.00000546,0.00002708,-0.00000592,-
 0.00000797,-0.00002974,-0.00012347,-0.00001473,-0.00002909,-0.00001317
 ,0.00001333,0.00001336,-0.00003305,-0.00008312,0.00000479,0.17695520,0
 .00020687,-0.00057312,0.00021087,-0.00133359,0.00065537,-0.00003039,0.
 00019400,0.00103283,0.00008841,0.01452294,-0.02961928,-0.00445922,0.12
 460234,-0.17369034,-0.04152742,-0.00238020,0.00254202,0.00043420,0.000
 35956,0.00075476,-0.00052273,-0.00051563,0.00022821,0.00025711,0.00027
 049,-0.00079413,0.00071355,-0.00002307,0.00003456,0.00004248,0.0000034
 9,0.00000598,-0.00004242,-0.00025550,-0.00002251,-0.00003954,0.0000002
 7,-0.00002062,0.00003030,0.00002301,-0.00001005,0.00006852,-0.13249611
 ,0.19519501,0.00001356,0.00023169,-0.00000590,0.00040779,-0.00033623,0
 .00005528,0.00045275,0.00063256,0.00041944,-0.00455178,0.00377135,0.00
 093417,0.03550914,-0.03767493,-0.05650093,0.02431237,-0.02463524,-0.01
 148413,-0.00258511,0.00121008,0.00230232,0.00378630,-0.00043859,0.0000
 3936,-0.00236052,-0.00023245,0.00070087,0.00000992,-0.00000636,-0.0000
 0256,-0.00001279,-0.00001952,-0.00000958,0.00009702,0.00003194,-0.0000
 1531,-0.00003144,0.00003635,0.00000139,-0.00004418,-0.00005150,-0.0000
 2567,-0.04309059,0.04241670,0.06422379,0.00015332,-0.00011426,-0.00003
 413,0.00011756,-0.00004849,0.00045752,0.00117364,0.00131804,-0.0004403
 6,-0.01129268,-0.00799374,-0.00439775,-0.20779980,-0.02232363,-0.12158
 759,0.00795716,0.00102725,0.00708712,0.00092240,0.00132714,-0.00047152
 ,-0.00036598,0.00005284,-0.00020899,0.00027642,0.00005947,-0.00030718,
 -0.00000360,0.00002262,-0.00000462,0.00000163,0.00003452,0.00000021,-0
 .00008463,-0.00004989,0.00000972,-0.00006478,-0.00022133,-0.00005615,0
 .00000139,-0.00004125,0.00000045,-0.01721812,-0.00252598,-0.01294126,0
 .22522408,0.00030067,-0.00001266,-0.00010034,0.00083983,-0.00011616,0.
 00139924,0.00014057,-0.00003340,0.00014846,-0.02758978,-0.01060934,-0.
 01780089,-0.02374384,-0.04879884,-0.02015275,0.00235994,-0.00003822,0.
 00187368,0.00044391,0.00081096,-0.00022284,0.00103074,-0.00026023,0.00
 011783,-0.00060453,-0.00035851,0.00026016,-0.00001164,0.00001463,0.000
 01269,0.00001438,0.00005327,-0.00001770,-0.00006503,-0.00004158,0.0000
 3604,-0.00029784,-0.00067143,0.00003423,-0.00002301,-0.00001911,-0.000
 04596,0.01786892,0.00371980,0.01380078,0.03022093,0.05599584,-0.000008
 89,0.00010137,-0.00001794,-0.00017467,-0.00018887,-0.00017734,0.000012
 90,0.00176926,0.00000313,0.00573463,-0.00209711,0.00523189,-0.11875252
 ,-0.01756941,-0.13440528,-0.02655900,-0.00331165,-0.02455506,0.0002692
 5,-0.00151574,0.00352881,-0.00096282,0.00067394,-0.00004138,0.00063853
 ,0.00004717,0.00021874,0.00000019,-0.00000911,0.00000349,-0.00000539,-
 0.00001334,0.00000380,0.00005726,0.00003505,-0.00000577,0.00002368,0.0
 0014318,-0.00001544,-0.00002836,0.00000746,-0.00002521,0.00565193,0.00
 133441,0.00404615,0.13102537,0.02007480,0.15008168,-0.00000913,-0.0000
 2065,-0.00000828,-0.00003768,0.00000412,0.00003071,-0.00008396,-0.0005
 4103,-0.00016319,0.00051904,0.00058148,-0.00011171,-0.00530831,0.00557
 612,0.00150375,-0.18400499,0.13441490,0.04506824,0.01322665,-0.0212528
 5,-0.00355033,-0.00497311,-0.00190005,-0.00067965,0.00237743,0.0018086
 3,-0.00001668,0.00001450,0.00000046,-0.00001452,-0.00000751,0.00001247
 ,0.00000594,-0.00000177,-0.00000695,0.00000483,0.00000186,-0.00001688,
 -0.00000873,-0.00001717,-0.00005312,0.00001219,0.00075994,-0.00068897,
 0.00169023,0.00088703,-0.00044151,0.00007149,0.19036902,-0.00000937,0.
 00001091,-0.00001382,-0.00001708,-0.00002975,0.00004415,0.00009112,-0.
 00004755,-0.00009014,-0.00011446,0.00112711,-0.00007562,-0.00221815,0.
 00400575,0.00074371,0.12424099,-0.16513108,-0.04545948,0.01625953,-0.0
 3800381,-0.00206645,-0.00680668,-0.00104983,-0.00239425,0.00160293,0.0
 0106284,0.00005552,0.00000035,-0.00000229,0.00000044,0.00000209,0.0000
 0011,0.00000127,0.00000646,0.00000232,0.00000499,0.00000401,-0.0000064
 7,-0.00000404,0.00000643,0.00003305,0.00000835,-0.00059811,0.00062919,
 0.00135670,0.00002327,0.00006670,-0.00024459,-0.13284408,0.19552894,0.
 00001865,-0.00000104,0.00000129,0.00001901,-0.00000327,-0.00004013,0.0
 0002298,0.00095518,0.00013811,-0.00120934,-0.00200658,0.00125206,0.024
 30361,-0.02053503,-0.01065247,0.04466688,-0.04779434,-0.06726344,-0.00
 287772,0.00511538,0.00229957,-0.00098756,0.00158152,0.00008278,0.00047
 973,0.00102124,0.00019682,-0.00000811,0.00000124,0.00000421,-0.0000042
 7,0.00000196,-0.00000094,-0.00000334,0.00000313,0.00000068,0.00000663,
 0.00001064,-0.00000729,0.00000946,0.00000543,0.00000769,0.00165981,0.0
 0128980,-0.00596564,-0.00056921,-0.00034284,0.00160344,-0.05228841,0.0
 4704041,0.07173022,0.00000601,-0.00000560,0.00000364,-0.00000004,0.000
 02073,0.00000348,-0.00009816,-0.00004887,-0.00003691,0.00082363,0.0009
 3658,-0.00038190,0.00886670,0.00073969,0.00803270,-0.21606432,-0.00628
 480,-0.13031797,-0.01392246,-0.01374229,-0.00564251,-0.00291900,0.0041
 5051,-0.00054616,0.00183952,0.00175479,0.00049390,-0.00000410,0.000000
 35,0.00001094,0.00001219,-0.00000626,-0.00000464,-0.00000788,-0.000000
 79,-0.00000068,-0.00000421,0.00000057,0.00001062,-0.00000019,0.0000229
 3,-0.00000730,0.00073863,0.00005746,-0.00034279,0.00007957,-0.00039005
 ,0.00300957,-0.01400988,-0.00021304,-0.01320770,0.23484870,0.00000360,
 -0.00002469,0.00004215,-0.00004306,-0.00000484,-0.00002232,-0.00012715
 ,-0.00021569,-0.00009385,0.00050354,0.00069270,-0.00008485,0.00298546,
 0.00169026,0.00143823,0.00251089,-0.04847184,-0.00003011,-0.03004042,-
 0.01853046,-0.01762764,-0.00881898,0.00453625,-0.00211854,0.00451247,-
 0.00040187,0.00033438,0.00000228,0.00000137,-0.00001085,-0.00001909,0.
 00000008,-0.00000673,-0.00000695,0.00000239,-0.00001146,0.00001941,0.0
 0003221,-0.00001586,0.00001069,-0.00002579,0.00002399,-0.00054368,-0.0
 0003254,-0.00014860,-0.00079407,0.00032107,0.00072994,0.01606715,0.002
 98758,0.01342683,0.01328276,0.05734855,-0.00001453,0.00002194,-0.00004
 062,0.00000370,-0.00001320,0.00002987,0.00053195,0.00082338,0.00024523
 ,-0.00080955,-0.00189018,0.00115501,-0.02382780,0.00029353,-0.02187166
 ,-0.13004285,-0.00586424,-0.15248352,0.00562905,0.00039917,0.00589483,
 -0.00167609,0.00043268,0.00104280,0.00104782,0.00156499,-0.00041187,-0
 .00000070,0.00000113,-0.00000611,0.00001462,0.00001124,0.00002086,0.00
 001276,-0.00000761,0.00001168,-0.00000668,-0.00001552,-0.00000318,0.00
 000192,0.00002743,-0.00001324,-0.00032596,-0.00027446,0.00161248,0.002
 37950,0.00091958,-0.00536260,0.00773700,0.00034778,0.00657601,0.139117
 17,0.00325270,0.16389047,-0.00000105,-0.00000896,-0.00000457,-0.000015
 35,0.00002773,0.00000606,0.00002327,-0.00002014,0.00000349,0.00009875,
 0.00002923,-0.00019900,0.00000393,0.00042809,0.00020650,-0.00098466,0.
 00272223,-0.00084051,0.00988996,0.01845684,-0.00309910,-0.12586990,-0.
 11264414,0.01725947,-0.03580724,-0.02882573,0.00309090,0.00000216,0.00
 000334,-0.00000440,0.00000367,0.00000640,0.00000608,-0.00000474,-0.000
 00936,0.00000266,0.00000083,-0.00000785,0.00000394,0.00000163,-0.00000
 184,-0.00000147,0.00001780,-0.00002138,-0.00031861,0.00003540,-0.00005
 266,-0.00000313,0.00029803,0.00058378,-0.00003108,-0.00018472,0.000495
 18,0.00022864,0.15249223,0.00003950,-0.00004087,0.00000870,0.00004826,
 0.00006284,-0.00004220,-0.00003620,0.00001041,0.00003542,-0.00012450,-
 0.00002142,0.00046954,-0.00034057,-0.00077088,-0.00025569,0.00548923,0
 .00153894,0.00061989,-0.01004688,-0.04063346,0.00873347,-0.10720842,-0
 .20688680,0.02177790,-0.00561749,0.01049957,0.00160094,0.00000043,0.00
 001146,0.00000062,0.00000522,0.00001073,-0.00000126,-0.00003029,-0.000
 02106,0.00000214,-0.00002895,-0.00003994,0.00001878,-0.00003078,-0.000
 04858,-0.00000550,-0.00001045,-0.00003515,0.00005527,0.00002655,-0.000
 02281,0.00003327,-0.00069923,-0.00118373,0.00023033,-0.00027467,0.0000
 9524,-0.00003035,0.11883924,0.23747548,0.00000392,-0.00000636,0.000005
 78,0.00000448,0.00000088,-0.00001756,-0.00003625,-0.00003771,-0.000008
 57,-0.00003300,-0.00019786,0.00032197,-0.00060842,-0.00136360,-0.00005
 971,-0.00112349,0.00183470,0.00670853,0.00177224,0.00918782,0.00771994
 ,0.01678666,0.02163876,-0.06601717,-0.00111852,0.00052631,0.02126041,0
 .00000209,0.00000083,-0.00000231,-0.00000260,0.00000142,-0.00000165,-0
 .00000313,-0.00000144,-0.00000062,-0.00000270,-0.00000056,-0.00000024,
 -0.00000645,-0.00001522,0.00000128,0.00008849,0.00000982,-0.00032554,0
 .00005886,0.00000582,-0.00011512,0.00071713,0.00074507,0.00003704,-0.0
 0019346,0.00092258,-0.00028646,-0.01630585,-0.03325127,0.03078000\\0.0
 0000488,-0.00000021,-0.00000129,-0.00001101,0.,-0.00000080,0.00000214,
 0.00000222,0.00000219,0.00000315,0.00000703,0.00000407,-0.00001116,-0.
 00001713,0.00000621,0.00000487,-0.00000083,-0.00001412,0.00000896,-0.0
 0000649,0.00001665,-0.00000881,0.00000522,-0.00001092,0.00000438,0.000
 00186,-0.00000102,-0.00000266,0.00000269,-0.00000012,-0.00000207,0.000
 00071,-0.00000028,-0.00000365,0.00000101,0.00000048,-0.00000212,0.0000
 0089,0.00000288,0.00000217,0.00000124,0.00000330,0.00000245,0.00000366
 ,-0.00000564,0.00000306,0.00000187,-0.00000120,-0.00000035,-0.00000151
 ,0.00000054,0.00000302,0.00000135,0.00000025,0.00000273,-0.00000360,-0
 .00000117\\\@


 BLACK HOLES SUCK.
 Job cpu time:       0 days  0 hours 30 minutes  4.5 seconds.
 File lengths (MBytes):  RWF=    152 Int=      0 D2E=      0 Chk=      8 Scr=      1
 Normal termination of Gaussian 09 at Tue Jan 28 09:07:02 2020.
