 Entering Gaussian System, Link 0=/home/puck/opt/gaussian_09/g09
 Input=dsC7O2H10nsd_4947.com
 Output=dsC7O2H10nsd_4947.log
 Initial command:
 /home/puck/opt/gaussian_09/l1.exe "/scratch/puck/g09_89dd44ef-ff34-465f-bed8-bd2fb856ab26/Gau-82345.inp" -scrdir="/scratch/puck/g09_89dd44ef-ff34-465f-bed8-bd2fb856ab26/"
 Entering Link 1 = /home/puck/opt/gaussian_09/l1.exe PID=     82350.
  
 Copyright (c) 1988,1990,1992,1993,1995,1998,2003,2009,2013,
            Gaussian, Inc.  All Rights Reserved.
  
 This is part of the Gaussian(R) 09 program.  It is based on
 the Gaussian(R) 03 system (copyright 2003, Gaussian, Inc.),
 the Gaussian(R) 98 system (copyright 1998, Gaussian, Inc.),
 the Gaussian(R) 94 system (copyright 1995, Gaussian, Inc.),
 the Gaussian 92(TM) system (copyright 1992, Gaussian, Inc.),
 the Gaussian 90(TM) system (copyright 1990, Gaussian, Inc.),
 the Gaussian 88(TM) system (copyright 1988, Gaussian, Inc.),
 the Gaussian 86(TM) system (copyright 1986, Carnegie Mellon
 University), and the Gaussian 82(TM) system (copyright 1983,
 Carnegie Mellon University). Gaussian is a federally registered
 trademark of Gaussian, Inc.
  
 This software contains proprietary and confidential information,
 including trade secrets, belonging to Gaussian, Inc.
  
 This software is provided under written license and may be
 used, copied, transmitted, or stored only in accord with that
 written license.
  
 The following legend is applicable only to US Government
 contracts under FAR:
  
                    RESTRICTED RIGHTS LEGEND
  
 Use, reproduction and disclosure by the US Government is
 subject to restrictions as set forth in subparagraphs (a)
 and (c) of the Commercial Computer Software - Restricted
 Rights clause in FAR 52.227-19.
  
 Gaussian, Inc.
 340 Quinnipiac St., Bldg. 40, Wallingford CT 06492
  
  
 ---------------------------------------------------------------
 Warning -- This program may not be used in any manner that
 competes with the business of Gaussian, Inc. or will provide
 assistance to any competitor of Gaussian, Inc.  The licensee
 of this program is prohibited from giving any competitor of
 Gaussian, Inc. access to this program.  By using this program,
 the user acknowledges that Gaussian, Inc. is engaged in the
 business of creating and licensing software in the field of
 computational chemistry and represents and warrants to the
 licensee that it is not a competitor of Gaussian, Inc. and that
 it will not use this program in any manner prohibited above.
 ---------------------------------------------------------------
  

 Cite this work as:
 Gaussian 09, Revision D.01,
 M. J. Frisch, G. W. Trucks, H. B. Schlegel, G. E. Scuseria, 
 M. A. Robb, J. R. Cheeseman, G. Scalmani, V. Barone, B. Mennucci, 
 G. A. Petersson, H. Nakatsuji, M. Caricato, X. Li, H. P. Hratchian, 
 A. F. Izmaylov, J. Bloino, G. Zheng, J. L. Sonnenberg, M. Hada, 
 M. Ehara, K. Toyota, R. Fukuda, J. Hasegawa, M. Ishida, T. Nakajima, 
 Y. Honda, O. Kitao, H. Nakai, T. Vreven, J. A. Montgomery, Jr., 
 J. E. Peralta, F. Ogliaro, M. Bearpark, J. J. Heyd, E. Brothers, 
 K. N. Kudin, V. N. Staroverov, T. Keith, R. Kobayashi, J. Normand, 
 K. Raghavachari, A. Rendell, J. C. Burant, S. S. Iyengar, J. Tomasi, 
 M. Cossi, N. Rega, J. M. Millam, M. Klene, J. E. Knox, J. B. Cross, 
 V. Bakken, C. Adamo, J. Jaramillo, R. Gomperts, R. E. Stratmann, 
 O. Yazyev, A. J. Austin, R. Cammi, C. Pomelli, J. W. Ochterski, 
 R. L. Martin, K. Morokuma, V. G. Zakrzewski, G. A. Voth, 
 P. Salvador, J. J. Dannenberg, S. Dapprich, A. D. Daniels, 
 O. Farkas, J. B. Foresman, J. V. Ortiz, J. Cioslowski, 
 and D. J. Fox, Gaussian, Inc., Wallingford CT, 2013.
 
 ******************************************
 Gaussian 09:  ES64L-G09RevD.01 24-Apr-2013
                28-Jan-2020 
 ******************************************
 -----------------------------
 # b3lyp 6-31G(2df,p) opt Freq
 -----------------------------
 1/14=-1,18=20,19=15,26=3,38=1/1,3;
 2/9=110,12=2,17=6,18=5,40=1/2;
 3/5=1,6=6,7=104,11=2,16=1,25=1,30=1,71=1,74=-5/1,2,3;
 4//1;
 5/5=2,38=5/2;
 6/7=2,8=2,9=2,10=2,28=1/1;
 7//1,2,3,16;
 1/14=-1,18=20,19=15,26=3/3(2);
 2/9=110/2;
 99//99;
 2/9=110/2;
 3/5=1,6=6,7=104,11=2,16=1,25=1,30=1,71=1,74=-5/1,2,3;
 4/5=5,16=3,69=1/1;
 5/5=2,38=5/2;
 7//1,2,3,16;
 1/14=-1,18=20,19=15,26=3/3(-5);
 2/9=110/2;
 6/7=2,8=2,9=2,10=2,19=2,28=1/1;
 99/9=1/99;
 -----
 titel
 -----
 Symbolic Z-matrix:
 Charge =  0 Multiplicity = 1
 O                     1.52003   0.81286  -0.22932 
 C                     0.20066   0.44526   0.16387 
 C                    -0.78001   0.55431  -0.96347 
 C                    -1.09019  -0.58619  -1.89645 
 O                    -0.59132  -1.81588  -1.44196 
 C                    -2.2052    0.01442  -1.0676 
 C                    -2.69902   1.39845  -1.56183 
 C                    -2.01476   1.89288  -2.80841 
 C                    -1.27336   1.93     -1.4966 
 H                     1.79497   0.18408  -0.905 
 H                     0.16877  -0.57079   0.57709 
 H                    -0.06815   1.144     0.96431 
 H                    -1.04961  -0.47309  -2.97741 
 H                    -1.23865  -2.49596  -1.65548 
 H                    -2.73294  -0.59507  -0.34393 
 H                    -3.60548   1.85601  -1.18611 
 H                    -1.74151   1.25067  -3.6373 
 H                    -2.35981   2.87102  -3.13199 
 H                    -0.91446   2.8587   -1.07144 
 

 GradGradGradGradGradGradGradGradGradGradGradGradGradGradGradGradGradGrad
 Berny optimization.
 Initialization pass.
                           ----------------------------
                           !    Initial Parameters    !
                           ! (Angstroms and Degrees)  !
 --------------------------                            --------------------------
 ! Name  Definition              Value          Derivative Info.                !
 --------------------------------------------------------------------------------
 ! R1    R(1,2)                  1.425          estimate D2E/DX2                !
 ! R2    R(1,10)                 0.9631         estimate D2E/DX2                !
 ! R3    R(2,3)                  1.4982         estimate D2E/DX2                !
 ! R4    R(2,11)                 1.0973         estimate D2E/DX2                !
 ! R5    R(2,12)                 1.096          estimate D2E/DX2                !
 ! R6    R(3,4)                  1.5058         estimate D2E/DX2                !
 ! R7    R(3,6)                  1.5276         estimate D2E/DX2                !
 ! R8    R(3,9)                  1.5557         estimate D2E/DX2                !
 ! R9    R(4,5)                  1.4027         estimate D2E/DX2                !
 ! R10   R(4,6)                  1.5136         estimate D2E/DX2                !
 ! R11   R(4,13)                 1.0876         estimate D2E/DX2                !
 ! R12   R(5,14)                 0.9629         estimate D2E/DX2                !
 ! R13   R(6,7)                  1.5504         estimate D2E/DX2                !
 ! R14   R(6,15)                 1.0834         estimate D2E/DX2                !
 ! R15   R(7,8)                  1.5055         estimate D2E/DX2                !
 ! R16   R(7,9)                  1.5229         estimate D2E/DX2                !
 ! R17   R(7,16)                 1.0827         estimate D2E/DX2                !
 ! R18   R(8,9)                  1.5073         estimate D2E/DX2                !
 ! R19   R(8,17)                 1.0836         estimate D2E/DX2                !
 ! R20   R(8,18)                 1.0865         estimate D2E/DX2                !
 ! R21   R(9,19)                 1.0826         estimate D2E/DX2                !
 ! A1    A(2,1,10)             106.8283         estimate D2E/DX2                !
 ! A2    A(1,2,3)              112.3128         estimate D2E/DX2                !
 ! A3    A(1,2,11)             111.6958         estimate D2E/DX2                !
 ! A4    A(1,2,12)             105.3165         estimate D2E/DX2                !
 ! A5    A(3,2,11)             109.374          estimate D2E/DX2                !
 ! A6    A(3,2,12)             110.036          estimate D2E/DX2                !
 ! A7    A(11,2,12)            107.9497         estimate D2E/DX2                !
 ! A8    A(2,3,4)              123.0891         estimate D2E/DX2                !
 ! A9    A(2,3,6)              129.5144         estimate D2E/DX2                !
 ! A10   A(2,3,9)              121.9938         estimate D2E/DX2                !
 ! A11   A(4,3,9)              113.0862         estimate D2E/DX2                !
 ! A12   A(6,3,9)               89.6163         estimate D2E/DX2                !
 ! A13   A(3,4,5)              112.9526         estimate D2E/DX2                !
 ! A14   A(3,4,13)             121.9619         estimate D2E/DX2                !
 ! A15   A(5,4,6)              115.622          estimate D2E/DX2                !
 ! A16   A(5,4,13)             113.5733         estimate D2E/DX2                !
 ! A17   A(6,4,13)             122.0373         estimate D2E/DX2                !
 ! A18   A(4,5,14)             107.9527         estimate D2E/DX2                !
 ! A19   A(3,6,7)               90.1943         estimate D2E/DX2                !
 ! A20   A(3,6,15)             127.4293         estimate D2E/DX2                !
 ! A21   A(4,6,7)              114.4759         estimate D2E/DX2                !
 ! A22   A(4,6,15)             120.0925         estimate D2E/DX2                !
 ! A23   A(7,6,15)             124.0562         estimate D2E/DX2                !
 ! A24   A(6,7,8)              114.3528         estimate D2E/DX2                !
 ! A25   A(6,7,9)               89.9856         estimate D2E/DX2                !
 ! A26   A(6,7,16)             122.23           estimate D2E/DX2                !
 ! A27   A(8,7,16)             121.943          estimate D2E/DX2                !
 ! A28   A(9,7,16)             128.4186         estimate D2E/DX2                !
 ! A29   A(7,8,17)             123.5974         estimate D2E/DX2                !
 ! A30   A(7,8,18)             113.4473         estimate D2E/DX2                !
 ! A31   A(9,8,17)             123.8005         estimate D2E/DX2                !
 ! A32   A(9,8,18)             113.1563         estimate D2E/DX2                !
 ! A33   A(17,8,18)            112.6943         estimate D2E/DX2                !
 ! A34   A(3,9,7)               90.1667         estimate D2E/DX2                !
 ! A35   A(3,9,8)              115.6245         estimate D2E/DX2                !
 ! A36   A(3,9,19)             121.256          estimate D2E/DX2                !
 ! A37   A(7,9,19)             128.7972         estimate D2E/DX2                !
 ! A38   A(8,9,19)             121.7339         estimate D2E/DX2                !
 ! D1    D(10,1,2,3)           -62.8954         estimate D2E/DX2                !
 ! D2    D(10,1,2,11)           60.4168         estimate D2E/DX2                !
 ! D3    D(10,1,2,12)          177.3441         estimate D2E/DX2                !
 ! D4    D(1,2,3,4)             90.5821         estimate D2E/DX2                !
 ! D5    D(1,2,3,6)            166.7304         estimate D2E/DX2                !
 ! D6    D(1,2,3,9)            -72.9379         estimate D2E/DX2                !
 ! D7    D(11,2,3,4)           -34.0216         estimate D2E/DX2                !
 ! D8    D(11,2,3,6)            42.1266         estimate D2E/DX2                !
 ! D9    D(11,2,3,9)           162.4584         estimate D2E/DX2                !
 ! D10   D(12,2,3,4)          -152.4438         estimate D2E/DX2                !
 ! D11   D(12,2,3,6)           -76.2956         estimate D2E/DX2                !
 ! D12   D(12,2,3,9)            44.0362         estimate D2E/DX2                !
 ! D13   D(2,3,4,5)             12.4573         estimate D2E/DX2                !
 ! D14   D(2,3,4,13)          -128.4525         estimate D2E/DX2                !
 ! D15   D(9,3,4,5)            177.296          estimate D2E/DX2                !
 ! D16   D(9,3,4,13)            36.3863         estimate D2E/DX2                !
 ! D17   D(2,3,6,7)            131.5006         estimate D2E/DX2                !
 ! D18   D(2,3,6,15)            -3.556          estimate D2E/DX2                !
 ! D19   D(9,3,6,7)             -1.4425         estimate D2E/DX2                !
 ! D20   D(9,3,6,15)          -136.4992         estimate D2E/DX2                !
 ! D21   D(2,3,9,7)           -136.7817         estimate D2E/DX2                !
 ! D22   D(2,3,9,8)            167.2863         estimate D2E/DX2                !
 ! D23   D(2,3,9,19)             0.5016         estimate D2E/DX2                !
 ! D24   D(4,3,9,7)             58.1914         estimate D2E/DX2                !
 ! D25   D(4,3,9,8)              2.2594         estimate D2E/DX2                !
 ! D26   D(4,3,9,19)          -164.5253         estimate D2E/DX2                !
 ! D27   D(6,3,9,7)              1.4685         estimate D2E/DX2                !
 ! D28   D(6,3,9,8)            -54.4635         estimate D2E/DX2                !
 ! D29   D(6,3,9,19)           138.7518         estimate D2E/DX2                !
 ! D30   D(3,4,5,14)           142.0366         estimate D2E/DX2                !
 ! D31   D(6,4,5,14)            74.6654         estimate D2E/DX2                !
 ! D32   D(13,4,5,14)          -73.6719         estimate D2E/DX2                !
 ! D33   D(5,4,6,7)            177.7514         estimate D2E/DX2                !
 ! D34   D(5,4,6,15)           -15.0995         estimate D2E/DX2                !
 ! D35   D(13,4,6,7)           -36.8282         estimate D2E/DX2                !
 ! D36   D(13,4,6,15)          130.3209         estimate D2E/DX2                !
 ! D37   D(3,6,7,8)             57.8296         estimate D2E/DX2                !
 ! D38   D(3,6,7,9)              1.4735         estimate D2E/DX2                !
 ! D39   D(3,6,7,16)          -135.7858         estimate D2E/DX2                !
 ! D40   D(4,6,7,8)              1.782          estimate D2E/DX2                !
 ! D41   D(4,6,7,9)            -54.5741         estimate D2E/DX2                !
 ! D42   D(4,6,7,16)           168.1665         estimate D2E/DX2                !
 ! D43   D(15,6,7,8)          -164.787          estimate D2E/DX2                !
 ! D44   D(15,6,7,9)           138.8569         estimate D2E/DX2                !
 ! D45   D(15,6,7,16)            1.5975         estimate D2E/DX2                !
 ! D46   D(6,7,8,17)            38.5172         estimate D2E/DX2                !
 ! D47   D(6,7,8,18)          -179.0145         estimate D2E/DX2                !
 ! D48   D(16,7,8,17)         -127.9108         estimate D2E/DX2                !
 ! D49   D(16,7,8,18)           14.5574         estimate D2E/DX2                !
 ! D50   D(6,7,9,3)             -1.4469         estimate D2E/DX2                !
 ! D51   D(6,7,9,19)          -133.3667         estimate D2E/DX2                !
 ! D52   D(16,7,9,3)           131.4354         estimate D2E/DX2                !
 ! D53   D(16,7,9,19)           -0.4844         estimate D2E/DX2                !
 ! D54   D(17,8,9,3)           -38.9723         estimate D2E/DX2                !
 ! D55   D(17,8,9,19)          127.7435         estimate D2E/DX2                !
 ! D56   D(18,8,9,3)           178.7209         estimate D2E/DX2                !
 ! D57   D(18,8,9,19)          -14.5634         estimate D2E/DX2                !
 --------------------------------------------------------------------------------
 Trust Radius=3.00D-01 FncErr=1.00D-07 GrdErr=1.00D-06
 Number of steps in this run=    114 maximum allowed number of steps=    114.
 GradGradGradGradGradGradGradGradGradGradGradGradGradGradGradGradGradGrad

                          Input orientation:                          
 ---------------------------------------------------------------------
 Center     Atomic      Atomic             Coordinates (Angstroms)
 Number     Number       Type             X           Y           Z
 ---------------------------------------------------------------------
      1          8           0        1.520032    0.812856   -0.229324
      2          6           0        0.200656    0.445262    0.163874
      3          6           0       -0.780010    0.554312   -0.963473
      4          6           0       -1.090192   -0.586186   -1.896453
      5          8           0       -0.591315   -1.815882   -1.441959
      6          6           0       -2.205201    0.014423   -1.067602
      7          6           0       -2.699024    1.398454   -1.561829
      8          6           0       -2.014762    1.892882   -2.808406
      9          6           0       -1.273359    1.929996   -1.496601
     10          1           0        1.794973    0.184079   -0.904998
     11          1           0        0.168767   -0.570786    0.577087
     12          1           0       -0.068151    1.144003    0.964306
     13          1           0       -1.049615   -0.473086   -2.977412
     14          1           0       -1.238649   -2.495964   -1.655478
     15          1           0       -2.732944   -0.595072   -0.343933
     16          1           0       -3.605482    1.856005   -1.186108
     17          1           0       -1.741511    1.250671   -3.637301
     18          1           0       -2.359815    2.871018   -3.131994
     19          1           0       -0.914458    2.858695   -1.071438
 ---------------------------------------------------------------------
                    Distance matrix (angstroms):
                    1          2          3          4          5
     1  O    0.000000
     2  C    1.424950   0.000000
     3  C    2.428171   1.498169   0.000000
     4  C    3.398515   2.641046   1.505789   0.000000
     5  O    3.583090   2.884214   2.425360   1.402710   0.000000
     6  C    3.900970   2.736842   1.527577   1.513595   2.468762
     7  C    4.463063   3.506390   2.180188   2.576648   3.845616
     8  C    4.506982   3.979715   2.592327   2.798619   4.200989
     9  C    3.264510   2.671017   1.555675   2.554330   3.807856
    10  H    0.963063   1.937151   2.602121   3.146501   3.159516
    11  H    2.095395   1.097321   2.130574   2.775538   2.490890
    12  H    2.014134   1.095987   2.137946   3.496007   3.850290
    13  H    3.976017   3.503458   2.276880   1.087616   2.090635
    14  H    4.537898   3.745991   3.161234   1.930637   0.962882
    15  H    4.481428   3.153755   2.349226   2.260317   2.698632
    16  H    5.317376   4.277772   3.118856   3.577090   4.757459
    17  H    4.737473   4.343919   2.925535   2.613200   3.942870
    18  H    5.264479   4.827323   3.544770   3.884684   5.286856
    19  H    3.289583   2.931576   2.310826   3.546652   4.700360
                    6          7          8          9         10
     6  C    0.000000
     7  C    1.550375   0.000000
     8  C    2.568126   1.505532   0.000000
     9  C    2.172967   1.522929   1.507279   0.000000
    10  H    4.007071   4.701292   4.588796   3.579509   0.000000
    11  H    2.946726   4.083760   4.722183   3.554408   2.326144
    12  H    3.157782   3.656173   4.310855   2.850679   2.808378
    13  H    2.284824   2.868290   2.560835   2.831548   3.580285
    14  H    2.753518   4.160283   4.603646   4.428946   4.116881
    15  H    1.083371   2.336358   3.574818   3.136080   4.628597
    16  H    2.316518   1.082675   2.272355   2.353865   5.660325
    17  H    2.889061   2.290471   1.083591   2.294177   4.594542
    18  H    3.527854   2.179203   1.086518   2.177251   5.425995
    19  H    3.123446   2.357428   2.271678   1.082615   3.810813
                   11         12         13         14         15
    11  H    0.000000
    12  H    1.773858   0.000000
    13  H    3.758784   4.372115   0.000000
    14  H    3.266722   4.634942   2.423897   0.000000
    15  H    3.044469   3.440493   3.127889   2.750719   0.000000
    16  H    4.821113   4.200469   3.894341   4.976127   2.734659
    17  H    4.972719   4.897581   1.971170   4.268227   3.903330
    18  H    5.656591   5.001398   3.594935   5.678169   4.463887
    19  H    3.956305   2.792966   3.840803   5.396163   3.970474
                   16         17         18         19
    16  H    0.000000
    17  H    3.138338   0.000000
    18  H    2.523571   1.806422   0.000000
    19  H    2.874047   3.139015   2.516962   0.000000
 Stoichiometry    C7H10O2
 Framework group  C1[X(C7H10O2)]
 Deg. of freedom    51
 Full point group                 C1      NOp   1
 Largest Abelian subgroup         C1      NOp   1
 Largest concise Abelian subgroup C1      NOp   1
                         Standard orientation:                         
 ---------------------------------------------------------------------
 Center     Atomic      Atomic             Coordinates (Angstroms)
 Number     Number       Type             X           Y           Z
 ---------------------------------------------------------------------
      1          8           0       -2.192734   -1.480786   -0.406637
      2          6           0       -1.519467   -0.757229    0.619842
      3          6           0       -0.206115   -0.203827    0.157928
      4          6           0       -0.059849    1.164694   -0.452936
      5          8           0       -1.203208    1.961019   -0.291093
      6          6           0        0.695512    0.838122    0.817399
      7          6           0        1.922434   -0.087848    0.615148
      8          6           0        2.180695   -0.472189   -0.817406
      9          6           0        1.034238   -1.112750   -0.077671
     10          1           0       -2.382810   -0.852835   -1.111647
     11          1           0       -2.139099    0.057653    1.014985
     12          1           0       -1.358908   -1.481271    1.426794
     13          1           0        0.447720    1.320210   -1.402198
     14          1           0       -0.914549    2.864147   -0.123231
     15          1           0        0.500857    1.397926    1.724274
     16          1           0        2.657219   -0.251006    1.393387
     17          1           0        2.055025    0.206890   -1.652407
     18          1           0        3.033160   -1.134537   -0.940377
     19          1           0        0.984233   -2.182885    0.078429
 ---------------------------------------------------------------------
 Rotational constants (GHZ):      2.3587733      1.5293080      1.1207664
 Standard basis: 6-31G(2df,p) (6D, 7F)
 There are   329 symmetry adapted cartesian basis functions of A   symmetry.
 There are   302 symmetry adapted basis functions of A   symmetry.
   302 basis functions,   466 primitive gaussians,   329 cartesian basis functions
    34 alpha electrons       34 beta electrons
       nuclear repulsion energy       464.3854076474 Hartrees.
 NAtoms=   19 NActive=   19 NUniq=   19 SFac= 1.00D+00 NAtFMM=   60 NAOKFM=F Big=F
 Integral buffers will be    131072 words long.
 Raffenetti 2 integral format.
 Two-electron integral symmetry is turned on.
 One-electron integrals computed using PRISM.
 NBasis=   302 RedAO= T EigKep=  3.42D-04  NBF=   302
 NBsUse=   302 1.00D-06 EigRej= -1.00D+00 NBFU=   302
 ExpMin= 1.61D-01 ExpMax= 5.48D+03 ExpMxC= 8.25D+02 IAcc=1 IRadAn=         1 AccDes= 0.00D+00
 Harris functional with IExCor=  402 and IRadAn=       1 diagonalized for initial guess.
 HarFok:  IExCor=  402 AccDes= 0.00D+00 IRadAn=         1 IDoV= 1 UseB2=F ITyADJ=14
 ICtDFT=  3500011 ScaDFX=  1.000000  1.000000  1.000000  1.000000
 FoFCou: FMM=F IPFlag=           0 FMFlag=      100000 FMFlg1=           0
         NFxFlg=           0 DoJE=T BraDBF=F KetDBF=T FulRan=T
         wScrn=  0.000000 ICntrl=     500 IOpCl=  0 I1Cent=   200000004 NGrid=           0
         NMat0=    1 NMatS0=      1 NMatT0=    0 NMatD0=    1 NMtDS0=    0 NMtDT0=    0
 Petite list used in FoFCou.
 Requested convergence on RMS density matrix=1.00D-08 within 128 cycles.
 Requested convergence on MAX density matrix=1.00D-06.
 Requested convergence on             energy=1.00D-06.
 No special actions if energy rises.
 Integral accuracy reduced to 1.0D-05 until final iterations.
 Initial convergence to 1.0D-05 achieved.  Increase integral accuracy.
 SCF Done:  E(RB3LYP) =  -423.094616605     A.U. after   12 cycles
            NFock= 12  Conv=0.98D-08     -V/T= 2.0074

 **********************************************************************

            Population analysis using the SCF density.

 **********************************************************************

 Orbital symmetries:
       Occupied  (A) (A) (A) (A) (A) (A) (A) (A) (A) (A) (A) (A)
                 (A) (A) (A) (A) (A) (A) (A) (A) (A) (A) (A) (A)
                 (A) (A) (A) (A) (A) (A) (A) (A) (A) (A)
       Virtual   (A) (A) (A) (A) (A) (A) (A) (A) (A) (A) (A) (A)
                 (A) (A) (A) (A) (A) (A) (A) (A) (A) (A) (A) (A)
                 (A) (A) (A) (A) (A) (A) (A) (A) (A) (A) (A) (A)
                 (A) (A) (A) (A) (A) (A) (A) (A) (A) (A) (A) (A)
                 (A) (A) (A) (A) (A) (A) (A) (A) (A) (A) (A) (A)
                 (A) (A) (A) (A) (A) (A) (A) (A) (A) (A) (A) (A)
                 (A) (A) (A) (A) (A) (A) (A) (A) (A) (A) (A) (A)
                 (A) (A) (A) (A) (A) (A) (A) (A) (A) (A) (A) (A)
                 (A) (A) (A) (A) (A) (A) (A) (A) (A) (A) (A) (A)
                 (A) (A) (A) (A) (A) (A) (A) (A) (A) (A) (A) (A)
                 (A) (A) (A) (A) (A) (A) (A) (A) (A) (A) (A) (A)
                 (A) (A) (A) (A) (A) (A) (A) (A) (A) (A) (A) (A)
                 (A) (A) (A) (A) (A) (A) (A) (A) (A) (A) (A) (A)
                 (A) (A) (A) (A) (A) (A) (A) (A) (A) (A) (A) (A)
                 (A) (A) (A) (A) (A) (A) (A) (A) (A) (A) (A) (A)
                 (A) (A) (A) (A) (A) (A) (A) (A) (A) (A) (A) (A)
                 (A) (A) (A) (A) (A) (A) (A) (A) (A) (A) (A) (A)
                 (A) (A) (A) (A) (A) (A) (A) (A) (A) (A) (A) (A)
                 (A) (A) (A) (A) (A) (A) (A) (A) (A) (A) (A) (A)
                 (A) (A) (A) (A) (A) (A) (A) (A) (A) (A) (A) (A)
                 (A) (A) (A) (A) (A) (A) (A) (A) (A) (A) (A) (A)
                 (A) (A) (A) (A) (A) (A) (A) (A) (A) (A) (A) (A)
                 (A) (A) (A) (A)
 The electronic state is 1-A.
 Alpha  occ. eigenvalues --  -19.15093 -19.12323 -10.23942 -10.21890 -10.19549
 Alpha  occ. eigenvalues --  -10.19311 -10.19198 -10.19171 -10.18995  -1.03610
 Alpha  occ. eigenvalues --   -1.00309  -0.91438  -0.79736  -0.69506  -0.64120
 Alpha  occ. eigenvalues --   -0.61449  -0.56400  -0.53721  -0.52520  -0.49389
 Alpha  occ. eigenvalues --   -0.47511  -0.47270  -0.43318  -0.42598  -0.39484
 Alpha  occ. eigenvalues --   -0.38583  -0.35672  -0.33189  -0.31753  -0.30986
 Alpha  occ. eigenvalues --   -0.30123  -0.26603  -0.25685  -0.21019
 Alpha virt. eigenvalues --    0.06753   0.07125   0.09861   0.10337   0.11197
 Alpha virt. eigenvalues --    0.13760   0.14571   0.15510   0.15909   0.17783
 Alpha virt. eigenvalues --    0.18799   0.19517   0.21128   0.21340   0.23667
 Alpha virt. eigenvalues --    0.24468   0.25068   0.27512   0.30343   0.35683
 Alpha virt. eigenvalues --    0.37496   0.42136   0.43907   0.45702   0.46653
 Alpha virt. eigenvalues --    0.48351   0.50636   0.51225   0.51840   0.52717
 Alpha virt. eigenvalues --    0.54022   0.55851   0.57424   0.59224   0.61369
 Alpha virt. eigenvalues --    0.62914   0.63051   0.64858   0.66589   0.70239
 Alpha virt. eigenvalues --    0.70653   0.71856   0.73834   0.74524   0.75635
 Alpha virt. eigenvalues --    0.77054   0.77699   0.78284   0.79744   0.81591
 Alpha virt. eigenvalues --    0.84004   0.85288   0.88698   0.89496   0.90451
 Alpha virt. eigenvalues --    0.91351   0.93826   0.95583   0.96728   0.98990
 Alpha virt. eigenvalues --    0.99638   1.02118   1.03704   1.06118   1.07736
 Alpha virt. eigenvalues --    1.12081   1.12663   1.15537   1.18693   1.19694
 Alpha virt. eigenvalues --    1.22236   1.22981   1.28315   1.31122   1.32154
 Alpha virt. eigenvalues --    1.34828   1.36128   1.38979   1.39888   1.42420
 Alpha virt. eigenvalues --    1.43750   1.45640   1.46362   1.46682   1.48908
 Alpha virt. eigenvalues --    1.50373   1.52485   1.55964   1.56977   1.59216
 Alpha virt. eigenvalues --    1.61424   1.62910   1.65729   1.66710   1.67660
 Alpha virt. eigenvalues --    1.72029   1.72380   1.74319   1.76961   1.78068
 Alpha virt. eigenvalues --    1.82201   1.85725   1.86629   1.88162   1.92147
 Alpha virt. eigenvalues --    1.99554   2.02189   2.08062   2.15728   2.19605
 Alpha virt. eigenvalues --    2.21083   2.25320   2.29679   2.32229   2.34302
 Alpha virt. eigenvalues --    2.36258   2.41693   2.43038   2.46213   2.48986
 Alpha virt. eigenvalues --    2.52361   2.54236   2.55155   2.57199   2.59333
 Alpha virt. eigenvalues --    2.61695   2.64642   2.67887   2.70198   2.74739
 Alpha virt. eigenvalues --    2.79603   2.80450   2.82839   2.83877   2.85692
 Alpha virt. eigenvalues --    2.86759   2.89389   2.90307   2.91836   2.93149
 Alpha virt. eigenvalues --    2.95250   2.97390   2.98309   3.01654   3.03454
 Alpha virt. eigenvalues --    3.03916   3.07375   3.09200   3.10679   3.13657
 Alpha virt. eigenvalues --    3.14138   3.16681   3.20158   3.22768   3.25569
 Alpha virt. eigenvalues --    3.28491   3.29304   3.30373   3.31368   3.32676
 Alpha virt. eigenvalues --    3.36711   3.38148   3.40554   3.41275   3.45660
 Alpha virt. eigenvalues --    3.47113   3.51899   3.53174   3.55536   3.58713
 Alpha virt. eigenvalues --    3.62099   3.70622   3.73042   3.76979   3.79890
 Alpha virt. eigenvalues --    3.81811   3.91469   3.95422   3.96064   3.99839
 Alpha virt. eigenvalues --    4.00472   4.01523   4.07092   4.13249   4.16622
 Alpha virt. eigenvalues --    4.17439   4.20971   4.22192   4.24086   4.27623
 Alpha virt. eigenvalues --    4.28487   4.30382   4.32957   4.35794   4.37969
 Alpha virt. eigenvalues --    4.38869   4.40403   4.43768   4.44832   4.48718
 Alpha virt. eigenvalues --    4.49733   4.51165   4.55362   4.56636   4.58074
 Alpha virt. eigenvalues --    4.60751   4.63671   4.66057   4.67848   4.70691
 Alpha virt. eigenvalues --    4.72895   4.73463   4.75705   4.77741   4.78302
 Alpha virt. eigenvalues --    4.80760   4.81797   4.83280   4.87710   4.88571
 Alpha virt. eigenvalues --    4.91908   4.92990   4.97366   4.98630   5.00800
 Alpha virt. eigenvalues --    5.08136   5.09009   5.11770   5.15839   5.19917
 Alpha virt. eigenvalues --    5.24292   5.26551   5.27265   5.32446   5.33783
 Alpha virt. eigenvalues --    5.37952   5.40118   5.41207   5.47041   5.50055
 Alpha virt. eigenvalues --    5.52123   5.55305   5.58706   5.63270   5.67907
 Alpha virt. eigenvalues --    5.70949   5.73049   5.76141   5.89207   5.96466
 Alpha virt. eigenvalues --    5.98908   6.03955   6.10806   6.12762   6.21059
 Alpha virt. eigenvalues --    6.73370   6.84293   7.05412   7.15369  10.32760
 Alpha virt. eigenvalues --   11.23006  11.55515  11.75169  11.90466  12.44021
 Alpha virt. eigenvalues --   12.82110  13.20402  13.38583
          Condensed to atoms (all electrons):
               1          2          3          4          5          6
     1  O    7.855787   0.342765  -0.055954   0.000328  -0.000384   0.004513
     2  C    0.342765   4.986910   0.386308  -0.054183  -0.002917  -0.032370
     3  C   -0.055954   0.386308   4.729937   0.313858  -0.030600   0.185683
     4  C    0.000328  -0.054183   0.313858   4.834429   0.375285   0.279180
     5  O   -0.000384  -0.002917  -0.030600   0.375285   7.824112  -0.026188
     6  C    0.004513  -0.032370   0.185683   0.279180  -0.026188   5.237679
     7  C   -0.000003   0.009406  -0.018782   0.016418   0.002691   0.263921
     8  C    0.000011   0.003984   0.004735  -0.021851   0.000038   0.005083
     9  C    0.006479  -0.062495   0.348929  -0.019143   0.000911  -0.037385
    10  H    0.309506  -0.066214   0.000494   0.004415   0.000624  -0.000078
    11  H   -0.023826   0.337629  -0.024188  -0.012924   0.012750   0.003784
    12  H   -0.020280   0.338355  -0.018609   0.006020   0.000236  -0.000864
    13  H    0.000225   0.002779  -0.058003   0.366922  -0.032993  -0.041139
    14  H   -0.000015  -0.000382   0.006879  -0.072404   0.315998  -0.002435
    15  H    0.000014  -0.004938  -0.035218  -0.041970  -0.001003   0.381503
    16  H    0.000002   0.000057   0.008554   0.002322  -0.000009  -0.043018
    17  H    0.000002   0.000068  -0.009254   0.005071  -0.000022  -0.008592
    18  H   -0.000001  -0.000041   0.002597   0.000101  -0.000003   0.002252
    19  H    0.000974  -0.008484  -0.046591   0.003748   0.000000   0.013822
               7          8          9         10         11         12
     1  O   -0.000003   0.000011   0.006479   0.309506  -0.023826  -0.020280
     2  C    0.009406   0.003984  -0.062495  -0.066214   0.337629   0.338355
     3  C   -0.018782   0.004735   0.348929   0.000494  -0.024188  -0.018609
     4  C    0.016418  -0.021851  -0.019143   0.004415  -0.012924   0.006020
     5  O    0.002691   0.000038   0.000911   0.000624   0.012750   0.000236
     6  C    0.263921   0.005083  -0.037385  -0.000078   0.003784  -0.000864
     7  C    4.924038   0.331562   0.268790  -0.000046  -0.000076   0.000376
     8  C    0.331562   5.009228   0.319765   0.000015  -0.000122  -0.000002
     9  C    0.268790   0.319765   4.957605  -0.000587   0.006352  -0.005893
    10  H   -0.000046   0.000015  -0.000587   0.464546  -0.005060   0.007698
    11  H   -0.000076  -0.000122   0.006352  -0.005060   0.645164  -0.045910
    12  H    0.000376  -0.000002  -0.005893   0.007698  -0.045910   0.631742
    13  H   -0.003336   0.003600  -0.003713  -0.000226   0.000227  -0.000088
    14  H   -0.000185   0.000000  -0.000022  -0.000004  -0.000454   0.000016
    15  H   -0.047885   0.003167   0.011605   0.000025   0.001717   0.000746
    16  H    0.383312  -0.041295  -0.034419   0.000000   0.000016  -0.000088
    17  H   -0.016684   0.368606  -0.018123   0.000001  -0.000003   0.000009
    18  H   -0.015253   0.366288  -0.015382   0.000001   0.000002   0.000000
    19  H   -0.038581  -0.042183   0.385615  -0.000009  -0.000011   0.002350
              13         14         15         16         17         18
     1  O    0.000225  -0.000015   0.000014   0.000002   0.000002  -0.000001
     2  C    0.002779  -0.000382  -0.004938   0.000057   0.000068  -0.000041
     3  C   -0.058003   0.006879  -0.035218   0.008554  -0.009254   0.002597
     4  C    0.366922  -0.072404  -0.041970   0.002322   0.005071   0.000101
     5  O   -0.032993   0.315998  -0.001003  -0.000009  -0.000022  -0.000003
     6  C   -0.041139  -0.002435   0.381503  -0.043018  -0.008592   0.002252
     7  C   -0.003336  -0.000185  -0.047885   0.383312  -0.016684  -0.015253
     8  C    0.003600   0.000000   0.003167  -0.041295   0.368606   0.366288
     9  C   -0.003713  -0.000022   0.011605  -0.034419  -0.018123  -0.015382
    10  H   -0.000226  -0.000004   0.000025   0.000000   0.000001   0.000001
    11  H    0.000227  -0.000454   0.001717   0.000016  -0.000003   0.000002
    12  H   -0.000088   0.000016   0.000746  -0.000088   0.000009   0.000000
    13  H    0.682998  -0.002248   0.001733   0.000050  -0.001231  -0.000198
    14  H   -0.002248   0.461257   0.003540  -0.000013   0.000042   0.000000
    15  H    0.001733   0.003540   0.641103  -0.005064   0.000037  -0.000031
    16  H    0.000050  -0.000013  -0.005064   0.646006   0.001545  -0.004642
    17  H   -0.001231   0.000042   0.000037   0.001545   0.601867  -0.039240
    18  H   -0.000198   0.000000  -0.000031  -0.004642  -0.039240   0.595267
    19  H    0.000113   0.000003  -0.000076  -0.004688   0.001556  -0.004957
              19
     1  O    0.000974
     2  C   -0.008484
     3  C   -0.046591
     4  C    0.003748
     5  O    0.000000
     6  C    0.013822
     7  C   -0.038581
     8  C   -0.042183
     9  C    0.385615
    10  H   -0.000009
    11  H   -0.000011
    12  H    0.002350
    13  H    0.000113
    14  H    0.000003
    15  H   -0.000076
    16  H   -0.004688
    17  H    0.001556
    18  H   -0.004957
    19  H    0.640471
 Mulliken charges:
               1
     1  O   -0.420142
     2  C   -0.176236
     3  C    0.309226
     4  C    0.014378
     5  O   -0.438527
     6  C   -0.185350
     7  C   -0.059687
     8  C   -0.310629
     9  C   -0.108889
    10  H    0.284901
    11  H    0.104933
    12  H    0.104188
    13  H    0.084527
    14  H    0.290429
    15  H    0.090995
    16  H    0.091372
    17  H    0.114343
    18  H    0.113241
    19  H    0.096928
 Sum of Mulliken charges =   0.00000
 Mulliken charges with hydrogens summed into heavy atoms:
               1
     1  O   -0.135242
     2  C    0.032885
     3  C    0.309226
     4  C    0.098905
     5  O   -0.148098
     6  C   -0.094356
     7  C    0.031686
     8  C   -0.083045
     9  C   -0.011961
 Electronic spatial extent (au):  <R**2>=           1131.2382
 Charge=              0.0000 electrons
 Dipole moment (field-independent basis, Debye):
    X=              1.6823    Y=              2.0065    Z=              0.2313  Tot=              2.6286
 Quadrupole moment (field-independent basis, Debye-Ang):
   XX=            -55.7983   YY=            -50.8180   ZZ=            -50.7340
   XY=             -4.0157   XZ=              0.3925   YZ=             -0.6913
 Traceless Quadrupole moment (field-independent basis, Debye-Ang):
   XX=             -3.3482   YY=              1.6321   ZZ=              1.7161
   XY=             -4.0157   XZ=              0.3925   YZ=             -0.6913
 Octapole moment (field-independent basis, Debye-Ang**2):
  XXX=             -6.4515  YYY=             29.4611  ZZZ=             -4.6548  XYY=              2.5633
  XXY=              2.3964  XXZ=             -3.6073  XZZ=             -7.3088  YZZ=              2.0874
  YYZ=              3.0707  XYZ=             -0.5343
 Hexadecapole moment (field-independent basis, Debye-Ang**3):
 XXXX=           -783.1853 YYYY=           -373.8003 ZZZZ=           -187.4910 XXXY=            -30.6311
 XXXZ=             19.0924 YYYX=            -32.8037 YYYZ=             -5.1065 ZZZX=             13.0048
 ZZZY=              1.4072 XXYY=           -227.9315 XXZZ=           -145.6222 YYZZ=           -106.6009
 XXYZ=              2.5739 YYXZ=             -5.5632 ZZXY=              8.1511
 N-N= 4.643854076474D+02 E-N=-1.915745463841D+03  KE= 4.199890259338D+02
 Calling FoFJK, ICntrl=      2127 FMM=F ISym2X=0 I1Cent= 0 IOpClX= 0 NMat=1 NMatS=1 NMatT=0.
 ***** Axes restored to original set *****
 -------------------------------------------------------------------
 Center     Atomic                   Forces (Hartrees/Bohr)
 Number     Number              X              Y              Z
 -------------------------------------------------------------------
      1        8          -0.000016754   -0.000002848    0.000011454
      2        6           0.000016204   -0.000008327   -0.000010639
      3        6           0.000017065   -0.000009788   -0.000048206
      4        6          -0.000000241    0.000043598    0.000013222
      5        8           0.000020004   -0.000002788   -0.000013324
      6        6          -0.000052642   -0.000039005    0.000030275
      7        6           0.000040656   -0.000025059    0.000009543
      8        6          -0.000016615    0.000029720   -0.000007676
      9        6          -0.000019336    0.000015805    0.000018415
     10        1          -0.000001039   -0.000000933   -0.000000845
     11        1           0.000003771   -0.000014152   -0.000006305
     12        1           0.000003141   -0.000010073    0.000000802
     13        1           0.000000674    0.000003491   -0.000011108
     14        1           0.000000271    0.000003765   -0.000024525
     15        1           0.000001586    0.000002255   -0.000012266
     16        1          -0.000000637    0.000007153    0.000005401
     17        1           0.000002979    0.000010525    0.000011714
     18        1          -0.000005860    0.000005750    0.000014141
     19        1           0.000006772   -0.000009090    0.000019927
 -------------------------------------------------------------------
 Cartesian Forces:  Max     0.000052642 RMS     0.000017971

 GradGradGradGradGradGradGradGradGradGradGradGradGradGradGradGradGradGrad
 Berny optimization.
 FormGI is forming the generalized inverse of G from B-inverse, IUseBI=4.
 Internal  Forces:  Max     0.000021996 RMS     0.000006143
 Search for a local minimum.
 Step number   1 out of a maximum of  114
 All quantities printed in internal units (Hartrees-Bohrs-Radians)
 Mixed Optimization -- En-DIIS/RFO-DIIS
 Second derivative matrix not updated -- first step.
 ITU=  0
     Eigenvalues ---    0.00790   0.00790   0.01362   0.01625   0.01656
     Eigenvalues ---    0.01805   0.01930   0.02246   0.02914   0.03117
     Eigenvalues ---    0.03310   0.04133   0.04636   0.05061   0.05924
     Eigenvalues ---    0.06086   0.06919   0.07621   0.09902   0.09974
     Eigenvalues ---    0.10997   0.11536   0.11647   0.12963   0.13965
     Eigenvalues ---    0.16000   0.16000   0.16949   0.17622   0.18863
     Eigenvalues ---    0.22050   0.22385   0.23665   0.24558   0.25909
     Eigenvalues ---    0.27414   0.30253   0.31070   0.32570   0.33980
     Eigenvalues ---    0.34130   0.35090   0.35218   0.35564   0.35590
     Eigenvalues ---    0.35673   0.35680   0.41724   0.45174   0.54820
     Eigenvalues ---    0.54858
 RFO step:  Lambda=-3.71514099D-08 EMin= 7.90170729D-03
 Linear search not attempted -- first point.
 Iteration  1 RMS(Cart)=  0.00008687 RMS(Int)=  0.00000001
 Iteration  2 RMS(Cart)=  0.00000001 RMS(Int)=  0.00000000
 Variable       Old X    -DE/DX   Delta X   Delta X   Delta X     New X
                                 (Linear)    (Quad)   (Total)
    R1        2.69277  -0.00002   0.00000  -0.00005  -0.00005   2.69271
    R2        1.81992   0.00000   0.00000   0.00000   0.00000   1.81992
    R3        2.83113   0.00000   0.00000   0.00001   0.00001   2.83114
    R4        2.07364   0.00000   0.00000   0.00001   0.00001   2.07365
    R5        2.07112   0.00000   0.00000   0.00000   0.00000   2.07111
    R6        2.84553  -0.00002   0.00000  -0.00012  -0.00012   2.84541
    R7        2.88670   0.00001   0.00000   0.00010   0.00010   2.88681
    R8        2.93980   0.00000   0.00000  -0.00001  -0.00001   2.93978
    R9        2.65074   0.00001   0.00000   0.00001   0.00001   2.65075
   R10        2.86028   0.00001   0.00000   0.00003   0.00003   2.86032
   R11        2.05530   0.00000   0.00000   0.00001   0.00001   2.05531
   R12        1.81958   0.00000   0.00000   0.00000   0.00000   1.81959
   R13        2.92978   0.00000   0.00000   0.00000   0.00000   2.92979
   R14        2.04728  -0.00001   0.00000  -0.00003  -0.00003   2.04725
   R15        2.84504   0.00000   0.00000   0.00003   0.00003   2.84507
   R16        2.87792   0.00000   0.00000  -0.00006  -0.00006   2.87786
   R17        2.04596   0.00000   0.00000   0.00001   0.00001   2.04597
   R18        2.84834   0.00001   0.00000   0.00002   0.00002   2.84837
   R19        2.04769   0.00000   0.00000   0.00000   0.00000   2.04769
   R20        2.05322   0.00000   0.00000  -0.00001  -0.00001   2.05321
   R21        2.04585   0.00000   0.00000   0.00000   0.00000   2.04584
    A1        1.86450  -0.00001   0.00000  -0.00003  -0.00003   1.86447
    A2        1.96023   0.00001   0.00000   0.00006   0.00006   1.96029
    A3        1.94946   0.00000   0.00000   0.00000   0.00000   1.94946
    A4        1.83812  -0.00001   0.00000  -0.00007  -0.00007   1.83805
    A5        1.90894   0.00000   0.00000   0.00003   0.00003   1.90897
    A6        1.92049  -0.00001   0.00000  -0.00004  -0.00004   1.92045
    A7        1.88408   0.00000   0.00000   0.00001   0.00001   1.88409
    A8        2.14831   0.00000   0.00000   0.00003   0.00003   2.14834
    A9        2.26045  -0.00001   0.00000  -0.00010  -0.00010   2.26035
   A10        2.12919   0.00000   0.00000  -0.00004  -0.00004   2.12915
   A11        1.97373   0.00000   0.00000   0.00006   0.00006   1.97378
   A12        1.56410   0.00000   0.00000   0.00001   0.00001   1.56411
   A13        1.97140   0.00000   0.00000  -0.00005  -0.00005   1.97135
   A14        2.12864   0.00000   0.00000   0.00003   0.00003   2.12867
   A15        2.01798   0.00000   0.00000   0.00008   0.00008   2.01806
   A16        1.98223   0.00000   0.00000  -0.00007  -0.00007   1.98216
   A17        2.12995   0.00000   0.00000   0.00000   0.00000   2.12995
   A18        1.88413  -0.00001   0.00000  -0.00006  -0.00006   1.88407
   A19        1.57419  -0.00001   0.00000  -0.00007  -0.00007   1.57412
   A20        2.22406   0.00001   0.00000   0.00003   0.00003   2.22409
   A21        1.99798  -0.00002   0.00000  -0.00008  -0.00008   1.99790
   A22        2.09601   0.00001   0.00000   0.00009   0.00009   2.09610
   A23        2.16519   0.00000   0.00000   0.00001   0.00001   2.16520
   A24        1.99583   0.00001   0.00000   0.00007   0.00007   1.99590
   A25        1.57054   0.00001   0.00000   0.00006   0.00006   1.57061
   A26        2.13332   0.00000   0.00000   0.00002   0.00002   2.13333
   A27        2.12831  -0.00001   0.00000  -0.00009  -0.00009   2.12821
   A28        2.24133   0.00000   0.00000  -0.00005  -0.00005   2.24127
   A29        2.15718   0.00000   0.00000  -0.00001  -0.00001   2.15717
   A30        1.98003   0.00001   0.00000   0.00001   0.00001   1.98004
   A31        2.16073   0.00000   0.00000  -0.00008  -0.00008   2.16065
   A32        1.97495   0.00000   0.00000   0.00006   0.00006   1.97501
   A33        1.96689   0.00000   0.00000   0.00003   0.00003   1.96691
   A34        1.57371   0.00000   0.00000  -0.00001  -0.00001   1.57370
   A35        2.01803   0.00000   0.00000  -0.00003  -0.00003   2.01799
   A36        2.11632   0.00000   0.00000  -0.00005  -0.00005   2.11626
   A37        2.24794   0.00001   0.00000   0.00007   0.00007   2.24800
   A38        2.12466   0.00000   0.00000   0.00007   0.00007   2.12472
    D1       -1.09773   0.00000   0.00000  -0.00018  -0.00018  -1.09791
    D2        1.05447   0.00000   0.00000  -0.00009  -0.00009   1.05438
    D3        3.09524   0.00000   0.00000  -0.00012  -0.00012   3.09512
    D4        1.58096   0.00000   0.00000   0.00012   0.00012   1.58108
    D5        2.90999   0.00001   0.00000   0.00011   0.00011   2.91011
    D6       -1.27301   0.00000   0.00000  -0.00005  -0.00005  -1.27305
    D7       -0.59379   0.00000   0.00000   0.00005   0.00005  -0.59374
    D8        0.73525   0.00000   0.00000   0.00004   0.00004   0.73529
    D9        2.83543   0.00000   0.00000  -0.00012  -0.00012   2.83531
   D10       -2.66065   0.00000   0.00000   0.00005   0.00005  -2.66059
   D11       -1.33161   0.00000   0.00000   0.00004   0.00004  -1.33157
   D12        0.76858   0.00000   0.00000  -0.00012  -0.00012   0.76846
   D13        0.21742  -0.00001   0.00000  -0.00026  -0.00026   0.21716
   D14       -2.24192   0.00000   0.00000  -0.00011  -0.00011  -2.24203
   D15        3.09440  -0.00001   0.00000  -0.00012  -0.00012   3.09428
   D16        0.63506   0.00000   0.00000   0.00003   0.00003   0.63509
   D17        2.29512   0.00000   0.00000  -0.00005  -0.00005   2.29507
   D18       -0.06206   0.00000   0.00000  -0.00002  -0.00002  -0.06208
   D19       -0.02518   0.00001   0.00000   0.00008   0.00008  -0.02510
   D20       -2.38236   0.00000   0.00000   0.00012   0.00012  -2.38225
   D21       -2.38729   0.00000   0.00000   0.00008   0.00008  -2.38721
   D22        2.91970   0.00000   0.00000   0.00005   0.00005   2.91975
   D23        0.00875   0.00000   0.00000   0.00013   0.00013   0.00888
   D24        1.01563   0.00000   0.00000  -0.00008  -0.00008   1.01556
   D25        0.03943   0.00000   0.00000  -0.00010  -0.00010   0.03933
   D26       -2.87151   0.00000   0.00000  -0.00002  -0.00002  -2.87153
   D27        0.02563  -0.00001   0.00000  -0.00008  -0.00008   0.02555
   D28       -0.95057  -0.00001   0.00000  -0.00011  -0.00011  -0.95068
   D29        2.42168   0.00000   0.00000  -0.00003  -0.00003   2.42164
   D30        2.47901   0.00001   0.00000   0.00014   0.00014   2.47915
   D31        1.30316   0.00000   0.00000   0.00007   0.00007   1.30323
   D32       -1.28582   0.00000   0.00000   0.00005   0.00005  -1.28577
   D33        3.10235   0.00000   0.00000  -0.00015  -0.00015   3.10220
   D34       -0.26354   0.00000   0.00000  -0.00005  -0.00005  -0.26359
   D35       -0.64277  -0.00001   0.00000  -0.00014  -0.00014  -0.64292
   D36        2.27453   0.00000   0.00000  -0.00004  -0.00004   2.27448
   D37        1.00932   0.00000   0.00000  -0.00005  -0.00005   1.00926
   D38        0.02572  -0.00001   0.00000  -0.00008  -0.00008   0.02563
   D39       -2.36991  -0.00001   0.00000  -0.00008  -0.00008  -2.36999
   D40        0.03110   0.00001   0.00000   0.00004   0.00004   0.03114
   D41       -0.95250   0.00001   0.00000   0.00001   0.00001  -0.95249
   D42        2.93506   0.00001   0.00000   0.00001   0.00001   2.93507
   D43       -2.87608   0.00000   0.00000  -0.00007  -0.00007  -2.87615
   D44        2.42351   0.00000   0.00000  -0.00010  -0.00010   2.42341
   D45        0.02788   0.00000   0.00000  -0.00010  -0.00010   0.02778
   D46        0.67225  -0.00001   0.00000  -0.00015  -0.00015   0.67210
   D47       -3.12439   0.00000   0.00000  -0.00010  -0.00010  -3.12449
   D48       -2.23247  -0.00001   0.00000  -0.00014  -0.00014  -2.23260
   D49        0.25408   0.00000   0.00000  -0.00009  -0.00009   0.25398
   D50       -0.02525   0.00001   0.00000   0.00008   0.00008  -0.02517
   D51       -2.32769   0.00001   0.00000   0.00012   0.00012  -2.32757
   D52        2.29398   0.00001   0.00000   0.00014   0.00014   2.29412
   D53       -0.00845   0.00001   0.00000   0.00017   0.00017  -0.00828
   D54       -0.68019   0.00000   0.00000   0.00004   0.00004  -0.68016
   D55        2.22954   0.00000   0.00000  -0.00006  -0.00006   2.22948
   D56        3.11927   0.00000   0.00000   0.00000   0.00000   3.11927
   D57       -0.25418   0.00000   0.00000  -0.00010  -0.00010  -0.25428
         Item               Value     Threshold  Converged?
 Maximum Force            0.000022     0.000450     YES
 RMS     Force            0.000006     0.000300     YES
 Maximum Displacement     0.000358     0.001800     YES
 RMS     Displacement     0.000087     0.001200     YES
 Predicted change in Energy=-1.857512D-08
 Optimization completed.
    -- Stationary point found.
                           ----------------------------
                           !   Optimized Parameters   !
                           ! (Angstroms and Degrees)  !
 --------------------------                            --------------------------
 ! Name  Definition              Value          Derivative Info.                !
 --------------------------------------------------------------------------------
 ! R1    R(1,2)                  1.425          -DE/DX =    0.0                 !
 ! R2    R(1,10)                 0.9631         -DE/DX =    0.0                 !
 ! R3    R(2,3)                  1.4982         -DE/DX =    0.0                 !
 ! R4    R(2,11)                 1.0973         -DE/DX =    0.0                 !
 ! R5    R(2,12)                 1.096          -DE/DX =    0.0                 !
 ! R6    R(3,4)                  1.5058         -DE/DX =    0.0                 !
 ! R7    R(3,6)                  1.5276         -DE/DX =    0.0                 !
 ! R8    R(3,9)                  1.5557         -DE/DX =    0.0                 !
 ! R9    R(4,5)                  1.4027         -DE/DX =    0.0                 !
 ! R10   R(4,6)                  1.5136         -DE/DX =    0.0                 !
 ! R11   R(4,13)                 1.0876         -DE/DX =    0.0                 !
 ! R12   R(5,14)                 0.9629         -DE/DX =    0.0                 !
 ! R13   R(6,7)                  1.5504         -DE/DX =    0.0                 !
 ! R14   R(6,15)                 1.0834         -DE/DX =    0.0                 !
 ! R15   R(7,8)                  1.5055         -DE/DX =    0.0                 !
 ! R16   R(7,9)                  1.5229         -DE/DX =    0.0                 !
 ! R17   R(7,16)                 1.0827         -DE/DX =    0.0                 !
 ! R18   R(8,9)                  1.5073         -DE/DX =    0.0                 !
 ! R19   R(8,17)                 1.0836         -DE/DX =    0.0                 !
 ! R20   R(8,18)                 1.0865         -DE/DX =    0.0                 !
 ! R21   R(9,19)                 1.0826         -DE/DX =    0.0                 !
 ! A1    A(2,1,10)             106.8283         -DE/DX =    0.0                 !
 ! A2    A(1,2,3)              112.3128         -DE/DX =    0.0                 !
 ! A3    A(1,2,11)             111.6958         -DE/DX =    0.0                 !
 ! A4    A(1,2,12)             105.3165         -DE/DX =    0.0                 !
 ! A5    A(3,2,11)             109.374          -DE/DX =    0.0                 !
 ! A6    A(3,2,12)             110.036          -DE/DX =    0.0                 !
 ! A7    A(11,2,12)            107.9497         -DE/DX =    0.0                 !
 ! A8    A(2,3,4)              123.0891         -DE/DX =    0.0                 !
 ! A9    A(2,3,6)              129.5144         -DE/DX =    0.0                 !
 ! A10   A(2,3,9)              121.9938         -DE/DX =    0.0                 !
 ! A11   A(4,3,9)              113.0862         -DE/DX =    0.0                 !
 ! A12   A(6,3,9)               89.6163         -DE/DX =    0.0                 !
 ! A13   A(3,4,5)              112.9526         -DE/DX =    0.0                 !
 ! A14   A(3,4,13)             121.9619         -DE/DX =    0.0                 !
 ! A15   A(5,4,6)              115.622          -DE/DX =    0.0                 !
 ! A16   A(5,4,13)             113.5733         -DE/DX =    0.0                 !
 ! A17   A(6,4,13)             122.0373         -DE/DX =    0.0                 !
 ! A18   A(4,5,14)             107.9527         -DE/DX =    0.0                 !
 ! A19   A(3,6,7)               90.1943         -DE/DX =    0.0                 !
 ! A20   A(3,6,15)             127.4293         -DE/DX =    0.0                 !
 ! A21   A(4,6,7)              114.4759         -DE/DX =    0.0                 !
 ! A22   A(4,6,15)             120.0925         -DE/DX =    0.0                 !
 ! A23   A(7,6,15)             124.0562         -DE/DX =    0.0                 !
 ! A24   A(6,7,8)              114.3528         -DE/DX =    0.0                 !
 ! A25   A(6,7,9)               89.9856         -DE/DX =    0.0                 !
 ! A26   A(6,7,16)             122.23           -DE/DX =    0.0                 !
 ! A27   A(8,7,16)             121.943          -DE/DX =    0.0                 !
 ! A28   A(9,7,16)             128.4186         -DE/DX =    0.0                 !
 ! A29   A(7,8,17)             123.5974         -DE/DX =    0.0                 !
 ! A30   A(7,8,18)             113.4473         -DE/DX =    0.0                 !
 ! A31   A(9,8,17)             123.8005         -DE/DX =    0.0                 !
 ! A32   A(9,8,18)             113.1563         -DE/DX =    0.0                 !
 ! A33   A(17,8,18)            112.6943         -DE/DX =    0.0                 !
 ! A34   A(3,9,7)               90.1667         -DE/DX =    0.0                 !
 ! A35   A(3,9,8)              115.6245         -DE/DX =    0.0                 !
 ! A36   A(3,9,19)             121.256          -DE/DX =    0.0                 !
 ! A37   A(7,9,19)             128.7972         -DE/DX =    0.0                 !
 ! A38   A(8,9,19)             121.7339         -DE/DX =    0.0                 !
 ! D1    D(10,1,2,3)           -62.8954         -DE/DX =    0.0                 !
 ! D2    D(10,1,2,11)           60.4168         -DE/DX =    0.0                 !
 ! D3    D(10,1,2,12)          177.3441         -DE/DX =    0.0                 !
 ! D4    D(1,2,3,4)             90.5821         -DE/DX =    0.0                 !
 ! D5    D(1,2,3,6)            166.7304         -DE/DX =    0.0                 !
 ! D6    D(1,2,3,9)            -72.9379         -DE/DX =    0.0                 !
 ! D7    D(11,2,3,4)           -34.0216         -DE/DX =    0.0                 !
 ! D8    D(11,2,3,6)            42.1266         -DE/DX =    0.0                 !
 ! D9    D(11,2,3,9)           162.4584         -DE/DX =    0.0                 !
 ! D10   D(12,2,3,4)          -152.4438         -DE/DX =    0.0                 !
 ! D11   D(12,2,3,6)           -76.2956         -DE/DX =    0.0                 !
 ! D12   D(12,2,3,9)            44.0362         -DE/DX =    0.0                 !
 ! D13   D(2,3,4,5)             12.4573         -DE/DX =    0.0                 !
 ! D14   D(2,3,4,13)          -128.4525         -DE/DX =    0.0                 !
 ! D15   D(9,3,4,5)            177.296          -DE/DX =    0.0                 !
 ! D16   D(9,3,4,13)            36.3863         -DE/DX =    0.0                 !
 ! D17   D(2,3,6,7)            131.5006         -DE/DX =    0.0                 !
 ! D18   D(2,3,6,15)            -3.556          -DE/DX =    0.0                 !
 ! D19   D(9,3,6,7)             -1.4425         -DE/DX =    0.0                 !
 ! D20   D(9,3,6,15)          -136.4992         -DE/DX =    0.0                 !
 ! D21   D(2,3,9,7)           -136.7817         -DE/DX =    0.0                 !
 ! D22   D(2,3,9,8)            167.2863         -DE/DX =    0.0                 !
 ! D23   D(2,3,9,19)             0.5016         -DE/DX =    0.0                 !
 ! D24   D(4,3,9,7)             58.1914         -DE/DX =    0.0                 !
 ! D25   D(4,3,9,8)              2.2594         -DE/DX =    0.0                 !
 ! D26   D(4,3,9,19)          -164.5253         -DE/DX =    0.0                 !
 ! D27   D(6,3,9,7)              1.4685         -DE/DX =    0.0                 !
 ! D28   D(6,3,9,8)            -54.4635         -DE/DX =    0.0                 !
 ! D29   D(6,3,9,19)           138.7518         -DE/DX =    0.0                 !
 ! D30   D(3,4,5,14)           142.0366         -DE/DX =    0.0                 !
 ! D31   D(6,4,5,14)            74.6654         -DE/DX =    0.0                 !
 ! D32   D(13,4,5,14)          -73.6719         -DE/DX =    0.0                 !
 ! D33   D(5,4,6,7)            177.7514         -DE/DX =    0.0                 !
 ! D34   D(5,4,6,15)           -15.0995         -DE/DX =    0.0                 !
 ! D35   D(13,4,6,7)           -36.8282         -DE/DX =    0.0                 !
 ! D36   D(13,4,6,15)          130.3209         -DE/DX =    0.0                 !
 ! D37   D(3,6,7,8)             57.8296         -DE/DX =    0.0                 !
 ! D38   D(3,6,7,9)              1.4735         -DE/DX =    0.0                 !
 ! D39   D(3,6,7,16)          -135.7858         -DE/DX =    0.0                 !
 ! D40   D(4,6,7,8)              1.782          -DE/DX =    0.0                 !
 ! D41   D(4,6,7,9)            -54.5741         -DE/DX =    0.0                 !
 ! D42   D(4,6,7,16)           168.1665         -DE/DX =    0.0                 !
 ! D43   D(15,6,7,8)          -164.787          -DE/DX =    0.0                 !
 ! D44   D(15,6,7,9)           138.8569         -DE/DX =    0.0                 !
 ! D45   D(15,6,7,16)            1.5975         -DE/DX =    0.0                 !
 ! D46   D(6,7,8,17)            38.5172         -DE/DX =    0.0                 !
 ! D47   D(6,7,8,18)          -179.0145         -DE/DX =    0.0                 !
 ! D48   D(16,7,8,17)         -127.9108         -DE/DX =    0.0                 !
 ! D49   D(16,7,8,18)           14.5574         -DE/DX =    0.0                 !
 ! D50   D(6,7,9,3)             -1.4469         -DE/DX =    0.0                 !
 ! D51   D(6,7,9,19)          -133.3667         -DE/DX =    0.0                 !
 ! D52   D(16,7,9,3)           131.4354         -DE/DX =    0.0                 !
 ! D53   D(16,7,9,19)           -0.4844         -DE/DX =    0.0                 !
 ! D54   D(17,8,9,3)           -38.9723         -DE/DX =    0.0                 !
 ! D55   D(17,8,9,19)          127.7435         -DE/DX =    0.0                 !
 ! D56   D(18,8,9,3)           178.7209         -DE/DX =    0.0                 !
 ! D57   D(18,8,9,19)          -14.5634         -DE/DX =    0.0                 !
 --------------------------------------------------------------------------------
 GradGradGradGradGradGradGradGradGradGradGradGradGradGradGradGradGradGrad

                          Input orientation:                          
 ---------------------------------------------------------------------
 Center     Atomic      Atomic             Coordinates (Angstroms)
 Number     Number       Type             X           Y           Z
 ---------------------------------------------------------------------
      1          8           0        1.520032    0.812856   -0.229324
      2          6           0        0.200656    0.445262    0.163874
      3          6           0       -0.780010    0.554312   -0.963473
      4          6           0       -1.090192   -0.586186   -1.896453
      5          8           0       -0.591315   -1.815882   -1.441959
      6          6           0       -2.205201    0.014423   -1.067602
      7          6           0       -2.699024    1.398454   -1.561829
      8          6           0       -2.014762    1.892882   -2.808406
      9          6           0       -1.273359    1.929996   -1.496601
     10          1           0        1.794973    0.184079   -0.904998
     11          1           0        0.168767   -0.570786    0.577087
     12          1           0       -0.068151    1.144003    0.964306
     13          1           0       -1.049615   -0.473086   -2.977412
     14          1           0       -1.238649   -2.495964   -1.655478
     15          1           0       -2.732944   -0.595072   -0.343933
     16          1           0       -3.605482    1.856005   -1.186108
     17          1           0       -1.741511    1.250671   -3.637301
     18          1           0       -2.359815    2.871018   -3.131994
     19          1           0       -0.914458    2.858695   -1.071438
 ---------------------------------------------------------------------
                    Distance matrix (angstroms):
                    1          2          3          4          5
     1  O    0.000000
     2  C    1.424950   0.000000
     3  C    2.428171   1.498169   0.000000
     4  C    3.398515   2.641046   1.505789   0.000000
     5  O    3.583090   2.884214   2.425360   1.402710   0.000000
     6  C    3.900970   2.736842   1.527577   1.513595   2.468762
     7  C    4.463063   3.506390   2.180188   2.576648   3.845616
     8  C    4.506982   3.979715   2.592327   2.798619   4.200989
     9  C    3.264510   2.671017   1.555675   2.554330   3.807856
    10  H    0.963063   1.937151   2.602121   3.146501   3.159516
    11  H    2.095395   1.097321   2.130574   2.775538   2.490890
    12  H    2.014134   1.095987   2.137946   3.496007   3.850290
    13  H    3.976017   3.503458   2.276880   1.087616   2.090635
    14  H    4.537898   3.745991   3.161234   1.930637   0.962882
    15  H    4.481428   3.153755   2.349226   2.260317   2.698632
    16  H    5.317376   4.277772   3.118856   3.577090   4.757459
    17  H    4.737473   4.343919   2.925535   2.613200   3.942870
    18  H    5.264479   4.827323   3.544770   3.884684   5.286856
    19  H    3.289583   2.931576   2.310826   3.546652   4.700360
                    6          7          8          9         10
     6  C    0.000000
     7  C    1.550375   0.000000
     8  C    2.568126   1.505532   0.000000
     9  C    2.172967   1.522929   1.507279   0.000000
    10  H    4.007071   4.701292   4.588796   3.579509   0.000000
    11  H    2.946726   4.083760   4.722183   3.554408   2.326144
    12  H    3.157782   3.656173   4.310855   2.850679   2.808378
    13  H    2.284824   2.868290   2.560835   2.831548   3.580285
    14  H    2.753518   4.160283   4.603646   4.428946   4.116881
    15  H    1.083371   2.336358   3.574818   3.136080   4.628597
    16  H    2.316518   1.082675   2.272355   2.353865   5.660325
    17  H    2.889061   2.290471   1.083591   2.294177   4.594542
    18  H    3.527854   2.179203   1.086518   2.177251   5.425995
    19  H    3.123446   2.357428   2.271678   1.082615   3.810813
                   11         12         13         14         15
    11  H    0.000000
    12  H    1.773858   0.000000
    13  H    3.758784   4.372115   0.000000
    14  H    3.266722   4.634942   2.423897   0.000000
    15  H    3.044469   3.440493   3.127889   2.750719   0.000000
    16  H    4.821113   4.200469   3.894341   4.976127   2.734659
    17  H    4.972719   4.897581   1.971170   4.268227   3.903330
    18  H    5.656591   5.001398   3.594935   5.678169   4.463887
    19  H    3.956305   2.792966   3.840803   5.396163   3.970474
                   16         17         18         19
    16  H    0.000000
    17  H    3.138338   0.000000
    18  H    2.523571   1.806422   0.000000
    19  H    2.874047   3.139015   2.516962   0.000000
 Stoichiometry    C7H10O2
 Framework group  C1[X(C7H10O2)]
 Deg. of freedom    51
 Full point group                 C1      NOp   1
 Largest Abelian subgroup         C1      NOp   1
 Largest concise Abelian subgroup C1      NOp   1
                         Standard orientation:                         
 ---------------------------------------------------------------------
 Center     Atomic      Atomic             Coordinates (Angstroms)
 Number     Number       Type             X           Y           Z
 ---------------------------------------------------------------------
      1          8           0       -2.192734   -1.480786   -0.406637
      2          6           0       -1.519467   -0.757229    0.619842
      3          6           0       -0.206115   -0.203827    0.157928
      4          6           0       -0.059849    1.164694   -0.452936
      5          8           0       -1.203208    1.961019   -0.291093
      6          6           0        0.695512    0.838122    0.817399
      7          6           0        1.922434   -0.087848    0.615148
      8          6           0        2.180695   -0.472189   -0.817406
      9          6           0        1.034238   -1.112750   -0.077671
     10          1           0       -2.382810   -0.852835   -1.111647
     11          1           0       -2.139099    0.057653    1.014985
     12          1           0       -1.358908   -1.481271    1.426794
     13          1           0        0.447720    1.320210   -1.402198
     14          1           0       -0.914549    2.864147   -0.123231
     15          1           0        0.500857    1.397926    1.724274
     16          1           0        2.657219   -0.251006    1.393387
     17          1           0        2.055025    0.206890   -1.652407
     18          1           0        3.033160   -1.134537   -0.940377
     19          1           0        0.984233   -2.182885    0.078429
 ---------------------------------------------------------------------
 Rotational constants (GHZ):      2.3587733      1.5293080      1.1207664
 1\1\GINC-ALCHEMY-F\FOpt\RB3LYP\6-31G(2df,p)\C7H10O2\PUCK\28-Jan-2020\0
 \\# b3lyp 6-31G(2df,p) opt Freq\\titel\\0,1\O,1.5200316222,0.812855737
 3,-0.2293238068\C,0.2006555606,0.4452618996,0.1638744818\C,-0.78001035
 96,0.5543117481,-0.9634729496\C,-1.0901918505,-0.5861861897,-1.8964532
 669\O,-0.5913153527,-1.815882004,-1.441959164\C,-2.2052010021,0.014423
 097,-1.0676020622\C,-2.6990243455,1.3984542282,-1.5618289605\C,-2.0147
 621327,1.8928819136,-2.8084055994\C,-1.2733590263,1.929995519,-1.49660
 05359\H,1.7949733306,0.1840787308,-0.9049983504\H,0.1687666852,-0.5707
 858991,0.5770866998\H,-0.0681508034,1.1440032162,0.9643062548\H,-1.049
 6145271,-0.4730860062,-2.9774118032\H,-1.2386490798,-2.495963514,-1.65
 54775304\H,-2.732944055,-0.595071844,-0.3439329628\H,-3.6054821822,1.8
 560051736,-1.1861083758\H,-1.7415107361,1.250670759,-3.6373013966\H,-2
 .3598147957,2.8710184475,-3.1319938646\H,-0.91445783,2.8586953869,-1.0
 714384873\\Version=ES64L-G09RevD.01\State=1-A\HF=-423.0946166\RMSD=9.8
 03e-09\RMSF=1.797e-05\Dipole=-0.8525619,-0.408594,-0.419187\Quadrupole
 =-2.6570167,2.8337299,-0.1767132,-0.5666728,-2.4240077,0.3922927\PG=C0
 1 [X(C7H10O2)]\\@


     "IF I COULD JUST GET IT ON PAPER"
 LIFE AND INK, THEY RUN OUT AT THE SAME TIME,
 OR SO SAID MY OLD FRIEND THE SQUID.
     -- JIMMY BUFFETT, 1981
 Job cpu time:       0 days  0 hours  6 minutes 11.9 seconds.
 File lengths (MBytes):  RWF=     52 Int=      0 D2E=      0 Chk=      7 Scr=      1
 Normal termination of Gaussian 09 at Tue Jan 28 09:20:35 2020.
 Link1:  Proceeding to internal job step number  2.
 ----------------------------------------------------------------------
 #N Geom=AllCheck Guess=TCheck SCRF=Check GenChk RB3LYP/6-31G(2df,p) Fr
 eq
 ----------------------------------------------------------------------
 1/10=4,29=7,30=1,38=1,40=1/1,3;
 2/12=2,40=1/2;
 3/5=1,6=6,7=104,11=2,14=-4,16=1,25=1,30=1,70=2,71=2,74=-5,116=1,140=1/1,2,3;
 4/5=101/1;
 5/5=2,98=1/2;
 8/6=4,10=90,11=11/1;
 11/6=1,8=1,9=11,15=111,16=1/1,2,10;
 10/6=1/2;
 6/7=2,8=2,9=2,10=2,18=1,28=1/1;
 7/8=1,10=1,25=1/1,2,3,16;
 1/10=4,30=1/3;
 99//99;
 Structure from the checkpoint file:  "/scratch/puck/g09_89dd44ef-ff34-465f-bed8-bd2fb856ab26/Gau-82350.chk"
 -----
 titel
 -----
 Charge =  0 Multiplicity = 1
 Redundant internal coordinates found in file.
 O,0,1.5200316222,0.8128557373,-0.2293238068
 C,0,0.2006555606,0.4452618996,0.1638744818
 C,0,-0.7800103596,0.5543117481,-0.9634729496
 C,0,-1.0901918505,-0.5861861897,-1.8964532669
 O,0,-0.5913153527,-1.815882004,-1.441959164
 C,0,-2.2052010021,0.014423097,-1.0676020622
 C,0,-2.6990243455,1.3984542282,-1.5618289605
 C,0,-2.0147621327,1.8928819136,-2.8084055994
 C,0,-1.2733590263,1.929995519,-1.4966005359
 H,0,1.7949733306,0.1840787308,-0.9049983504
 H,0,0.1687666852,-0.5707858991,0.5770866998
 H,0,-0.0681508034,1.1440032162,0.9643062548
 H,0,-1.0496145271,-0.4730860062,-2.9774118032
 H,0,-1.2386490798,-2.495963514,-1.6554775304
 H,0,-2.732944055,-0.595071844,-0.3439329628
 H,0,-3.6054821822,1.8560051736,-1.1861083758
 H,0,-1.7415107361,1.250670759,-3.6373013966
 H,0,-2.3598147957,2.8710184475,-3.1319938646
 H,0,-0.91445783,2.8586953869,-1.0714384873
 Recover connectivity data from disk.

 GradGradGradGradGradGradGradGradGradGradGradGradGradGradGradGradGradGrad
 Berny optimization.
 Initialization pass.
                           ----------------------------
                           !    Initial Parameters    !
                           ! (Angstroms and Degrees)  !
 --------------------------                            --------------------------
 ! Name  Definition              Value          Derivative Info.                !
 --------------------------------------------------------------------------------
 ! R1    R(1,2)                  1.425          calculate D2E/DX2 analytically  !
 ! R2    R(1,10)                 0.9631         calculate D2E/DX2 analytically  !
 ! R3    R(2,3)                  1.4982         calculate D2E/DX2 analytically  !
 ! R4    R(2,11)                 1.0973         calculate D2E/DX2 analytically  !
 ! R5    R(2,12)                 1.096          calculate D2E/DX2 analytically  !
 ! R6    R(3,4)                  1.5058         calculate D2E/DX2 analytically  !
 ! R7    R(3,6)                  1.5276         calculate D2E/DX2 analytically  !
 ! R8    R(3,9)                  1.5557         calculate D2E/DX2 analytically  !
 ! R9    R(4,5)                  1.4027         calculate D2E/DX2 analytically  !
 ! R10   R(4,6)                  1.5136         calculate D2E/DX2 analytically  !
 ! R11   R(4,13)                 1.0876         calculate D2E/DX2 analytically  !
 ! R12   R(5,14)                 0.9629         calculate D2E/DX2 analytically  !
 ! R13   R(6,7)                  1.5504         calculate D2E/DX2 analytically  !
 ! R14   R(6,15)                 1.0834         calculate D2E/DX2 analytically  !
 ! R15   R(7,8)                  1.5055         calculate D2E/DX2 analytically  !
 ! R16   R(7,9)                  1.5229         calculate D2E/DX2 analytically  !
 ! R17   R(7,16)                 1.0827         calculate D2E/DX2 analytically  !
 ! R18   R(8,9)                  1.5073         calculate D2E/DX2 analytically  !
 ! R19   R(8,17)                 1.0836         calculate D2E/DX2 analytically  !
 ! R20   R(8,18)                 1.0865         calculate D2E/DX2 analytically  !
 ! R21   R(9,19)                 1.0826         calculate D2E/DX2 analytically  !
 ! A1    A(2,1,10)             106.8283         calculate D2E/DX2 analytically  !
 ! A2    A(1,2,3)              112.3128         calculate D2E/DX2 analytically  !
 ! A3    A(1,2,11)             111.6958         calculate D2E/DX2 analytically  !
 ! A4    A(1,2,12)             105.3165         calculate D2E/DX2 analytically  !
 ! A5    A(3,2,11)             109.374          calculate D2E/DX2 analytically  !
 ! A6    A(3,2,12)             110.036          calculate D2E/DX2 analytically  !
 ! A7    A(11,2,12)            107.9497         calculate D2E/DX2 analytically  !
 ! A8    A(2,3,4)              123.0891         calculate D2E/DX2 analytically  !
 ! A9    A(2,3,6)              129.5144         calculate D2E/DX2 analytically  !
 ! A10   A(2,3,9)              121.9938         calculate D2E/DX2 analytically  !
 ! A11   A(4,3,9)              113.0862         calculate D2E/DX2 analytically  !
 ! A12   A(6,3,9)               89.6163         calculate D2E/DX2 analytically  !
 ! A13   A(3,4,5)              112.9526         calculate D2E/DX2 analytically  !
 ! A14   A(3,4,13)             121.9619         calculate D2E/DX2 analytically  !
 ! A15   A(5,4,6)              115.622          calculate D2E/DX2 analytically  !
 ! A16   A(5,4,13)             113.5733         calculate D2E/DX2 analytically  !
 ! A17   A(6,4,13)             122.0373         calculate D2E/DX2 analytically  !
 ! A18   A(4,5,14)             107.9527         calculate D2E/DX2 analytically  !
 ! A19   A(3,6,7)               90.1943         calculate D2E/DX2 analytically  !
 ! A20   A(3,6,15)             127.4293         calculate D2E/DX2 analytically  !
 ! A21   A(4,6,7)              114.4759         calculate D2E/DX2 analytically  !
 ! A22   A(4,6,15)             120.0925         calculate D2E/DX2 analytically  !
 ! A23   A(7,6,15)             124.0562         calculate D2E/DX2 analytically  !
 ! A24   A(6,7,8)              114.3528         calculate D2E/DX2 analytically  !
 ! A25   A(6,7,9)               89.9856         calculate D2E/DX2 analytically  !
 ! A26   A(6,7,16)             122.23           calculate D2E/DX2 analytically  !
 ! A27   A(8,7,16)             121.943          calculate D2E/DX2 analytically  !
 ! A28   A(9,7,16)             128.4186         calculate D2E/DX2 analytically  !
 ! A29   A(7,8,17)             123.5974         calculate D2E/DX2 analytically  !
 ! A30   A(7,8,18)             113.4473         calculate D2E/DX2 analytically  !
 ! A31   A(9,8,17)             123.8005         calculate D2E/DX2 analytically  !
 ! A32   A(9,8,18)             113.1563         calculate D2E/DX2 analytically  !
 ! A33   A(17,8,18)            112.6943         calculate D2E/DX2 analytically  !
 ! A34   A(3,9,7)               90.1667         calculate D2E/DX2 analytically  !
 ! A35   A(3,9,8)              115.6245         calculate D2E/DX2 analytically  !
 ! A36   A(3,9,19)             121.256          calculate D2E/DX2 analytically  !
 ! A37   A(7,9,19)             128.7972         calculate D2E/DX2 analytically  !
 ! A38   A(8,9,19)             121.7339         calculate D2E/DX2 analytically  !
 ! D1    D(10,1,2,3)           -62.8954         calculate D2E/DX2 analytically  !
 ! D2    D(10,1,2,11)           60.4168         calculate D2E/DX2 analytically  !
 ! D3    D(10,1,2,12)          177.3441         calculate D2E/DX2 analytically  !
 ! D4    D(1,2,3,4)             90.5821         calculate D2E/DX2 analytically  !
 ! D5    D(1,2,3,6)            166.7304         calculate D2E/DX2 analytically  !
 ! D6    D(1,2,3,9)            -72.9379         calculate D2E/DX2 analytically  !
 ! D7    D(11,2,3,4)           -34.0216         calculate D2E/DX2 analytically  !
 ! D8    D(11,2,3,6)            42.1266         calculate D2E/DX2 analytically  !
 ! D9    D(11,2,3,9)           162.4584         calculate D2E/DX2 analytically  !
 ! D10   D(12,2,3,4)          -152.4438         calculate D2E/DX2 analytically  !
 ! D11   D(12,2,3,6)           -76.2956         calculate D2E/DX2 analytically  !
 ! D12   D(12,2,3,9)            44.0362         calculate D2E/DX2 analytically  !
 ! D13   D(2,3,4,5)             12.4573         calculate D2E/DX2 analytically  !
 ! D14   D(2,3,4,13)          -128.4525         calculate D2E/DX2 analytically  !
 ! D15   D(9,3,4,5)            177.296          calculate D2E/DX2 analytically  !
 ! D16   D(9,3,4,13)            36.3863         calculate D2E/DX2 analytically  !
 ! D17   D(2,3,6,7)            131.5006         calculate D2E/DX2 analytically  !
 ! D18   D(2,3,6,15)            -3.556          calculate D2E/DX2 analytically  !
 ! D19   D(9,3,6,7)             -1.4425         calculate D2E/DX2 analytically  !
 ! D20   D(9,3,6,15)          -136.4992         calculate D2E/DX2 analytically  !
 ! D21   D(2,3,9,7)           -136.7817         calculate D2E/DX2 analytically  !
 ! D22   D(2,3,9,8)            167.2863         calculate D2E/DX2 analytically  !
 ! D23   D(2,3,9,19)             0.5016         calculate D2E/DX2 analytically  !
 ! D24   D(4,3,9,7)             58.1914         calculate D2E/DX2 analytically  !
 ! D25   D(4,3,9,8)              2.2594         calculate D2E/DX2 analytically  !
 ! D26   D(4,3,9,19)          -164.5253         calculate D2E/DX2 analytically  !
 ! D27   D(6,3,9,7)              1.4685         calculate D2E/DX2 analytically  !
 ! D28   D(6,3,9,8)            -54.4635         calculate D2E/DX2 analytically  !
 ! D29   D(6,3,9,19)           138.7518         calculate D2E/DX2 analytically  !
 ! D30   D(3,4,5,14)           142.0366         calculate D2E/DX2 analytically  !
 ! D31   D(6,4,5,14)            74.6654         calculate D2E/DX2 analytically  !
 ! D32   D(13,4,5,14)          -73.6719         calculate D2E/DX2 analytically  !
 ! D33   D(5,4,6,7)            177.7514         calculate D2E/DX2 analytically  !
 ! D34   D(5,4,6,15)           -15.0995         calculate D2E/DX2 analytically  !
 ! D35   D(13,4,6,7)           -36.8282         calculate D2E/DX2 analytically  !
 ! D36   D(13,4,6,15)          130.3209         calculate D2E/DX2 analytically  !
 ! D37   D(3,6,7,8)             57.8296         calculate D2E/DX2 analytically  !
 ! D38   D(3,6,7,9)              1.4735         calculate D2E/DX2 analytically  !
 ! D39   D(3,6,7,16)          -135.7858         calculate D2E/DX2 analytically  !
 ! D40   D(4,6,7,8)              1.782          calculate D2E/DX2 analytically  !
 ! D41   D(4,6,7,9)            -54.5741         calculate D2E/DX2 analytically  !
 ! D42   D(4,6,7,16)           168.1665         calculate D2E/DX2 analytically  !
 ! D43   D(15,6,7,8)          -164.787          calculate D2E/DX2 analytically  !
 ! D44   D(15,6,7,9)           138.8569         calculate D2E/DX2 analytically  !
 ! D45   D(15,6,7,16)            1.5975         calculate D2E/DX2 analytically  !
 ! D46   D(6,7,8,17)            38.5172         calculate D2E/DX2 analytically  !
 ! D47   D(6,7,8,18)          -179.0145         calculate D2E/DX2 analytically  !
 ! D48   D(16,7,8,17)         -127.9108         calculate D2E/DX2 analytically  !
[...]
 00159537,0.00309073,0.00886238,-0.01831103,-0.02088933,-0.06695902,-0.
 06892508,-0.13022414,-0.02159847,0.00431301,0.65845773,0.00090931,-0.0
 0034222,0.00017522,-0.00203731,0.00151066,-0.00040929,0.00834284,-0.01
 603601,0.01069631,-0.09414690,0.02892112,-0.03037453,0.35823738,-0.002
 55838,-0.00010511,-0.00045428,0.00144449,0.00012492,0.00308033,0.00891
 826,-0.03517110,0.00895554,0.07081173,-0.20935928,0.06350977,0.1488261
 4,0.53972460,-0.00098014,-0.00108335,0.00078660,-0.00165073,0.00180706
 ,-0.00199561,0.00790114,-0.00826255,0.00730897,-0.03594103,0.04452925,
 -0.09445678,0.13229325,-0.00011685,0.12241001,0.00034101,0.00109012,-0
 .00403634,-0.01517326,-0.00269242,0.00840355,-0.15981442,-0.08187698,-
 0.03384339,-0.10670100,0.06124579,0.10304262,-0.01475128,0.01254288,0.
 00060916,0.48096223,0.00215974,0.00174262,0.00059698,0.00078713,-0.005
 23449,-0.00433768,-0.03327531,-0.03020530,-0.00514249,0.02377733,-0.06
 162819,-0.00124906,0.03780460,-0.01916910,-0.00730841,0.03827683,0.462
 76457,-0.00413511,0.00078138,-0.00151203,-0.02021405,-0.00771996,0.009
 15064,0.01265140,0.00773882,-0.04892103,0.07231972,-0.01430213,-0.1120
 0072,-0.01564569,0.00643811,0.00490008,-0.17400923,-0.17091949,0.40507
 768,0.00077190,0.00022580,-0.00060531,-0.00418484,0.00093851,0.0014415
 0,-0.05795323,0.01930823,-0.00450959,-0.00864743,0.00564096,-0.0100313
 6,-0.00144547,0.00043711,0.00020510,-0.05374415,0.04014679,0.01398240,
 0.60450886,-0.00059174,0.00080700,-0.00040114,-0.00065534,-0.00184825,
 0.00028813,0.01879158,-0.02460814,0.00443738,0.01155001,-0.01599572,0.
 00358914,0.00165796,0.00036318,-0.00100269,0.05817823,-0.14395613,0.04
 576390,-0.11507503,0.42020479,-0.00063138,-0.00047574,-0.00012328,-0.0
 0132066,-0.00017704,0.00082354,-0.02797948,0.02381135,0.00086134,-0.00
 041442,-0.01143706,0.01359662,0.00660397,-0.00465971,-0.00089653,0.014
 45104,0.03013800,-0.07860513,-0.16812005,-0.04162842,0.34109279,-0.000
 88582,-0.00050152,0.00010696,0.00024617,0.00175199,0.00050093,-0.00729
 392,0.00387225,-0.01556059,0.00538837,0.00245690,-0.00043484,-0.002003
 80,-0.00039919,-0.00014386,-0.00104773,-0.00471113,-0.00490149,-0.0687
 7955,-0.00110256,0.06776639,0.26916229,0.00093243,0.00064294,-0.000428
 66,-0.00290388,-0.00490520,0.00060350,0.00204572,0.00106003,0.02504928
 ,0.00227936,-0.00002705,0.00216657,-0.00092497,0.00055859,-0.00023611,
 -0.00588012,-0.00836081,0.02955908,-0.00249305,-0.07595228,0.03179279,
 -0.13814714,0.59156250,-0.00024122,-0.00038298,0.00033307,0.00239670,-
 0.00054220,-0.00001806,0.00279032,0.00919131,-0.00577996,-0.00055955,0
 .00083353,0.00579099,-0.00028735,0.00087216,-0.00165244,-0.00762517,0.
 00557018,-0.00512941,0.11211734,0.04918201,-0.15386083,-0.02772101,0.0
 2225519,0.62073548,0.00155466,-0.00126720,0.00144321,-0.00148427,0.016
 17130,-0.00598605,-0.03828028,0.04347248,-0.03274443,-0.00492135,0.007
 05864,0.00318184,0.00022122,-0.00007570,0.00060032,-0.02397901,-0.0226
 1236,-0.00131324,-0.17513478,-0.05579257,0.03090812,-0.05878491,0.0093
 8246,-0.10863144,0.38842630,0.00041998,0.00025231,-0.00011765,0.003490
 67,0.00279536,0.00029490,0.02254764,-0.14985932,0.02320537,-0.00046804
 ,-0.02175983,0.00808379,-0.00249190,-0.00090130,-0.00137614,-0.0176971
 3,-0.05820231,0.00444221,-0.04958424,-0.04938358,-0.01041860,0.0068868
 4,-0.07104985,-0.03291376,0.09866008,0.60761071,0.00125170,-0.00174582
 ,0.00189681,0.00031797,0.02421177,-0.01056813,-0.02277535,0.01107347,-
 0.08247625,0.00487471,-0.01084665,0.01303820,-0.00289850,-0.00545392,-
 0.00137997,0.00334178,0.03083800,0.00366802,-0.03139740,-0.03338750,-0
 .02822479,-0.06333998,-0.01566139,-0.16676238,0.16334489,0.09314527,0.
 37276124,-0.06874612,0.05372292,0.07898268,-0.02012540,0.02814413,0.03
 404402,0.00148605,0.00232338,0.00078697,-0.00136912,-0.00116650,-0.001
 48510,-0.00002244,0.00034849,0.00001937,0.00088866,-0.00016437,-0.0005
 1223,0.00005847,0.00001662,0.00000550,0.00001654,-0.00019937,0.0000234
 4,-0.00018711,0.00037356,-0.00004873,0.09184086,0.09205640,-0.23860041
 ,-0.24513936,-0.00955512,0.00529380,0.01040695,-0.00038812,0.00010901,
 -0.00020264,-0.00032282,0.00150859,-0.00006463,0.00065739,-0.00065475,
 0.00031246,-0.00037995,-0.00006926,-0.00001508,-0.00006385,-0.00011265
 ,0.00001204,0.00007750,0.00003712,0.00010790,0.00004916,-0.00037768,-0
 .00010926,-0.07968486,0.23085950,0.11060878,-0.22397792,-0.25157526,0.
 00307275,-0.01039329,-0.01132748,-0.00112199,0.00125894,0.00366504,0.0
 0024053,-0.00112764,0.00049236,-0.00022329,-0.00002851,-0.00058045,-0.
 00019187,0.00026483,-0.00088714,0.00007068,-0.00002979,-0.00010188,-0.
 00015809,0.00011431,-0.00003865,0.00002292,0.00015922,-0.00006659,-0.1
 1370951,0.23242737,0.25992976,-0.01646991,-0.03636440,0.01800460,-0.04
 792261,0.00840039,-0.00111016,0.00008438,0.02083721,-0.00828335,-0.000
 17536,0.00071320,0.00014138,-0.00020455,-0.00088930,0.00000393,0.00077
 345,-0.00008620,0.00094890,0.00070668,-0.00001141,0.00049904,-0.000190
 41,0.00135936,-0.00004761,-0.00130775,-0.00136067,-0.00448022,0.001795
 21,-0.00086097,-0.00139709,0.06204552,-0.00984588,-0.00208325,0.004563
 62,0.00461143,-0.26693715,0.08470349,0.00173292,-0.00317948,0.00189999
 ,-0.00000369,-0.00130913,0.00033972,-0.00131012,-0.00075509,-0.0029528
 4,0.00042996,0.00007604,0.00026293,0.00041547,0.00018804,-0.00019756,-
 0.00011687,0.00000389,-0.00013278,-0.00052858,0.00116141,0.00006273,-0
 .00057700,0.00104613,-0.00060452,0.00332254,0.28914327,0.00929903,0.01
 061454,-0.00225728,-0.00249523,0.07887137,-0.08434025,-0.00430789,0.02
 644754,-0.01103007,0.00049861,0.00271392,-0.00006957,0.00029267,-0.001
 09294,0.00049850,-0.00046310,0.00010197,0.00070064,-0.00022591,-0.0001
 4800,0.00025085,-0.00030932,0.00107363,0.00039867,-0.00126009,-0.00203
 956,-0.00286175,-0.00011652,0.00100686,0.00023985,-0.00084364,-0.09501
 855,0.08878389,-0.02143027,0.02055058,0.03084261,-0.05559831,0.0336550
 2,0.03578452,0.00280686,-0.01563521,-0.01848574,-0.00049216,0.00190847
 ,-0.00464953,0.00047558,0.00028728,0.00049168,0.00162142,0.00034034,0.
 00216563,0.00002411,-0.00005541,-0.00000100,-0.00009570,-0.00002837,0.
 00003373,0.00061357,0.00002753,0.00091441,-0.00633205,-0.00181487,0.00
 266413,0.00159426,0.00147691,0.00023223,0.07823434,-0.00292843,0.00858
 204,0.00734608,0.04120743,-0.16289927,-0.12149471,-0.00115579,0.001868
 07,0.00255848,0.00144606,-0.00029401,0.00090298,-0.00058934,0.00029260
 ,-0.00093631,-0.00030566,0.00023867,0.00023932,-0.00010217,0.00027390,
 -0.00001357,0.00005528,0.00004841,-0.00016082,-0.00047488,0.00068292,0
 .00044646,-0.00262112,0.00125103,0.00196897,0.00591671,-0.01786642,-0.
 02132438,-0.03991768,0.16746583,0.01013264,-0.00615050,-0.00853113,0.0
 4178900,-0.11680792,-0.17946843,0.00095219,-0.01885493,-0.02113040,-0.
 00108494,0.00308956,-0.00288322,0.00057043,0.00019249,0.00081733,-0.00
 014579,-0.00043354,0.00131510,-0.00006260,-0.00010911,-0.00017246,-0.0
 0007022,0.00023191,0.00001110,0.00067676,-0.00072861,0.00117192,0.0016
 9479,0.00120726,0.00050027,-0.00331490,0.00715400,0.00958336,-0.049709
 05,0.13084506,0.19899823,0.00004186,-0.00009871,0.00049414,0.00243734,
 -0.00164561,-0.00191945,-0.00170056,0.00511142,-0.01248301,-0.04447335
 ,-0.00164611,0.01499530,0.00137392,0.00746241,-0.01484021,0.00055106,-
 0.00546182,0.02322566,0.00110409,-0.00191631,-0.00035041,-0.00008169,0
 .00088216,-0.00001351,-0.00041541,0.00124495,0.00015662,-0.00001011,0.
 00005172,-0.00011563,0.00010714,0.00024688,0.00019624,-0.00097879,0.00
 000056,-0.00087667,0.04106482,-0.00060130,0.00012149,0.00022836,0.0038
 0542,-0.00193169,-0.00098319,0.00150734,0.00491422,-0.01913967,-0.0023
 7886,-0.04533144,0.01984500,0.00554059,-0.01644513,0.03520906,-0.00087
 025,-0.00052566,-0.00562516,-0.00037894,0.00019042,0.00079647,0.001064
 17,-0.00210046,0.00080863,-0.00024584,0.00137976,0.00031802,-0.0000312
 4,-0.00010137,0.00006527,-0.00002362,0.00012902,-0.00033800,-0.0011307
 3,0.00007924,-0.00075831,-0.00834937,0.06279727,-0.00073155,-0.0001722
 8,0.00026596,0.00228328,-0.00015354,-0.00025748,0.00386977,-0.00044767
 ,-0.01072064,0.01267469,0.02195950,-0.31571347,-0.00300211,0.01016613,
 -0.00493856,-0.00070464,-0.00271366,-0.00808258,-0.00034381,0.00081524
 ,-0.00002877,-0.00027597,0.00105762,-0.00120894,-0.00049757,0.00083799
 ,-0.00030416,0.00002946,0.00003815,-0.00013548,-0.00000313,-0.00000140
 ,0.00004102,-0.00046692,0.00011082,-0.00018987,-0.01031789,-0.03398995
 ,0.33865688,-0.00012644,-0.00006144,-0.00000505,-0.00004626,0.00027448
 ,0.00010623,-0.00021497,0.00411509,-0.00017414,0.00827355,0.01879454,0
 .00267421,-0.25895043,-0.24859626,-0.08785598,0.00248576,-0.00010822,-
 0.00204208,0.00002066,0.00001600,0.00000853,0.00000795,-0.00015983,-0.
 00016700,0.00035846,0.00066378,0.00083492,0.00024728,0.00018406,-0.000
 04336,-0.00005597,-0.00014099,0.00014584,0.00005336,-0.00002475,0.0000
 3836,-0.00041318,0.00047846,-0.00047188,0.24866558,0.00024957,0.000051
 96,-0.00005819,-0.00031714,0.00055873,0.00093652,0.00190966,-0.0045685
 4,0.00576215,-0.02395783,-0.03597393,-0.00896071,-0.20224196,-0.258222
 50,-0.05955653,-0.00069137,0.00375139,-0.00238583,-0.00011139,-0.00009
 367,0.00075582,-0.00071756,-0.00000438,-0.00026905,0.00045343,-0.00074
 618,-0.00123218,-0.00019666,-0.00012841,-0.00002633,-0.00009656,0.0000
 7430,-0.00025174,0.00013785,0.00012556,0.00009676,-0.00068830,0.000886
 25,0.00026157,0.22479280,0.29451187,0.00024126,-0.00007493,0.00000727,
 -0.00016504,-0.00022821,-0.00029921,-0.00030756,-0.00110281,-0.0019086
 9,0.00910219,0.01584673,0.00178632,-0.09351998,-0.08109153,-0.03543168
 ,-0.00256282,-0.00013565,0.00031681,0.00002080,-0.00021970,0.00037141,
 -0.00009060,0.00025466,0.00030402,0.00008760,0.00001588,-0.00000064,0.
 00005199,0.00010602,0.00000797,0.00006472,-0.00012862,0.00055615,-0.00
 000017,-0.00012519,0.00009243,0.00028418,0.00123267,-0.00043729,0.0860
 7266,0.06573347,0.03521187,0.00036764,0.00021887,-0.00040792,0.0035255
 2,-0.00070382,-0.00021845,-0.00709153,-0.00461132,0.01902668,-0.010139
 36,-0.00715429,0.00402199,0.00174990,0.00029298,-0.00069232,-0.1110054
 0,-0.07460585,0.09801293,0.00937905,0.00290385,-0.01227959,-0.00166958
 ,0.00270844,-0.00062459,-0.00186135,-0.00043115,0.00110657,0.00031225,
 -0.00007258,0.00025499,-0.00027890,0.00024903,-0.00028954,-0.00055662,
 -0.00012147,-0.00061833,0.00036049,-0.00044084,-0.00086179,-0.00017302
 ,0.00076724,0.00055711,0.11518698,0.00019227,0.00003034,0.00004648,0.0
 0190292,0.00148522,0.00002171,-0.00057346,-0.00755919,0.00723546,0.008
 92798,0.00995534,-0.01305629,-0.00288021,0.00234881,0.00060573,-0.0767
 2962,-0.13524480,0.11985856,-0.01086167,-0.00408403,0.01072975,0.00046
 285,-0.00225093,-0.00235338,-0.00294468,-0.00357827,0.00060584,-0.0000
 0121,-0.00004080,-0.00003319,-0.00049967,0.00015394,-0.00049791,-0.000
 11715,-0.00007145,-0.00001864,0.00256820,-0.00035874,-0.00049318,-0.00
 047782,-0.00072804,-0.00026309,0.08141666,0.13955503,0.00018832,0.0000
 8969,-0.00034545,0.00152335,0.00034466,0.00072340,-0.00245511,-0.00769
 831,0.01067270,0.00596229,0.01452813,-0.01310141,-0.00423871,-0.000141
 03,0.00214678,0.09993788,0.12015347,-0.17012077,0.00418913,-0.00266914
 ,-0.00565967,-0.00133427,0.00130785,-0.00055653,-0.00100121,-0.0014609
 5,0.00060972,0.00004946,0.00001461,-0.00001310,0.00002863,0.00012962,-
 0.00003365,0.00003349,-0.00015640,-0.00002390,0.00304030,-0.00002574,-
 0.00021902,0.00069681,-0.00089807,-0.00027225,-0.10751047,-0.12355225,
 0.17507980,-0.00014679,-0.00005450,-0.00016641,-0.00000143,0.00073011,
 0.00067240,-0.00381394,0.00009475,0.00089206,-0.00029620,-0.00189156,-
 0.00120174,0.00047775,-0.00000998,-0.00013212,0.00083134,-0.00099638,-
 0.00159959,-0.24730662,0.10772261,0.09065447,-0.00328123,-0.00342101,-
 0.00142464,-0.01057373,0.01070054,0.01087511,0.00010903,-0.00004025,0.
 00001942,-0.00008911,0.00003861,-0.00017529,0.00000284,-0.00012927,-0.
 00004076,0.00004467,0.00009664,0.00005223,0.00010599,0.00007875,-0.000
 05853,0.00055119,0.00061713,0.00024099,0.25916193,0.00054368,0.0001839
 7,0.00010129,-0.00017560,0.00009255,-0.00074983,0.00065741,0.00000677,
 0.00170935,-0.00191696,-0.00204180,0.00322128,0.00244893,-0.00115198,-
 0.00025503,0.01770958,-0.00507908,-0.01492846,0.11023150,-0.10397539,-
 0.04190727,-0.00782750,-0.00017528,0.00325497,-0.00810205,0.00688659,0
 .00993030,-0.00009301,-0.00002751,0.00002158,-0.00008343,-0.00001017,-
 0.00007951,0.00006815,0.00004584,0.00010804,-0.00002787,-0.00007950,-0
 .00020537,0.00000955,0.00055112,0.00014901,-0.00056773,0.00109600,0.00
 033659,-0.11387507,0.10144011,-0.00026365,-0.00014012,-0.00012080,-0.0
 0026611,0.00047773,0.00050789,-0.00338426,0.00058938,-0.00041843,-0.00
 042508,-0.00076327,-0.00201254,-0.00009043,0.00006066,0.00020256,-0.00
 729152,0.00310506,0.00175657,0.09028926,-0.04105726,-0.07060298,0.0208
 7847,-0.01367804,-0.00703167,-0.00706084,0.01028627,0.00169538,0.00007
 348,0.00001304,-0.00002322,0.00002085,0.00003848,-0.00009180,-0.000034
 62,-0.00009045,-0.00006040,-0.00003333,0.00024326,0.00019855,0.0001099
 6,-0.00000910,-0.00009605,0.00080095,-0.00001634,0.00098666,-0.0967098
 7,0.04007403,0.07439484,0.00002843,0.00006187,0.00006523,0.00004747,-0
 .00033509,-0.00003663,0.00075799,-0.00048808,0.00200218,-0.00033157,0.
 00079900,-0.00051726,0.00007621,-0.00008846,-0.00015929,0.00004869,0.0
 0088247,-0.00188423,-0.00637685,0.01584171,0.00823574,-0.06000907,0.04
 790924,0.05602596,0.00705234,-0.01858971,-0.01080002,-0.00002972,0.000
 03480,-0.00005380,0.00000403,0.00002362,0.00008098,0.00004851,-0.00001
 796,0.00012751,0.00089934,0.00210219,-0.00103234,-0.00001438,0.0000251
 9,0.00016571,-0.00003258,0.00029338,0.00007818,0.00119219,-0.00022487,
 0.00394184,0.05808035,-0.00008919,-0.00000619,0.00005152,0.00025538,-0
 .00000300,-0.00015461,-0.00022607,-0.00057794,0.00022104,0.00072643,-0
 .00167383,0.00038265,0.00005213,-0.00013184,0.00035677,0.00058550,0.00
 049857,-0.00126131,-0.00454531,0.01088444,0.00911530,0.04797257,-0.154
 53132,-0.13211931,0.00039744,-0.00155926,0.00186507,0.00003553,0.00001
 507,-0.00001555,-0.00007313,-0.00003564,-0.00003861,-0.00004377,0.0000
 1646,-0.00000732,0.00218599,-0.00388950,0.00283607,0.00003485,0.000038
 34,-0.00001670,-0.00011597,0.00011368,-0.00014342,0.00024776,-0.000255
 80,0.00171131,-0.05384481,0.16427903,-0.00016421,0.00002456,0.00003590
 ,0.00004571,0.00024052,0.00018577,0.00031467,-0.00110843,0.00147779,0.
 00000732,0.00091636,-0.00192549,0.00000567,-0.00031051,0.00135917,-0.0
 0000617,-0.00075058,0.00164020,0.00100182,-0.00831061,-0.01337846,0.05
 556555,-0.13072621,-0.20528307,0.00628416,-0.00787297,-0.01381827,-0.0
 0002184,-0.00000452,-0.00006613,-0.00008594,0.00002939,-0.00007395,0.0
 0014691,-0.00000999,0.00018975,-0.00095219,0.00171822,0.00188255,0.000
 08778,0.00014094,-0.00010945,-0.00004607,0.00028743,0.00009771,-0.0012
 6791,-0.00027523,-0.00093047,-0.05943230,0.13889993,0.22111590,0.00000
 693,-0.00014399,0.00022920,0.00080353,0.00157248,-0.00050722,-0.000541
 70,-0.00160875,-0.00389823,-0.00143394,-0.00059286,0.00020755,0.000192
 19,0.00020940,-0.00018682,-0.00121541,-0.00018903,0.00440273,0.0076288
 8,-0.02349405,0.00740660,-0.06393703,0.08752407,-0.02481550,-0.0085699
 9,0.02388567,-0.00740430,0.00004332,0.00000611,-0.00000471,-0.00041061
 ,0.00006150,-0.00035188,0.00002120,-0.00002351,-0.00001407,0.00006466,
 -0.00012193,-0.00023161,-0.00001155,0.00003835,-0.00001133,0.00102803,
 -0.00081205,0.00061563,0.00003382,0.00012528,-0.00246763,-0.00224953,0
 .00586383,-0.00278371,0.06816658,0.00015590,0.00001736,0.00006971,-0.0
 0011182,0.00045884,-0.00017660,-0.00037682,0.00017327,-0.00166377,-0.0
 0062525,0.00007048,-0.00042405,0.00020529,-0.00032104,0.00036834,-0.00
 079758,0.00061249,0.00146086,0.00473291,-0.01093574,0.00299576,0.08727
 812,-0.27922005,0.07283674,-0.00315359,0.00583776,-0.00241998,-0.00005
 457,-0.00000197,-0.00001142,-0.00010467,0.00003296,-0.00012985,0.00005
 005,0.00001378,0.00005116,-0.00018578,0.00032418,0.00026297,0.00001608
 ,0.00009046,-0.00002262,0.00053251,-0.00015268,0.00035874,-0.00018358,
 0.00116136,-0.00096497,0.00461911,-0.01353974,0.00640604,-0.09155130,0
 .29465193,-0.00029945,-0.00015906,0.00007058,0.00081909,0.00093216,-0.
 00000751,0.00084895,-0.00026574,-0.00286391,0.00052692,-0.00112254,-0.
 00129292,0.00001348,-0.00013794,0.00076237,-0.00038575,-0.00013427,-0.
 00261288,-0.00670663,0.01408962,-0.00618370,-0.02351705,0.06912939,-0.
 07186284,-0.00457267,0.01735601,-0.00709125,0.00005961,-0.00001534,-0.
 00003733,-0.00033993,-0.00005207,-0.00019104,0.00001774,-0.00000387,-0
 .00000524,-0.00022236,0.00021916,0.00095496,0.00004724,0.00001531,-0.0
 0007905,-0.00055726,0.00003906,-0.00017839,0.00077044,0.00051904,0.001
 10557,0.00710908,-0.02044954,0.00877815,0.02737864,-0.07980391,0.07949
 413,0.00032067,-0.00027219,0.00040292,0.00146543,-0.00045403,-0.000306
 09,0.00483465,0.00967472,0.01150111,-0.00303599,0.00127815,-0.00153537
 ,0.00150589,0.00103610,0.00045854,-0.00107194,-0.00196456,-0.00145243,
 -0.00062980,-0.01798414,-0.01544242,-0.00676089,-0.00086550,-0.0012288
 9,-0.07272660,-0.07827840,-0.04387417,0.00002439,0.00006624,0.00006516
 ,-0.00000550,-0.00008571,0.00009281,-0.00001215,-0.00021403,-0.0000443
 5,0.00002371,-0.00002190,0.00003178,-0.00021239,0.00056593,0.00006783,
 0.00034732,-0.00048386,-0.00004470,0.00299830,0.00110000,0.00191254,0.
 00080815,0.00058083,0.00130076,0.00038060,-0.00044499,-0.00099010,0.07
 174613,0.00072680,0.00060272,0.00009087,-0.00132820,0.00046698,-0.0016
 0586,-0.00665808,-0.01126714,-0.01088450,0.00041876,0.00014848,0.00304
 157,-0.00080807,-0.00102449,-0.00010185,-0.00213779,-0.00200923,0.0006
 1224,0.00113836,-0.00196618,0.00076767,0.00164499,0.00466414,0.0039616
 5,-0.08044755,-0.26918923,-0.10164023,-0.00017471,-0.00000546,-0.00003
 231,-0.00009538,0.00016731,0.00012922,0.00024101,0.00014681,0.00089265
 ,0.00026558,-0.00005835,-0.00016900,0.00018962,-0.00017431,0.00007060,
 -0.00026460,-0.00066943,-0.00051805,0.00027471,0.00133220,0.00012033,0
 .00099639,0.00035846,0.00070567,-0.00074921,0.00072636,-0.00015549,0.0
 8676734,0.27775038,-0.00032141,0.00007361,-0.00040465,-0.00029450,-0.0
 0019729,0.00188440,0.00346282,0.00766824,0.00219771,0.00090686,-0.0000
 8584,-0.00168336,0.00003888,0.00021202,0.00013965,0.00147975,0.0023563
 5,-0.00065406,-0.00131536,0.01079794,0.00084193,-0.00696101,-0.0238653
 7,-0.00838854,-0.04348227,-0.10089866,-0.08128712,0.00007315,-0.000101
 82,0.00001748,0.00019394,-0.00009563,-0.00010356,0.00001995,-0.0001024
 8,-0.00021443,-0.00026779,0.00017589,0.00023635,-0.00006305,-0.0000548
 1,-0.00001996,0.00032509,0.00085423,0.00020737,-0.00140025,-0.00102477
 ,0.00054036,-0.00391653,-0.00123329,-0.00117759,0.00243665,0.00080685,
 0.00124029,0.04908508,0.10471483,0.08662773\\0.00001695,0.00000292,-0.
 00001151,-0.00001626,0.00000818,0.00001081,-0.00001717,0.00000963,0.00
 004799,0.00000040,-0.00004375,-0.00001324,-0.00002015,0.00000298,0.000
 01326,0.00005273,0.00003892,-0.00003034,-0.00004068,0.00002509,-0.0000
 0959,0.00001662,-0.00002982,0.00000754,0.00001934,-0.00001573,-0.00001
 844,0.00000102,0.00000092,0.00000084,-0.00000378,0.00001416,0.00000629
 ,-0.00000316,0.00001015,-0.00000072,-0.00000069,-0.00000348,0.00001126
 ,-0.00000025,-0.00000375,0.00002454,-0.00000161,-0.00000226,0.00001232
 ,0.00000058,-0.00000712,-0.00000536,-0.00000299,-0.00001048,-0.0000116
 5,0.00000585,-0.00000570,-0.00001413,-0.00000674,0.00000916,-0.0000198
 8\\\@


 Some scientists claim that hydrogen, because it is so
 plentiful, is the basic building block of the universe. 
 I dispute that. I say that stupidity is far more
 abundant than hydrogen, and THAT is the basic building 
 block of the universe.
                   --Frank Zappa
 Job cpu time:       0 days  0 hours 44 minutes 34.4 seconds.
 File lengths (MBytes):  RWF=    152 Int=      0 D2E=      0 Chk=      8 Scr=      1
 Normal termination of Gaussian 09 at Tue Jan 28 10:13:40 2020.
