 Entering Gaussian System, Link 0=/home/puck/opt/gaussian_09/g09
 Input=dsC7O2H10nsd_2676.com
 Output=dsC7O2H10nsd_2676.log
 Initial command:
 /home/puck/opt/gaussian_09/l1.exe "/scratch/puck/g09_163bea76-c5cb-4b77-9ec2-093249457465/Gau-189638.inp" -scrdir="/scratch/puck/g09_163bea76-c5cb-4b77-9ec2-093249457465/"
 Entering Link 1 = /home/puck/opt/gaussian_09/l1.exe PID=    189658.
  
 Copyright (c) 1988,1990,1992,1993,1995,1998,2003,2009,2013,
            Gaussian, Inc.  All Rights Reserved.
  
 This is part of the Gaussian(R) 09 program.  It is based on
 the Gaussian(R) 03 system (copyright 2003, Gaussian, Inc.),
 the Gaussian(R) 98 system (copyright 1998, Gaussian, Inc.),
 the Gaussian(R) 94 system (copyright 1995, Gaussian, Inc.),
 the Gaussian 92(TM) system (copyright 1992, Gaussian, Inc.),
 the Gaussian 90(TM) system (copyright 1990, Gaussian, Inc.),
 the Gaussian 88(TM) system (copyright 1988, Gaussian, Inc.),
 the Gaussian 86(TM) system (copyright 1986, Carnegie Mellon
 University), and the Gaussian 82(TM) system (copyright 1983,
 Carnegie Mellon University). Gaussian is a federally registered
 trademark of Gaussian, Inc.
  
 This software contains proprietary and confidential information,
 including trade secrets, belonging to Gaussian, Inc.
  
 This software is provided under written license and may be
 used, copied, transmitted, or stored only in accord with that
 written license.
  
 The following legend is applicable only to US Government
 contracts under FAR:
  
                    RESTRICTED RIGHTS LEGEND
  
 Use, reproduction and disclosure by the US Government is
 subject to restrictions as set forth in subparagraphs (a)
 and (c) of the Commercial Computer Software - Restricted
 Rights clause in FAR 52.227-19.
  
 Gaussian, Inc.
 340 Quinnipiac St., Bldg. 40, Wallingford CT 06492
  
  
 ---------------------------------------------------------------
 Warning -- This program may not be used in any manner that
 competes with the business of Gaussian, Inc. or will provide
 assistance to any competitor of Gaussian, Inc.  The licensee
 of this program is prohibited from giving any competitor of
 Gaussian, Inc. access to this program.  By using this program,
 the user acknowledges that Gaussian, Inc. is engaged in the
 business of creating and licensing software in the field of
 computational chemistry and represents and warrants to the
 licensee that it is not a competitor of Gaussian, Inc. and that
 it will not use this program in any manner prohibited above.
 ---------------------------------------------------------------
  

 Cite this work as:
 Gaussian 09, Revision D.01,
 M. J. Frisch, G. W. Trucks, H. B. Schlegel, G. E. Scuseria, 
 M. A. Robb, J. R. Cheeseman, G. Scalmani, V. Barone, B. Mennucci, 
 G. A. Petersson, H. Nakatsuji, M. Caricato, X. Li, H. P. Hratchian, 
 A. F. Izmaylov, J. Bloino, G. Zheng, J. L. Sonnenberg, M. Hada, 
 M. Ehara, K. Toyota, R. Fukuda, J. Hasegawa, M. Ishida, T. Nakajima, 
 Y. Honda, O. Kitao, H. Nakai, T. Vreven, J. A. Montgomery, Jr., 
 J. E. Peralta, F. Ogliaro, M. Bearpark, J. J. Heyd, E. Brothers, 
 K. N. Kudin, V. N. Staroverov, T. Keith, R. Kobayashi, J. Normand, 
 K. Raghavachari, A. Rendell, J. C. Burant, S. S. Iyengar, J. Tomasi, 
 M. Cossi, N. Rega, J. M. Millam, M. Klene, J. E. Knox, J. B. Cross, 
 V. Bakken, C. Adamo, J. Jaramillo, R. Gomperts, R. E. Stratmann, 
 O. Yazyev, A. J. Austin, R. Cammi, C. Pomelli, J. W. Ochterski, 
 R. L. Martin, K. Morokuma, V. G. Zakrzewski, G. A. Voth, 
 P. Salvador, J. J. Dannenberg, S. Dapprich, A. D. Daniels, 
 O. Farkas, J. B. Foresman, J. V. Ortiz, J. Cioslowski, 
 and D. J. Fox, Gaussian, Inc., Wallingford CT, 2013.
 
 ******************************************
 Gaussian 09:  ES64L-G09RevD.01 24-Apr-2013
                27-Jan-2020 
 ******************************************
 -----------------------------
 # b3lyp 6-31G(2df,p) opt Freq
 -----------------------------
 1/14=-1,18=20,19=15,26=3,38=1/1,3;
 2/9=110,12=2,17=6,18=5,40=1/2;
 3/5=1,6=6,7=104,11=2,16=1,25=1,30=1,71=1,74=-5/1,2,3;
 4//1;
 5/5=2,38=5/2;
 6/7=2,8=2,9=2,10=2,28=1/1;
 7//1,2,3,16;
 1/14=-1,18=20,19=15,26=3/3(2);
 2/9=110/2;
 99//99;
 2/9=110/2;
 3/5=1,6=6,7=104,11=2,16=1,25=1,30=1,71=1,74=-5/1,2,3;
 4/5=5,16=3,69=1/1;
 5/5=2,38=5/2;
 7//1,2,3,16;
 1/14=-1,18=20,19=15,26=3/3(-5);
 2/9=110/2;
 6/7=2,8=2,9=2,10=2,19=2,28=1/1;
 99/9=1/99;
 -----
 titel
 -----
 Symbolic Z-matrix:
 Charge =  0 Multiplicity = 1
 C                     0.76173   0.86554  -0.3498 
 C                     0.93957  -0.60463   0.01976 
 C                     1.48471  -1.54691  -1.10646 
 O                     1.95285  -2.66154  -0.32703 
 C                     2.92311  -1.91346   0.43222 
 C                     3.68388  -1.17245  -0.65574 
 C                     2.79343  -0.95162  -1.6218 
 C                     1.97096  -0.91075   1.16043 
 O                     1.37688  -1.50685   2.29828 
 H                     0.36666   1.43201   0.49934 
 H                     1.71138   1.32219  -0.644 
 H                     0.05837   0.98467  -1.182 
 H                    -0.02175  -1.00777   0.35447 
 H                     0.75352  -1.87538  -1.8449 
 H                     3.48238  -2.56448   1.10315 
 H                     4.70917  -0.83672  -0.58506 
 H                     2.91312  -0.39227  -2.53917 
 H                     2.48588  -0.01755   1.52137 
 H                     0.98311  -2.33383   1.99378 
 

 GradGradGradGradGradGradGradGradGradGradGradGradGradGradGradGradGradGrad
 Berny optimization.
 Initialization pass.
                           ----------------------------
                           !    Initial Parameters    !
                           ! (Angstroms and Degrees)  !
 --------------------------                            --------------------------
 ! Name  Definition              Value          Derivative Info.                !
 --------------------------------------------------------------------------------
 ! R1    R(1,2)                  1.5263         estimate D2E/DX2                !
 ! R2    R(1,10)                 1.0945         estimate D2E/DX2                !
 ! R3    R(1,11)                 1.094          estimate D2E/DX2                !
 ! R4    R(1,12)                 1.0961         estimate D2E/DX2                !
 ! R5    R(2,3)                  1.5663         estimate D2E/DX2                !
 ! R6    R(2,8)                  1.568          estimate D2E/DX2                !
 ! R7    R(2,13)                 1.0949         estimate D2E/DX2                !
 ! R8    R(3,4)                  1.4384         estimate D2E/DX2                !
 ! R9    R(3,7)                  1.5273         estimate D2E/DX2                !
 ! R10   R(3,14)                 1.0899         estimate D2E/DX2                !
 ! R11   R(4,5)                  1.4414         estimate D2E/DX2                !
 ! R12   R(5,6)                  1.5204         estimate D2E/DX2                !
 ! R13   R(5,8)                  1.5628         estimate D2E/DX2                !
 ! R14   R(5,15)                 1.0894         estimate D2E/DX2                !
 ! R15   R(6,7)                  1.3323         estimate D2E/DX2                !
 ! R16   R(6,16)                 1.0812         estimate D2E/DX2                !
 ! R17   R(7,17)                 1.0811         estimate D2E/DX2                !
 ! R18   R(8,9)                  1.4153         estimate D2E/DX2                !
 ! R19   R(8,18)                 1.0924         estimate D2E/DX2                !
 ! R20   R(9,19)                 0.9652         estimate D2E/DX2                !
 ! A1    A(2,1,10)             110.6544         estimate D2E/DX2                !
 ! A2    A(2,1,11)             111.4702         estimate D2E/DX2                !
 ! A3    A(2,1,12)             111.3022         estimate D2E/DX2                !
 ! A4    A(10,1,11)            107.8125         estimate D2E/DX2                !
 ! A5    A(10,1,12)            107.5266         estimate D2E/DX2                !
 ! A6    A(11,1,12)            107.9065         estimate D2E/DX2                !
 ! A7    A(1,2,3)              116.4817         estimate D2E/DX2                !
 ! A8    A(1,2,8)              116.1571         estimate D2E/DX2                !
 ! A9    A(1,2,13)             109.0497         estimate D2E/DX2                !
 ! A10   A(3,2,8)              100.1772         estimate D2E/DX2                !
 ! A11   A(3,2,13)             107.6914         estimate D2E/DX2                !
 ! A12   A(8,2,13)             106.455          estimate D2E/DX2                !
 ! A13   A(2,3,4)              100.9422         estimate D2E/DX2                !
 ! A14   A(2,3,7)              107.8396         estimate D2E/DX2                !
 ! A15   A(2,3,14)             115.7839         estimate D2E/DX2                !
 ! A16   A(4,3,7)              101.8869         estimate D2E/DX2                !
 ! A17   A(4,3,14)             110.6057         estimate D2E/DX2                !
 ! A18   A(7,3,14)             117.6285         estimate D2E/DX2                !
 ! A19   A(3,4,5)               95.8734         estimate D2E/DX2                !
 ! A20   A(4,5,6)              102.2903         estimate D2E/DX2                !
 ! A21   A(4,5,8)               99.6905         estimate D2E/DX2                !
 ! A22   A(4,5,15)             111.0906         estimate D2E/DX2                !
 ! A23   A(6,5,8)              109.0017         estimate D2E/DX2                !
 ! A24   A(6,5,15)             118.3654         estimate D2E/DX2                !
 ! A25   A(8,5,15)             114.1565         estimate D2E/DX2                !
 ! A26   A(5,6,7)              105.3805         estimate D2E/DX2                !
 ! A27   A(5,6,16)             125.3869         estimate D2E/DX2                !
 ! A28   A(7,6,16)             129.0322         estimate D2E/DX2                !
 ! A29   A(3,7,6)              105.2748         estimate D2E/DX2                !
 ! A30   A(3,7,17)             125.6502         estimate D2E/DX2                !
 ! A31   A(6,7,17)             128.8344         estimate D2E/DX2                !
 ! A32   A(2,8,5)              100.7799         estimate D2E/DX2                !
 ! A33   A(2,8,9)              113.0168         estimate D2E/DX2                !
 ! A34   A(2,8,18)             113.0048         estimate D2E/DX2                !
 ! A35   A(5,8,9)              111.1087         estimate D2E/DX2                !
 ! A36   A(5,8,18)             113.0418         estimate D2E/DX2                !
 ! A37   A(9,8,18)             106.0587         estimate D2E/DX2                !
 ! A38   A(8,9,19)             106.1692         estimate D2E/DX2                !
 ! D1    D(10,1,2,3)           179.3235         estimate D2E/DX2                !
 ! D2    D(10,1,2,8)           -62.9921         estimate D2E/DX2                !
 ! D3    D(10,1,2,13)           57.2366         estimate D2E/DX2                !
 ! D4    D(11,1,2,3)           -60.706          estimate D2E/DX2                !
 ! D5    D(11,1,2,8)            56.9785         estimate D2E/DX2                !
 ! D6    D(11,1,2,13)          177.2071         estimate D2E/DX2                !
 ! D7    D(12,1,2,3)            59.8236         estimate D2E/DX2                !
 ! D8    D(12,1,2,8)           177.508          estimate D2E/DX2                !
 ! D9    D(12,1,2,13)          -62.2633         estimate D2E/DX2                !
 ! D10   D(1,2,3,4)            160.9903         estimate D2E/DX2                !
 ! D11   D(1,2,3,7)             54.5741         estimate D2E/DX2                !
 ! D12   D(1,2,3,14)           -79.5719         estimate D2E/DX2                !
 ! D13   D(8,2,3,4)             34.8464         estimate D2E/DX2                !
 ! D14   D(8,2,3,7)            -71.5698         estimate D2E/DX2                !
 ! D15   D(8,2,3,14)           154.2842         estimate D2E/DX2                !
 ! D16   D(13,2,3,4)           -76.2132         estimate D2E/DX2                !
 ! D17   D(13,2,3,7)           177.3706         estimate D2E/DX2                !
 ! D18   D(13,2,3,14)           43.2246         estimate D2E/DX2                !
 ! D19   D(1,2,8,5)           -124.052          estimate D2E/DX2                !
 ! D20   D(1,2,8,9)            117.3146         estimate D2E/DX2                !
 ! D21   D(1,2,8,18)            -3.1418         estimate D2E/DX2                !
 ! D22   D(3,2,8,5)              2.3108         estimate D2E/DX2                !
 ! D23   D(3,2,8,9)           -116.3225         estimate D2E/DX2                !
 ! D24   D(3,2,8,18)           123.2211         estimate D2E/DX2                !
 ! D25   D(13,2,8,5)           114.3325         estimate D2E/DX2                !
 ! D26   D(13,2,8,9)            -4.3009         estimate D2E/DX2                !
 ! D27   D(13,2,8,18)         -124.7573         estimate D2E/DX2                !
 ! D28   D(2,3,4,5)            -60.8242         estimate D2E/DX2                !
 ! D29   D(7,3,4,5)             50.2489         estimate D2E/DX2                !
 ! D30   D(14,3,4,5)           176.0825         estimate D2E/DX2                !
 ! D31   D(2,3,7,6)             72.9171         estimate D2E/DX2                !
 ! D32   D(2,3,7,17)          -101.8511         estimate D2E/DX2                !
 ! D33   D(4,3,7,6)            -32.8375         estimate D2E/DX2                !
 ! D34   D(4,3,7,17)           152.3943         estimate D2E/DX2                !
 ! D35   D(14,3,7,6)          -153.9094         estimate D2E/DX2                !
 ! D36   D(14,3,7,17)           31.3224         estimate D2E/DX2                !
 ! D37   D(3,4,5,6)            -50.0308         estimate D2E/DX2                !
 ! D38   D(3,4,5,8)             62.0095         estimate D2E/DX2                !
 ! D39   D(3,4,5,15)          -177.272          estimate D2E/DX2                !
 ! D40   D(4,5,6,7)             31.6098         estimate D2E/DX2                !
 ! D41   D(4,5,6,16)          -153.1509         estimate D2E/DX2                !
 ! D42   D(8,5,6,7)            -73.2957         estimate D2E/DX2                !
 ! D43   D(8,5,6,16)           101.9437         estimate D2E/DX2                !
 ! D44   D(15,5,6,7)           154.0325         estimate D2E/DX2                !
 ! D45   D(15,5,6,16)          -30.7281         estimate D2E/DX2                !
 ! D46   D(4,5,8,2)            -38.6594         estimate D2E/DX2                !
 ! D47   D(4,5,8,9)             81.3509         estimate D2E/DX2                !
 ! D48   D(4,5,8,18)          -159.5433         estimate D2E/DX2                !
 ! D49   D(6,5,8,2)             68.0308         estimate D2E/DX2                !
 ! D50   D(6,5,8,9)           -171.959          estimate D2E/DX2                !
 ! D51   D(6,5,8,18)           -52.8532         estimate D2E/DX2                !
 ! D52   D(15,5,8,2)          -157.128          estimate D2E/DX2                !
 ! D53   D(15,5,8,9)           -37.1177         estimate D2E/DX2                !
 ! D54   D(15,5,8,18)           81.9881         estimate D2E/DX2                !
 ! D55   D(5,6,7,3)              0.6939         estimate D2E/DX2                !
 ! D56   D(5,6,7,17)           175.2356         estimate D2E/DX2                !
 ! D57   D(16,6,7,3)          -174.3091         estimate D2E/DX2                !
 ! D58   D(16,6,7,17)            0.2326         estimate D2E/DX2                !
 ! D59   D(2,8,9,19)            60.1895         estimate D2E/DX2                !
 ! D60   D(5,8,9,19)           -52.2576         estimate D2E/DX2                !
 ! D61   D(18,8,9,19)         -175.468          estimate D2E/DX2                !
 --------------------------------------------------------------------------------
 Trust Radius=3.00D-01 FncErr=1.00D-07 GrdErr=1.00D-06
 Number of steps in this run=    114 maximum allowed number of steps=    114.
 GradGradGradGradGradGradGradGradGradGradGradGradGradGradGradGradGradGrad

                          Input orientation:                          
 ---------------------------------------------------------------------
 Center     Atomic      Atomic             Coordinates (Angstroms)
 Number     Number       Type             X           Y           Z
 ---------------------------------------------------------------------
      1          6           0        0.761728    0.865539   -0.349802
      2          6           0        0.939572   -0.604632    0.019756
      3          6           0        1.484707   -1.546905   -1.106464
      4          8           0        1.952848   -2.661543   -0.327027
      5          6           0        2.923113   -1.913460    0.432215
      6          6           0        3.683885   -1.172448   -0.655739
      7          6           0        2.793433   -0.951620   -1.621795
      8          6           0        1.970958   -0.910751    1.160433
      9          8           0        1.376884   -1.506848    2.298284
     10          1           0        0.366662    1.432013    0.499336
     11          1           0        1.711380    1.322191   -0.644000
     12          1           0        0.058375    0.984672   -1.182001
     13          1           0       -0.021754   -1.007775    0.354473
     14          1           0        0.753517   -1.875381   -1.844899
     15          1           0        3.482380   -2.564478    1.103146
     16          1           0        4.709170   -0.836716   -0.585065
     17          1           0        2.913123   -0.392275   -2.539171
     18          1           0        2.485885   -0.017551    1.521371
     19          1           0        0.983109   -2.333833    1.993780
 ---------------------------------------------------------------------
                    Distance matrix (angstroms):
                    1          2          3          4          5
     1  C    0.000000
     2  C    1.526303   0.000000
     3  C    2.629662   1.566341   0.000000
     4  O    3.722847   2.319024   1.438435   0.000000
     5  C    3.606379   2.411968   2.137968   1.441350   0.000000
     6  C    3.575750   2.882701   2.275907   2.306934   1.520367
     7  C    3.007966   2.500378   1.527316   2.303660   2.271764
     8  C    2.626452   1.567996   2.404154   2.297420   1.562794
     9  O    3.608184   2.489362   3.406691   2.925288   2.457309
    10  H    1.094534   2.169365   3.564067   4.467221   4.210954
    11  H    1.094040   2.179198   2.914955   4.003613   3.618835
    12  H    1.096108   2.178672   2.906718   4.197010   4.383102
    13  H    2.149221   1.094855   2.166663   2.664291   3.081972
    14  H    3.122182   2.264146   1.089872   2.088153   3.145448
    15  H    4.612811   3.388304   3.147782   2.096255   1.089382
    16  H    4.305267   3.824859   3.342662   3.315704   2.320396
    17  H    3.317218   3.238535   2.329419   3.311389   3.338150
    18  H    2.693298   2.233964   3.201062   3.269770   2.229776
    19  H    3.972073   2.624653   3.237649   2.536520   2.525631
                    6          7          8          9         10
     6  C    0.000000
     7  C    1.332267   0.000000
     8  C    2.510197   2.901540   0.000000
     9  O    3.763021   4.204987   1.415260   0.000000
    10  H    4.372801   4.008755   2.915366   3.590775   0.000000
    11  H    3.180273   2.701321   2.882601   4.095410   1.768486
    12  H    4.251404   3.379820   3.568977   4.478674   1.766932
    13  H    3.844400   3.440068   2.151718   2.446153   2.474756
    14  H    3.239640   2.250414   3.383001   4.205992   4.072340
    15  H    2.252117   3.240566   2.241092   2.641979   5.103355
    16  H    1.081167   2.181299   3.248084   4.457231   5.018011
    17  H    2.179464   1.081097   3.852735   5.196468   4.364060
    18  H    2.740219   3.293412   1.092351   2.012830   2.763494
    19  H    3.957645   4.273192   1.922362   0.965238   4.098167
                   11         12         13         14         15
    11  H    0.000000
    12  H    1.770816   0.000000
    13  H    3.070739   2.517343   0.000000
    14  H    3.547411   3.017044   2.488176   0.000000
    15  H    4.614667   5.435271   3.906763   4.075846   0.000000
    16  H    3.694739   5.030277   4.826349   4.279392   2.709286
    17  H    2.824049   3.447823   4.167196   2.710261   4.278902
    18  H    2.661503   3.769015   2.937763   4.217156   2.766722
    19  H    4.566702   4.685423   2.335704   3.872770   2.663228
                   16         17         18         19
    16  H    0.000000
    17  H    2.691068   0.000000
    18  H    3.170347   4.100117   0.000000
    19  H    4.772351   5.295494   2.801190   0.000000
 Stoichiometry    C7H10O2
 Framework group  C1[X(C7H10O2)]
 Deg. of freedom    51
 Full point group                 C1      NOp   1
 Largest Abelian subgroup         C1      NOp   1
 Largest concise Abelian subgroup C1      NOp   1
                         Standard orientation:                         
 ---------------------------------------------------------------------
 Center     Atomic      Atomic             Coordinates (Angstroms)
 Number     Number       Type             X           Y           Z
 ---------------------------------------------------------------------
      1          6           0        0.193637    2.306535   -0.299576
      2          6           0        0.434499    0.959202    0.375910
      3          6           0       -0.825343    0.237205    0.963230
      4          8           0       -0.339772   -1.112248    1.074101
      5          6           0       -0.074996   -1.289682   -0.331567
      6          6           0       -1.379318   -0.834636   -0.966542
      7          6           0       -1.856044    0.109666   -0.156628
      8          6           0        1.005742   -0.179822   -0.537828
      9          8           0        2.283289   -0.629923   -0.127657
     10          1           0        1.135212    2.729973   -0.663088
     11          1           0       -0.482352    2.210735   -1.154435
     12          1           0       -0.245580    3.028891    0.398095
     13          1           0        1.152519    1.091765    1.191742
     14          1           0       -1.172198    0.600714    1.930377
     15          1           0        0.277403   -2.299259   -0.539711
     16          1           0       -1.761486   -1.169743   -1.920781
     17          1           0       -2.728058    0.735733   -0.284704
     18          1           0        1.113073    0.123704   -1.581659
     19          1           0        2.174273   -0.965947    0.770613
 ---------------------------------------------------------------------
 Rotational constants (GHZ):      2.2474310      1.9682765      1.4223086
 Standard basis: 6-31G(2df,p) (6D, 7F)
 There are   329 symmetry adapted cartesian basis functions of A   symmetry.
 There are   302 symmetry adapted basis functions of A   symmetry.
   302 basis functions,   466 primitive gaussians,   329 cartesian basis functions
    34 alpha electrons       34 beta electrons
       nuclear repulsion energy       482.5933812013 Hartrees.
 NAtoms=   19 NActive=   19 NUniq=   19 SFac= 1.00D+00 NAtFMM=   60 NAOKFM=F Big=F
 Integral buffers will be    131072 words long.
 Raffenetti 2 integral format.
 Two-electron integral symmetry is turned on.
 One-electron integrals computed using PRISM.
 NBasis=   302 RedAO= T EigKep=  2.13D-04  NBF=   302
 NBsUse=   302 1.00D-06 EigRej= -1.00D+00 NBFU=   302
 ExpMin= 1.61D-01 ExpMax= 5.48D+03 ExpMxC= 8.25D+02 IAcc=1 IRadAn=         1 AccDes= 0.00D+00
 Harris functional with IExCor=  402 and IRadAn=       1 diagonalized for initial guess.
 HarFok:  IExCor=  402 AccDes= 0.00D+00 IRadAn=         1 IDoV= 1 UseB2=F ITyADJ=14
 ICtDFT=  3500011 ScaDFX=  1.000000  1.000000  1.000000  1.000000
 FoFCou: FMM=F IPFlag=           0 FMFlag=      100000 FMFlg1=           0
         NFxFlg=           0 DoJE=T BraDBF=F KetDBF=T FulRan=T
         wScrn=  0.000000 ICntrl=     500 IOpCl=  0 I1Cent=   200000004 NGrid=           0
         NMat0=    1 NMatS0=      1 NMatT0=    0 NMatD0=    1 NMtDS0=    0 NMtDT0=    0
 Petite list used in FoFCou.
 Requested convergence on RMS density matrix=1.00D-08 within 128 cycles.
 Requested convergence on MAX density matrix=1.00D-06.
 Requested convergence on             energy=1.00D-06.
 No special actions if energy rises.
 Integral accuracy reduced to 1.0D-05 until final iterations.
 Initial convergence to 1.0D-05 achieved.  Increase integral accuracy.
 SCF Done:  E(RB3LYP) =  -423.182820284     A.U. after   14 cycles
            NFock= 14  Conv=0.71D-08     -V/T= 2.0074

 **********************************************************************

            Population analysis using the SCF density.

 **********************************************************************

 Orbital symmetries:
       Occupied  (A) (A) (A) (A) (A) (A) (A) (A) (A) (A) (A) (A)
                 (A) (A) (A) (A) (A) (A) (A) (A) (A) (A) (A) (A)
                 (A) (A) (A) (A) (A) (A) (A) (A) (A) (A)
       Virtual   (A) (A) (A) (A) (A) (A) (A) (A) (A) (A) (A) (A)
                 (A) (A) (A) (A) (A) (A) (A) (A) (A) (A) (A) (A)
                 (A) (A) (A) (A) (A) (A) (A) (A) (A) (A) (A) (A)
                 (A) (A) (A) (A) (A) (A) (A) (A) (A) (A) (A) (A)
                 (A) (A) (A) (A) (A) (A) (A) (A) (A) (A) (A) (A)
                 (A) (A) (A) (A) (A) (A) (A) (A) (A) (A) (A) (A)
                 (A) (A) (A) (A) (A) (A) (A) (A) (A) (A) (A) (A)
                 (A) (A) (A) (A) (A) (A) (A) (A) (A) (A) (A) (A)
                 (A) (A) (A) (A) (A) (A) (A) (A) (A) (A) (A) (A)
                 (A) (A) (A) (A) (A) (A) (A) (A) (A) (A) (A) (A)
                 (A) (A) (A) (A) (A) (A) (A) (A) (A) (A) (A) (A)
                 (A) (A) (A) (A) (A) (A) (A) (A) (A) (A) (A) (A)
                 (A) (A) (A) (A) (A) (A) (A) (A) (A) (A) (A) (A)
                 (A) (A) (A) (A) (A) (A) (A) (A) (A) (A) (A) (A)
                 (A) (A) (A) (A) (A) (A) (A) (A) (A) (A) (A) (A)
                 (A) (A) (A) (A) (A) (A) (A) (A) (A) (A) (A) (A)
                 (A) (A) (A) (A) (A) (A) (A) (A) (A) (A) (A) (A)
                 (A) (A) (A) (A) (A) (A) (A) (A) (A) (A) (A) (A)
                 (A) (A) (A) (A) (A) (A) (A) (A) (A) (A) (A) (A)
                 (A) (A) (A) (A) (A) (A) (A) (A) (A) (A) (A) (A)
                 (A) (A) (A) (A) (A) (A) (A) (A) (A) (A) (A) (A)
                 (A) (A) (A) (A) (A) (A) (A) (A) (A) (A) (A) (A)
                 (A) (A) (A) (A)
 The electronic state is 1-A.
 Alpha  occ. eigenvalues --  -19.14160 -19.13148 -10.23690 -10.23265 -10.23011
 Alpha  occ. eigenvalues --  -10.18929 -10.18867 -10.18821 -10.17789  -1.05475
 Alpha  occ. eigenvalues --   -1.01045  -0.80872  -0.76869  -0.73093  -0.67508
 Alpha  occ. eigenvalues --   -0.59223  -0.57715  -0.55401  -0.53081  -0.49282
 Alpha  occ. eigenvalues --   -0.45882  -0.44584  -0.41783  -0.40466  -0.39838
 Alpha  occ. eigenvalues --   -0.38508  -0.37870  -0.35895  -0.34435  -0.33299
 Alpha  occ. eigenvalues --   -0.31208  -0.28791  -0.25636  -0.23699
 Alpha virt. eigenvalues --    0.00215   0.09292   0.10360   0.11711   0.12583
 Alpha virt. eigenvalues --    0.13272   0.14940   0.15359   0.15937   0.16396
 Alpha virt. eigenvalues --    0.17093   0.17973   0.19675   0.21471   0.21693
 Alpha virt. eigenvalues --    0.23963   0.25783   0.27108   0.30480   0.32151
 Alpha virt. eigenvalues --    0.39028   0.40379   0.44976   0.46483   0.47041
 Alpha virt. eigenvalues --    0.47996   0.48689   0.49217   0.51737   0.54226
 Alpha virt. eigenvalues --    0.55478   0.57439   0.57639   0.57852   0.61590
 Alpha virt. eigenvalues --    0.63270   0.65084   0.65493   0.66846   0.70167
 Alpha virt. eigenvalues --    0.71163   0.71548   0.73112   0.73786   0.75191
 Alpha virt. eigenvalues --    0.75830   0.77155   0.78063   0.78590   0.80457
 Alpha virt. eigenvalues --    0.82524   0.85376   0.86245   0.87113   0.88557
 Alpha virt. eigenvalues --    0.91158   0.93105   0.93629   0.94049   0.95235
 Alpha virt. eigenvalues --    0.98227   1.00051   1.06394   1.07758   1.09083
 Alpha virt. eigenvalues --    1.12490   1.14639   1.14976   1.16441   1.21017
 Alpha virt. eigenvalues --    1.25714   1.26432   1.28488   1.30992   1.34494
 Alpha virt. eigenvalues --    1.35301   1.38610   1.40613   1.41552   1.43049
 Alpha virt. eigenvalues --    1.43360   1.45294   1.48342   1.49559   1.51580
 Alpha virt. eigenvalues --    1.52514   1.55525   1.56137   1.58326   1.60527
 Alpha virt. eigenvalues --    1.63779   1.64339   1.68285   1.70173   1.70853
 Alpha virt. eigenvalues --    1.71646   1.74798   1.76340   1.78977   1.81603
 Alpha virt. eigenvalues --    1.83387   1.84308   1.88476   1.92312   1.95326
 Alpha virt. eigenvalues --    1.95364   1.97020   1.98017   2.06595   2.09713
 Alpha virt. eigenvalues --    2.19133   2.23017   2.24939   2.29110   2.31064
 Alpha virt. eigenvalues --    2.33876   2.36232   2.39435   2.41012   2.42905
 Alpha virt. eigenvalues --    2.44583   2.48495   2.53281   2.54898   2.56794
 Alpha virt. eigenvalues --    2.64840   2.66327   2.68567   2.70580   2.71363
 Alpha virt. eigenvalues --    2.76320   2.77415   2.79100   2.83538   2.84614
 Alpha virt. eigenvalues --    2.85150   2.89383   2.89671   2.92166   2.93470
 Alpha virt. eigenvalues --    2.94452   2.97367   2.99589   3.02633   3.04612
 Alpha virt. eigenvalues --    3.06620   3.08366   3.09739   3.11078   3.13191
 Alpha virt. eigenvalues --    3.17027   3.17476   3.22114   3.23251   3.24948
 Alpha virt. eigenvalues --    3.26867   3.29786   3.30835   3.34185   3.36477
 Alpha virt. eigenvalues --    3.37593   3.40595   3.43277   3.47307   3.50366
 Alpha virt. eigenvalues --    3.51516   3.53205   3.56044   3.60100   3.62787
 Alpha virt. eigenvalues --    3.64696   3.66755   3.70636   3.75706   3.81705
 Alpha virt. eigenvalues --    3.82679   3.86611   3.87799   3.91620   3.96900
 Alpha virt. eigenvalues --    3.98455   4.01167   4.08691   4.11827   4.15310
 Alpha virt. eigenvalues --    4.19008   4.21210   4.23741   4.25147   4.28637
 Alpha virt. eigenvalues --    4.30946   4.35185   4.37198   4.40104   4.43521
 Alpha virt. eigenvalues --    4.45636   4.46247   4.47075   4.48189   4.50839
 Alpha virt. eigenvalues --    4.53169   4.54425   4.57235   4.58019   4.59836
 Alpha virt. eigenvalues --    4.60903   4.61108   4.64244   4.66846   4.68756
 Alpha virt. eigenvalues --    4.70661   4.72664   4.74557   4.77479   4.77640
 Alpha virt. eigenvalues --    4.79050   4.82312   4.83456   4.86002   4.86403
 Alpha virt. eigenvalues --    4.88683   4.91234   4.93714   4.97281   5.01225
 Alpha virt. eigenvalues --    5.03966   5.08553   5.13730   5.17110   5.20248
 Alpha virt. eigenvalues --    5.23831   5.26387   5.28552   5.31580   5.33628
 Alpha virt. eigenvalues --    5.35610   5.43071   5.45966   5.47869   5.49749
 Alpha virt. eigenvalues --    5.53338   5.56618   5.57753   5.61070   5.70135
 Alpha virt. eigenvalues --    5.81320   5.85636   5.91255   5.96402   6.01274
 Alpha virt. eigenvalues --    6.04728   6.08944   6.12892   6.17339   6.18331
 Alpha virt. eigenvalues --    6.72786   7.06887   7.13251   7.88994  10.43126
 Alpha virt. eigenvalues --   11.32533  11.47409  11.95500  12.24426  12.36578
 Alpha virt. eigenvalues --   12.99384  13.45896  13.62810
          Condensed to atoms (all electrons):
               1          2          3          4          5          6
     1  C    5.060851   0.352199  -0.024769   0.002986   0.001348  -0.001953
     2  C    0.352199   4.885237   0.342820  -0.056154  -0.022977  -0.024056
     3  C   -0.024769   0.342820   4.809487   0.376341  -0.136283   0.003061
     4  O    0.002986  -0.056154   0.376341   7.778998   0.352308  -0.042655
     5  C    0.001348  -0.022977  -0.136283   0.352308   4.917409   0.293650
     6  C   -0.001953  -0.024056   0.003061  -0.042655   0.293650   4.914812
     7  C   -0.009366  -0.014941   0.334892  -0.059263   0.017798   0.664792
     8  C   -0.018752   0.382787  -0.021893  -0.064737   0.341061  -0.024466
     9  O    0.002230  -0.039435   0.000378  -0.002776  -0.030180   0.001671
    10  H    0.370822  -0.018196   0.003239  -0.000072   0.000108  -0.000103
    11  H    0.366427  -0.022718  -0.007149   0.000145  -0.000184   0.004103
    12  H    0.369099  -0.022728  -0.003489   0.000038  -0.000102   0.000157
    13  H   -0.045062   0.343956  -0.027872   0.000831  -0.000676   0.001739
    14  H    0.002187  -0.042529   0.367161  -0.018592   0.006709   0.005154
    15  H   -0.000138   0.005299   0.006181  -0.022088   0.366663  -0.037789
    16  H   -0.000117   0.000075   0.006820   0.002493  -0.043543   0.374162
    17  H    0.000379   0.000872  -0.042275   0.002026   0.005441  -0.045066
    18  H   -0.004530  -0.047474   0.002577   0.003115  -0.031270  -0.005079
    19  H    0.000244   0.000791  -0.000398   0.013958  -0.001386   0.000332
               7          8          9         10         11         12
     1  C   -0.009366  -0.018752   0.002230   0.370822   0.366427   0.369099
     2  C   -0.014941   0.382787  -0.039435  -0.018196  -0.022718  -0.022728
     3  C    0.334892  -0.021893   0.000378   0.003239  -0.007149  -0.003489
     4  O   -0.059263  -0.064737  -0.002776  -0.000072   0.000145   0.000038
     5  C    0.017798   0.341061  -0.030180   0.000108  -0.000184  -0.000102
     6  C    0.664792  -0.024466   0.001671  -0.000103   0.004103   0.000157
     7  C    4.884710  -0.029237   0.000706   0.000241   0.008959   0.001276
     8  C   -0.029237   4.723103   0.380386  -0.002977  -0.006477   0.002999
     9  O    0.000706   0.380386   7.838821   0.000486  -0.000012  -0.000064
    10  H    0.000241  -0.002977   0.000486   0.585966  -0.031094  -0.032579
    11  H    0.008959  -0.006477  -0.000012  -0.031094   0.591758  -0.031387
    12  H    0.001276   0.002999  -0.000064  -0.032579  -0.031387   0.606795
    13  H    0.002097  -0.032552  -0.000450  -0.002346   0.006022  -0.003465
    14  H   -0.047206   0.003783  -0.000075  -0.000167   0.000030   0.001566
    15  H    0.003825  -0.048019   0.002931  -0.000001  -0.000005   0.000005
    16  H   -0.049289   0.001264  -0.000039  -0.000001   0.000128  -0.000002
    17  H    0.370997   0.000555   0.000003   0.000038  -0.000178   0.000094
    18  H    0.002636   0.346855  -0.020215   0.001555   0.002952  -0.000054
    19  H    0.000278  -0.087234   0.315632  -0.000022   0.000008   0.000009
              13         14         15         16         17         18
     1  C   -0.045062   0.002187  -0.000138  -0.000117   0.000379  -0.004530
     2  C    0.343956  -0.042529   0.005299   0.000075   0.000872  -0.047474
     3  C   -0.027872   0.367161   0.006181   0.006820  -0.042275   0.002577
     4  O    0.000831  -0.018592  -0.022088   0.002493   0.002026   0.003115
     5  C   -0.000676   0.006709   0.366663  -0.043543   0.005441  -0.031270
     6  C    0.001739   0.005154  -0.037789   0.374162  -0.045066  -0.005079
     7  C    0.002097  -0.047206   0.003825  -0.049289   0.370997   0.002636
     8  C   -0.032552   0.003783  -0.048019   0.001264   0.000555   0.346855
     9  O   -0.000450  -0.000075   0.002931  -0.000039   0.000003  -0.020215
    10  H   -0.002346  -0.000167  -0.000001  -0.000001   0.000038   0.001555
    11  H    0.006022   0.000030  -0.000005   0.000128  -0.000178   0.002952
    12  H   -0.003465   0.001566   0.000005  -0.000002   0.000094  -0.000054
    13  H    0.675638  -0.005109  -0.000299   0.000027  -0.000203   0.004942
    14  H   -0.005109   0.648775  -0.000208  -0.000156  -0.000505  -0.000181
    15  H   -0.000299  -0.000208   0.639211  -0.000990  -0.000161   0.001486
    16  H    0.000027  -0.000156  -0.000990   0.603070  -0.003624   0.000207
    17  H   -0.000203  -0.000505  -0.000161  -0.003624   0.601632   0.000014
    18  H    0.004942  -0.000181   0.001486   0.000207   0.000014   0.650324
    19  H    0.003558  -0.000092   0.000953  -0.000008  -0.000003   0.007800
              19
     1  C    0.000244
     2  C    0.000791
     3  C   -0.000398
     4  O    0.013958
     5  C   -0.001386
     6  C    0.000332
     7  C    0.000278
     8  C   -0.087234
     9  O    0.315632
    10  H   -0.000022
    11  H    0.000008
    12  H    0.000009
    13  H    0.003558
    14  H   -0.000092
    15  H    0.000953
    16  H   -0.000008
    17  H   -0.000003
    18  H    0.007800
    19  H    0.465483
 Mulliken charges:
               1
     1  C   -0.424085
     2  C   -0.002828
     3  C    0.011172
     4  O   -0.266902
     5  C   -0.035894
     6  C   -0.082465
     7  C   -0.083906
     8  C    0.153553
     9  O   -0.449997
    10  H    0.125103
    11  H    0.118674
    12  H    0.111831
    13  H    0.079226
    14  H    0.079455
    15  H    0.083143
    16  H    0.109523
    17  H    0.109964
    18  H    0.084339
    19  H    0.280097
 Sum of Mulliken charges =   0.00000
 Mulliken charges with hydrogens summed into heavy atoms:
               1
     1  C   -0.068477
     2  C    0.076398
     3  C    0.090627
     4  O   -0.266902
     5  C    0.047249
     6  C    0.027058
     7  C    0.026057
     8  C    0.237891
     9  O   -0.169901
 Electronic spatial extent (au):  <R**2>=            984.6528
 Charge=              0.0000 electrons
 Dipole moment (field-independent basis, Debye):
    X=             -1.3640    Y=              1.0555    Z=             -0.3578  Tot=              1.7614
 Quadrupole moment (field-independent basis, Debye-Ang):
   XX=            -56.4427   YY=            -52.6986   ZZ=            -51.3475
   XY=             -1.3658   XZ=              3.1414   YZ=              2.5914
 Traceless Quadrupole moment (field-independent basis, Debye-Ang):
   XX=             -2.9465   YY=              0.7977   ZZ=              2.1488
   XY=             -1.3658   XZ=              3.1414   YZ=              2.5914
 Octapole moment (field-independent basis, Debye-Ang**2):
  XXX=             -8.1260  YYY=            -10.1343  ZZZ=              2.4726  XYY=              5.5331
  XXY=              2.9145  XXZ=              6.9256  XZZ=              3.7601  YZZ=             -1.4112
  YYZ=             -0.9636  XYZ=             -6.1577
 Hexadecapole moment (field-independent basis, Debye-Ang**3):
 XXXX=           -559.6916 YYYY=           -505.4953 ZZZZ=           -215.7789 XXXY=            -11.4228
 XXXZ=             19.5951 YYYX=             -9.5960 YYYZ=              3.8754 ZZZX=              1.1397
 ZZZY=              4.5356 XXYY=           -171.0414 XXZZ=           -114.3404 YYZZ=           -123.0686
 XXYZ=             -7.3700 YYXZ=              4.2861 ZZXY=             -2.3583
 N-N= 4.825933812013D+02 E-N=-1.952285675221D+03  KE= 4.200847198705D+02
 Calling FoFJK, ICntrl=      2127 FMM=F ISym2X=0 I1Cent= 0 IOpClX= 0 NMat=1 NMatS=1 NMatT=0.
 ***** Axes restored to original set *****
 -------------------------------------------------------------------
 Center     Atomic                   Forces (Hartrees/Bohr)
 Number     Number              X              Y              Z
 -------------------------------------------------------------------
      1        6           0.000041243   -0.000074929    0.000005598
      2        6          -0.000019462   -0.000070797    0.000126564
      3        6           0.000015465   -0.000025333   -0.000071739
      4        8          -0.000070188   -0.000045631   -0.000004640
      5        6           0.000053177    0.000032212    0.000039096
      6        6          -0.000059381   -0.000007042   -0.000080174
      7        6           0.000029141    0.000000942    0.000087948
      8        6          -0.000036768    0.000067202   -0.000008104
      9        8          -0.000034885   -0.000054006   -0.000042622
     10        1          -0.000008538    0.000035621   -0.000001313
     11        1          -0.000002917    0.000016003    0.000002300
     12        1          -0.000013540    0.000021484    0.000002911
     13        1           0.000040401    0.000021249   -0.000025946
     14        1          -0.000005937    0.000020829   -0.000001919
     15        1           0.000011941    0.000019305   -0.000008444
     16        1           0.000026558   -0.000005834    0.000002490
     17        1          -0.000010223    0.000020955   -0.000020282
     18        1           0.000020654    0.000006251   -0.000031613
     19        1           0.000023260    0.000021519    0.000029889
 -------------------------------------------------------------------
 Cartesian Forces:  Max     0.000126564 RMS     0.000039476

 GradGradGradGradGradGradGradGradGradGradGradGradGradGradGradGradGradGrad
 Berny optimization.
 FormGI is forming the generalized inverse of G from B-inverse, IUseBI=4.
 Internal  Forces:  Max     0.000071420 RMS     0.000016844
 Search for a local minimum.
 Step number   1 out of a maximum of  114
 All quantities printed in internal units (Hartrees-Bohrs-Radians)
 Mixed Optimization -- En-DIIS/RFO-DIIS
 Second derivative matrix not updated -- first step.
 ITU=  0
     Eigenvalues ---    0.00418   0.00449   0.01126   0.01490   0.01597
     Eigenvalues ---    0.01992   0.02514   0.03320   0.03953   0.04068
     Eigenvalues ---    0.04564   0.05255   0.05482   0.05549   0.05582
     Eigenvalues ---    0.06095   0.06159   0.07307   0.07913   0.09415
     Eigenvalues ---    0.10960   0.11874   0.12658   0.15231   0.15806
     Eigenvalues ---    0.15940   0.16000   0.16000   0.16000   0.16000
     Eigenvalues ---    0.17370   0.23333   0.24058   0.26434   0.26758
     Eigenvalues ---    0.29411   0.29767   0.33043   0.33897   0.34116
     Eigenvalues ---    0.34258   0.34294   0.34350   0.34542   0.34827
     Eigenvalues ---    0.34884   0.35854   0.35862   0.43182   0.53039
     Eigenvalues ---    0.54362
 RFO step:  Lambda=-2.52828105D-07 EMin= 4.18002770D-03
 Linear search not attempted -- first point.
 Iteration  1 RMS(Cart)=  0.00029104 RMS(Int)=  0.00000007
 Iteration  2 RMS(Cart)=  0.00000008 RMS(Int)=  0.00000003
 Variable       Old X    -DE/DX   Delta X   Delta X   Delta X     New X
                                 (Linear)    (Quad)   (Total)
    R1        2.88430   0.00000   0.00000  -0.00002  -0.00002   2.88428
    R2        2.06837   0.00002   0.00000   0.00005   0.00005   2.06842
    R3        2.06744   0.00000   0.00000   0.00001   0.00001   2.06745
    R4        2.07134   0.00001   0.00000   0.00003   0.00003   2.07138
    R5        2.95996   0.00002   0.00000   0.00003   0.00003   2.95999
    R6        2.96308  -0.00007   0.00000  -0.00026  -0.00026   2.96282
    R7        2.06898  -0.00005   0.00000  -0.00015  -0.00015   2.06883
    R8        2.71825   0.00001   0.00000   0.00005   0.00005   2.71830
    R9        2.88621   0.00000   0.00000   0.00000   0.00000   2.88621
   R10        2.05956   0.00000   0.00000  -0.00001  -0.00001   2.05955
   R11        2.72376   0.00006   0.00000   0.00019   0.00019   2.72395
   R12        2.87308   0.00001   0.00000  -0.00001  -0.00001   2.87307
   R13        2.95325   0.00001   0.00000   0.00007   0.00007   2.95332
   R14        2.05863  -0.00001   0.00000  -0.00003  -0.00003   2.05861
   R15        2.51762  -0.00005   0.00000  -0.00012  -0.00012   2.51750
   R16        2.04311   0.00003   0.00000   0.00007   0.00007   2.04318
   R17        2.04298   0.00003   0.00000   0.00007   0.00007   2.04305
   R18        2.67445   0.00001   0.00000   0.00002   0.00002   2.67448
   R19        2.06425   0.00000   0.00000   0.00001   0.00001   2.06425
   R20        1.82404  -0.00004   0.00000  -0.00006  -0.00006   1.82397
    A1        1.93128   0.00004   0.00000   0.00023   0.00023   1.93152
    A2        1.94552   0.00001   0.00000   0.00007   0.00007   1.94560
    A3        1.94259   0.00002   0.00000   0.00010   0.00010   1.94269
    A4        1.88168  -0.00002   0.00000  -0.00014  -0.00014   1.88154
    A5        1.87669  -0.00003   0.00000  -0.00021  -0.00021   1.87648
    A6        1.88332  -0.00001   0.00000  -0.00007  -0.00007   1.88325
    A7        2.03299  -0.00002   0.00000  -0.00025  -0.00025   2.03274
    A8        2.02732  -0.00003   0.00000  -0.00016  -0.00016   2.02716
    A9        1.90328   0.00001   0.00000   0.00008   0.00008   1.90335
   A10        1.74842   0.00002   0.00000   0.00008   0.00008   1.74850
   A11        1.87957   0.00000   0.00000   0.00004   0.00004   1.87961
   A12        1.85799   0.00001   0.00000   0.00026   0.00026   1.85825
   A13        1.76177  -0.00002   0.00000  -0.00019  -0.00019   1.76158
   A14        1.88216  -0.00002   0.00000  -0.00015  -0.00015   1.88201
   A15        2.02081   0.00001   0.00000  -0.00006  -0.00006   2.02075
   A16        1.77826   0.00001   0.00000   0.00022   0.00022   1.77848
   A17        1.93043   0.00000   0.00000   0.00022   0.00022   1.93065
   A18        2.05300   0.00001   0.00000  -0.00002  -0.00002   2.05298
   A19        1.67331  -0.00003   0.00000  -0.00009  -0.00009   1.67321
   A20        1.78530   0.00000   0.00000  -0.00002  -0.00002   1.78528
   A21        1.73993  -0.00001   0.00000  -0.00002  -0.00002   1.73990
   A22        1.93890   0.00001   0.00000   0.00015   0.00015   1.93905
   A23        1.90244   0.00000   0.00000   0.00008   0.00008   1.90252
   A24        2.06587   0.00000   0.00000  -0.00014  -0.00014   2.06573
   A25        1.99241   0.00000   0.00000  -0.00003  -0.00003   1.99238
   A26        1.83924   0.00001   0.00000  -0.00001  -0.00001   1.83922
   A27        2.18841  -0.00002   0.00000  -0.00009  -0.00009   2.18832
   A28        2.25204   0.00001   0.00000   0.00007   0.00007   2.25211
   A29        1.83739   0.00001   0.00000   0.00007   0.00007   1.83746
   A30        2.19301  -0.00001   0.00000  -0.00005  -0.00005   2.19296
   A31        2.24858   0.00000   0.00000   0.00001   0.00001   2.24860
   A32        1.75894   0.00000   0.00000   0.00002   0.00002   1.75896
   A33        1.97251   0.00000   0.00000  -0.00011  -0.00011   1.97241
   A34        1.97231  -0.00001   0.00000  -0.00008  -0.00008   1.97223
   A35        1.93921   0.00000   0.00000  -0.00008  -0.00008   1.93913
   A36        1.97295  -0.00001   0.00000  -0.00011  -0.00011   1.97285
   A37        1.85107   0.00002   0.00000   0.00032   0.00032   1.85139
   A38        1.85300   0.00003   0.00000   0.00018   0.00018   1.85319
    D1        3.12979   0.00000   0.00000  -0.00002  -0.00002   3.12977
    D2       -1.09942   0.00000   0.00000  -0.00024  -0.00024  -1.09966
    D3        0.99897   0.00000   0.00000   0.00005   0.00005   0.99901
    D4       -1.05952   0.00000   0.00000   0.00000   0.00000  -1.05952
    D5        0.99446   0.00000   0.00000  -0.00022  -0.00022   0.99425
    D6        3.09285   0.00001   0.00000   0.00007   0.00007   3.09292
    D7        1.04412   0.00000   0.00000   0.00003   0.00003   1.04415
    D8        3.09810   0.00000   0.00000  -0.00019  -0.00019   3.09791
    D9       -1.08670   0.00001   0.00000   0.00009   0.00009  -1.08661
   D10        2.80981   0.00000   0.00000   0.00015   0.00015   2.80996
   D11        0.95250   0.00000   0.00000   0.00002   0.00002   0.95252
   D12       -1.38879   0.00000   0.00000   0.00026   0.00026  -1.38854
   D13        0.60818   0.00003   0.00000   0.00043   0.00043   0.60862
   D14       -1.24913   0.00002   0.00000   0.00031   0.00031  -1.24882
   D15        2.69277   0.00002   0.00000   0.00054   0.00054   2.69331
   D16       -1.33017   0.00000   0.00000   0.00011   0.00011  -1.33007
   D17        3.09570  -0.00001   0.00000  -0.00002  -0.00002   3.09568
   D18        0.75441   0.00000   0.00000   0.00022   0.00022   0.75463
   D19       -2.16512   0.00001   0.00000  -0.00004  -0.00004  -2.16515
   D20        2.04753   0.00002   0.00000   0.00010   0.00010   2.04763
   D21       -0.05483   0.00000   0.00000  -0.00019  -0.00019  -0.05502
   D22        0.04033  -0.00001   0.00000  -0.00038  -0.00038   0.03995
   D23       -2.03021   0.00000   0.00000  -0.00024  -0.00024  -2.03045
   D24        2.15061  -0.00002   0.00000  -0.00053  -0.00053   2.15008
   D25        1.99548   0.00001   0.00000  -0.00023  -0.00023   1.99525
   D26       -0.07507   0.00001   0.00000  -0.00009  -0.00009  -0.07516
   D27       -2.17743  -0.00001   0.00000  -0.00038  -0.00038  -2.17780
   D28       -1.06158   0.00000   0.00000  -0.00022  -0.00022  -1.06181
   D29        0.87701  -0.00002   0.00000  -0.00037  -0.00037   0.87663
   D30        3.07322   0.00000   0.00000  -0.00015  -0.00015   3.07307
   D31        1.27264  -0.00001   0.00000   0.00055   0.00055   1.27319
   D32       -1.77764  -0.00001   0.00000   0.00020   0.00020  -1.77744
   D33       -0.57312   0.00001   0.00000   0.00071   0.00071  -0.57241
   D34        2.65978   0.00001   0.00000   0.00037   0.00037   2.66015
   D35       -2.68622  -0.00001   0.00000   0.00029   0.00029  -2.68594
   D36        0.54668  -0.00001   0.00000  -0.00006  -0.00006   0.54662
   D37       -0.87320   0.00001   0.00000  -0.00007  -0.00007  -0.87327
   D38        1.08227   0.00001   0.00000   0.00001   0.00001   1.08228
   D39       -3.09398   0.00001   0.00000   0.00003   0.00003  -3.09395
   D40        0.55169   0.00001   0.00000   0.00063   0.00063   0.55232
   D41       -2.67299   0.00000   0.00000   0.00021   0.00021  -2.67277
   D42       -1.27925   0.00002   0.00000   0.00063   0.00063  -1.27862
   D43        1.77925   0.00001   0.00000   0.00022   0.00022   1.77948
   D44        2.68837   0.00002   0.00000   0.00072   0.00072   2.68909
   D45       -0.53631   0.00000   0.00000   0.00031   0.00031  -0.53600
   D46       -0.67473   0.00000   0.00000   0.00025   0.00025  -0.67448
   D47        1.41984  -0.00001   0.00000   0.00010   0.00010   1.41994
   D48       -2.78456   0.00001   0.00000   0.00038   0.00038  -2.78417
   D49        1.18736  -0.00001   0.00000   0.00025   0.00025   1.18761
   D50       -3.00125  -0.00001   0.00000   0.00010   0.00010  -3.00115
   D51       -0.92246   0.00001   0.00000   0.00038   0.00038  -0.92209
   D52       -2.74240  -0.00001   0.00000   0.00010   0.00010  -2.74230
   D53       -0.64783  -0.00001   0.00000  -0.00005  -0.00005  -0.64787
   D54        1.43096   0.00001   0.00000   0.00023   0.00023   1.43120
   D55        0.01211  -0.00002   0.00000  -0.00081  -0.00081   0.01130
   D56        3.05844  -0.00002   0.00000  -0.00045  -0.00045   3.05799
   D57       -3.04227   0.00000   0.00000  -0.00036  -0.00036  -3.04263
   D58        0.00406   0.00000   0.00000   0.00000   0.00000   0.00406
   D59        1.05051   0.00000   0.00000   0.00038   0.00038   1.05089
   D60       -0.91207   0.00001   0.00000   0.00048   0.00048  -0.91159
   D61       -3.06249   0.00001   0.00000   0.00045   0.00045  -3.06205
         Item               Value     Threshold  Converged?
 Maximum Force            0.000071     0.000450     YES
 RMS     Force            0.000017     0.000300     YES
 Maximum Displacement     0.001422     0.001800     YES
 RMS     Displacement     0.000291     0.001200     YES
 Predicted change in Energy=-1.264201D-07
 Optimization completed.
    -- Stationary point found.
                           ----------------------------
                           !   Optimized Parameters   !
                           ! (Angstroms and Degrees)  !
 --------------------------                            --------------------------
 ! Name  Definition              Value          Derivative Info.                !
 --------------------------------------------------------------------------------
 ! R1    R(1,2)                  1.5263         -DE/DX =    0.0                 !
 ! R2    R(1,10)                 1.0945         -DE/DX =    0.0                 !
 ! R3    R(1,11)                 1.094          -DE/DX =    0.0                 !
 ! R4    R(1,12)                 1.0961         -DE/DX =    0.0                 !
 ! R5    R(2,3)                  1.5663         -DE/DX =    0.0                 !
 ! R6    R(2,8)                  1.568          -DE/DX =   -0.0001              !
 ! R7    R(2,13)                 1.0949         -DE/DX =   -0.0001              !
 ! R8    R(3,4)                  1.4384         -DE/DX =    0.0                 !
 ! R9    R(3,7)                  1.5273         -DE/DX =    0.0                 !
 ! R10   R(3,14)                 1.0899         -DE/DX =    0.0                 !
 ! R11   R(4,5)                  1.4414         -DE/DX =    0.0001              !
 ! R12   R(5,6)                  1.5204         -DE/DX =    0.0                 !
 ! R13   R(5,8)                  1.5628         -DE/DX =    0.0                 !
 ! R14   R(5,15)                 1.0894         -DE/DX =    0.0                 !
 ! R15   R(6,7)                  1.3323         -DE/DX =   -0.0001              !
 ! R16   R(6,16)                 1.0812         -DE/DX =    0.0                 !
 ! R17   R(7,17)                 1.0811         -DE/DX =    0.0                 !
 ! R18   R(8,9)                  1.4153         -DE/DX =    0.0                 !
 ! R19   R(8,18)                 1.0924         -DE/DX =    0.0                 !
 ! R20   R(9,19)                 0.9652         -DE/DX =    0.0                 !
 ! A1    A(2,1,10)             110.6544         -DE/DX =    0.0                 !
 ! A2    A(2,1,11)             111.4702         -DE/DX =    0.0                 !
 ! A3    A(2,1,12)             111.3022         -DE/DX =    0.0                 !
 ! A4    A(10,1,11)            107.8125         -DE/DX =    0.0                 !
 ! A5    A(10,1,12)            107.5266         -DE/DX =    0.0                 !
 ! A6    A(11,1,12)            107.9065         -DE/DX =    0.0                 !
 ! A7    A(1,2,3)              116.4817         -DE/DX =    0.0                 !
 ! A8    A(1,2,8)              116.1571         -DE/DX =    0.0                 !
 ! A9    A(1,2,13)             109.0497         -DE/DX =    0.0                 !
 ! A10   A(3,2,8)              100.1772         -DE/DX =    0.0                 !
 ! A11   A(3,2,13)             107.6914         -DE/DX =    0.0                 !
 ! A12   A(8,2,13)             106.455          -DE/DX =    0.0                 !
 ! A13   A(2,3,4)              100.9422         -DE/DX =    0.0                 !
 ! A14   A(2,3,7)              107.8396         -DE/DX =    0.0                 !
 ! A15   A(2,3,14)             115.7839         -DE/DX =    0.0                 !
 ! A16   A(4,3,7)              101.8869         -DE/DX =    0.0                 !
 ! A17   A(4,3,14)             110.6057         -DE/DX =    0.0                 !
 ! A18   A(7,3,14)             117.6285         -DE/DX =    0.0                 !
 ! A19   A(3,4,5)               95.8734         -DE/DX =    0.0                 !
 ! A20   A(4,5,6)              102.2903         -DE/DX =    0.0                 !
 ! A21   A(4,5,8)               99.6905         -DE/DX =    0.0                 !
 ! A22   A(4,5,15)             111.0906         -DE/DX =    0.0                 !
 ! A23   A(6,5,8)              109.0017         -DE/DX =    0.0                 !
 ! A24   A(6,5,15)             118.3654         -DE/DX =    0.0                 !
 ! A25   A(8,5,15)             114.1565         -DE/DX =    0.0                 !
 ! A26   A(5,6,7)              105.3805         -DE/DX =    0.0                 !
 ! A27   A(5,6,16)             125.3869         -DE/DX =    0.0                 !
 ! A28   A(7,6,16)             129.0322         -DE/DX =    0.0                 !
 ! A29   A(3,7,6)              105.2748         -DE/DX =    0.0                 !
 ! A30   A(3,7,17)             125.6502         -DE/DX =    0.0                 !
 ! A31   A(6,7,17)             128.8344         -DE/DX =    0.0                 !
 ! A32   A(2,8,5)              100.7799         -DE/DX =    0.0                 !
 ! A33   A(2,8,9)              113.0168         -DE/DX =    0.0                 !
 ! A34   A(2,8,18)             113.0048         -DE/DX =    0.0                 !
 ! A35   A(5,8,9)              111.1087         -DE/DX =    0.0                 !
 ! A36   A(5,8,18)             113.0418         -DE/DX =    0.0                 !
 ! A37   A(9,8,18)             106.0587         -DE/DX =    0.0                 !
 ! A38   A(8,9,19)             106.1692         -DE/DX =    0.0                 !
 ! D1    D(10,1,2,3)           179.3235         -DE/DX =    0.0                 !
 ! D2    D(10,1,2,8)           -62.9921         -DE/DX =    0.0                 !
 ! D3    D(10,1,2,13)           57.2366         -DE/DX =    0.0                 !
 ! D4    D(11,1,2,3)           -60.706          -DE/DX =    0.0                 !
 ! D5    D(11,1,2,8)            56.9785         -DE/DX =    0.0                 !
 ! D6    D(11,1,2,13)          177.2071         -DE/DX =    0.0                 !
 ! D7    D(12,1,2,3)            59.8236         -DE/DX =    0.0                 !
 ! D8    D(12,1,2,8)           177.508          -DE/DX =    0.0                 !
 ! D9    D(12,1,2,13)          -62.2633         -DE/DX =    0.0                 !
 ! D10   D(1,2,3,4)            160.9903         -DE/DX =    0.0                 !
 ! D11   D(1,2,3,7)             54.5741         -DE/DX =    0.0                 !
 ! D12   D(1,2,3,14)           -79.5719         -DE/DX =    0.0                 !
 ! D13   D(8,2,3,4)             34.8464         -DE/DX =    0.0                 !
 ! D14   D(8,2,3,7)            -71.5698         -DE/DX =    0.0                 !
 ! D15   D(8,2,3,14)           154.2842         -DE/DX =    0.0                 !
 ! D16   D(13,2,3,4)           -76.2132         -DE/DX =    0.0                 !
 ! D17   D(13,2,3,7)           177.3706         -DE/DX =    0.0                 !
 ! D18   D(13,2,3,14)           43.2246         -DE/DX =    0.0                 !
 ! D19   D(1,2,8,5)           -124.052          -DE/DX =    0.0                 !
 ! D20   D(1,2,8,9)            117.3146         -DE/DX =    0.0                 !
 ! D21   D(1,2,8,18)            -3.1418         -DE/DX =    0.0                 !
 ! D22   D(3,2,8,5)              2.3108         -DE/DX =    0.0                 !
 ! D23   D(3,2,8,9)           -116.3225         -DE/DX =    0.0                 !
 ! D24   D(3,2,8,18)           123.2211         -DE/DX =    0.0                 !
 ! D25   D(13,2,8,5)           114.3325         -DE/DX =    0.0                 !
 ! D26   D(13,2,8,9)            -4.3009         -DE/DX =    0.0                 !
 ! D27   D(13,2,8,18)         -124.7573         -DE/DX =    0.0                 !
 ! D28   D(2,3,4,5)            -60.8242         -DE/DX =    0.0                 !
 ! D29   D(7,3,4,5)             50.2489         -DE/DX =    0.0                 !
 ! D30   D(14,3,4,5)           176.0825         -DE/DX =    0.0                 !
 ! D31   D(2,3,7,6)             72.9171         -DE/DX =    0.0                 !
 ! D32   D(2,3,7,17)          -101.8511         -DE/DX =    0.0                 !
 ! D33   D(4,3,7,6)            -32.8375         -DE/DX =    0.0                 !
 ! D34   D(4,3,7,17)           152.3943         -DE/DX =    0.0                 !
 ! D35   D(14,3,7,6)          -153.9094         -DE/DX =    0.0                 !
 ! D36   D(14,3,7,17)           31.3224         -DE/DX =    0.0                 !
 ! D37   D(3,4,5,6)            -50.0308         -DE/DX =    0.0                 !
 ! D38   D(3,4,5,8)             62.0095         -DE/DX =    0.0                 !
 ! D39   D(3,4,5,15)          -177.272          -DE/DX =    0.0                 !
 ! D40   D(4,5,6,7)             31.6098         -DE/DX =    0.0                 !
 ! D41   D(4,5,6,16)          -153.1509         -DE/DX =    0.0                 !
 ! D42   D(8,5,6,7)            -73.2957         -DE/DX =    0.0                 !
 ! D43   D(8,5,6,16)           101.9437         -DE/DX =    0.0                 !
 ! D44   D(15,5,6,7)           154.0325         -DE/DX =    0.0                 !
 ! D45   D(15,5,6,16)          -30.7281         -DE/DX =    0.0                 !
 ! D46   D(4,5,8,2)            -38.6594         -DE/DX =    0.0                 !
 ! D47   D(4,5,8,9)             81.3509         -DE/DX =    0.0                 !
 ! D48   D(4,5,8,18)          -159.5433         -DE/DX =    0.0                 !
 ! D49   D(6,5,8,2)             68.0308         -DE/DX =    0.0                 !
 ! D50   D(6,5,8,9)           -171.959          -DE/DX =    0.0                 !
 ! D51   D(6,5,8,18)           -52.8532         -DE/DX =    0.0                 !
 ! D52   D(15,5,8,2)          -157.128          -DE/DX =    0.0                 !
 ! D53   D(15,5,8,9)           -37.1177         -DE/DX =    0.0                 !
 ! D54   D(15,5,8,18)           81.9881         -DE/DX =    0.0                 !
 ! D55   D(5,6,7,3)              0.6939         -DE/DX =    0.0                 !
 ! D56   D(5,6,7,17)           175.2356         -DE/DX =    0.0                 !
 ! D57   D(16,6,7,3)          -174.3091         -DE/DX =    0.0                 !
 ! D58   D(16,6,7,17)            0.2326         -DE/DX =    0.0                 !
 ! D59   D(2,8,9,19)            60.1895         -DE/DX =    0.0                 !
 ! D60   D(5,8,9,19)           -52.2576         -DE/DX =    0.0                 !
 ! D61   D(18,8,9,19)         -175.468          -DE/DX =    0.0                 !
 --------------------------------------------------------------------------------
 GradGradGradGradGradGradGradGradGradGradGradGradGradGradGradGradGradGrad

                          Input orientation:                          
 ---------------------------------------------------------------------
 Center     Atomic      Atomic             Coordinates (Angstroms)
 Number     Number       Type             X           Y           Z
 ---------------------------------------------------------------------
      1          6           0        0.761728    0.865539   -0.349802
      2          6           0        0.939572   -0.604632    0.019756
      3          6           0        1.484707   -1.546905   -1.106464
      4          8           0        1.952848   -2.661543   -0.327027
      5          6           0        2.923113   -1.913460    0.432215
      6          6           0        3.683885   -1.172448   -0.655739
      7          6           0        2.793433   -0.951620   -1.621795
      8          6           0        1.970958   -0.910751    1.160433
      9          8           0        1.376884   -1.506848    2.298284
     10          1           0        0.366662    1.432013    0.499336
     11          1           0        1.711380    1.322191   -0.644000
     12          1           0        0.058375    0.984672   -1.182001
     13          1           0       -0.021754   -1.007775    0.354473
     14          1           0        0.753517   -1.875381   -1.844899
     15          1           0        3.482380   -2.564478    1.103146
     16          1           0        4.709170   -0.836716   -0.585065
     17          1           0        2.913123   -0.392275   -2.539171
     18          1           0        2.485885   -0.017551    1.521371
     19          1           0        0.983109   -2.333833    1.993780
 ---------------------------------------------------------------------
                    Distance matrix (angstroms):
                    1          2          3          4          5
     1  C    0.000000
     2  C    1.526303   0.000000
     3  C    2.629662   1.566341   0.000000
     4  O    3.722847   2.319024   1.438435   0.000000
     5  C    3.606379   2.411968   2.137968   1.441350   0.000000
     6  C    3.575750   2.882701   2.275907   2.306934   1.520367
     7  C    3.007966   2.500378   1.527316   2.303660   2.271764
     8  C    2.626452   1.567996   2.404154   2.297420   1.562794
     9  O    3.608184   2.489362   3.406691   2.925288   2.457309
    10  H    1.094534   2.169365   3.564067   4.467221   4.210954
    11  H    1.094040   2.179198   2.914955   4.003613   3.618835
    12  H    1.096108   2.178672   2.906718   4.197010   4.383102
    13  H    2.149221   1.094855   2.166663   2.664291   3.081972
    14  H    3.122182   2.264146   1.089872   2.088153   3.145448
    15  H    4.612811   3.388304   3.147782   2.096255   1.089382
    16  H    4.305267   3.824859   3.342662   3.315704   2.320396
    17  H    3.317218   3.238535   2.329419   3.311389   3.338150
    18  H    2.693298   2.233964   3.201062   3.269770   2.229776
    19  H    3.972073   2.624653   3.237649   2.536520   2.525631
                    6          7          8          9         10
     6  C    0.000000
     7  C    1.332267   0.000000
     8  C    2.510197   2.901540   0.000000
     9  O    3.763021   4.204987   1.415260   0.000000
    10  H    4.372801   4.008755   2.915366   3.590775   0.000000
    11  H    3.180273   2.701321   2.882601   4.095410   1.768486
    12  H    4.251404   3.379820   3.568977   4.478674   1.766932
    13  H    3.844400   3.440068   2.151718   2.446153   2.474756
    14  H    3.239640   2.250414   3.383001   4.205992   4.072340
    15  H    2.252117   3.240566   2.241092   2.641979   5.103355
    16  H    1.081167   2.181299   3.248084   4.457231   5.018011
    17  H    2.179464   1.081097   3.852735   5.196468   4.364060
    18  H    2.740219   3.293412   1.092351   2.012830   2.763494
    19  H    3.957645   4.273192   1.922362   0.965238   4.098167
                   11         12         13         14         15
    11  H    0.000000
    12  H    1.770816   0.000000
    13  H    3.070739   2.517343   0.000000
    14  H    3.547411   3.017044   2.488176   0.000000
    15  H    4.614667   5.435271   3.906763   4.075846   0.000000
    16  H    3.694739   5.030277   4.826349   4.279392   2.709286
    17  H    2.824049   3.447823   4.167196   2.710261   4.278902
    18  H    2.661503   3.769015   2.937763   4.217156   2.766722
    19  H    4.566702   4.685423   2.335704   3.872770   2.663228
                   16         17         18         19
    16  H    0.000000
    17  H    2.691068   0.000000
    18  H    3.170347   4.100117   0.000000
    19  H    4.772351   5.295494   2.801190   0.000000
 Stoichiometry    C7H10O2
 Framework group  C1[X(C7H10O2)]
 Deg. of freedom    51
 Full point group                 C1      NOp   1
 Largest Abelian subgroup         C1      NOp   1
 Largest concise Abelian subgroup C1      NOp   1
                         Standard orientation:                         
 ---------------------------------------------------------------------
 Center     Atomic      Atomic             Coordinates (Angstroms)
 Number     Number       Type             X           Y           Z
 ---------------------------------------------------------------------
      1          6           0        0.193637    2.306535   -0.299576
      2          6           0        0.434499    0.959202    0.375910
      3          6           0       -0.825343    0.237205    0.963230
      4          8           0       -0.339772   -1.112248    1.074101
      5          6           0       -0.074996   -1.289682   -0.331567
      6          6           0       -1.379318   -0.834636   -0.966542
      7          6           0       -1.856044    0.109666   -0.156628
      8          6           0        1.005742   -0.179822   -0.537828
      9          8           0        2.283289   -0.629923   -0.127657
     10          1           0        1.135212    2.729973   -0.663088
     11          1           0       -0.482352    2.210735   -1.154435
     12          1           0       -0.245580    3.028891    0.398095
     13          1           0        1.152519    1.091765    1.191742
     14          1           0       -1.172198    0.600714    1.930377
     15          1           0        0.277403   -2.299259   -0.539711
     16          1           0       -1.761486   -1.169743   -1.920781
     17          1           0       -2.728058    0.735733   -0.284704
     18          1           0        1.113073    0.123704   -1.581659
     19          1           0        2.174273   -0.965947    0.770613
 ---------------------------------------------------------------------
 Rotational constants (GHZ):      2.2474310      1.9682765      1.4223086
 1\1\GINC-ALCHEMY-P\FOpt\RB3LYP\6-31G(2df,p)\C7H10O2\PUCK\27-Jan-2020\0
 \\# b3lyp 6-31G(2df,p) opt Freq\\titel\\0,1\C,0.7617277791,0.865538723
 7,-0.3498015939\C,0.9395717618,-0.6046316453,0.0197561543\C,1.48470744
 21,-1.5469052646,-1.1064644941\O,1.9528477365,-2.661543208,-0.32702664
 01\C,2.9231125537,-1.9134600227,0.4322150835\C,3.6838848402,-1.1724483
 481,-0.6557392148\C,2.7934326609,-0.9516195832,-1.6217953815\C,1.97095
 77669,-0.9107508249,1.1604333679\O,1.3768835752,-1.5068484633,2.298283
 8872\H,0.3666620212,1.4320131324,0.4993361071\H,1.7113798393,1.3221905
 543,-0.6439996642\H,0.0583749658,0.9846715168,-1.1820009249\H,-0.02175
 448,-1.0077746816,0.3544725966\H,0.7535172809,-1.8753805968,-1.8448991
 067\H,3.4823802242,-2.5644781377,1.1031462057\H,4.7091704239,-0.836715
 8211,-0.5850645773\H,2.9131233323,-0.3922745436,-2.5391714965\H,2.4858
 847099,-0.0175509951,1.5213710831\H,0.9831091061,-2.3338332113,1.99378
 02085\\Version=ES64L-G09RevD.01\State=1-A\HF=-423.1828203\RMSD=7.117e-
 09\RMSF=3.948e-05\Dipole=0.1002861,0.4064987,-0.5522177\Quadrupole=3.0
 094706,-0.9355379,-2.0739327,1.0621391,1.3327836,-2.0070233\PG=C01 [X(
 C7H10O2)]\\@


          EVOLUTION
 IN THE BEGINNING GOD MADE MAN.
 HE WORKED THE DIRT WITH HIS HANDS.
 THEN GOD DECIDED TO GIVE MAN SCIENCE,
 MAN SHOULD BE USEFUL (LIKE AN APPLIANCE.)
 BUT SOON MAN'S KNOWLEDGE GREW TOO GREAT,
 TO THE HEADING SCIENCE HE COULDN'T RELATE
 SO GOD SAID "LETS HAVE DIFFERENT FIELDS,
 WE'LL DIVIDE THEM UP, SEE WHAT IT YIELDS."
 ENTER PHYSICS, CHEMISTRY, BIO
 THEY SPRANG UP AROUND THE NILE.
 BUT CHEMISTRY SURPASSED THE REST
 FAR AND AWAY IT WAS THE BEST.
 EXPERIMENT WAS GOD'S DECREE
 EXPERIMENT DID CHEMISTS WITH LOTS OF GLEE
 BUT SOON THEIR TESTS BEGAN TO BOG,
 THEY FOUND THEMSELVES DEEP IN A FOG.
 "GIVE US SOME HELP" THEY CRIED TO GOD.
 GOD LOOKED AROUND, THEN GAVE THE NOD.
 ENTER EINSTEIN, HEISENBERG, BOHR,
 REACTION PATHS WERE CLEAR ONCE MORE.
 WITH THEORISTS GOD SEND DIRECTION
 AND THEN HE STOPPED, HE'D MADE PERFECTION.
          -- THOMAS A. HOLME, 1981
 Job cpu time:       0 days  0 hours  7 minutes 26.3 seconds.
 File lengths (MBytes):  RWF=     52 Int=      0 D2E=      0 Chk=      7 Scr=      1
 Normal termination of Gaussian 09 at Mon Jan 27 22:05:08 2020.
 Link1:  Proceeding to internal job step number  2.
 ----------------------------------------------------------------------
 #N Geom=AllCheck Guess=TCheck SCRF=Check GenChk RB3LYP/6-31G(2df,p) Fr
 eq
 ----------------------------------------------------------------------
 1/10=4,29=7,30=1,38=1,40=1/1,3;
 2/12=2,40=1/2;
 3/5=1,6=6,7=104,11=2,14=-4,16=1,25=1,30=1,70=2,71=2,74=-5,116=1,140=1/1,2,3;
 4/5=101/1;
 5/5=2,98=1/2;
 8/6=4,10=90,11=11/1;
 11/6=1,8=1,9=11,15=111,16=1/1,2,10;
 10/6=1/2;
 6/7=2,8=2,9=2,10=2,18=1,28=1/1;
 7/8=1,10=1,25=1/1,2,3,16;
 1/10=4,30=1/3;
 99//99;
 Structure from the checkpoint file:  "/scratch/puck/g09_163bea76-c5cb-4b77-9ec2-093249457465/Gau-189658.chk"
 -----
 titel
 -----
 Charge =  0 Multiplicity = 1
 Redundant internal coordinates found in file.
 C,0,0.7617277791,0.8655387237,-0.3498015939
 C,0,0.9395717618,-0.6046316453,0.0197561543
 C,0,1.4847074421,-1.5469052646,-1.1064644941
 O,0,1.9528477365,-2.661543208,-0.3270266401
 C,0,2.9231125537,-1.9134600227,0.4322150835
 C,0,3.6838848402,-1.1724483481,-0.6557392148
 C,0,2.7934326609,-0.9516195832,-1.6217953815
 C,0,1.9709577669,-0.9107508249,1.1604333679
 O,0,1.3768835752,-1.5068484633,2.2982838872
 H,0,0.3666620212,1.4320131324,0.4993361071
 H,0,1.7113798393,1.3221905543,-0.6439996642
 H,0,0.0583749658,0.9846715168,-1.1820009249
 H,0,-0.02175448,-1.0077746816,0.3544725966
 H,0,0.7535172809,-1.8753805968,-1.8448991067
 H,0,3.4823802242,-2.5644781377,1.1031462057
 H,0,4.7091704239,-0.8367158211,-0.5850645773
 H,0,2.9131233323,-0.3922745436,-2.5391714965
 H,0,2.4858847099,-0.0175509951,1.5213710831
 H,0,0.9831091061,-2.3338332113,1.9937802085
 Recover connectivity data from disk.

 GradGradGradGradGradGradGradGradGradGradGradGradGradGradGradGradGradGrad
 Berny optimization.
 Initialization pass.
                           ----------------------------
                           !    Initial Parameters    !
                           ! (Angstroms and Degrees)  !
 --------------------------                            --------------------------
 ! Name  Definition              Value          Derivative Info.                !
 --------------------------------------------------------------------------------
 ! R1    R(1,2)                  1.5263         calculate D2E/DX2 analytically  !
 ! R2    R(1,10)                 1.0945         calculate D2E/DX2 analytically  !
 ! R3    R(1,11)                 1.094          calculate D2E/DX2 analytically  !
 ! R4    R(1,12)                 1.0961         calculate D2E/DX2 analytically  !
 ! R5    R(2,3)                  1.5663         calculate D2E/DX2 analytically  !
 ! R6    R(2,8)                  1.568          calculate D2E/DX2 analytically  !
 ! R7    R(2,13)                 1.0949         calculate D2E/DX2 analytically  !
 ! R8    R(3,4)                  1.4384         calculate D2E/DX2 analytically  !
 ! R9    R(3,7)                  1.5273         calculate D2E/DX2 analytically  !
 ! R10   R(3,14)                 1.0899         calculate D2E/DX2 analytically  !
 ! R11   R(4,5)                  1.4414         calculate D2E/DX2 analytically  !
 ! R12   R(5,6)                  1.5204         calculate D2E/DX2 analytically  !
 ! R13   R(5,8)                  1.5628         calculate D2E/DX2 analytically  !
 ! R14   R(5,15)                 1.0894         calculate D2E/DX2 analytically  !
 ! R15   R(6,7)                  1.3323         calculate D2E/DX2 analytically  !
 ! R16   R(6,16)                 1.0812         calculate D2E/DX2 analytically  !
 ! R17   R(7,17)                 1.0811         calculate D2E/DX2 analytically  !
 ! R18   R(8,9)                  1.4153         calculate D2E/DX2 analytically  !
 ! R19   R(8,18)                 1.0924         calculate D2E/DX2 analytically  !
 ! R20   R(9,19)                 0.9652         calculate D2E/DX2 analytically  !
 ! A1    A(2,1,10)             110.6544         calculate D2E/DX2 analytically  !
 ! A2    A(2,1,11)             111.4702         calculate D2E/DX2 analytically  !
 ! A3    A(2,1,12)             111.3022         calculate D2E/DX2 analytically  !
 ! A4    A(10,1,11)            107.8125         calculate D2E/DX2 analytically  !
 ! A5    A(10,1,12)            107.5266         calculate D2E/DX2 analytically  !
 ! A6    A(11,1,12)            107.9065         calculate D2E/DX2 analytically  !
 ! A7    A(1,2,3)              116.4817         calculate D2E/DX2 analytically  !
 ! A8    A(1,2,8)              116.1571         calculate D2E/DX2 analytically  !
 ! A9    A(1,2,13)             109.0497         calculate D2E/DX2 analytically  !
 ! A10   A(3,2,8)              100.1772         calculate D2E/DX2 analytically  !
 ! A11   A(3,2,13)             107.6914         calculate D2E/DX2 analytically  !
 ! A12   A(8,2,13)             106.455          calculate D2E/DX2 analytically  !
 ! A13   A(2,3,4)              100.9422         calculate D2E/DX2 analytically  !
 ! A14   A(2,3,7)              107.8396         calculate D2E/DX2 analytically  !
 ! A15   A(2,3,14)             115.7839         calculate D2E/DX2 analytically  !
 ! A16   A(4,3,7)              101.8869         calculate D2E/DX2 analytically  !
 ! A17   A(4,3,14)             110.6057         calculate D2E/DX2 analytically  !
 ! A18   A(7,3,14)             117.6285         calculate D2E/DX2 analytically  !
 ! A19   A(3,4,5)               95.8734         calculate D2E/DX2 analytically  !
 ! A20   A(4,5,6)              102.2903         calculate D2E/DX2 analytically  !
 ! A21   A(4,5,8)               99.6905         calculate D2E/DX2 analytically  !
 ! A22   A(4,5,15)             111.0906         calculate D2E/DX2 analytically  !
 ! A23   A(6,5,8)              109.0017         calculate D2E/DX2 analytically  !
 ! A24   A(6,5,15)             118.3654         calculate D2E/DX2 analytically  !
 ! A25   A(8,5,15)             114.1565         calculate D2E/DX2 analytically  !
 ! A26   A(5,6,7)              105.3805         calculate D2E/DX2 analytically  !
 ! A27   A(5,6,16)             125.3869         calculate D2E/DX2 analytically  !
 ! A28   A(7,6,16)             129.0322         calculate D2E/DX2 analytically  !
 ! A29   A(3,7,6)              105.2748         calculate D2E/DX2 analytically  !
 ! A30   A(3,7,17)             125.6502         calculate D2E/DX2 analytically  !
 ! A31   A(6,7,17)             128.8344         calculate D2E/DX2 analytically  !
 ! A32   A(2,8,5)              100.7799         calculate D2E/DX2 analytically  !
 ! A33   A(2,8,9)              113.0168         calculate D2E/DX2 analytically  !
 ! A34   A(2,8,18)             113.0048         calculate D2E/DX2 analytically  !
 ! A35   A(5,8,9)              111.1087         calculate D2E/DX2 analytically  !
 ! A36   A(5,8,18)             113.0418         calculate D2E/DX2 analytically  !
 ! A37   A(9,8,18)             106.0587         calculate D2E/DX2 analytically  !
 ! A38   A(8,9,19)             106.1692         calculate D2E/DX2 analytically  !
 ! D1    D(10,1,2,3)           179.3235         calculate D2E/DX2 analytically  !
 ! D2    D(10,1,2,8)           -62.9921         calculate D2E/DX2 analytically  !
 ! D3    D(10,1,2,13)           57.2366         calculate D2E/DX2 analytically  !
 ! D4    D(11,1,2,3)           -60.706          calculate D2E/DX2 analytically  !
 ! D5    D(11,1,2,8)            56.9785         calculate D2E/DX2 analytically  !
 ! D6    D(11,1,2,13)          177.2071         calculate D2E/DX2 analytically  !
 ! D7    D(12,1,2,3)            59.8236         calculate D2E/DX2 analytically  !
 ! D8    D(12,1,2,8)           177.508          calculate D2E/DX2 analytically  !
 ! D9    D(12,1,2,13)          -62.2633         calculate D2E/DX2 analytically  !
 ! D10   D(1,2,3,4)            160.9903         calculate D2E/DX2 analytically  !
 ! D11   D(1,2,3,7)             54.5741         calculate D2E/DX2 analytically  !
 ! D12   D(1,2,3,14)           -79.5719         calculate D2E/DX2 analytically  !
 ! D13   D(8,2,3,4)             34.8464         calculate D2E/DX2 analytically  !
 ! D14   D(8,2,3,7)            -71.5698         calculate D2E/DX2 analytically  !
 ! D15   D(8,2,3,14)           154.2842         calculate D2E/DX2 analytically  !
 ! D16   D(13,2,3,4)           -76.2132         calculate D2E/DX2 analytically  !
 ! D17   D(13,2,3,7)           177.3706         calculate D2E/DX2 analytically  !
 ! D18   D(13,2,3,14)           43.2246         calculate D2E/DX2 analytically  !
 ! D19   D(1,2,8,5)           -124.052          calculate D2E/DX2 analytically  !
 ! D20   D(1,2,8,9)            117.3146         calculate D2E/DX2 analytically  !
 ! D21   D(1,2,8,18)            -3.1418         calculate D2E/DX2 analytically  !
 ! D22   D(3,2,8,5)              2.3108         calculate D2E/DX2 analytically  !
 ! D23   D(3,2,8,9)           -116.3225         calculate D2E/DX2 analytically  !
 ! D24   D(3,2,8,18)           123.2211         calculate D2E/DX2 analytically  !
 ! D25   D(13,2,8,5)           114.3325         calculate D2E/DX2 analytically  !
 ! D26   D(13,2,8,9)            -4.3009         calculate D2E/DX2 analytically  !
 ! D27   D(13,2,8,18)         -124.7573         calculate D2E/DX2 analytically  !
 ! D28   D(2,3,4,5)            -60.8242         calculate D2E/DX2 analytically  !
 ! D29   D(7,3,4,5)             50.2489         calculate D2E/DX2 analytically  !
 ! D30   D(14,3,4,5)           176.0825         calculate D2E/DX2 analytically  !
 ! D31   D(2,3,7,6)             72.9171         calculate D2E/DX2 analytically  !
[...]
 18061,-0.01065505,-0.08068051,0.03045154,-0.02488376,0.24618874,0.0033
 3425,-0.00200087,-0.00870122,0.01142276,-0.04950167,0.00379486,-0.0010
 5503,-0.14087159,0.02252614,0.03645053,0.37338224,-0.00048939,-0.00044
 561,-0.00024320,0.00103968,-0.00529872,0.00176344,-0.01628589,0.050713
 23,-0.08888202,0.08171044,-0.02164371,0.24311909,-0.00162804,-0.001397
 35,-0.00312887,-0.02686293,0.01661346,-0.00381473,-0.04000533,0.013246
 81,-0.03678832,-0.10132904,-0.02132559,-0.04190043,0.46530326,0.001958
 76,-0.00089339,-0.00036872,0.01770440,-0.01216675,0.00954483,0.0194520
 3,0.00668115,0.01044329,-0.04921595,-0.11320236,-0.03641619,-0.0876492
 2,0.46759092,-0.00103453,-0.00181047,-0.00324807,-0.00809081,0.0085221
 5,0.01885367,-0.03699462,0.00370391,-0.04965651,-0.03000573,-0.0041478
 4,-0.09151106,0.10987170,-0.15629712,0.53997965,0.00013108,-0.00064935
 ,0.00033393,-0.00331317,-0.00355513,-0.00227482,-0.04934199,-0.0113456
 6,-0.01384782,-0.03843045,-0.02456529,0.00213004,-0.09982614,-0.016641
 04,0.02369441,0.78932174,0.00015874,-0.00051081,-0.00015299,0.00185595
 ,-0.00055859,0.00261377,-0.00571016,0.00442009,-0.01103606,-0.03789972
 ,-0.01688799,0.01126746,-0.01725312,-0.09362864,0.03798474,0.11222370,
 0.23799564,0.00001955,-0.00025568,0.00040911,0.00064139,-0.00106775,-0
 .00420068,-0.01118369,-0.00724729,0.01571442,-0.00428603,0.00079246,0.
 00347724,0.02978058,0.04674146,-0.12280495,0.20546012,-0.12067009,0.51
 889512,-0.00075843,0.00010383,-0.00052499,-0.01947040,0.00288769,0.021
 22702,-0.14398684,-0.03900025,0.01860719,-0.00189237,-0.00936867,0.006
 46906,0.02113686,0.00355202,-0.00366941,-0.28845435,0.03223467,-0.2155
 7468,0.52266724,0.00172434,-0.00019521,-0.00096783,0.01229668,0.009271
 61,-0.00389502,-0.03011592,-0.07728585,0.01233487,-0.02007653,-0.02798
 787,0.03824060,0.00667833,-0.00640584,0.01910887,0.03940875,-0.0782812
 4,0.07424355,0.02491146,0.29582483,0.00061198,-0.00030706,0.00096732,0
 .01919108,0.00323007,-0.00963447,0.01161382,0.01096292,-0.08773764,0.0
 0700935,0.02508048,-0.02260389,-0.00206790,0.02495207,-0.04397226,-0.2
 1572615,0.06711946,-0.31648724,0.15786471,-0.26886671,0.72806243,-0.00
 240152,0.00349170,-0.00092865,-0.10786639,0.00144563,-0.01310538,0.014
 14831,-0.01612270,-0.00545388,-0.00160568,-0.01083354,-0.01923377,-0.0
 8035966,0.03779252,0.00521241,-0.01121759,-0.00123731,0.02201597,-0.00
 493715,0.00019511,-0.00275643,0.42955787,0.01896537,-0.00437579,0.0226
 5672,0.00451436,-0.07626832,-0.00483229,-0.01818427,0.00369080,-0.0071
 5169,-0.00434810,-0.04132533,-0.03864994,0.01815161,-0.09315083,0.0004
 9365,-0.00384996,0.01460755,0.00108766,0.00274541,-0.00109100,0.006423
 77,0.12834704,0.57086936,-0.00294516,0.00621702,-0.00383423,-0.0327024
 4,0.00026491,-0.09006653,-0.00917048,-0.01596984,-0.03548288,-0.003453
 40,-0.02054324,-0.02433311,0.00563048,-0.01789512,-0.07242250,0.013708
 69,-0.00525149,-0.01853312,0.00008594,-0.00103904,-0.00117071,0.016869
 17,0.06400648,0.47999570,0.00020424,-0.00025599,-0.00158219,0.00791593
 ,0.00506053,-0.01320294,-0.00255718,0.00291844,-0.00111197,0.00382529,
 -0.00077519,-0.00044430,-0.01910473,-0.01344210,0.03024614,-0.00027295
 ,0.00635663,0.00239039,-0.00084696,-0.00103540,0.00157719,-0.09117282,
 -0.03457138,0.05989147,0.19116438,0.00113209,0.00106904,0.00159483,-0.
 00665395,-0.00282213,0.01789219,0.00476531,-0.00521104,0.00100980,0.00
 092934,0.00406738,-0.00216962,0.00493484,0.00765265,-0.01044542,0.0008
 7334,-0.00139646,-0.00098234,-0.00078254,0.00122326,-0.00140196,-0.045
 11506,-0.11034705,0.05992582,0.22498150,0.48285327,-0.00158084,-0.0019
 8337,-0.00445779,0.01108978,0.01834596,-0.03438950,-0.00236035,0.00373
 458,-0.00255091,0.00059209,-0.00040615,0.00317100,0.01976639,0.0121798
 7,-0.02843456,0.00186224,-0.00470178,-0.00206686,0.00057757,0.00003860
 ,-0.00053023,0.03739025,0.01818931,-0.17411982,-0.02534615,0.06402899,
 0.33212470,-0.08116396,0.04811984,0.07466069,-0.00212766,0.00110402,0.
 00232888,0.00043462,-0.00012763,-0.00020124,0.00005122,0.00041489,-0.0
 0031705,-0.00007640,-0.00021687,0.00037762,0.00012284,0.00017325,0.000
 24449,-0.00008594,0.00041262,-0.00021811,0.00046401,0.00029730,0.00067
 820,-0.00003667,-0.00016117,-0.00017681,0.08417385,0.04764318,-0.11239
 229,-0.10395488,0.01270705,-0.01829659,-0.02663191,-0.00112818,-0.0023
 9794,0.00416937,0.00236088,-0.00297416,0.00024301,-0.00102054,-0.00042
 437,-0.00068446,0.00029424,0.00031477,0.00000791,-0.00077164,-0.000122
 45,0.00035392,-0.00036822,0.00110168,-0.00120426,-0.00044678,0.0000947
 0,0.00045247,-0.05358110,0.12552691,0.07509527,-0.10531832,-0.20844356
 ,-0.00391764,0.00535491,0.00788321,-0.00021180,0.00155390,-0.00009866,
 -0.00039908,0.00111252,0.00010967,0.00033345,-0.00005280,0.00006258,-0
 .00009152,-0.00010099,-0.00010759,0.00016098,-0.00001987,0.00000659,-0
 .00040200,-0.00021886,0.00058692,0.00017041,-0.00034166,0.00047812,-0.
 08205580,0.11385491,0.22419701,-0.24816065,-0.09434340,0.06074411,0.00
 390192,0.00148541,-0.00166071,-0.00036798,-0.00029954,0.00050092,0.000
 22736,-0.00029390,0.00009415,0.00027005,-0.00025948,-0.00027869,0.0000
 4437,0.00052211,0.00025247,-0.00043676,0.00104542,0.00052228,0.0005499
 3,0.00003975,-0.00017503,0.00021547,0.00007646,-0.00005812,-0.00974270
 ,-0.00415223,0.00176889,0.26947902,-0.09215090,-0.08955552,0.02797337,
 -0.02889067,-0.01524321,0.00928732,-0.00135790,0.00119846,0.00051535,0
 .00091325,0.00034845,-0.00042733,-0.00030818,-0.00047151,0.00032835,0.
 00035944,0.00042391,0.00086857,-0.00044785,-0.00021241,-0.00081301,-0.
 00123793,0.00116846,-0.00124831,0.00062737,0.00024575,0.00015843,0.015
 01941,0.00688190,-0.00346938,0.10221472,0.10062190,0.06045216,0.028154
 23,-0.06615849,0.00719180,0.00372315,-0.00351261,-0.00046898,-0.000316
 05,0.00023505,-0.00005651,0.00000282,-0.00019834,-0.00010012,0.0000687
 1,0.00037990,-0.00005247,-0.00027220,-0.00030736,0.00023510,-0.0005595
 0,0.00001822,0.00155837,0.00034791,0.00056279,-0.00040057,-0.00021118,
 -0.00017515,0.02248611,0.01118374,-0.00652061,-0.06785023,-0.03263855,
 0.06823905,-0.15471274,0.01499987,-0.12619641,-0.00261736,0.00057125,-
 0.00179361,0.00003262,-0.00010456,-0.00057203,0.00007011,0.00021855,0.
 00036028,0.00022262,-0.00023359,-0.00029829,0.00004333,0.00011010,0.00
 049257,-0.00032759,0.00035806,-0.00014510,0.00116704,-0.00009346,0.000
 30806,-0.00007500,0.00058203,-0.00036387,0.00796735,-0.00174785,0.0096
 5947,-0.01716931,0.00284093,-0.02240004,0.16471194,0.01501533,-0.04895
 995,0.01805529,0.02283521,-0.00349943,0.02634665,0.00052509,0.00129445
 ,0.00035471,-0.00064819,0.00043162,-0.00029218,0.00101725,0.00005165,0
 .00120212,-0.00016950,-0.00006779,0.00009293,0.00012896,0.00005441,-0.
 00047894,-0.00143096,-0.00501304,-0.00167632,0.00030354,-0.00081170,0.
 00185181,-0.01156499,0.00118684,-0.01177470,-0.00742712,0.00051072,-0.
 01079758,-0.01823970,0.05384909,-0.12580889,0.01818723,-0.19561491,-0.
 00419067,0.00072231,-0.00545861,0.00046010,-0.00021477,0.00040131,0.00
 002861,0.00033412,0.00019352,0.00002763,-0.00009041,-0.00097086,0.0000
 4399,-0.00000673,0.00013088,-0.00023972,0.00011951,0.00000607,-0.00003
 284,0.00125751,0.00178128,0.00010828,0.00018201,-0.00040082,-0.0171157
 6,0.00246931,-0.01903813,0.00629724,-0.00152793,0.00733972,0.14021859,
 -0.02193517,0.21107313,0.00414728,0.00224407,-0.00156836,-0.24725418,-
 0.08353475,0.06780308,-0.00861980,-0.00319802,0.00327008,0.00216328,0.
 00052868,-0.00045782,-0.00213356,-0.00077141,-0.00149758,0.00033389,0.
 00058740,-0.00063451,0.00044853,0.00075142,0.00082376,-0.02074226,-0.0
 0802174,0.00570378,0.00472028,-0.00049028,0.00272893,0.00046238,-0.000
 58465,-0.00010363,0.00116723,0.00143671,-0.00043955,0.00054869,-0.0006
 0871,0.00024638,0.26681817,-0.02914840,-0.01550908,0.01066165,-0.08473
 716,-0.08039028,0.02955049,0.01793440,0.00418051,-0.00736754,-0.001606
 18,0.00161040,-0.00078658,0.00104675,-0.00015281,-0.00006988,0.0009517
 6,0.00006471,0.00010778,0.00101932,-0.00216567,-0.00165685,0.00272021,
 -0.00036389,0.00030963,0.00158522,0.00096433,0.00071338,-0.00004499,0.
 00126783,-0.00068610,0.00131243,-0.00638824,0.00186812,0.00045083,0.00
 125778,0.00004923,0.08816477,0.09444827,0.00641558,0.00338656,-0.00175
 609,0.06981233,0.02911953,-0.06553317,0.02463064,0.00761090,-0.0110326
 6,-0.00207312,0.00090570,0.00177554,-0.00054690,-0.00010039,-0.0031626
 0,0.00102545,0.00030944,-0.00096355,0.00125202,-0.00372584,-0.00202499
 ,-0.02383578,-0.00674665,0.00226750,0.00057125,-0.00152492,0.00231210,
 -0.00047707,-0.00014426,0.00047252,-0.00015977,0.00128430,0.00052982,0
 .00021731,-0.00027644,-0.00006438,-0.07412534,-0.03361704,0.07737475,0
 .00012316,-0.00067324,0.00016376,0.00961729,0.00338376,0.00925612,-0.1
 7014256,-0.05767508,-0.12127967,-0.00718557,-0.00060044,-0.00685917,-0
 .00059970,0.00136580,-0.00048056,-0.00337847,-0.00249351,0.00068257,-0
 .01181876,-0.00521169,-0.01621676,-0.00083443,0.00246831,0.00207033,0.
 00059775,-0.00047749,0.00034707,-0.00009522,0.00003302,-0.00006830,-0.
 00000663,0.00013285,-0.00000205,-0.00001173,-0.00012761,-0.00025881,0.
 00075249,-0.00051556,-0.00068629,0.18340732,-0.00033640,0.00078079,-0.
 00035822,-0.01370901,-0.00219039,-0.01132932,-0.06620130,-0.07958715,-
 0.06298231,0.02287466,0.00864066,0.02223752,0.00077645,-0.00575184,0.0
 0341686,-0.00296255,-0.00065526,0.00057669,-0.00404869,-0.00097264,-0.
 00938167,0.00279045,-0.00313589,-0.00077993,-0.00036166,0.00090725,-0.
 00103048,0.00031289,-0.00010506,0.00019267,-0.00001380,0.00006445,0.00
 001833,0.00029666,-0.00032112,0.00044367,0.00050850,0.00090791,0.00073
 286,0.05980870,0.07912092,0.00010282,0.00009640,-0.00075146,-0.0125512
 9,-0.00476799,-0.01029456,-0.12059527,-0.05466555,-0.16997685,-0.01190
 963,-0.00309521,-0.01265173,0.00005603,0.00361369,-0.00179252,0.003088
 90,0.00152504,-0.00092070,0.00877309,0.00264418,0.01226216,0.00068681,
 -0.00219863,-0.00083836,-0.00007735,0.00055511,-0.00079722,0.00016416,
 -0.00034201,0.00016776,0.00000491,0.00000482,0.00004859,0.00018635,-0.
 00038560,0.00027403,0.00015443,0.00067152,0.00067615,0.13346843,0.0580
 4643,0.18465089,-0.00045557,-0.00001346,-0.00028676,-0.00069676,0.0013
 4907,0.00056980,-0.00321344,-0.00411357,-0.00142141,-0.01331271,0.0126
 3952,-0.01458570,-0.11794656,0.07877646,-0.08263006,0.01354787,-0.0096
 9916,0.01025267,-0.00220382,-0.00226057,0.00338233,-0.00669375,0.01013
 466,-0.00915952,0.00223872,-0.00188820,-0.00057186,0.00003847,0.000052
 46,-0.00001180,0.00001123,0.00008846,0.00004884,0.00000126,0.00020487,
 -0.00004778,-0.00033338,0.00008936,-0.00040380,-0.00004242,0.00092007,
 -0.00075178,0.12943530,0.00051441,0.00026263,0.00069351,0.00110807,-0.
 00149551,-0.00287708,-0.00321747,-0.00359565,-0.00193978,-0.01217687,0
 .01480209,-0.01542747,0.08752109,-0.15520066,0.10769443,0.00837975,-0.
 00467710,0.00398794,-0.00115548,-0.00117009,0.00228650,0.00944305,-0.0
 1029065,0.01484261,-0.00294804,0.00275321,-0.00004607,0.00000792,0.000
 06686,-0.00002570,-0.00001396,0.00004029,-0.00003019,0.00006757,-0.000
 35108,0.00013930,0.00047711,-0.00008026,0.00042981,-0.00039697,0.00105
 155,-0.00058446,-0.08813710,0.15707517,0.00037285,0.00027087,0.0004446
 0,0.00208963,-0.00166941,-0.00210816,-0.00219149,-0.00218612,-0.001135
 25,-0.00959161,0.00843945,-0.01175770,-0.08412763,0.10059191,-0.147559
 55,-0.01007086,0.00971033,-0.00878542,0.00131562,0.00244346,-0.0014527
 0,0.00971343,-0.00892339,0.00959250,-0.00203299,0.00029832,0.00181287,
 -0.00004585,0.00010448,0.00001434,-0.00003323,-0.00008905,-0.00004009,
 0.00003323,-0.00025377,0.00014927,0.00043484,-0.00009061,0.00059879,-0
 .00062172,0.00084019,-0.00018102,0.09507906,-0.10926360,0.16132766,-0.
 00009362,-0.00003635,0.00012027,0.00088354,0.00038952,-0.00026083,-0.0
 0062289,-0.00354215,-0.00442916,-0.00055610,0.00096747,-0.00039961,-0.
 00303476,0.00076180,-0.00501348,-0.31843138,-0.09139035,-0.02074743,-0
 .01025460,-0.00777330,0.00519913,-0.00005637,-0.00065571,-0.00006428,-
 0.00022271,0.00022114,0.00038769,0.00001649,0.00007227,-0.00000751,-0.
 00001338,0.00010079,-0.00004617,0.00004700,0.00001086,-0.00001416,0.00
 009048,-0.00009221,-0.00012313,-0.00098438,-0.00043517,0.00073715,0.00
 008234,-0.00026681,0.00041509,0.33280338,0.00000486,-0.00002816,-0.000
 01905,-0.00127548,-0.00043545,0.00047718,-0.00083339,0.00534749,0.0075
 1430,-0.00522047,-0.00246171,-0.00043005,-0.00792572,0.00098012,-0.004
 85152,-0.09585511,-0.06471832,0.00029793,0.00867711,0.00674995,0.00158
 823,0.00054955,-0.00120827,0.00042393,-0.00040537,0.00016655,0.0002786
 8,-0.00001632,-0.00000081,0.00000494,0.00005950,-0.00004623,0.00003827
 ,-0.00004037,0.00001567,-0.00001381,-0.00005472,0.00027267,0.00032358,
 0.00117271,0.00081907,-0.00082466,0.00058341,0.00014304,-0.00009511,0.
 09970586,0.05815588,0.00007694,-0.00008812,0.00002877,-0.00118946,-0.0
 0095553,0.00000046,-0.00361491,0.00674968,-0.00275559,0.00492559,0.002
 22797,0.00001754,0.01496438,0.00197596,0.00741726,-0.01713135,0.001488
 76,-0.05359281,-0.02200033,-0.00743650,0.00575167,-0.00002911,0.000931
 22,-0.00024583,0.00054076,-0.00035687,-0.00069157,-0.00001497,0.000008
 27,0.00001380,0.00002209,-0.00004581,-0.00000015,-0.00000463,-0.000041
 53,0.00002098,-0.00012573,0.00031870,0.00039777,-0.00044536,-0.0003052
 3,0.00058196,-0.00089121,-0.00008416,0.00013018,0.02350491,-0.00199691
 ,0.04346158,0.00013338,0.00021384,0.00024513,-0.00107598,-0.00091319,0
 .00014929,0.00670458,-0.00721564,0.01525309,-0.00121895,-0.00381661,0.
 00544314,-0.00437689,-0.00393054,-0.00502114,0.00858562,0.01130692,-0.
 01932992,-0.05863417,-0.02164989,0.03007535,-0.00039748,0.00133998,-0.
 00037704,0.00067210,-0.00015655,-0.00039190,0.00000481,0.00015438,-0.0
 0012511,-0.00007866,0.00030459,0.00019481,-0.00015116,0.00008777,-0.00
 001510,-0.00024899,0.00033987,0.00046313,0.00025382,0.00023262,-0.0009
 8982,0.00080754,0.00037458,-0.00039679,0.00025750,0.00095298,0.0015131
 6,0.04878020,-0.00004336,-0.00018635,0.00009492,-0.00050103,-0.0006183
 6,-0.00029507,0.00402868,-0.00053354,0.00461575,-0.00030695,-0.0024580
 7,0.00312574,-0.00473411,0.00702253,0.00342921,-0.00312593,0.00381301,
 -0.00022606,-0.01957847,-0.11718041,0.14148756,-0.00011341,-0.00127822
 ,0.00056046,-0.00067160,0.00023198,0.00072299,-0.00003707,0.00008606,-
 0.00001478,0.00019038,-0.00009833,-0.00029112,-0.00005299,-0.00000397,
 -0.00004661,0.00006849,0.00010094,0.00014557,-0.00007416,0.00017831,-0
 .00030595,0.00077743,0.00071412,-0.00061993,0.00167533,-0.00382196,-0.
 00205346,0.02239237,0.11395045,0.00023642,0.00041071,0.00008880,0.0001
 3137,0.00015702,-0.00025022,-0.00342501,0.00036394,-0.00033380,-0.0006
 8767,-0.00166414,0.00040802,-0.00521912,0.00573599,0.00036048,0.008393
 45,0.01111690,-0.01013824,0.02544050,0.13730666,-0.26186739,-0.0002799
 0,-0.00061837,0.00060951,-0.00015392,-0.00005103,0.00029080,-0.0001775
 0,-0.00011716,0.00013173,-0.00021561,-0.00032671,-0.00018068,0.0000975
 5,-0.00005794,0.00000500,0.00011414,-0.00016884,-0.00004159,0.00052727
 ,0.00021626,-0.00005088,0.00121779,0.00060173,-0.00099125,0.00063590,-
 0.00261589,-0.00044828,-0.02659850,-0.15024148,0.27245501,0.00151544,-
 0.00101081,0.00101024,-0.00814614,-0.01561234,-0.00815251,-0.00274344,
 0.00154655,-0.00208081,0.00095553,0.00509667,0.00522780,0.01027090,0.0
 1295265,0.00562036,0.00090784,0.00059695,-0.00069820,-0.00009335,-0.00
 035778,-0.00005130,-0.10586716,-0.09662923,-0.04268345,-0.00904598,-0.
 01790286,0.00063408,-0.00040348,0.00040621,0.00016778,0.00022932,0.000
 57416,-0.00033064,0.00026264,0.00002054,0.00034998,-0.00142993,-0.0000
 6121,-0.00154144,0.00049974,-0.00066893,-0.00042290,-0.00034464,-0.000
 12755,-0.00049007,-0.00001975,-0.00014399,0.00012028,0.00002412,0.0000
 2467,0.00005945,0.11403922,0.00031143,0.00076127,-0.00000238,0.0050179
 1,0.00653217,0.00458138,0.00230879,-0.00215156,0.00145198,0.00017322,-
 0.00294753,-0.00485213,-0.00944792,-0.01057883,-0.00583380,0.00008910,
 0.00031515,0.00190875,-0.00107954,0.00037675,-0.00056053,-0.09819544,-
 0.22165809,-0.07586443,-0.01120168,-0.01595632,0.00212578,-0.00007145,
 0.00023166,-0.00013169,-0.00014108,0.00015836,-0.00014098,0.00002791,0
 .00017113,-0.00002136,0.00087524,0.00007219,0.00077957,-0.00022187,0.0
 0042491,0.00015234,0.00041841,-0.00018460,0.00024974,0.00026361,0.0000
 6237,-0.00035346,0.00007175,-0.00002041,-0.00010663,0.11216200,0.24413
 947,0.00024836,-0.00112859,0.00114206,-0.00802133,-0.01358296,-0.00505
 414,-0.00144846,-0.00209029,-0.00029674,-0.00037284,-0.00341088,-0.004
 16592,-0.00661042,-0.00611792,-0.00269589,0.00009235,-0.00058502,0.000
 34075,-0.00020906,0.00041732,0.00013225,-0.04664904,-0.08244528,-0.079
 38951,0.01859944,0.03113658,0.00413514,-0.00020161,0.00036982,0.000101
 28,0.00032508,0.00040739,-0.00035205,0.00027235,0.00007699,0.00015166,
 -0.00115035,-0.00011644,-0.00170183,0.00037003,-0.00048000,-0.00049743
 ,0.00042947,-0.00027003,0.00000473,0.00021912,0.00002185,-0.00016776,0
 .00010032,0.00005248,-0.00007047,0.04030995,0.07412835,0.09260728,-0.0
 0051268,0.00015420,-0.00000622,0.00233061,0.00129516,-0.00032057,0.001
 17656,-0.00124366,0.00042008,-0.00074508,0.00156096,-0.00150147,0.0000
 8007,-0.00195623,-0.00000775,-0.00037211,-0.00044311,0.00022169,-0.000
 05114,0.00069890,-0.00068923,-0.01173490,-0.02064992,-0.00421532,-0.08
 821916,-0.16486795,-0.04452620,-0.00000404,0.00007753,0.00003792,-0.00
 011983,-0.00021924,-0.00001987,-0.00000972,0.00006736,-0.00005708,-0.0
 0089058,0.00059080,-0.00041509,-0.00015170,0.00021651,-0.00012502,-0.0
 0091969,0.00054671,0.00014850,0.00010919,0.00006494,-0.00022106,-0.000
 04137,0.00008173,-0.00009661,-0.00061088,-0.00136039,0.00369663,0.1006
 8645,0.00041722,-0.00024567,-0.00059303,-0.00042045,0.00068766,-0.0014
 8695,-0.00091260,0.00150550,-0.00048845,0.00136424,-0.00066370,0.00101
 198,0.00107517,0.00204879,-0.00174379,0.00013943,-0.00057263,-0.000264
 40,-0.00002733,-0.00043014,-0.00001825,-0.01212069,-0.02193147,-0.0050
 7891,-0.17571805,-0.36568467,-0.11465299,-0.00004053,-0.00004554,0.000
 08099,-0.00000167,0.00035279,-0.00014792,-0.00001121,0.00020469,-0.000
 04741,0.00162190,-0.00009731,0.00110770,0.00010246,-0.00017648,-0.0001
 3946,0.00007789,0.00013666,0.00024226,0.00002341,0.00000808,0.00001705
 ,-0.00008921,0.00010222,0.00005898,-0.00086569,0.00025191,0.00361664,0
 .18538570,0.38454931,-0.00037899,0.00008643,-0.00008261,0.00136800,0.0
 0104232,-0.00004962,-0.00099183,0.00200739,-0.00142712,-0.00180896,-0.
 00160412,0.00231191,0.00387379,0.00149089,0.00117780,-0.00063860,-0.00
 035855,-0.00005899,0.00020937,-0.00038730,0.00027482,0.01926037,0.0363
 9088,0.00504041,-0.06974296,-0.15913865,-0.09571030,0.00006163,-0.0001
 3826,-0.00001697,-0.00010074,-0.00024185,0.00009240,-0.00007177,-0.000
 01032,0.00002087,-0.00117657,0.00030938,-0.00012410,0.00003309,-0.0000
 7432,0.00009121,-0.00021829,-0.00012728,-0.00006381,-0.00011350,-0.000
 12188,0.00008004,-0.00019209,-0.00014024,0.00002346,0.00295139,0.00248
 951,-0.00422340,0.04767666,0.11852598,0.09264397\\-0.00004120,0.000074
 95,-0.00000561,0.00001944,0.00007082,-0.00012660,-0.00001553,0.0000254
 6,0.00007168,0.00007017,0.00004547,0.00000466,-0.00005303,-0.00003210,
 -0.00003909,0.00005940,0.00000703,0.00008022,-0.00002907,-0.00000096,-
 0.00008794,0.00003683,-0.00006723,0.00000820,0.00003488,0.00005403,0.0
 0004261,0.00000853,-0.00003562,0.00000133,0.00000290,-0.00001602,-0.00
 000229,0.00001352,-0.00002149,-0.00000293,-0.00004044,-0.00002127,0.00
 002596,0.00000592,-0.00002084,0.00000191,-0.00001197,-0.00001930,0.000
 00843,-0.00002662,0.00000582,-0.00000250,0.00001021,-0.00002096,0.0000
 2027,-0.00002068,-0.00000629,0.00003158,-0.00002326,-0.00002152,-0.000
 02989\\\@


 THE FIRST AND LAST THING REQUIRED OF GENIUS IS THE LOVE OF TRUTH.

                          -- GOETHE
 Job cpu time:       0 days  0 hours 46 minutes 46.8 seconds.
 File lengths (MBytes):  RWF=    152 Int=      0 D2E=      0 Chk=      8 Scr=      1
 Normal termination of Gaussian 09 at Mon Jan 27 22:51:52 2020.
