 Entering Gaussian System, Link 0=/home/puck/opt/gaussian_09/g09
 Input=dsC7O2H10nsd_2298.com
 Output=dsC7O2H10nsd_2298.log
 Initial command:
 /home/puck/opt/gaussian_09/l1.exe "/scratch/puck/g09_e4eb5b25-2976-4fe1-a48c-1c7928292336/Gau-171748.inp" -scrdir="/scratch/puck/g09_e4eb5b25-2976-4fe1-a48c-1c7928292336/"
 Entering Link 1 = /home/puck/opt/gaussian_09/l1.exe PID=    171749.
  
 Copyright (c) 1988,1990,1992,1993,1995,1998,2003,2009,2013,
            Gaussian, Inc.  All Rights Reserved.
  
 This is part of the Gaussian(R) 09 program.  It is based on
 the Gaussian(R) 03 system (copyright 2003, Gaussian, Inc.),
 the Gaussian(R) 98 system (copyright 1998, Gaussian, Inc.),
 the Gaussian(R) 94 system (copyright 1995, Gaussian, Inc.),
 the Gaussian 92(TM) system (copyright 1992, Gaussian, Inc.),
 the Gaussian 90(TM) system (copyright 1990, Gaussian, Inc.),
 the Gaussian 88(TM) system (copyright 1988, Gaussian, Inc.),
 the Gaussian 86(TM) system (copyright 1986, Carnegie Mellon
 University), and the Gaussian 82(TM) system (copyright 1983,
 Carnegie Mellon University). Gaussian is a federally registered
 trademark of Gaussian, Inc.
  
 This software contains proprietary and confidential information,
 including trade secrets, belonging to Gaussian, Inc.
  
 This software is provided under written license and may be
 used, copied, transmitted, or stored only in accord with that
 written license.
  
 The following legend is applicable only to US Government
 contracts under FAR:
  
                    RESTRICTED RIGHTS LEGEND
  
 Use, reproduction and disclosure by the US Government is
 subject to restrictions as set forth in subparagraphs (a)
 and (c) of the Commercial Computer Software - Restricted
 Rights clause in FAR 52.227-19.
  
 Gaussian, Inc.
 340 Quinnipiac St., Bldg. 40, Wallingford CT 06492
  
  
 ---------------------------------------------------------------
 Warning -- This program may not be used in any manner that
 competes with the business of Gaussian, Inc. or will provide
 assistance to any competitor of Gaussian, Inc.  The licensee
 of this program is prohibited from giving any competitor of
 Gaussian, Inc. access to this program.  By using this program,
 the user acknowledges that Gaussian, Inc. is engaged in the
 business of creating and licensing software in the field of
 computational chemistry and represents and warrants to the
 licensee that it is not a competitor of Gaussian, Inc. and that
 it will not use this program in any manner prohibited above.
 ---------------------------------------------------------------
  

 Cite this work as:
 Gaussian 09, Revision D.01,
 M. J. Frisch, G. W. Trucks, H. B. Schlegel, G. E. Scuseria, 
 M. A. Robb, J. R. Cheeseman, G. Scalmani, V. Barone, B. Mennucci, 
 G. A. Petersson, H. Nakatsuji, M. Caricato, X. Li, H. P. Hratchian, 
 A. F. Izmaylov, J. Bloino, G. Zheng, J. L. Sonnenberg, M. Hada, 
 M. Ehara, K. Toyota, R. Fukuda, J. Hasegawa, M. Ishida, T. Nakajima, 
 Y. Honda, O. Kitao, H. Nakai, T. Vreven, J. A. Montgomery, Jr., 
 J. E. Peralta, F. Ogliaro, M. Bearpark, J. J. Heyd, E. Brothers, 
 K. N. Kudin, V. N. Staroverov, T. Keith, R. Kobayashi, J. Normand, 
 K. Raghavachari, A. Rendell, J. C. Burant, S. S. Iyengar, J. Tomasi, 
 M. Cossi, N. Rega, J. M. Millam, M. Klene, J. E. Knox, J. B. Cross, 
 V. Bakken, C. Adamo, J. Jaramillo, R. Gomperts, R. E. Stratmann, 
 O. Yazyev, A. J. Austin, R. Cammi, C. Pomelli, J. W. Ochterski, 
 R. L. Martin, K. Morokuma, V. G. Zakrzewski, G. A. Voth, 
 P. Salvador, J. J. Dannenberg, S. Dapprich, A. D. Daniels, 
 O. Farkas, J. B. Foresman, J. V. Ortiz, J. Cioslowski, 
 and D. J. Fox, Gaussian, Inc., Wallingford CT, 2013.
 
 ******************************************
 Gaussian 09:  ES64L-G09RevD.01 24-Apr-2013
                27-Jan-2020 
 ******************************************
 -----------------------------
 # b3lyp 6-31G(2df,p) opt Freq
 -----------------------------
 1/14=-1,18=20,19=15,26=3,38=1/1,3;
 2/9=110,12=2,17=6,18=5,40=1/2;
 3/5=1,6=6,7=104,11=2,16=1,25=1,30=1,71=1,74=-5/1,2,3;
 4//1;
 5/5=2,38=5/2;
 6/7=2,8=2,9=2,10=2,28=1/1;
 7//1,2,3,16;
 1/14=-1,18=20,19=15,26=3/3(2);
 2/9=110/2;
 99//99;
 2/9=110/2;
 3/5=1,6=6,7=104,11=2,16=1,25=1,30=1,71=1,74=-5/1,2,3;
 4/5=5,16=3,69=1/1;
 5/5=2,38=5/2;
 7//1,2,3,16;
 1/14=-1,18=20,19=15,26=3/3(-5);
 2/9=110/2;
 6/7=2,8=2,9=2,10=2,19=2,28=1/1;
 99/9=1/99;
 -----
 titel
 -----
 Symbolic Z-matrix:
 Charge =  0 Multiplicity = 1
 C                    -3.16918  -0.00721   1.16178 
 C                    -2.21502  -0.17577   0.0036 
 C                    -2.72208  -0.71952  -1.35053 
 C                    -1.49841  -1.67308  -1.45016 
 C                    -1.0408   -1.31023  -0.01141 
 O                    -0.88474  -2.39346   0.83472 
 C                    -0.06561  -0.16547   0.14984 
 O                     0.99631  -0.13879   0.71587 
 C                    -1.10915   0.91486  -0.17014 
 H                    -3.72198  -0.93321   1.34999 
 H                    -2.63917   0.25735   2.08372 
 H                    -3.89959   0.78591   0.96136 
 H                    -3.66351  -1.26723  -1.25564 
 H                    -2.83515   0.02235  -2.14588 
 H                    -1.76239  -2.73093  -1.49778 
 H                    -0.77501  -1.46156  -2.2414 
 H                    -0.2024   -2.16042   1.4784 
 H                    -1.11589   1.72224   0.5668 
 H                    -1.03761   1.35126  -1.17022 
 

 GradGradGradGradGradGradGradGradGradGradGradGradGradGradGradGradGradGrad
 Berny optimization.
 Initialization pass.
                           ----------------------------
                           !    Initial Parameters    !
                           ! (Angstroms and Degrees)  !
 --------------------------                            --------------------------
 ! Name  Definition              Value          Derivative Info.                !
 --------------------------------------------------------------------------------
 ! R1    R(1,2)                  1.51           estimate D2E/DX2                !
 ! R2    R(1,10)                 1.0948         estimate D2E/DX2                !
 ! R3    R(1,11)                 1.0958         estimate D2E/DX2                !
 ! R4    R(1,12)                 1.0967         estimate D2E/DX2                !
 ! R5    R(2,3)                  1.5448         estimate D2E/DX2                !
 ! R6    R(2,5)                  1.6328         estimate D2E/DX2                !
 ! R7    R(2,9)                  1.5629         estimate D2E/DX2                !
 ! R8    R(3,4)                  1.5545         estimate D2E/DX2                !
 ! R9    R(3,13)                 1.0933         estimate D2E/DX2                !
 ! R10   R(3,14)                 1.0935         estimate D2E/DX2                !
 ! R11   R(4,5)                  1.5528         estimate D2E/DX2                !
 ! R12   R(4,15)                 1.0913         estimate D2E/DX2                !
 ! R13   R(4,16)                 1.0927         estimate D2E/DX2                !
 ! R14   R(5,6)                  1.3834         estimate D2E/DX2                !
 ! R15   R(5,7)                  1.5124         estimate D2E/DX2                !
 ! R16   R(6,17)                 0.9665         estimate D2E/DX2                !
 ! R17   R(7,8)                  1.2037         estimate D2E/DX2                !
 ! R18   R(7,9)                  1.5357         estimate D2E/DX2                !
 ! R19   R(9,18)                 1.0932         estimate D2E/DX2                !
 ! R20   R(9,19)                 1.0935         estimate D2E/DX2                !
 ! A1    A(2,1,10)             110.8864         estimate D2E/DX2                !
 ! A2    A(2,1,11)             111.5072         estimate D2E/DX2                !
 ! A3    A(2,1,12)             111.1864         estimate D2E/DX2                !
 ! A4    A(10,1,11)            107.6853         estimate D2E/DX2                !
 ! A5    A(10,1,12)            107.8677         estimate D2E/DX2                !
 ! A6    A(11,1,12)            107.5343         estimate D2E/DX2                !
 ! A7    A(1,2,3)              120.2785         estimate D2E/DX2                !
 ! A8    A(1,2,5)              122.6166         estimate D2E/DX2                !
 ! A9    A(1,2,9)              117.0309         estimate D2E/DX2                !
 ! A10   A(3,2,5)               89.0509         estimate D2E/DX2                !
 ! A11   A(3,2,9)              112.3609         estimate D2E/DX2                !
 ! A12   A(5,2,9)               88.566          estimate D2E/DX2                !
 ! A13   A(2,3,4)               90.7859         estimate D2E/DX2                !
 ! A14   A(2,3,13)             112.5134         estimate D2E/DX2                !
 ! A15   A(2,3,14)             115.6396         estimate D2E/DX2                !
 ! A16   A(4,3,13)             112.0911         estimate D2E/DX2                !
 ! A17   A(4,3,14)             116.804          estimate D2E/DX2                !
 ! A18   A(13,3,14)            108.2984         estimate D2E/DX2                !
 ! A19   A(3,4,5)               91.6765         estimate D2E/DX2                !
 ! A20   A(3,4,15)             114.0152         estimate D2E/DX2                !
 ! A21   A(3,4,16)             116.6651         estimate D2E/DX2                !
 ! A22   A(5,4,15)             109.769          estimate D2E/DX2                !
 ! A23   A(5,4,16)             115.5046         estimate D2E/DX2                !
 ! A24   A(15,4,16)            108.431          estimate D2E/DX2                !
 ! A25   A(2,5,4)               87.6466         estimate D2E/DX2                !
 ! A26   A(2,5,6)              128.2843         estimate D2E/DX2                !
 ! A27   A(2,5,7)               86.3775         estimate D2E/DX2                !
 ! A28   A(4,5,6)              114.6456         estimate D2E/DX2                !
 ! A29   A(4,5,7)              117.7542         estimate D2E/DX2                !
 ! A30   A(6,5,7)              117.048          estimate D2E/DX2                !
 ! A31   A(5,6,17)             107.3475         estimate D2E/DX2                !
 ! A32   A(5,7,8)              129.4769         estimate D2E/DX2                !
 ! A33   A(5,7,9)               94.1349         estimate D2E/DX2                !
 ! A34   A(8,7,9)              132.9912         estimate D2E/DX2                !
 ! A35   A(2,9,7)               88.0945         estimate D2E/DX2                !
 ! A36   A(2,9,18)             115.8556         estimate D2E/DX2                !
 ! A37   A(2,9,19)             115.2432         estimate D2E/DX2                !
 ! A38   A(7,9,18)             112.5371         estimate D2E/DX2                !
 ! A39   A(7,9,19)             115.2674         estimate D2E/DX2                !
 ! A40   A(18,9,19)            108.7958         estimate D2E/DX2                !
 ! D1    D(10,1,2,3)            52.3786         estimate D2E/DX2                !
 ! D2    D(10,1,2,5)           -58.1609         estimate D2E/DX2                !
 ! D3    D(10,1,2,9)          -165.2072         estimate D2E/DX2                !
 ! D4    D(11,1,2,3)           172.369          estimate D2E/DX2                !
 ! D5    D(11,1,2,5)            61.8295         estimate D2E/DX2                !
 ! D6    D(11,1,2,9)           -45.2168         estimate D2E/DX2                !
 ! D7    D(12,1,2,3)           -67.6287         estimate D2E/DX2                !
 ! D8    D(12,1,2,5)          -178.1682         estimate D2E/DX2                !
 ! D9    D(12,1,2,9)            74.7855         estimate D2E/DX2                !
 ! D10   D(1,2,3,4)           -134.7669         estimate D2E/DX2                !
 ! D11   D(1,2,3,13)           -20.3841         estimate D2E/DX2                !
 ! D12   D(1,2,3,14)           104.7806         estimate D2E/DX2                !
 ! D13   D(5,2,3,4)             -6.846          estimate D2E/DX2                !
 ! D14   D(5,2,3,13)           107.5368         estimate D2E/DX2                !
 ! D15   D(5,2,3,14)          -127.2985         estimate D2E/DX2                !
 ! D16   D(9,2,3,4)             81.2125         estimate D2E/DX2                !
 ! D17   D(9,2,3,13)          -164.4047         estimate D2E/DX2                !
 ! D18   D(9,2,3,14)           -39.2399         estimate D2E/DX2                !
 ! D19   D(1,2,5,4)            132.8803         estimate D2E/DX2                !
 ! D20   D(1,2,5,6)             12.9292         estimate D2E/DX2                !
 ! D21   D(1,2,5,7)           -109.1108         estimate D2E/DX2                !
 ! D22   D(3,2,5,4)              6.859          estimate D2E/DX2                !
 ! D23   D(3,2,5,6)           -113.0921         estimate D2E/DX2                !
 ! D24   D(3,2,5,7)            124.8679         estimate D2E/DX2                !
 ! D25   D(9,2,5,4)           -105.5382         estimate D2E/DX2                !
 ! D26   D(9,2,5,6)            134.5107         estimate D2E/DX2                !
 ! D27   D(9,2,5,7)             12.4707         estimate D2E/DX2                !
 ! D28   D(1,2,9,7)            114.0766         estimate D2E/DX2                !
 ! D29   D(1,2,9,18)            -0.1302         estimate D2E/DX2                !
 ! D30   D(1,2,9,19)          -128.7631         estimate D2E/DX2                !
 ! D31   D(3,2,9,7)           -100.6438         estimate D2E/DX2                !
 ! D32   D(3,2,9,18)           145.1495         estimate D2E/DX2                !
 ! D33   D(3,2,9,19)            16.5166         estimate D2E/DX2                !
 ! D34   D(5,2,9,7)            -12.2605         estimate D2E/DX2                !
 ! D35   D(5,2,9,18)          -126.4673         estimate D2E/DX2                !
 ! D36   D(5,2,9,19)           104.8998         estimate D2E/DX2                !
 ! D37   D(2,3,4,5)              7.2028         estimate D2E/DX2                !
 ! D38   D(2,3,4,15)           119.7522         estimate D2E/DX2                !
 ! D39   D(2,3,4,16)          -112.5813         estimate D2E/DX2                !
 ! D40   D(13,3,4,5)          -107.5588         estimate D2E/DX2                !
 ! D41   D(13,3,4,15)            4.9907         estimate D2E/DX2                !
 ! D42   D(13,3,4,16)          132.6571         estimate D2E/DX2                !
 ! D43   D(14,3,4,5)           126.6601         estimate D2E/DX2                !
 ! D44   D(14,3,4,15)         -120.7904         estimate D2E/DX2                !
 ! D45   D(14,3,4,16)            6.876          estimate D2E/DX2                !
 ! D46   D(3,4,5,2)             -6.8179         estimate D2E/DX2                !
 ! D47   D(3,4,5,6)            124.7402         estimate D2E/DX2                !
 ! D48   D(3,4,5,7)            -91.4768         estimate D2E/DX2                !
 ! D49   D(15,4,5,2)          -123.1243         estimate D2E/DX2                !
 ! D50   D(15,4,5,6)             8.4338         estimate D2E/DX2                !
 ! D51   D(15,4,5,7)           152.2168         estimate D2E/DX2                !
 ! D52   D(16,4,5,2)           113.9396         estimate D2E/DX2                !
 ! D53   D(16,4,5,6)          -114.5023         estimate D2E/DX2                !
 ! D54   D(16,4,5,7)            29.2807         estimate D2E/DX2                !
 ! D55   D(2,5,6,17)          -101.4948         estimate D2E/DX2                !
 ! D56   D(4,5,6,17)           150.7725         estimate D2E/DX2                !
 ! D57   D(7,5,6,17)             6.7228         estimate D2E/DX2                !
 ! D58   D(2,5,7,8)            148.2299         estimate D2E/DX2                !
 ! D59   D(2,5,7,9)            -12.7244         estimate D2E/DX2                !
 ! D60   D(4,5,7,8)           -126.3477         estimate D2E/DX2                !
 ! D61   D(4,5,7,9)             72.698          estimate D2E/DX2                !
 ! D62   D(6,5,7,8)             16.5692         estimate D2E/DX2                !
 ! D63   D(6,5,7,9)           -144.3851         estimate D2E/DX2                !
 ! D64   D(5,7,9,2)             13.2843         estimate D2E/DX2                !
 ! D65   D(5,7,9,18)           130.5823         estimate D2E/DX2                !
 ! D66   D(5,7,9,19)          -103.8538         estimate D2E/DX2                !
 ! D67   D(8,7,9,2)           -146.5732         estimate D2E/DX2                !
 ! D68   D(8,7,9,18)           -29.2752         estimate D2E/DX2                !
 ! D69   D(8,7,9,19)            96.2887         estimate D2E/DX2                !
 --------------------------------------------------------------------------------
 Trust Radius=3.00D-01 FncErr=1.00D-07 GrdErr=1.00D-06
 Number of steps in this run=    114 maximum allowed number of steps=    114.
 GradGradGradGradGradGradGradGradGradGradGradGradGradGradGradGradGradGrad

                          Input orientation:                          
 ---------------------------------------------------------------------
 Center     Atomic      Atomic             Coordinates (Angstroms)
 Number     Number       Type             X           Y           Z
 ---------------------------------------------------------------------
      1          6           0       -3.169175   -0.007212    1.161781
      2          6           0       -2.215018   -0.175768    0.003596
      3          6           0       -2.722078   -0.719517   -1.350530
      4          6           0       -1.498407   -1.673081   -1.450163
      5          6           0       -1.040796   -1.310232   -0.011408
      6          8           0       -0.884739   -2.393464    0.834723
      7          6           0       -0.065612   -0.165467    0.149843
      8          8           0        0.996312   -0.138790    0.715869
      9          6           0       -1.109153    0.914860   -0.170137
     10          1           0       -3.721979   -0.933208    1.349992
     11          1           0       -2.639171    0.257346    2.083724
     12          1           0       -3.899593    0.785906    0.961363
     13          1           0       -3.663510   -1.267234   -1.255639
     14          1           0       -2.835154    0.022346   -2.145875
     15          1           0       -1.762389   -2.730928   -1.497784
     16          1           0       -0.775008   -1.461564   -2.241397
     17          1           0       -0.202399   -2.160417    1.478397
     18          1           0       -1.115885    1.722236    0.566803
     19          1           0       -1.037607    1.351262   -1.170215
 ---------------------------------------------------------------------
                    Distance matrix (angstroms):
                    1          2          3          4          5
     1  C    0.000000
     2  C    1.510039   0.000000
     3  C    2.649336   1.544808   0.000000
     4  C    3.519777   2.206557   1.554536   0.000000
     5  C    2.757577   1.632799   2.229103   1.552766   0.000000
     6  O    3.319611   2.716356   3.309568   2.473104   1.383359
     7  C    3.268206   2.154401   3.100791   2.624084   1.512439
     8  O    4.191352   3.289580   4.293445   3.642714   2.459881
     9  C    2.620671   1.562879   2.581868   2.913318   2.231793
    10  H    1.094753   2.158107   2.887608   3.651376   3.030561
    11  H    1.095844   2.166663   3.571447   4.185242   3.066217
    12  H    1.096683   2.163314   2.999615   4.198543   3.675976
    13  H    2.770549   2.207964   1.093294   2.211385   2.903203
    14  H    3.324610   2.245895   1.093491   2.268343   3.090540
    15  H    4.058443   2.997975   2.233486   1.091327   2.179079
    16  H    4.407810   2.960894   2.266133   1.092748   2.250865
    17  H    3.679443   3.188182   4.053123   3.239382   1.909252
    18  H    2.749725   2.264445   3.495451   3.967701   3.088014
    19  H    3.439076   2.257421   2.675460   3.072028   2.902825
                    6          7          8          9         10
     6  O    0.000000
     7  C    2.470627   0.000000
     8  O    2.938713   1.203652   0.000000
     9  C    3.464839   1.535732   2.515584   0.000000
    10  H    3.232303   3.924131   4.826539   3.543022   0.000000
    11  H    3.415382   3.246826   3.904445   2.802351   1.768687
    12  H    4.383352   4.032752   4.988508   3.013881   1.771421
    13  H    3.655076   4.016733   5.184030   3.530523   2.627604
    14  H    4.303978   3.602216   4.784942   2.771137   3.731036
    15  H    2.514903   3.489314   4.385187   3.934607   3.896359
    16  H    3.216052   2.810896   3.692252   3.170040   4.675668
    17  H    0.966548   2.400748   2.470897   3.605162   3.729607
    18  H    4.130883   2.200081   2.819045   1.093153   3.802169
    19  H    4.250426   2.233337   3.148712   1.093490   4.333140
                   11         12         13         14         15
    11  H    0.000000
    12  H    1.768540   0.000000
    13  H    3.811163   3.030877   0.000000
    14  H    4.240654   3.372089   1.772487   0.000000
    15  H    4.746128   4.794075   2.411492   3.025122   0.000000
    16  H    5.013624   5.007177   3.058255   2.540731   1.771770
    17  H    3.485665   4.755774   4.500225   4.983092   3.408329
    18  H    2.601414   2.963346   4.329968   3.633749   4.950874
    19  H    3.788111   3.613062   3.709338   2.439079   4.158952
                   16         17         18         19
    16  H    0.000000
    17  H    3.827943   0.000000
    18  H    4.258963   4.091510   0.000000
    19  H    3.021320   4.477121   1.777915   0.000000
 Stoichiometry    C7H10O2
 Framework group  C1[X(C7H10O2)]
 Deg. of freedom    51
 Full point group                 C1      NOp   1
 Largest Abelian subgroup         C1      NOp   1
 Largest concise Abelian subgroup C1      NOp   1
                         Standard orientation:                         
 ---------------------------------------------------------------------
 Center     Atomic      Atomic             Coordinates (Angstroms)
 Number     Number       Type             X           Y           Z
 ---------------------------------------------------------------------
      1          6           0        1.459917   -1.212141    1.202743
      2          6           0        0.851865   -0.490047    0.024154
      3          6           0        1.687987    0.529858   -0.780285
      4          6           0        0.502919    1.535933   -0.777429
      5          6           0       -0.315507    0.639341    0.190757
      6          8           0       -0.736740    1.272595    1.346281
      7          6           0       -1.254089   -0.379387   -0.416473
      8          8           0       -2.428293   -0.552806   -0.216598
      9          6           0       -0.123100   -1.307348   -0.883619
     10          1           0        1.905384   -0.502760    1.907599
     11          1           0        0.709041   -1.795570    1.747418
     12          1           0        2.246511   -1.904954    0.880265
     13          1           0        2.546705    0.904438   -0.216738
     14          1           0        2.041257    0.186840   -1.756636
     15          1           0        0.730030    2.488353   -0.295444
     16          1           0        0.030977    1.740500   -1.741545
     17          1           0       -1.559425    0.848045    1.624059
     18          1           0       -0.287177   -2.347852   -0.591361
     19          1           0        0.097008   -1.272606   -1.954164
 ---------------------------------------------------------------------
 Rotational constants (GHZ):      2.2023519      1.6246888      1.4310794
 Standard basis: 6-31G(2df,p) (6D, 7F)
 There are   329 symmetry adapted cartesian basis functions of A   symmetry.
 There are   302 symmetry adapted basis functions of A   symmetry.
   302 basis functions,   466 primitive gaussians,   329 cartesian basis functions
    34 alpha electrons       34 beta electrons
       nuclear repulsion energy       469.8012599385 Hartrees.
 NAtoms=   19 NActive=   19 NUniq=   19 SFac= 1.00D+00 NAtFMM=   60 NAOKFM=F Big=F
 Integral buffers will be    131072 words long.
 Raffenetti 2 integral format.
 Two-electron integral symmetry is turned on.
 One-electron integrals computed using PRISM.
 NBasis=   302 RedAO= T EigKep=  2.98D-04  NBF=   302
 NBsUse=   302 1.00D-06 EigRej= -1.00D+00 NBFU=   302
 ExpMin= 1.61D-01 ExpMax= 5.48D+03 ExpMxC= 8.25D+02 IAcc=1 IRadAn=         1 AccDes= 0.00D+00
 Harris functional with IExCor=  402 and IRadAn=       1 diagonalized for initial guess.
 HarFok:  IExCor=  402 AccDes= 0.00D+00 IRadAn=         1 IDoV= 1 UseB2=F ITyADJ=14
 ICtDFT=  3500011 ScaDFX=  1.000000  1.000000  1.000000  1.000000
 FoFCou: FMM=F IPFlag=           0 FMFlag=      100000 FMFlg1=           0
         NFxFlg=           0 DoJE=T BraDBF=F KetDBF=T FulRan=T
         wScrn=  0.000000 ICntrl=     500 IOpCl=  0 I1Cent=   200000004 NGrid=           0
         NMat0=    1 NMatS0=      1 NMatT0=    0 NMatD0=    1 NMtDS0=    0 NMtDT0=    0
 Petite list used in FoFCou.
 Requested convergence on RMS density matrix=1.00D-08 within 128 cycles.
 Requested convergence on MAX density matrix=1.00D-06.
 Requested convergence on             energy=1.00D-06.
 No special actions if energy rises.
 Integral accuracy reduced to 1.0D-05 until final iterations.
 Initial convergence to 1.0D-05 achieved.  Increase integral accuracy.
 SCF Done:  E(RB3LYP) =  -423.183987510     A.U. after   14 cycles
            NFock= 14  Conv=0.39D-08     -V/T= 2.0074

 **********************************************************************

            Population analysis using the SCF density.

 **********************************************************************

 Orbital symmetries:
       Occupied  (A) (A) (A) (A) (A) (A) (A) (A) (A) (A) (A) (A)
                 (A) (A) (A) (A) (A) (A) (A) (A) (A) (A) (A) (A)
                 (A) (A) (A) (A) (A) (A) (A) (A) (A) (A)
       Virtual   (A) (A) (A) (A) (A) (A) (A) (A) (A) (A) (A) (A)
                 (A) (A) (A) (A) (A) (A) (A) (A) (A) (A) (A) (A)
                 (A) (A) (A) (A) (A) (A) (A) (A) (A) (A) (A) (A)
                 (A) (A) (A) (A) (A) (A) (A) (A) (A) (A) (A) (A)
                 (A) (A) (A) (A) (A) (A) (A) (A) (A) (A) (A) (A)
                 (A) (A) (A) (A) (A) (A) (A) (A) (A) (A) (A) (A)
                 (A) (A) (A) (A) (A) (A) (A) (A) (A) (A) (A) (A)
                 (A) (A) (A) (A) (A) (A) (A) (A) (A) (A) (A) (A)
                 (A) (A) (A) (A) (A) (A) (A) (A) (A) (A) (A) (A)
                 (A) (A) (A) (A) (A) (A) (A) (A) (A) (A) (A) (A)
                 (A) (A) (A) (A) (A) (A) (A) (A) (A) (A) (A) (A)
                 (A) (A) (A) (A) (A) (A) (A) (A) (A) (A) (A) (A)
                 (A) (A) (A) (A) (A) (A) (A) (A) (A) (A) (A) (A)
                 (A) (A) (A) (A) (A) (A) (A) (A) (A) (A) (A) (A)
                 (A) (A) (A) (A) (A) (A) (A) (A) (A) (A) (A) (A)
                 (A) (A) (A) (A) (A) (A) (A) (A) (A) (A) (A) (A)
                 (A) (A) (A) (A) (A) (A) (A) (A) (A) (A) (A) (A)
                 (A) (A) (A) (A) (A) (A) (A) (A) (A) (A) (A) (A)
                 (A) (A) (A) (A) (A) (A) (A) (A) (A) (A) (A) (A)
                 (A) (A) (A) (A) (A) (A) (A) (A) (A) (A) (A) (A)
                 (A) (A) (A) (A) (A) (A) (A) (A) (A) (A) (A) (A)
                 (A) (A) (A) (A) (A) (A) (A) (A) (A) (A) (A) (A)
                 (A) (A) (A) (A)
 The electronic state is 1-A.
 Alpha  occ. eigenvalues --  -19.15274 -19.14009 -10.26799 -10.24030 -10.20594
 Alpha  occ. eigenvalues --  -10.19434 -10.19291 -10.18951 -10.18403  -1.05564
 Alpha  occ. eigenvalues --   -1.03083  -0.87643  -0.75774  -0.73076  -0.66694
 Alpha  occ. eigenvalues --   -0.61933  -0.56691  -0.54451  -0.48805  -0.48118
 Alpha  occ. eigenvalues --   -0.45814  -0.44920  -0.42950  -0.41985  -0.40667
 Alpha  occ. eigenvalues --   -0.39758  -0.37734  -0.36472  -0.35325  -0.33845
 Alpha  occ. eigenvalues --   -0.32891  -0.30768  -0.25494  -0.24123
 Alpha virt. eigenvalues --   -0.02285   0.06926   0.09177   0.10567   0.10885
 Alpha virt. eigenvalues --    0.12469   0.14292   0.14412   0.15572   0.16371
 Alpha virt. eigenvalues --    0.17759   0.18098   0.19939   0.21105   0.22320
 Alpha virt. eigenvalues --    0.25285   0.26979   0.28894   0.30668   0.34887
 Alpha virt. eigenvalues --    0.35571   0.41890   0.43245   0.45361   0.46308
 Alpha virt. eigenvalues --    0.46904   0.48965   0.50684   0.52538   0.52996
 Alpha virt. eigenvalues --    0.55016   0.56085   0.58254   0.60248   0.61302
 Alpha virt. eigenvalues --    0.62833   0.63521   0.64374   0.66567   0.68054
 Alpha virt. eigenvalues --    0.69029   0.70577   0.72030   0.72359   0.73734
 Alpha virt. eigenvalues --    0.74781   0.75580   0.77276   0.79140   0.80224
 Alpha virt. eigenvalues --    0.80670   0.83082   0.83783   0.84836   0.87206
 Alpha virt. eigenvalues --    0.90112   0.92571   0.94455   0.97168   0.98563
 Alpha virt. eigenvalues --    0.99266   1.02383   1.02806   1.03671   1.09704
 Alpha virt. eigenvalues --    1.10846   1.12367   1.16840   1.17548   1.19050
 Alpha virt. eigenvalues --    1.23170   1.24761   1.29667   1.31036   1.31679
 Alpha virt. eigenvalues --    1.33313   1.36483   1.40016   1.40731   1.41552
 Alpha virt. eigenvalues --    1.43380   1.45521   1.46932   1.49914   1.50965
 Alpha virt. eigenvalues --    1.52252   1.55880   1.56251   1.58682   1.59018
 Alpha virt. eigenvalues --    1.61527   1.63777   1.65730   1.66156   1.68148
 Alpha virt. eigenvalues --    1.71135   1.71793   1.75928   1.78017   1.81475
 Alpha virt. eigenvalues --    1.84395   1.85601   1.88828   1.92332   1.93491
 Alpha virt. eigenvalues --    1.95412   1.99045   2.01639   2.04908   2.08644
 Alpha virt. eigenvalues --    2.11044   2.15075   2.18406   2.20407   2.26125
 Alpha virt. eigenvalues --    2.28437   2.30566   2.32968   2.34600   2.35902
 Alpha virt. eigenvalues --    2.40886   2.47592   2.50337   2.52268   2.54503
 Alpha virt. eigenvalues --    2.57215   2.62170   2.67566   2.69759   2.72463
 Alpha virt. eigenvalues --    2.73312   2.76387   2.76991   2.80754   2.84081
 Alpha virt. eigenvalues --    2.85226   2.87991   2.89171   2.90931   2.92882
 Alpha virt. eigenvalues --    2.93598   2.95984   2.96602   3.01200   3.04182
 Alpha virt. eigenvalues --    3.07239   3.07957   3.09111   3.10770   3.13051
 Alpha virt. eigenvalues --    3.17079   3.17470   3.20459   3.22052   3.26105
 Alpha virt. eigenvalues --    3.28067   3.30336   3.33789   3.35740   3.38632
 Alpha virt. eigenvalues --    3.41431   3.42617   3.44484   3.45494   3.47373
 Alpha virt. eigenvalues --    3.50772   3.52193   3.57473   3.60057   3.62539
 Alpha virt. eigenvalues --    3.68609   3.69225   3.75025   3.75536   3.79526
 Alpha virt. eigenvalues --    3.83731   3.85917   3.90576   3.96023   3.96629
 Alpha virt. eigenvalues --    4.00958   4.04977   4.06747   4.09971   4.12036
 Alpha virt. eigenvalues --    4.14550   4.17132   4.19518   4.25426   4.27234
 Alpha virt. eigenvalues --    4.28604   4.31191   4.32675   4.36845   4.40014
 Alpha virt. eigenvalues --    4.40532   4.42984   4.46027   4.48973   4.51985
 Alpha virt. eigenvalues --    4.54484   4.57148   4.57996   4.60144   4.60886
 Alpha virt. eigenvalues --    4.64751   4.65901   4.66777   4.67714   4.69700
 Alpha virt. eigenvalues --    4.71486   4.72807   4.74752   4.76504   4.76651
 Alpha virt. eigenvalues --    4.78375   4.79976   4.81979   4.85638   4.87027
 Alpha virt. eigenvalues --    4.89885   4.92403   4.94130   4.96349   5.00326
 Alpha virt. eigenvalues --    5.00588   5.02305   5.06213   5.08579   5.09407
 Alpha virt. eigenvalues --    5.12680   5.14284   5.20282   5.24906   5.29625
 Alpha virt. eigenvalues --    5.36600   5.37438   5.42584   5.46723   5.47128
 Alpha virt. eigenvalues --    5.50045   5.54263   5.58479   5.59602   5.61386
 Alpha virt. eigenvalues --    5.66391   5.72785   5.79289   5.89629   5.96829
 Alpha virt. eigenvalues --    6.05739   6.09104   6.13761   6.21693   6.50859
 Alpha virt. eigenvalues --    6.63146   6.90031   7.15728   7.66259  10.91688
 Alpha virt. eigenvalues --   11.51693  11.67514  11.99451  12.43388  12.49483
 Alpha virt. eigenvalues --   13.19941  13.45628  13.56190
          Condensed to atoms (all electrons):
               1          2          3          4          5          6
     1  C    5.164212   0.368526  -0.064538   0.012139  -0.032072   0.001757
     2  C    0.368526   4.697656   0.360126  -0.127344   0.320470  -0.047762
     3  C   -0.064538   0.360126   5.079400   0.327227  -0.054147   0.002374
     4  C    0.012139  -0.127344   0.327227   5.127642   0.286471  -0.020341
     5  C   -0.032072   0.320470  -0.054147   0.286471   4.802009   0.429675
     6  O    0.001757  -0.047762   0.002374  -0.020341   0.429675   7.813259
     7  C    0.008953  -0.086966  -0.001792  -0.003890   0.323743  -0.040035
     8  O    0.000144   0.002151  -0.000134  -0.000315  -0.068599  -0.003300
     9  C   -0.050111   0.311774  -0.021441   0.020620  -0.189487   0.008841
    10  H    0.364839  -0.015926  -0.004325   0.000911  -0.004028   0.001769
    11  H    0.356874  -0.012255   0.005635  -0.000347  -0.001198   0.000630
    12  H    0.365524  -0.015116  -0.002660  -0.000273   0.002986   0.000001
    13  H   -0.008556  -0.010160   0.344139  -0.015139  -0.003021   0.000247
    14  H    0.004232  -0.010487   0.352564  -0.026387   0.003559  -0.000103
    15  H   -0.000235   0.000142  -0.012056   0.335675   0.001777  -0.001115
    16  H   -0.000387   0.005721  -0.026268   0.359679  -0.018553   0.001902
    17  H    0.000240   0.002613  -0.000601   0.008847  -0.097525   0.323143
    18  H   -0.007912  -0.011715   0.004280  -0.000693   0.005093  -0.000111
    19  H    0.004631  -0.003787  -0.014424  -0.000325  -0.000812  -0.000119
               7          8          9         10         11         12
     1  C    0.008953   0.000144  -0.050111   0.364839   0.356874   0.365524
     2  C   -0.086966   0.002151   0.311774  -0.015926  -0.012255  -0.015116
     3  C   -0.001792  -0.000134  -0.021441  -0.004325   0.005635  -0.002660
     4  C   -0.003890  -0.000315   0.020620   0.000911  -0.000347  -0.000273
     5  C    0.323743  -0.068599  -0.189487  -0.004028  -0.001198   0.002986
     6  O   -0.040035  -0.003300   0.008841   0.001769   0.000630   0.000001
     7  C    4.458768   0.781426   0.250826   0.000085   0.000705   0.000124
     8  O    0.781426   7.658296  -0.058241   0.000003  -0.000051  -0.000001
     9  C    0.250826  -0.058241   5.485543   0.004955  -0.005972  -0.003540
    10  H    0.000085   0.000003   0.004955   0.584759  -0.031072  -0.033220
    11  H    0.000705  -0.000051  -0.005972  -0.031072   0.596665  -0.032367
    12  H    0.000124  -0.000001  -0.003540  -0.033220  -0.032367   0.594189
    13  H   -0.000062   0.000004   0.004492   0.004248  -0.000084   0.000763
    14  H    0.000328   0.000002  -0.015646  -0.000207  -0.000139   0.000655
    15  H    0.002130  -0.000064  -0.001139  -0.000060   0.000020   0.000007
    16  H   -0.009382   0.000429   0.002316  -0.000017   0.000007   0.000013
    17  H    0.000931   0.015075   0.002561  -0.000122  -0.000001   0.000005
    18  H   -0.002722  -0.002074   0.332381  -0.000020   0.004087   0.000778
    19  H   -0.001925   0.001368   0.325973  -0.000151  -0.000103   0.000197
              13         14         15         16         17         18
     1  C   -0.008556   0.004232  -0.000235  -0.000387   0.000240  -0.007912
     2  C   -0.010160  -0.010487   0.000142   0.005721   0.002613  -0.011715
     3  C    0.344139   0.352564  -0.012056  -0.026268  -0.000601   0.004280
     4  C   -0.015139  -0.026387   0.335675   0.359679   0.008847  -0.000693
     5  C   -0.003021   0.003559   0.001777  -0.018553  -0.097525   0.005093
     6  O    0.000247  -0.000103  -0.001115   0.001902   0.323143  -0.000111
     7  C   -0.000062   0.000328   0.002130  -0.009382   0.000931  -0.002722
     8  O    0.000004   0.000002  -0.000064   0.000429   0.015075  -0.002074
     9  C    0.004492  -0.015646  -0.001139   0.002316   0.002561   0.332381
    10  H    0.004248  -0.000207  -0.000060  -0.000017  -0.000122  -0.000020
    11  H   -0.000084  -0.000139   0.000020   0.000007  -0.000001   0.004087
    12  H    0.000763   0.000655   0.000007   0.000013   0.000005   0.000778
    13  H    0.624996  -0.041548  -0.010769   0.004030   0.000013  -0.000167
    14  H   -0.041548   0.629768   0.003259  -0.005547   0.000013   0.000030
    15  H   -0.010769   0.003259   0.591194  -0.036443  -0.000507   0.000011
    16  H    0.004030  -0.005547  -0.036443   0.610882  -0.000136   0.000005
    17  H    0.000013   0.000013  -0.000507  -0.000136   0.451110  -0.000111
    18  H   -0.000167   0.000030   0.000011   0.000005  -0.000111   0.580035
    19  H    0.000080   0.006414   0.000047   0.000459  -0.000001  -0.032600
              19
     1  C    0.004631
     2  C   -0.003787
     3  C   -0.014424
     4  C   -0.000325
     5  C   -0.000812
     6  O   -0.000119
     7  C   -0.001925
     8  O    0.001368
     9  C    0.325973
    10  H   -0.000151
    11  H   -0.000103
    12  H    0.000197
    13  H    0.000080
    14  H    0.006414
    15  H    0.000047
    16  H    0.000459
    17  H   -0.000001
    18  H   -0.032600
    19  H    0.592032
 Mulliken charges:
               1
     1  C   -0.488259
     2  C    0.272340
     3  C   -0.273360
     4  C   -0.284157
     5  C    0.293661
     6  O   -0.470713
     7  C    0.318756
     8  O   -0.326118
     9  C   -0.404705
    10  H    0.127578
    11  H    0.118965
    12  H    0.121934
    13  H    0.106492
    14  H    0.099239
    15  H    0.128128
    16  H    0.111290
    17  H    0.294454
    18  H    0.131429
    19  H    0.123047
 Sum of Mulliken charges =   0.00000
 Mulliken charges with hydrogens summed into heavy atoms:
               1
     1  C   -0.119782
     2  C    0.272340
     3  C   -0.067629
     4  C   -0.044739
     5  C    0.293661
     6  O   -0.176259
     7  C    0.318756
     8  O   -0.326118
     9  C   -0.150229
 Electronic spatial extent (au):  <R**2>=           1042.0033
 Charge=              0.0000 electrons
 Dipole moment (field-independent basis, Debye):
    X=              2.2561    Y=             -0.5405    Z=             -0.5368  Tot=              2.3812
 Quadrupole moment (field-independent basis, Debye-Ang):
   XX=            -58.7332   YY=            -53.5338   ZZ=            -51.5184
   XY=             -1.4236   XZ=             -1.9283   YZ=             -1.6962
 Traceless Quadrupole moment (field-independent basis, Debye-Ang):
   XX=             -4.1381   YY=              1.0613   ZZ=              3.0768
   XY=             -1.4236   XZ=             -1.9283   YZ=             -1.6962
 Octapole moment (field-independent basis, Debye-Ang**2):
  XXX=              7.8476  YYY=             -0.9178  ZZZ=              2.9847  XYY=             -1.3243
  XXY=              8.8445  XXZ=              9.3848  XZZ=             -8.8600  YZZ=             -1.3219
  YYZ=             -1.3545  XYZ=              1.2972
 Hexadecapole moment (field-independent basis, Debye-Ang**3):
 XXXX=           -641.2192 YYYY=           -418.1435 ZZZZ=           -301.0116 XXXY=            -18.6231
 XXXZ=            -15.1784 YYYX=              6.0665 YYYZ=              2.7634 ZZZX=            -12.6050
 ZZZY=              7.5517 XXYY=           -171.3662 XXZZ=           -139.3772 YYZZ=           -127.8577
 XXYZ=              6.6319 YYXZ=              0.1401 ZZXY=             -1.8361
 N-N= 4.698012599385D+02 E-N=-1.926346146043D+03  KE= 4.200822919000D+02
 Calling FoFJK, ICntrl=      2127 FMM=F ISym2X=0 I1Cent= 0 IOpClX= 0 NMat=1 NMatS=1 NMatT=0.
 ***** Axes restored to original set *****
 -------------------------------------------------------------------
 Center     Atomic                   Forces (Hartrees/Bohr)
 Number     Number              X              Y              Z
 -------------------------------------------------------------------
      1        6          -0.000005498   -0.000003582   -0.000010293
      2        6           0.000017650    0.000027101    0.000029947
      3        6           0.000004048   -0.000006364   -0.000010682
      4        6          -0.000003600    0.000009121    0.000004311
      5        6           0.000013167   -0.000006095   -0.000006292
      6        8          -0.000001130    0.000002033    0.000011336
      7        6          -0.000018240   -0.000008725    0.000014096
      8        8          -0.000002166   -0.000007902   -0.000003479
      9        6          -0.000005701   -0.000035626   -0.000029646
     10        1          -0.000000182    0.000006710   -0.000003043
     11        1          -0.000002636    0.000011274   -0.000003434
     12        1          -0.000000351    0.000006043   -0.000008026
     13        1           0.000001626    0.000001789    0.000001421
     14        1           0.000000510   -0.000001770   -0.000003941
     15        1          -0.000001285   -0.000005123    0.000005224
     16        1           0.000000077   -0.000009807    0.000003115
     17        1          -0.000005137    0.000009358    0.000011281
     18        1           0.000006649    0.000004218   -0.000002416
     19        1           0.000002197    0.000007346    0.000000522
 -------------------------------------------------------------------
 Cartesian Forces:  Max     0.000035626 RMS     0.000010667

 GradGradGradGradGradGradGradGradGradGradGradGradGradGradGradGradGradGrad
 Berny optimization.
 FormGI is forming the generalized inverse of G from B-inverse, IUseBI=4.
 Internal  Forces:  Max     0.000024703 RMS     0.000003937
 Search for a local minimum.
 Step number   1 out of a maximum of  114
 All quantities printed in internal units (Hartrees-Bohrs-Radians)
 Mixed Optimization -- En-DIIS/RFO-DIIS
 Second derivative matrix not updated -- first step.
 ITU=  0
     Eigenvalues ---    0.00308   0.00633   0.00662   0.01259   0.01912
     Eigenvalues ---    0.02514   0.03055   0.03402   0.04243   0.04719
     Eigenvalues ---    0.04849   0.05008   0.05082   0.05210   0.05644
     Eigenvalues ---    0.05690   0.05859   0.06100   0.06272   0.06912
     Eigenvalues ---    0.07363   0.07511   0.08134   0.11431   0.11784
     Eigenvalues ---    0.15167   0.16000   0.16000   0.16000   0.16000
     Eigenvalues ---    0.16683   0.20605   0.24924   0.25210   0.25707
     Eigenvalues ---    0.26630   0.27734   0.29644   0.31347   0.34052
     Eigenvalues ---    0.34146   0.34269   0.34412   0.34412   0.34435
     Eigenvalues ---    0.34451   0.34497   0.34660   0.48493   0.54089
     Eigenvalues ---    1.03009
 RFO step:  Lambda=-2.22660618D-08 EMin= 3.08071819D-03
 Linear search not attempted -- first point.
 Iteration  1 RMS(Cart)=  0.00011827 RMS(Int)=  0.00000001
 Iteration  2 RMS(Cart)=  0.00000001 RMS(Int)=  0.00000000
 Variable       Old X    -DE/DX   Delta X   Delta X   Delta X     New X
                                 (Linear)    (Quad)   (Total)
    R1        2.85356  -0.00001   0.00000  -0.00002  -0.00002   2.85354
    R2        2.06878   0.00000   0.00000   0.00000   0.00000   2.06878
    R3        2.07085   0.00000   0.00000   0.00000   0.00000   2.07085
    R4        2.07243   0.00000   0.00000   0.00000   0.00000   2.07243
    R5        2.91926   0.00000   0.00000   0.00002   0.00002   2.91929
    R6        3.08554   0.00000   0.00000   0.00002   0.00002   3.08556
    R7        2.95341  -0.00002   0.00000  -0.00006  -0.00006   2.95335
    R8        2.93765   0.00000   0.00000  -0.00001  -0.00001   2.93763
    R9        2.06603   0.00000   0.00000  -0.00001  -0.00001   2.06602
   R10        2.06640   0.00000   0.00000   0.00001   0.00001   2.06641
   R11        2.93430   0.00000   0.00000   0.00001   0.00001   2.93431
   R12        2.06231   0.00000   0.00000   0.00000   0.00000   2.06231
   R13        2.06499   0.00000   0.00000   0.00000   0.00000   2.06499
   R14        2.61417   0.00000   0.00000   0.00000   0.00000   2.61417
   R15        2.85810  -0.00002   0.00000  -0.00008  -0.00008   2.85802
   R16        1.82651   0.00000   0.00000   0.00001   0.00001   1.82652
   R17        2.27457   0.00000   0.00000   0.00000   0.00000   2.27457
   R18        2.90211   0.00000   0.00000  -0.00001  -0.00001   2.90210
   R19        2.06576   0.00000   0.00000   0.00001   0.00001   2.06577
   R20        2.06640   0.00000   0.00000   0.00000   0.00000   2.06640
    A1        1.93533   0.00000   0.00000  -0.00002  -0.00002   1.93531
    A2        1.94617   0.00000   0.00000   0.00002   0.00002   1.94619
    A3        1.94057   0.00000   0.00000  -0.00001  -0.00001   1.94056
    A4        1.87946   0.00000   0.00000   0.00002   0.00002   1.87948
    A5        1.88265   0.00000   0.00000   0.00000   0.00000   1.88265
    A6        1.87683   0.00000   0.00000   0.00000   0.00000   1.87682
    A7        2.09926   0.00000   0.00000  -0.00007  -0.00007   2.09919
    A8        2.14006   0.00000   0.00000   0.00002   0.00002   2.14008
    A9        2.04257   0.00001   0.00000   0.00009   0.00009   2.04266
   A10        1.55423   0.00000   0.00000   0.00000   0.00000   1.55423
   A11        1.96107  -0.00001   0.00000  -0.00004  -0.00004   1.96103
   A12        1.54577   0.00000   0.00000   0.00001   0.00001   1.54578
   A13        1.58451   0.00000   0.00000   0.00001   0.00001   1.58452
   A14        1.96373   0.00000   0.00000  -0.00003  -0.00003   1.96369
   A15        2.01829   0.00000   0.00000   0.00000   0.00000   2.01830
   A16        1.95636   0.00000   0.00000   0.00000   0.00000   1.95636
   A17        2.03861   0.00000   0.00000   0.00003   0.00003   2.03865
   A18        1.89016   0.00000   0.00000  -0.00001  -0.00001   1.89015
   A19        1.60006   0.00000   0.00000   0.00001   0.00001   1.60007
   A20        1.98994   0.00000   0.00000   0.00000   0.00000   1.98994
   A21        2.03619   0.00000   0.00000   0.00000   0.00000   2.03619
   A22        1.91583   0.00000   0.00000   0.00000   0.00000   1.91583
   A23        2.01594   0.00000   0.00000   0.00001   0.00001   2.01595
   A24        1.89248   0.00000   0.00000  -0.00002  -0.00002   1.89246
   A25        1.52972   0.00000   0.00000   0.00000   0.00000   1.52972
   A26        2.23898   0.00000   0.00000  -0.00003  -0.00003   2.23895
   A27        1.50757   0.00000   0.00000  -0.00001  -0.00001   1.50756
   A28        2.00094   0.00001   0.00000   0.00009   0.00009   2.00104
   A29        2.05520   0.00000   0.00000  -0.00002  -0.00002   2.05518
   A30        2.04287   0.00000   0.00000  -0.00005  -0.00005   2.04282
   A31        1.87357  -0.00001   0.00000  -0.00005  -0.00005   1.87352
   A32        2.25980  -0.00001   0.00000  -0.00001  -0.00001   2.25979
   A33        1.64296   0.00000   0.00000   0.00003   0.00003   1.64299
   A34        2.32113   0.00001   0.00000   0.00004   0.00004   2.32118
   A35        1.53754   0.00000   0.00000  -0.00001  -0.00001   1.53753
   A36        2.02206   0.00000   0.00000   0.00000   0.00000   2.02206
   A37        2.01137   0.00000   0.00000   0.00006   0.00006   2.01143
   A38        1.96414   0.00000   0.00000  -0.00007  -0.00007   1.96408
   A39        2.01179   0.00000   0.00000   0.00009   0.00009   2.01189
   A40        1.89885   0.00000   0.00000  -0.00006  -0.00006   1.89879
    D1        0.91418   0.00000   0.00000   0.00019   0.00019   0.91437
    D2       -1.01510   0.00000   0.00000   0.00024   0.00024  -1.01486
    D3       -2.88341   0.00000   0.00000   0.00014   0.00014  -2.88327
    D4        3.00841   0.00000   0.00000   0.00021   0.00021   3.00862
    D5        1.07913   0.00000   0.00000   0.00026   0.00026   1.07939
    D6       -0.78918   0.00000   0.00000   0.00016   0.00016  -0.78902
    D7       -1.18034   0.00000   0.00000   0.00021   0.00021  -1.18013
    D8       -3.10962   0.00000   0.00000   0.00026   0.00026  -3.10936
    D9        1.30525   0.00000   0.00000   0.00016   0.00016   1.30542
   D10       -2.35213   0.00000   0.00000   0.00007   0.00007  -2.35205
   D11       -0.35577   0.00000   0.00000   0.00007   0.00007  -0.35570
   D12        1.82877   0.00000   0.00000   0.00003   0.00003   1.82879
   D13       -0.11949   0.00000   0.00000   0.00006   0.00006  -0.11942
   D14        1.87687   0.00000   0.00000   0.00006   0.00006   1.87693
   D15       -2.22178   0.00000   0.00000   0.00002   0.00002  -2.22176
   D16        1.41743   0.00000   0.00000   0.00007   0.00007   1.41750
   D17       -2.86940   0.00000   0.00000   0.00007   0.00007  -2.86934
   D18       -0.68487   0.00000   0.00000   0.00003   0.00003  -0.68484
   D19        2.31920   0.00000   0.00000  -0.00014  -0.00014   2.31906
   D20        0.22566  -0.00001   0.00000  -0.00025  -0.00025   0.22540
   D21       -1.90434   0.00000   0.00000  -0.00016  -0.00016  -1.90450
   D22        0.11971   0.00000   0.00000  -0.00006  -0.00006   0.11965
   D23       -1.97383  -0.00001   0.00000  -0.00018  -0.00018  -1.97401
   D24        2.17936   0.00000   0.00000  -0.00008  -0.00008   2.17927
   D25       -1.84199   0.00001   0.00000  -0.00002  -0.00002  -1.84201
   D26        2.34765   0.00000   0.00000  -0.00013  -0.00013   2.34752
   D27        0.21765   0.00000   0.00000  -0.00004  -0.00004   0.21761
   D28        1.99101   0.00000   0.00000   0.00010   0.00010   1.99111
   D29       -0.00227   0.00000   0.00000   0.00018   0.00018  -0.00209
   D30       -2.24734   0.00000   0.00000   0.00021   0.00021  -2.24713
   D31       -1.75656   0.00000   0.00000   0.00004   0.00004  -1.75652
   D32        2.53334   0.00000   0.00000   0.00012   0.00012   2.53346
   D33        0.28827   0.00000   0.00000   0.00016   0.00016   0.28842
   D34       -0.21399   0.00000   0.00000   0.00004   0.00004  -0.21394
   D35       -2.20727   0.00000   0.00000   0.00012   0.00012  -2.20715
   D36        1.83085   0.00000   0.00000   0.00016   0.00016   1.83100
   D37        0.12571   0.00000   0.00000  -0.00006  -0.00006   0.12565
   D38        2.09007   0.00000   0.00000  -0.00006  -0.00006   2.09001
   D39       -1.96492   0.00000   0.00000  -0.00008  -0.00008  -1.96500
   D40       -1.87725   0.00000   0.00000  -0.00003  -0.00003  -1.87728
   D41        0.08710   0.00000   0.00000  -0.00002  -0.00002   0.08708
   D42        2.31530   0.00000   0.00000  -0.00005  -0.00005   2.31525
   D43        2.21064   0.00000   0.00000  -0.00004  -0.00004   2.21059
   D44       -2.10819   0.00000   0.00000  -0.00004  -0.00004  -2.10823
   D45        0.12001   0.00000   0.00000  -0.00007  -0.00007   0.11994
   D46       -0.11899   0.00000   0.00000   0.00006   0.00006  -0.11893
   D47        2.17713   0.00000   0.00000   0.00006   0.00006   2.17718
   D48       -1.59657   0.00000   0.00000   0.00007   0.00007  -1.59650
   D49       -2.14892   0.00000   0.00000   0.00005   0.00005  -2.14887
   D50        0.14720   0.00000   0.00000   0.00005   0.00005   0.14725
   D51        2.65668   0.00000   0.00000   0.00007   0.00007   2.65675
   D52        1.98862   0.00000   0.00000   0.00007   0.00007   1.98869
   D53       -1.99844   0.00000   0.00000   0.00006   0.00006  -1.99838
   D54        0.51104   0.00000   0.00000   0.00008   0.00008   0.51113
   D55       -1.77142   0.00001   0.00000   0.00023   0.00023  -1.77119
   D56        2.63148   0.00000   0.00000   0.00016   0.00016   2.63164
   D57        0.11733   0.00000   0.00000   0.00013   0.00013   0.11747
   D58        2.58710   0.00000   0.00000   0.00023   0.00023   2.58733
   D59       -0.22208   0.00000   0.00000   0.00004   0.00004  -0.22204
   D60       -2.20518   0.00000   0.00000   0.00022   0.00022  -2.20496
   D61        1.26882   0.00000   0.00000   0.00004   0.00004   1.26886
   D62        0.28919   0.00001   0.00000   0.00029   0.00029   0.28948
   D63       -2.51999   0.00000   0.00000   0.00011   0.00011  -2.51989
   D64        0.23186   0.00000   0.00000  -0.00004  -0.00004   0.23182
   D65        2.27909   0.00000   0.00000  -0.00006  -0.00006   2.27903
   D66       -1.81259   0.00000   0.00000  -0.00012  -0.00012  -1.81271
   D67       -2.55819   0.00000   0.00000  -0.00022  -0.00022  -2.55840
   D68       -0.51095   0.00000   0.00000  -0.00024  -0.00024  -0.51119
   D69        1.68055   0.00000   0.00000  -0.00030  -0.00030   1.68026
         Item               Value     Threshold  Converged?
 Maximum Force            0.000025     0.000450     YES
 RMS     Force            0.000004     0.000300     YES
 Maximum Displacement     0.000550     0.001800     YES
 RMS     Displacement     0.000118     0.001200     YES
 Predicted change in Energy=-1.113317D-08
 Optimization completed.
    -- Stationary point found.
                           ----------------------------
                           !   Optimized Parameters   !
                           ! (Angstroms and Degrees)  !
 --------------------------                            --------------------------
 ! Name  Definition              Value          Derivative Info.                !
 --------------------------------------------------------------------------------
 ! R1    R(1,2)                  1.51           -DE/DX =    0.0                 !
 ! R2    R(1,10)                 1.0948         -DE/DX =    0.0                 !
 ! R3    R(1,11)                 1.0958         -DE/DX =    0.0                 !
 ! R4    R(1,12)                 1.0967         -DE/DX =    0.0                 !
 ! R5    R(2,3)                  1.5448         -DE/DX =    0.0                 !
 ! R6    R(2,5)                  1.6328         -DE/DX =    0.0                 !
 ! R7    R(2,9)                  1.5629         -DE/DX =    0.0                 !
 ! R8    R(3,4)                  1.5545         -DE/DX =    0.0                 !
 ! R9    R(3,13)                 1.0933         -DE/DX =    0.0                 !
 ! R10   R(3,14)                 1.0935         -DE/DX =    0.0                 !
 ! R11   R(4,5)                  1.5528         -DE/DX =    0.0                 !
 ! R12   R(4,15)                 1.0913         -DE/DX =    0.0                 !
 ! R13   R(4,16)                 1.0927         -DE/DX =    0.0                 !
 ! R14   R(5,6)                  1.3834         -DE/DX =    0.0                 !
 ! R15   R(5,7)                  1.5124         -DE/DX =    0.0                 !
 ! R16   R(6,17)                 0.9665         -DE/DX =    0.0                 !
 ! R17   R(7,8)                  1.2037         -DE/DX =    0.0                 !
 ! R18   R(7,9)                  1.5357         -DE/DX =    0.0                 !
 ! R19   R(9,18)                 1.0932         -DE/DX =    0.0                 !
 ! R20   R(9,19)                 1.0935         -DE/DX =    0.0                 !
 ! A1    A(2,1,10)             110.8864         -DE/DX =    0.0                 !
 ! A2    A(2,1,11)             111.5072         -DE/DX =    0.0                 !
 ! A3    A(2,1,12)             111.1864         -DE/DX =    0.0                 !
 ! A4    A(10,1,11)            107.6853         -DE/DX =    0.0                 !
 ! A5    A(10,1,12)            107.8677         -DE/DX =    0.0                 !
 ! A6    A(11,1,12)            107.5343         -DE/DX =    0.0                 !
 ! A7    A(1,2,3)              120.2785         -DE/DX =    0.0                 !
 ! A8    A(1,2,5)              122.6166         -DE/DX =    0.0                 !
 ! A9    A(1,2,9)              117.0309         -DE/DX =    0.0                 !
 ! A10   A(3,2,5)               89.0509         -DE/DX =    0.0                 !
 ! A11   A(3,2,9)              112.3609         -DE/DX =    0.0                 !
 ! A12   A(5,2,9)               88.566          -DE/DX =    0.0                 !
 ! A13   A(2,3,4)               90.7859         -DE/DX =    0.0                 !
 ! A14   A(2,3,13)             112.5134         -DE/DX =    0.0                 !
 ! A15   A(2,3,14)             115.6396         -DE/DX =    0.0                 !
 ! A16   A(4,3,13)             112.0911         -DE/DX =    0.0                 !
 ! A17   A(4,3,14)             116.804          -DE/DX =    0.0                 !
 ! A18   A(13,3,14)            108.2984         -DE/DX =    0.0                 !
 ! A19   A(3,4,5)               91.6765         -DE/DX =    0.0                 !
 ! A20   A(3,4,15)             114.0152         -DE/DX =    0.0                 !
 ! A21   A(3,4,16)             116.6651         -DE/DX =    0.0                 !
 ! A22   A(5,4,15)             109.769          -DE/DX =    0.0                 !
 ! A23   A(5,4,16)             115.5046         -DE/DX =    0.0                 !
 ! A24   A(15,4,16)            108.431          -DE/DX =    0.0                 !
 ! A25   A(2,5,4)               87.6466         -DE/DX =    0.0                 !
 ! A26   A(2,5,6)              128.2843         -DE/DX =    0.0                 !
 ! A27   A(2,5,7)               86.3775         -DE/DX =    0.0                 !
 ! A28   A(4,5,6)              114.6456         -DE/DX =    0.0                 !
 ! A29   A(4,5,7)              117.7542         -DE/DX =    0.0                 !
 ! A30   A(6,5,7)              117.048          -DE/DX =    0.0                 !
 ! A31   A(5,6,17)             107.3475         -DE/DX =    0.0                 !
 ! A32   A(5,7,8)              129.4769         -DE/DX =    0.0                 !
 ! A33   A(5,7,9)               94.1349         -DE/DX =    0.0                 !
 ! A34   A(8,7,9)              132.9912         -DE/DX =    0.0                 !
 ! A35   A(2,9,7)               88.0945         -DE/DX =    0.0                 !
 ! A36   A(2,9,18)             115.8556         -DE/DX =    0.0                 !
 ! A37   A(2,9,19)             115.2432         -DE/DX =    0.0                 !
 ! A38   A(7,9,18)             112.5371         -DE/DX =    0.0                 !
 ! A39   A(7,9,19)             115.2674         -DE/DX =    0.0                 !
 ! A40   A(18,9,19)            108.7958         -DE/DX =    0.0                 !
 ! D1    D(10,1,2,3)            52.3786         -DE/DX =    0.0                 !
 ! D2    D(10,1,2,5)           -58.1609         -DE/DX =    0.0                 !
 ! D3    D(10,1,2,9)          -165.2072         -DE/DX =    0.0                 !
 ! D4    D(11,1,2,3)           172.369          -DE/DX =    0.0                 !
 ! D5    D(11,1,2,5)            61.8295         -DE/DX =    0.0                 !
 ! D6    D(11,1,2,9)           -45.2168         -DE/DX =    0.0                 !
 ! D7    D(12,1,2,3)           -67.6287         -DE/DX =    0.0                 !
 ! D8    D(12,1,2,5)          -178.1682         -DE/DX =    0.0                 !
 ! D9    D(12,1,2,9)            74.7855         -DE/DX =    0.0                 !
 ! D10   D(1,2,3,4)           -134.7669         -DE/DX =    0.0                 !
 ! D11   D(1,2,3,13)           -20.3841         -DE/DX =    0.0                 !
 ! D12   D(1,2,3,14)           104.7806         -DE/DX =    0.0                 !
 ! D13   D(5,2,3,4)             -6.846          -DE/DX =    0.0                 !
 ! D14   D(5,2,3,13)           107.5368         -DE/DX =    0.0                 !
 ! D15   D(5,2,3,14)          -127.2985         -DE/DX =    0.0                 !
 ! D16   D(9,2,3,4)             81.2125         -DE/DX =    0.0                 !
 ! D17   D(9,2,3,13)          -164.4047         -DE/DX =    0.0                 !
 ! D18   D(9,2,3,14)           -39.2399         -DE/DX =    0.0                 !
 ! D19   D(1,2,5,4)            132.8803         -DE/DX =    0.0                 !
 ! D20   D(1,2,5,6)             12.9292         -DE/DX =    0.0                 !
 ! D21   D(1,2,5,7)           -109.1108         -DE/DX =    0.0                 !
 ! D22   D(3,2,5,4)              6.859          -DE/DX =    0.0                 !
 ! D23   D(3,2,5,6)           -113.0921         -DE/DX =    0.0                 !
 ! D24   D(3,2,5,7)            124.8679         -DE/DX =    0.0                 !
 ! D25   D(9,2,5,4)           -105.5382         -DE/DX =    0.0                 !
 ! D26   D(9,2,5,6)            134.5107         -DE/DX =    0.0                 !
 ! D27   D(9,2,5,7)             12.4707         -DE/DX =    0.0                 !
 ! D28   D(1,2,9,7)            114.0766         -DE/DX =    0.0                 !
 ! D29   D(1,2,9,18)            -0.1302         -DE/DX =    0.0                 !
 ! D30   D(1,2,9,19)          -128.7631         -DE/DX =    0.0                 !
 ! D31   D(3,2,9,7)           -100.6438         -DE/DX =    0.0                 !
 ! D32   D(3,2,9,18)           145.1495         -DE/DX =    0.0                 !
 ! D33   D(3,2,9,19)            16.5166         -DE/DX =    0.0                 !
 ! D34   D(5,2,9,7)            -12.2605         -DE/DX =    0.0                 !
 ! D35   D(5,2,9,18)          -126.4673         -DE/DX =    0.0                 !
 ! D36   D(5,2,9,19)           104.8998         -DE/DX =    0.0                 !
 ! D37   D(2,3,4,5)              7.2028         -DE/DX =    0.0                 !
 ! D38   D(2,3,4,15)           119.7522         -DE/DX =    0.0                 !
 ! D39   D(2,3,4,16)          -112.5813         -DE/DX =    0.0                 !
 ! D40   D(13,3,4,5)          -107.5588         -DE/DX =    0.0                 !
 ! D41   D(13,3,4,15)            4.9907         -DE/DX =    0.0                 !
 ! D42   D(13,3,4,16)          132.6571         -DE/DX =    0.0                 !
 ! D43   D(14,3,4,5)           126.6601         -DE/DX =    0.0                 !
 ! D44   D(14,3,4,15)         -120.7904         -DE/DX =    0.0                 !
 ! D45   D(14,3,4,16)            6.876          -DE/DX =    0.0                 !
 ! D46   D(3,4,5,2)             -6.8179         -DE/DX =    0.0                 !
 ! D47   D(3,4,5,6)            124.7402         -DE/DX =    0.0                 !
 ! D48   D(3,4,5,7)            -91.4768         -DE/DX =    0.0                 !
 ! D49   D(15,4,5,2)          -123.1243         -DE/DX =    0.0                 !
 ! D50   D(15,4,5,6)             8.4338         -DE/DX =    0.0                 !
 ! D51   D(15,4,5,7)           152.2168         -DE/DX =    0.0                 !
 ! D52   D(16,4,5,2)           113.9396         -DE/DX =    0.0                 !
 ! D53   D(16,4,5,6)          -114.5023         -DE/DX =    0.0                 !
 ! D54   D(16,4,5,7)            29.2807         -DE/DX =    0.0                 !
 ! D55   D(2,5,6,17)          -101.4948         -DE/DX =    0.0                 !
 ! D56   D(4,5,6,17)           150.7725         -DE/DX =    0.0                 !
 ! D57   D(7,5,6,17)             6.7228         -DE/DX =    0.0                 !
 ! D58   D(2,5,7,8)            148.2299         -DE/DX =    0.0                 !
 ! D59   D(2,5,7,9)            -12.7244         -DE/DX =    0.0                 !
 ! D60   D(4,5,7,8)           -126.3477         -DE/DX =    0.0                 !
 ! D61   D(4,5,7,9)             72.698          -DE/DX =    0.0                 !
 ! D62   D(6,5,7,8)             16.5692         -DE/DX =    0.0                 !
 ! D63   D(6,5,7,9)           -144.3851         -DE/DX =    0.0                 !
 ! D64   D(5,7,9,2)             13.2843         -DE/DX =    0.0                 !
 ! D65   D(5,7,9,18)           130.5823         -DE/DX =    0.0                 !
 ! D66   D(5,7,9,19)          -103.8538         -DE/DX =    0.0                 !
 ! D67   D(8,7,9,2)           -146.5732         -DE/DX =    0.0                 !
 ! D68   D(8,7,9,18)           -29.2752         -DE/DX =    0.0                 !
 ! D69   D(8,7,9,19)            96.2887         -DE/DX =    0.0                 !
 --------------------------------------------------------------------------------
 GradGradGradGradGradGradGradGradGradGradGradGradGradGradGradGradGradGrad

                          Input orientation:                          
 ---------------------------------------------------------------------
 Center     Atomic      Atomic             Coordinates (Angstroms)
 Number     Number       Type             X           Y           Z
 ---------------------------------------------------------------------
      1          6           0       -3.169175   -0.007212    1.161781
      2          6           0       -2.215018   -0.175768    0.003596
      3          6           0       -2.722078   -0.719517   -1.350530
      4          6           0       -1.498407   -1.673081   -1.450163
      5          6           0       -1.040796   -1.310232   -0.011408
      6          8           0       -0.884739   -2.393464    0.834723
      7          6           0       -0.065612   -0.165467    0.149843
      8          8           0        0.996312   -0.138790    0.715869
      9          6           0       -1.109153    0.914860   -0.170137
     10          1           0       -3.721979   -0.933208    1.349992
     11          1           0       -2.639171    0.257346    2.083724
     12          1           0       -3.899593    0.785906    0.961363
     13          1           0       -3.663510   -1.267234   -1.255639
     14          1           0       -2.835154    0.022346   -2.145875
     15          1           0       -1.762389   -2.730928   -1.497784
     16          1           0       -0.775008   -1.461564   -2.241397
     17          1           0       -0.202399   -2.160417    1.478397
     18          1           0       -1.115885    1.722236    0.566803
     19          1           0       -1.037607    1.351262   -1.170215
 ---------------------------------------------------------------------
                    Distance matrix (angstroms):
                    1          2          3          4          5
     1  C    0.000000
     2  C    1.510039   0.000000
     3  C    2.649336   1.544808   0.000000
     4  C    3.519777   2.206557   1.554536   0.000000
     5  C    2.757577   1.632799   2.229103   1.552766   0.000000
     6  O    3.319611   2.716356   3.309568   2.473104   1.383359
     7  C    3.268206   2.154401   3.100791   2.624084   1.512439
     8  O    4.191352   3.289580   4.293445   3.642714   2.459881
     9  C    2.620671   1.562879   2.581868   2.913318   2.231793
    10  H    1.094753   2.158107   2.887608   3.651376   3.030561
    11  H    1.095844   2.166663   3.571447   4.185242   3.066217
    12  H    1.096683   2.163314   2.999615   4.198543   3.675976
    13  H    2.770549   2.207964   1.093294   2.211385   2.903203
    14  H    3.324610   2.245895   1.093491   2.268343   3.090540
    15  H    4.058443   2.997975   2.233486   1.091327   2.179079
    16  H    4.407810   2.960894   2.266133   1.092748   2.250865
    17  H    3.679443   3.188182   4.053123   3.239382   1.909252
    18  H    2.749725   2.264445   3.495451   3.967701   3.088014
    19  H    3.439076   2.257421   2.675460   3.072028   2.902825
                    6          7          8          9         10
     6  O    0.000000
     7  C    2.470627   0.000000
     8  O    2.938713   1.203652   0.000000
     9  C    3.464839   1.535732   2.515584   0.000000
    10  H    3.232303   3.924131   4.826539   3.543022   0.000000
    11  H    3.415382   3.246826   3.904445   2.802351   1.768687
    12  H    4.383352   4.032752   4.988508   3.013881   1.771421
    13  H    3.655076   4.016733   5.184030   3.530523   2.627604
    14  H    4.303978   3.602216   4.784942   2.771137   3.731036
    15  H    2.514903   3.489314   4.385187   3.934607   3.896359
    16  H    3.216052   2.810896   3.692252   3.170040   4.675668
    17  H    0.966548   2.400748   2.470897   3.605162   3.729607
    18  H    4.130883   2.200081   2.819045   1.093153   3.802169
    19  H    4.250426   2.233337   3.148712   1.093490   4.333140
                   11         12         13         14         15
    11  H    0.000000
    12  H    1.768540   0.000000
    13  H    3.811163   3.030877   0.000000
    14  H    4.240654   3.372089   1.772487   0.000000
    15  H    4.746128   4.794075   2.411492   3.025122   0.000000
    16  H    5.013624   5.007177   3.058255   2.540731   1.771770
    17  H    3.485665   4.755774   4.500225   4.983092   3.408329
    18  H    2.601414   2.963346   4.329968   3.633749   4.950874
    19  H    3.788111   3.613062   3.709338   2.439079   4.158952
                   16         17         18         19
    16  H    0.000000
    17  H    3.827943   0.000000
    18  H    4.258963   4.091510   0.000000
    19  H    3.021320   4.477121   1.777915   0.000000
 Stoichiometry    C7H10O2
 Framework group  C1[X(C7H10O2)]
 Deg. of freedom    51
 Full point group                 C1      NOp   1
 Largest Abelian subgroup         C1      NOp   1
 Largest concise Abelian subgroup C1      NOp   1
                         Standard orientation:                         
 ---------------------------------------------------------------------
 Center     Atomic      Atomic             Coordinates (Angstroms)
 Number     Number       Type             X           Y           Z
 ---------------------------------------------------------------------
      1          6           0        1.459917   -1.212141    1.202743
      2          6           0        0.851865   -0.490047    0.024154
      3          6           0        1.687987    0.529858   -0.780285
      4          6           0        0.502919    1.535933   -0.777429
      5          6           0       -0.315507    0.639341    0.190757
      6          8           0       -0.736740    1.272595    1.346281
      7          6           0       -1.254089   -0.379387   -0.416473
      8          8           0       -2.428293   -0.552806   -0.216598
      9          6           0       -0.123100   -1.307348   -0.883619
     10          1           0        1.905384   -0.502760    1.907599
     11          1           0        0.709041   -1.795570    1.747418
     12          1           0        2.246511   -1.904954    0.880265
     13          1           0        2.546705    0.904438   -0.216738
     14          1           0        2.041257    0.186840   -1.756636
     15          1           0        0.730030    2.488353   -0.295444
     16          1           0        0.030977    1.740500   -1.741545
     17          1           0       -1.559425    0.848045    1.624059
     18          1           0       -0.287177   -2.347852   -0.591361
     19          1           0        0.097008   -1.272606   -1.954164
 ---------------------------------------------------------------------
 Rotational constants (GHZ):      2.2023519      1.6246888      1.4310794
 1\1\GINC-ALCHEMY-BE\FOpt\RB3LYP\6-31G(2df,p)\C7H10O2\PUCK\27-Jan-2020\
 0\\# b3lyp 6-31G(2df,p) opt Freq\\titel\\0,1\C,-3.1691750352,-0.007212
 1531,1.1617808976\C,-2.2150179173,-0.175767718,0.0035963198\C,-2.72207
 79462,-0.7195171263,-1.3505297903\C,-1.4984071741,-1.6730808932,-1.450
 1626666\C,-1.0407956153,-1.3102321051,-0.0114084927\O,-0.884738551,-2.
 393463921,0.8347228177\C,-0.0656115703,-0.1654673062,0.1498425341\O,0.
 9963115455,-0.1387895877,0.7158686436\C,-1.1091528142,0.9148597707,-0.
 1701373026\H,-3.7219786181,-0.9332081097,1.3499918451\H,-2.6391713475,
 0.2573461374,2.0837243995\H,-3.8995928234,0.7859059018,0.9613628809\H,
 -3.6635101319,-1.2672342329,-1.2556392303\H,-2.8351539412,0.0223462783
 ,-2.1458751854\H,-1.7623893872,-2.7309276378,-1.4977836977\H,-0.775008
 0614,-1.4615636218,-2.241396752\H,-0.2023989135,-2.16041703,1.47839734
 48\H,-1.1158853645,1.7222361814,0.5668033955\H,-1.0376065834,1.3512620
 531,-1.1702150111\\Version=ES64L-G09RevD.01\State=1-A\HF=-423.1839875\
 RMSD=3.902e-09\RMSF=1.067e-05\Dipole=-0.81606,0.3158144,-0.334594\Quad
 rupole=-3.1750891,0.2005502,2.9745389,-1.443571,-0.8997605,-0.2190978\
 PG=C01 [X(C7H10O2)]\\@


 The impersonal hand of government can
 never replace the helping hand of a neighbor.
                        -- Hubert H. Humphrey
 Job cpu time:       0 days  0 hours  7 minutes  3.6 seconds.
 File lengths (MBytes):  RWF=     52 Int=      0 D2E=      0 Chk=      7 Scr=      1
 Normal termination of Gaussian 09 at Mon Jan 27 18:33:00 2020.
 Link1:  Proceeding to internal job step number  2.
 ----------------------------------------------------------------------
 #N Geom=AllCheck Guess=TCheck SCRF=Check GenChk RB3LYP/6-31G(2df,p) Fr
 eq
 ----------------------------------------------------------------------
 1/10=4,29=7,30=1,38=1,40=1/1,3;
 2/12=2,40=1/2;
 3/5=1,6=6,7=104,11=2,14=-4,16=1,25=1,30=1,70=2,71=2,74=-5,116=1,140=1/1,2,3;
 4/5=101/1;
 5/5=2,98=1/2;
 8/6=4,10=90,11=11/1;
 11/6=1,8=1,9=11,15=111,16=1/1,2,10;
 10/6=1/2;
 6/7=2,8=2,9=2,10=2,18=1,28=1/1;
 7/8=1,10=1,25=1/1,2,3,16;
 1/10=4,30=1/3;
 99//99;
 Structure from the checkpoint file:  "/scratch/puck/g09_e4eb5b25-2976-4fe1-a48c-1c7928292336/Gau-171749.chk"
 -----
 titel
 -----
 Charge =  0 Multiplicity = 1
 Redundant internal coordinates found in file.
 C,0,-3.1691750352,-0.0072121531,1.1617808976
 C,0,-2.2150179173,-0.175767718,0.0035963198
 C,0,-2.7220779462,-0.7195171263,-1.3505297903
 C,0,-1.4984071741,-1.6730808932,-1.4501626666
 C,0,-1.0407956153,-1.3102321051,-0.0114084927
 O,0,-0.884738551,-2.393463921,0.8347228177
 C,0,-0.0656115703,-0.1654673062,0.1498425341
 O,0,0.9963115455,-0.1387895877,0.7158686436
 C,0,-1.1091528142,0.9148597707,-0.1701373026
 H,0,-3.7219786181,-0.9332081097,1.3499918451
 H,0,-2.6391713475,0.2573461374,2.0837243995
 H,0,-3.8995928234,0.7859059018,0.9613628809
 H,0,-3.6635101319,-1.2672342329,-1.2556392303
 H,0,-2.8351539412,0.0223462783,-2.1458751854
 H,0,-1.7623893872,-2.7309276378,-1.4977836977
 H,0,-0.7750080614,-1.4615636218,-2.241396752
 H,0,-0.2023989135,-2.16041703,1.4783973448
 H,0,-1.1158853645,1.7222361814,0.5668033955
 H,0,-1.0376065834,1.3512620531,-1.1702150111
 Recover connectivity data from disk.

 GradGradGradGradGradGradGradGradGradGradGradGradGradGradGradGradGradGrad
 Berny optimization.
 Initialization pass.
                           ----------------------------
                           !    Initial Parameters    !
                           ! (Angstroms and Degrees)  !
 --------------------------                            --------------------------
 ! Name  Definition              Value          Derivative Info.                !
 --------------------------------------------------------------------------------
 ! R1    R(1,2)                  1.51           calculate D2E/DX2 analytically  !
 ! R2    R(1,10)                 1.0948         calculate D2E/DX2 analytically  !
 ! R3    R(1,11)                 1.0958         calculate D2E/DX2 analytically  !
 ! R4    R(1,12)                 1.0967         calculate D2E/DX2 analytically  !
 ! R5    R(2,3)                  1.5448         calculate D2E/DX2 analytically  !
 ! R6    R(2,5)                  1.6328         calculate D2E/DX2 analytically  !
 ! R7    R(2,9)                  1.5629         calculate D2E/DX2 analytically  !
 ! R8    R(3,4)                  1.5545         calculate D2E/DX2 analytically  !
 ! R9    R(3,13)                 1.0933         calculate D2E/DX2 analytically  !
 ! R10   R(3,14)                 1.0935         calculate D2E/DX2 analytically  !
 ! R11   R(4,5)                  1.5528         calculate D2E/DX2 analytically  !
 ! R12   R(4,15)                 1.0913         calculate D2E/DX2 analytically  !
 ! R13   R(4,16)                 1.0927         calculate D2E/DX2 analytically  !
 ! R14   R(5,6)                  1.3834         calculate D2E/DX2 analytically  !
 ! R15   R(5,7)                  1.5124         calculate D2E/DX2 analytically  !
 ! R16   R(6,17)                 0.9665         calculate D2E/DX2 analytically  !
 ! R17   R(7,8)                  1.2037         calculate D2E/DX2 analytically  !
 ! R18   R(7,9)                  1.5357         calculate D2E/DX2 analytically  !
 ! R19   R(9,18)                 1.0932         calculate D2E/DX2 analytically  !
 ! R20   R(9,19)                 1.0935         calculate D2E/DX2 analytically  !
 ! A1    A(2,1,10)             110.8864         calculate D2E/DX2 analytically  !
 ! A2    A(2,1,11)             111.5072         calculate D2E/DX2 analytically  !
 ! A3    A(2,1,12)             111.1864         calculate D2E/DX2 analytically  !
 ! A4    A(10,1,11)            107.6853         calculate D2E/DX2 analytically  !
 ! A5    A(10,1,12)            107.8677         calculate D2E/DX2 analytically  !
 ! A6    A(11,1,12)            107.5343         calculate D2E/DX2 analytically  !
 ! A7    A(1,2,3)              120.2785         calculate D2E/DX2 analytically  !
 ! A8    A(1,2,5)              122.6166         calculate D2E/DX2 analytically  !
 ! A9    A(1,2,9)              117.0309         calculate D2E/DX2 analytically  !
 ! A10   A(3,2,5)               89.0509         calculate D2E/DX2 analytically  !
 ! A11   A(3,2,9)              112.3609         calculate D2E/DX2 analytically  !
 ! A12   A(5,2,9)               88.566          calculate D2E/DX2 analytically  !
 ! A13   A(2,3,4)               90.7859         calculate D2E/DX2 analytically  !
 ! A14   A(2,3,13)             112.5134         calculate D2E/DX2 analytically  !
 ! A15   A(2,3,14)             115.6396         calculate D2E/DX2 analytically  !
 ! A16   A(4,3,13)             112.0911         calculate D2E/DX2 analytically  !
 ! A17   A(4,3,14)             116.804          calculate D2E/DX2 analytically  !
 ! A18   A(13,3,14)            108.2984         calculate D2E/DX2 analytically  !
 ! A19   A(3,4,5)               91.6765         calculate D2E/DX2 analytically  !
 ! A20   A(3,4,15)             114.0152         calculate D2E/DX2 analytically  !
 ! A21   A(3,4,16)             116.6651         calculate D2E/DX2 analytically  !
 ! A22   A(5,4,15)             109.769          calculate D2E/DX2 analytically  !
 ! A23   A(5,4,16)             115.5046         calculate D2E/DX2 analytically  !
 ! A24   A(15,4,16)            108.431          calculate D2E/DX2 analytically  !
 ! A25   A(2,5,4)               87.6466         calculate D2E/DX2 analytically  !
 ! A26   A(2,5,6)              128.2843         calculate D2E/DX2 analytically  !
 ! A27   A(2,5,7)               86.3775         calculate D2E/DX2 analytically  !
 ! A28   A(4,5,6)              114.6456         calculate D2E/DX2 analytically  !
 ! A29   A(4,5,7)              117.7542         calculate D2E/DX2 analytically  !
 ! A30   A(6,5,7)              117.048          calculate D2E/DX2 analytically  !
 ! A31   A(5,6,17)             107.3475         calculate D2E/DX2 analytically  !
 ! A32   A(5,7,8)              129.4769         calculate D2E/DX2 analytically  !
 ! A33   A(5,7,9)               94.1349         calculate D2E/DX2 analytically  !
 ! A34   A(8,7,9)              132.9912         calculate D2E/DX2 analytically  !
 ! A35   A(2,9,7)               88.0945         calculate D2E/DX2 analytically  !
 ! A36   A(2,9,18)             115.8556         calculate D2E/DX2 analytically  !
 ! A37   A(2,9,19)             115.2432         calculate D2E/DX2 analytically  !
 ! A38   A(7,9,18)             112.5371         calculate D2E/DX2 analytically  !
 ! A39   A(7,9,19)             115.2674         calculate D2E/DX2 analytically  !
 ! A40   A(18,9,19)            108.7958         calculate D2E/DX2 analytically  !
 ! D1    D(10,1,2,3)            52.3786         calculate D2E/DX2 analytically  !
 ! D2    D(10,1,2,5)           -58.1609         calculate D2E/DX2 analytically  !
 ! D3    D(10,1,2,9)          -165.2072         calculate D2E/DX2 analytically  !
 ! D4    D(11,1,2,3)           172.369          calculate D2E/DX2 analytically  !
 ! D5    D(11,1,2,5)            61.8295         calculate D2E/DX2 analytically  !
 ! D6    D(11,1,2,9)           -45.2168         calculate D2E/DX2 analytically  !
 ! D7    D(12,1,2,3)           -67.6287         calculate D2E/DX2 analytically  !
 ! D8    D(12,1,2,5)          -178.1682         calculate D2E/DX2 analytically  !
 ! D9    D(12,1,2,9)            74.7855         calculate D2E/DX2 analytically  !
[...]
 782360,0.02638975,0.01322634,-0.13303496,0.04499168,0.01854112,0.45068
 870,-0.00106406,-0.00182530,-0.00200952,0.02656155,-0.02446779,-0.0249
 6048,0.04688430,-0.11174587,0.00107918,0.04894295,0.57052592,-0.001115
 44,-0.00254344,-0.00208138,0.01528653,-0.04017316,-0.03945357,0.008693
 44,0.01313540,-0.05115207,-0.10848379,0.00839067,0.47726357,-0.0136824
 8,0.01319422,-0.00073717,-0.06846318,-0.00094362,0.00999048,-0.0335008
 9,0.02279703,-0.03898980,-0.05852744,-0.03071559,-0.01472228,0.3731126
 3,-0.00160258,0.00431223,-0.00744428,0.00962379,-0.04333001,0.01698510
 ,0.02587558,-0.00519202,0.01277272,-0.02524496,-0.08024237,-0.01460462
 ,0.04327403,0.53485866,0.01325065,-0.01791076,0.00441985,0.02697482,-0
 .00298425,-0.04332249,-0.02438332,0.00815169,-0.02926267,-0.03163793,-
 0.03523657,-0.13628987,0.08747754,-0.08269144,0.44870398,0.00280172,-0
 .00237289,0.00024211,0.00978666,0.00677776,-0.01429038,-0.00221664,0.0
 0120268,-0.00227943,-0.00043390,0.01014870,-0.01260364,-0.08421028,0.0
 2429648,-0.03505892,0.31726652,-0.00136159,0.00038279,0.00154571,-0.00
 403534,-0.01208361,0.00747361,-0.00153343,-0.00113567,-0.00142168,0.00
 126763,0.00650267,0.00395379,-0.01197481,-0.19843261,0.08078502,0.0873
 1760,0.31093431,-0.00066552,0.00209071,-0.00137008,-0.00925427,0.01060
 780,0.00085243,-0.00188568,0.00163203,-0.00049921,-0.00351842,0.028897
 91,-0.02074024,-0.00960973,0.10419384,-0.14443567,0.27134741,-0.063535
 93,0.38415507,-0.00155017,-0.00143235,-0.00055838,-0.09740111,0.004847
 30,-0.00410060,-0.00191317,0.00176449,-0.00079762,-0.00270149,0.004883
 43,-0.00550931,-0.07945316,-0.04869395,0.00509319,0.00524475,0.0112781
 5,-0.00589739,0.86509883,0.00190547,-0.00885313,0.00242036,-0.00020288
 ,0.01593074,-0.00730966,-0.00409313,-0.00179906,-0.00000017,-0.0068109
 7,0.00571462,-0.00892970,-0.05390990,-0.14006396,0.02399510,-0.0119888
 5,-0.03349305,0.00739942,0.02250932,0.41899798,0.00278903,-0.00117807,
 0.00314478,0.00843317,0.01062632,0.00540393,0.00149364,-0.00067044,-0.
 00053315,-0.02046359,-0.01975502,0.00131343,-0.00297316,-0.02785337,-0
 .08284536,0.01283268,0.03193623,-0.01223373,0.30986031,-0.01223876,0.3
 8896058,-0.00073615,0.00034307,-0.00132044,0.00351536,-0.00009840,0.00
 136703,0.00087484,-0.00043129,0.00013017,-0.00118049,-0.00421344,0.005
 12928,-0.03582385,-0.01538933,-0.03203226,0.00255695,-0.00003861,0.002
 46584,-0.62474595,-0.01925715,-0.29755655,0.68650950,-0.00052442,0.002
 75705,-0.00071779,-0.00063745,-0.00266814,0.00215243,0.00133707,0.0012
 8756,-0.00043488,-0.00152027,-0.00264599,0.00157394,-0.02088838,0.0087
 0430,-0.01515689,-0.00220068,0.00664112,-0.00447182,-0.01719017,-0.108
 01191,-0.00614842,0.02152133,0.07318449,-0.00199122,0.00063356,-0.0026
 9469,-0.00596704,-0.00682183,0.00182068,-0.00067157,0.00058134,0.00018
 085,0.00240396,0.00220705,-0.00020339,-0.02782358,0.01050803,0.0057715
 0,0.00311432,-0.00617280,0.00748882,-0.29356205,-0.00549039,-0.2186580
 9,0.34371942,0.01039193,0.19916472,-0.01352161,-0.01769516,0.00443404,
 -0.09650937,-0.03442588,0.00922548,-0.01094283,-0.01384672,-0.00267543
 ,-0.00124009,-0.00052520,-0.00123201,0.00626805,-0.00532301,0.00336716
 ,-0.00082246,-0.00133990,-0.00238843,-0.08096089,0.05575897,-0.0136085
 2,-0.02491190,0.01650050,-0.01556721,0.31108571,0.00071001,0.00389199,
 0.00145328,-0.04483296,-0.10159355,-0.00392356,-0.00901331,-0.00885369
 ,0.00015524,-0.00032057,0.00033700,-0.00109125,0.01066426,-0.06993763,
 0.01610175,-0.00305763,-0.00812465,-0.00088114,0.02321947,-0.12379389,
 0.01679021,0.01789100,0.01496041,-0.00172508,0.00460326,0.55801713,0.0
 1310886,0.02061871,-0.00384630,0.00693458,0.00579586,-0.08141579,-0.01
 749360,-0.01960757,0.00273357,0.00155822,0.00493408,0.00016583,0.01452
 678,0.01455458,0.03208454,-0.00540239,-0.00309700,0.00056186,-0.006160
 16,-0.01291913,-0.08602100,-0.02150608,0.01562506,0.00776200,-0.003005
 72,0.01717418,0.57084290,-0.11020481,-0.11056732,0.02059762,-0.0132396
 0,-0.01801146,0.00385812,0.00037856,0.00020110,-0.00088842,-0.00001046
 ,0.00000744,-0.00021040,0.00084642,-0.00132577,0.00018113,0.00071625,0
 .00092827,-0.00091323,0.00038764,-0.00158516,0.00028185,-0.00028892,0.
 00060571,-0.00033520,-0.00115747,0.00101788,0.00399215,0.11964594,-0.1
 1200854,-0.23739365,0.03597188,0.00191372,0.00447071,-0.00069151,-0.00
 000443,0.00037260,-0.00007843,-0.00018445,0.00017555,0.00003612,0.0002
 7573,-0.00009248,0.00051603,-0.00033468,0.00044963,-0.00046876,0.00012
 325,-0.00005699,0.00017676,-0.00014657,0.00007093,-0.00006373,0.001047
 64,0.00099608,-0.00107034,0.12296535,0.25588957,0.02014549,0.03519996,
 -0.05395089,0.01396462,0.02226541,-0.00555108,0.00063485,0.00109157,0.
 00136579,0.00007408,0.00006962,0.00024892,-0.00081442,0.00005676,0.000
 80896,0.00025192,-0.00064422,0.00006392,-0.00009380,0.00139511,-0.0005
 6798,0.00037360,-0.00050643,0.00044690,0.00225473,-0.00187254,-0.00324
 251,-0.02659103,-0.03919645,0.05729789,-0.11117357,-0.03174474,-0.1074
 2828,0.01172750,0.00493731,0.01987343,-0.00254220,-0.00037218,0.002779
 16,0.00039783,0.00022744,0.00024962,0.00070011,0.00038401,-0.00087129,
 -0.00029657,0.00005314,-0.00007552,0.00036305,0.00003460,-0.00008156,-
 0.00000936,-0.00002914,0.00003202,0.00105103,0.00028503,0.00009967,-0.
 00827401,-0.00238261,-0.01297749,0.11877060,-0.03146106,-0.06118450,-0
 .05198752,-0.00172151,-0.00290342,-0.00352361,0.00012653,0.00110297,-0
 .00071057,-0.00008736,0.00017332,-0.00004799,-0.00070276,0.00070700,-0
 .00023455,-0.00006916,-0.00014250,0.00076702,-0.00009943,0.00032333,-0
 .00012600,0.00015423,-0.00017779,0.00013458,0.00040152,0.00039548,0.00
 066279,-0.01343029,-0.00608410,-0.02361349,0.03427486,0.06208586,-0.10
 646628,-0.05183965,-0.22674074,-0.01317341,-0.00588814,-0.02343183,0.0
 0409933,0.00077140,-0.00070747,-0.00042511,-0.00037736,-0.00063571,-0.
 00013046,0.00031011,-0.00005874,0.00039096,-0.00045021,0.00079871,-0.0
 0003900,-0.00079452,-0.00053940,0.00033153,0.00024306,0.00044485,-0.00
 110181,-0.00076857,0.00092326,0.00284681,0.00121732,0.00506083,0.11544
 898,0.05846035,0.24986877,-0.15803661,0.12351709,-0.03440133,-0.017837
 78,0.01664901,-0.00335302,0.00077676,-0.00014057,0.00042825,-0.0003677
 8,-0.00003756,0.00046829,0.00062515,-0.00369340,0.00289692,0.00017857,
 0.00044843,-0.00093419,0.00033263,0.00200899,0.00063141,-0.00029235,-0
 .00069443,-0.00061861,0.00127211,-0.00038329,-0.00033644,0.01155098,-0
 .01202071,0.00317303,-0.01081011,0.01167305,-0.00290450,0.17228286,0.1
 2266653,-0.18208780,0.03744788,0.00267455,-0.00280375,-0.00060833,-0.0
 0002006,0.00023746,-0.00013007,-0.00022007,-0.00011202,-0.00007077,-0.
 00094037,0.00167807,0.00034290,-0.00003439,0.00009880,-0.00032332,0.00
 022590,-0.00014637,-0.00023926,0.00013400,0.00007125,0.00023320,0.0000
 4185,0.00077359,-0.00064351,0.01884323,-0.01944103,0.00572729,-0.00636
 261,0.00596813,-0.00136716,-0.13724781,0.19577199,-0.03319235,0.036190
 70,-0.05532886,0.02044662,-0.02118982,0.00489646,-0.00136264,0.0002561
 3,0.00102736,0.00053684,0.00003444,0.00039644,0.00262953,0.00305570,-0
 .00388028,-0.00052984,-0.00078315,0.00129884,-0.00050515,-0.00244060,-
 0.00134173,0.00059833,0.00071627,0.00093830,-0.00112785,0.00035404,0.0
 0072945,-0.00339429,0.00279203,-0.00190767,-0.01725845,0.02049416,-0.0
 0510499,0.03386737,-0.03985102,0.05898717,0.00076583,-0.00005933,0.001
 10825,-0.00487176,-0.00393024,0.00067808,-0.23959669,-0.11700934,0.020
 52911,-0.01901551,-0.00986085,0.00310830,-0.00109481,0.00124563,0.0009
 1009,-0.00024073,0.00025867,-0.00074177,0.00032114,0.00006102,0.000147
 14,-0.00021831,0.00004787,-0.00014681,0.00093545,0.00095407,-0.0009358
 5,0.00046594,0.00021548,-0.00067405,0.00006568,0.00024428,0.00001633,0
 .00021160,-0.00006177,-0.00036743,0.25925440,0.00011625,0.00104582,0.0
 0132302,-0.01167887,-0.00855666,0.00317727,-0.11683633,-0.11512683,0.0
 1477778,0.02041829,0.01022052,-0.00310232,0.00090848,-0.00110862,-0.00
 037277,0.00013485,0.00031155,0.00029905,0.00002429,-0.00144260,0.00034
 226,-0.00039709,0.00054199,-0.00038306,-0.00122951,-0.00064997,-0.0028
 4580,0.00038320,0.00028285,-0.00048202,0.00012642,0.00018638,0.0002127
 3,0.00004875,-0.00021115,-0.00006498,0.12450878,0.12447124,-0.00007920
 ,-0.00036595,0.00260875,-0.02376394,-0.01616780,0.00378970,0.02086528,
 0.01456206,-0.05154606,0.00506499,0.00494048,-0.00201128,0.00092919,0.
 00123423,0.00002057,-0.00035998,0.00028968,-0.00032400,0.00063658,-0.0
 0125276,0.00095697,-0.00011844,0.00051803,-0.00052499,-0.00142822,-0.0
 0101203,-0.00454942,0.00037749,0.00053371,-0.00026308,-0.00000702,0.00
 028302,0.00036657,0.00026978,-0.00016568,-0.00010442,-0.02214876,-0.01
 378246,0.05100847,-0.00017750,-0.00004273,0.00035344,-0.00330864,0.003
 50104,-0.00581171,-0.04881159,0.01512282,-0.01354673,0.00056342,0.0137
 2695,-0.01645713,-0.00335136,0.00167855,-0.00205698,-0.00096188,-0.000
 09452,-0.00087934,0.00004058,0.00111466,0.00003051,-0.00021427,-0.0004
 7047,-0.00024687,0.00113183,0.00055480,-0.00097105,0.00018239,0.000126
 22,-0.00028924,0.00010229,0.00028449,0.00003263,0.00014242,0.00005443,
 0.00002990,0.00339877,-0.01888228,0.02046009,0.05172288,-0.00074440,-0
 .00018590,-0.00066600,-0.00024975,0.00933336,-0.01003805,0.01589352,-0
 .17258269,0.12998829,-0.00378381,-0.01107168,0.01064213,-0.00044491,0.
 00020096,0.00007264,0.00002574,0.00061048,0.00037135,0.00039856,-0.000
 28659,0.00050317,0.00008042,0.00015931,-0.00019747,0.00055588,0.001958
 57,-0.00057207,-0.00004640,-0.00001979,-0.00009823,0.00039190,-0.00020
 550,-0.00030838,0.00008318,-0.00009557,0.00018846,0.00179315,-0.010494
 17,0.01196961,-0.01656470,0.18168235,-0.00221927,0.00010995,-0.0013852
 5,-0.00187803,0.01798065,-0.01656538,-0.01528686,0.13025570,-0.1846976
 0,-0.00061029,-0.00635441,0.00473776,-0.00132955,-0.00172486,-0.002651
 68,-0.00086788,0.00088379,0.00013797,-0.00003369,0.00179284,0.00116558
 ,-0.00013893,-0.00066826,-0.00061651,0.00259131,0.00067459,0.00159799,
 -0.00007507,-0.00001799,0.00016750,0.00057633,-0.00047066,-0.00065887,
 0.00037633,-0.00017759,-0.00001019,-0.00036787,0.00159170,-0.00131541,
 0.01963038,-0.14255303,0.19838555,0.00068362,0.00015690,0.00078679,-0.
 00320784,0.00175538,-0.00002362,0.00629624,0.02692949,0.00139191,-0.06
 090190,-0.06843581,-0.00149003,-0.00594143,-0.01558794,-0.00176631,0.0
 0139129,0.00105145,0.00182865,0.00053063,0.00226220,-0.00300164,-0.001
 11043,-0.00076312,0.00021262,0.00005255,-0.00043756,0.00072350,0.00000
 864,-0.00000741,-0.00000644,-0.00018166,-0.00001386,0.00031236,0.00009
 443,-0.00003954,-0.00015018,0.00225810,-0.00065146,-0.00076585,-0.0019
 9861,0.00265088,0.00114104,0.06720325,-0.00055242,-0.00029899,-0.00026
 311,0.00271603,-0.00097279,-0.00057790,-0.00389934,-0.01338396,-0.0006
 5315,-0.06987304,-0.30115320,-0.01005248,-0.00251062,-0.00634545,-0.00
 004227,0.00049192,0.00178044,0.00073182,0.00139513,0.00085102,0.000288
 50,-0.00008505,0.00010452,-0.00033036,0.00015993,0.00042527,0.00063537
 ,0.00007495,0.00002381,-0.00003765,0.00013809,0.00001278,-0.00019517,0
 .00001464,0.00001569,0.00004189,-0.00033379,0.00193625,0.00035001,0.00
 108156,-0.00103248,-0.00117127,0.07222583,0.32244397,0.00007690,-0.000
 51336,0.00001536,0.00153539,0.00094682,-0.00010220,0.00323022,0.001657
 26,-0.00162650,-0.00240099,-0.00864253,-0.04470192,-0.01320893,-0.0333
 6814,-0.00561535,0.00145368,0.00144648,0.00420859,0.00341373,0.0043529
 9,-0.00450496,-0.00243788,-0.00122623,0.00015377,0.00026661,0.00042680
 ,0.00143776,0.00009080,0.00000689,-0.00002235,-0.00004240,0.00001077,-
 0.00000820,0.00012696,-0.00002242,-0.00010524,0.00049337,-0.00062345,0
 .00142192,-0.00091216,0.00053151,0.00010075,0.00175991,0.01183378,0.04
 650687,0.00059173,-0.00005135,0.00063841,0.00041072,-0.00082015,-0.000
 24655,-0.01418113,-0.01040913,0.01369215,-0.16643378,-0.03690521,0.126
 13117,0.01049861,0.00585115,-0.00722013,-0.00117814,-0.00025362,-0.001
 74446,0.00110236,-0.00032816,0.00028262,0.00027451,0.00042830,0.000266
 63,-0.00009164,0.00012547,0.00021696,0.00004036,0.00007486,-0.00013464
 ,-0.00007880,0.00010265,0.00023055,0.00013177,-0.00003453,-0.00023286,
 -0.00253780,0.00344401,0.00121090,0.00186648,-0.00055869,-0.00077271,-
 0.00523803,-0.00118547,0.00626294,0.17481082,0.00003886,-0.00074887,-0
 .00026129,0.00041031,-0.00168881,-0.00266842,0.01060749,0.00618688,-0.
 01252447,-0.03546409,-0.05816574,0.04192401,0.00374118,-0.00181046,-0.
 00601114,0.00072959,0.00038984,0.00034596,-0.00025111,0.00070058,-0.00
 027357,0.00008559,-0.00005161,-0.00030748,-0.00009226,0.00001034,-0.00
 045704,-0.00006000,-0.00002221,0.00006176,-0.00000292,-0.00003908,-0.0
 0014284,0.00014410,-0.00001571,0.00001132,0.00182428,-0.00146278,-0.00
 123379,-0.00079666,0.00159921,0.00065248,-0.02087984,-0.00463832,0.023
 23368,0.03993527,0.05998028,0.00040291,-0.00074965,0.00042405,-0.00066
 206,-0.00294821,-0.00292471,-0.00347086,-0.00184829,0.00271326,0.12741
 501,0.04237034,-0.18443369,0.01643503,0.00506462,-0.01350274,-0.001791
 27,0.00036345,-0.00282180,0.00157383,0.00206601,0.00265859,-0.00118943
 ,-0.00032823,-0.00132895,0.00094357,-0.00022794,-0.00025560,-0.0000675
 7,0.00008951,-0.00003803,-0.00005048,0.00004854,0.00005222,0.00030219,
 -0.00006407,-0.00022324,-0.00149491,0.00045748,0.00020330,0.00050537,-
 0.00035339,0.00045410,-0.00123622,-0.00075773,0.00213723,-0.13807542,-
 0.04275935,0.19743511,-0.00002418,-0.00038167,-0.00026693,-0.00025261,
 0.00072727,-0.00117783,-0.00016601,-0.00013839,-0.00022240,0.00064861,
 -0.00106667,0.00304074,-0.00451020,0.00164038,-0.00537829,-0.25207297,
 -0.08230837,-0.23711202,0.00643382,-0.00340677,0.00456480,-0.00042344,
 0.00421883,-0.00251902,-0.00161807,0.00000626,0.00003503,-0.00020202,-
 0.00007986,-0.00001319,0.00003050,0.00031463,0.00021511,0.00010364,-0.
 00007456,0.00014439,0.00004326,-0.00007467,-0.00006969,-0.00006902,-0.
 00006213,0.00000391,0.00000368,0.00004486,-0.00008894,-0.00000455,0.00
 014049,0.00064069,0.25219587,-0.00017364,0.00007726,0.00009967,0.00030
 562,-0.00191834,0.00237284,0.00056587,-0.00010255,0.00016136,-0.000083
 20,-0.00256319,0.00072686,0.02665339,0.00198536,0.02770168,-0.11126754
 ,-0.07095246,-0.08780312,0.00388622,-0.00238467,0.00589262,-0.00081368
 ,0.00231473,-0.00486876,0.00028648,0.00069219,0.00094416,-0.00004933,0
 .00000891,-0.00004251,0.00014128,-0.00011444,-0.00024299,-0.00000007,0
 .00004244,-0.00009928,0.00006143,-0.00009797,0.00007922,0.00017283,0.0
 0001990,0.00012759,-0.00027815,0.00016282,0.00007003,0.00035900,0.0001
 1879,0.00012572,0.08071601,0.07266814,0.00023935,0.00003462,0.00057474
 ,0.00033765,-0.00236828,-0.00006704,-0.00060838,0.00025575,-0.00145450
 ,-0.00073135,0.00493289,-0.00253208,-0.02052397,-0.00139815,-0.0261807
 6,-0.21672891,-0.05401182,-0.21728191,-0.00215986,0.00004217,0.0023342
 5,0.00168124,-0.00154660,-0.00067017,0.00057988,-0.00114512,-0.0007615
 8,0.00001797,0.00013796,-0.00001663,-0.00004353,-0.00017599,-0.0000475
 6,0.00011120,0.00000525,-0.00026403,-0.00008987,0.00016530,0.00002671,
 -0.00035277,0.00015712,0.00013415,0.00046009,0.00030472,0.00073560,-0.
 00050937,0.00013052,-0.00085817,0.23812101,0.05490900,0.24616132,0.001
 72486,0.00110439,-0.00118897,0.00152136,-0.01425917,-0.01934798,-0.003
 46536,-0.00343655,0.00180092,-0.00059346,0.00056119,-0.00007907,-0.002
 02941,0.00208046,-0.00306264,0.00190403,0.00077607,-0.00062410,0.00417
 511,0.01629834,0.02252092,0.00082993,-0.00265182,-0.00279554,-0.046219
 40,0.00064759,0.00580896,0.00029682,0.00024374,-0.00011373,0.00011550,
 0.00003261,0.00054917,-0.00032677,0.00015886,-0.00011330,-0.00024321,-
 0.00093174,-0.00137158,-0.00002978,0.00024181,0.00031756,-0.00007733,0
 .00006588,0.00007845,0.00011062,-0.00023228,0.00001935,-0.00013645,-0.
 00027643,0.00030237,0.04162446,0.00071041,0.00129523,-0.00139350,0.001
 07480,-0.00815424,-0.01071707,-0.00097853,-0.00083142,0.00181980,0.000
 25819,0.00137706,-0.00005409,0.00464535,-0.00242212,0.00544093,-0.0008
 2396,-0.00217228,-0.00001195,-0.00330277,-0.01858733,-0.01351313,-0.00
 009607,0.00330223,0.00184313,0.00047016,-0.18767000,-0.13941044,0.0003
 1786,0.00018384,0.00014104,-0.00012259,-0.00009937,0.00093230,-0.00037
 126,0.00007215,0.00026381,-0.00006097,-0.00020580,-0.00059564,-0.00003
 258,0.00015058,-0.00007862,0.00014062,0.00006665,0.00027304,0.00000039
 ,-0.00008901,-0.00012490,-0.00004493,0.00013877,-0.00035792,-0.0011643
 2,0.20325035,0.00061002,0.00042381,0.00101570,0.00011703,0.00354948,0.
 00157805,-0.00042402,0.00016052,-0.00004245,-0.00002828,-0.00019319,-0
 .00015463,-0.00099047,0.00086434,-0.00229789,0.00022728,0.00093270,0.0
 0001206,-0.00079851,0.00721162,0.00425144,0.00065695,-0.00074252,0.000
 18680,0.00314648,-0.13583154,-0.16789258,-0.00001141,0.00004674,0.0000
 3494,-0.00011137,0.00011414,0.00010998,-0.00013190,-0.00011226,0.00004
 077,-0.00003639,-0.00027363,0.00017643,0.00017796,-0.00015943,0.000303
 87,-0.00005004,-0.00005945,-0.00003968,-0.00007108,0.00007712,0.000145
 85,0.00001691,-0.00003996,0.00013274,-0.00364704,0.14617471,0.18099435
 ,-0.00127276,-0.00381640,0.00015174,-0.00014591,-0.00795828,0.02260321
 ,0.00202716,0.00144859,0.00169991,0.00124820,0.00088043,-0.00020430,-0
 .00146251,0.00091087,0.00331656,0.00058685,-0.00043920,0.00060217,0.00
 469540,-0.00037060,-0.02618308,-0.00460566,0.00291073,0.00249574,-0.04
 380101,-0.00263380,0.00880659,-0.00114266,0.00018326,0.00083573,0.0000
 4221,-0.00002342,-0.00023319,-0.00003152,0.00023636,-0.00001864,0.0000
 9865,0.00056863,0.00029839,-0.00022841,0.00033972,-0.00105672,0.000134
 80,0.00003092,0.00030233,-0.00009411,0.00012202,-0.00019972,0.00002015
 ,-0.00020608,-0.00010278,0.00081845,-0.00061982,0.00134787,0.04311268,
 0.00007274,-0.00159003,-0.00035873,0.00143383,-0.00840789,0.01376470,0
 .00052659,0.00094212,0.00120083,-0.00023400,-0.00103350,0.00028690,-0.
 00312271,-0.00346887,-0.00246710,0.00102445,-0.00156480,0.00015912,-0.
 00358572,-0.00359872,0.01543998,0.00075704,-0.00054445,-0.00017186,-0.
 00534855,-0.08183468,0.09967811,-0.00026927,0.00018579,0.00048501,0.00
 002271,-0.00000455,0.00022770,0.00000184,0.00018385,0.00002991,0.00010
 164,0.00035994,-0.00018395,-0.00053442,0.00025966,-0.00085259,-0.00007
 806,0.00000198,-0.00039392,0.00022521,-0.00025333,-0.00042392,-0.00017
 072,-0.00009570,-0.00007143,0.00074135,0.01039472,-0.02214321,0.008436
 06,0.09006846,-0.00003212,0.00088070,0.00002240,-0.00080658,-0.0012124
 1,-0.00071841,-0.00087985,-0.00141562,0.00123798,0.00001649,-0.0003276
 0,0.00026389,-0.00013504,-0.00051515,-0.00146592,0.00005227,0.00050636
 ,0.00012836,-0.00036212,0.00070006,-0.00294415,-0.00015337,0.00072735,
 0.00033759,0.01532594,0.09534868,-0.27085437,0.00024270,0.00006224,0.0
 0006456,-0.00011181,-0.00008498,0.00030833,0.00002826,0.00001892,-0.00
 004414,0.00001302,-0.00041613,0.00005927,0.00030371,0.00052177,0.00071
 568,-0.00012655,-0.00004555,0.00000856,0.00007489,0.00020256,0.0001632
 2,0.00006572,-0.00011413,0.00003493,0.00094625,0.00936849,-0.01855573,
 -0.01446182,-0.10420555,0.29123794\\0.00000547,0.00000359,0.00001035,-
 0.00001765,-0.00002709,-0.00002992,-0.00000412,0.00000633,0.00001062,0
 .00000360,-0.00000916,-0.00000429,-0.00001314,0.00000597,0.00000636,0.
 00000114,-0.00000196,-0.00001137,0.00001825,0.00000871,-0.00001412,0.0
 0000219,0.00000791,0.00000350,0.00000572,0.00003571,0.00002968,0.00000
 019,-0.00000672,0.00000304,0.00000264,-0.00001128,0.00000342,0.0000003
 5,-0.00000604,0.00000802,-0.00000162,-0.00000179,-0.00000142,-0.000000
 50,0.00000179,0.00000393,0.00000128,0.00000512,-0.00000522,-0.00000006
 ,0.00000982,-0.00000314,0.00000512,-0.00000936,-0.00001129,-0.00000666
 ,-0.00000422,0.00000242,-0.00000220,-0.00000734,-0.00000056\\\@


 TIME IS NATURE'S WAY OF MAKING SURE EVERYTHING
 DOESN'T HAPPEN AT ONCE.
                     - WOODY ALLEN
 Job cpu time:       0 days  0 hours 44 minutes 42.2 seconds.
 File lengths (MBytes):  RWF=    152 Int=      0 D2E=      0 Chk=      8 Scr=      1
 Normal termination of Gaussian 09 at Mon Jan 27 19:17:40 2020.
