 Entering Gaussian System, Link 0=/home/puck/opt/gaussian_09/g09
 Input=dsC7O2H10nsd_3138.com
 Output=dsC7O2H10nsd_3138.log
 Initial command:
 /home/puck/opt/gaussian_09/l1.exe "/scratch/puck/g09_af8ef691-96b3-40f4-a575-e67f0656e6e4/Gau-18426.inp" -scrdir="/scratch/puck/g09_af8ef691-96b3-40f4-a575-e67f0656e6e4/"
 Entering Link 1 = /home/puck/opt/gaussian_09/l1.exe PID=     18432.
  
 Copyright (c) 1988,1990,1992,1993,1995,1998,2003,2009,2013,
            Gaussian, Inc.  All Rights Reserved.
  
 This is part of the Gaussian(R) 09 program.  It is based on
 the Gaussian(R) 03 system (copyright 2003, Gaussian, Inc.),
 the Gaussian(R) 98 system (copyright 1998, Gaussian, Inc.),
 the Gaussian(R) 94 system (copyright 1995, Gaussian, Inc.),
 the Gaussian 92(TM) system (copyright 1992, Gaussian, Inc.),
 the Gaussian 90(TM) system (copyright 1990, Gaussian, Inc.),
 the Gaussian 88(TM) system (copyright 1988, Gaussian, Inc.),
 the Gaussian 86(TM) system (copyright 1986, Carnegie Mellon
 University), and the Gaussian 82(TM) system (copyright 1983,
 Carnegie Mellon University). Gaussian is a federally registered
 trademark of Gaussian, Inc.
  
 This software contains proprietary and confidential information,
 including trade secrets, belonging to Gaussian, Inc.
  
 This software is provided under written license and may be
 used, copied, transmitted, or stored only in accord with that
 written license.
  
 The following legend is applicable only to US Government
 contracts under FAR:
  
                    RESTRICTED RIGHTS LEGEND
  
 Use, reproduction and disclosure by the US Government is
 subject to restrictions as set forth in subparagraphs (a)
 and (c) of the Commercial Computer Software - Restricted
 Rights clause in FAR 52.227-19.
  
 Gaussian, Inc.
 340 Quinnipiac St., Bldg. 40, Wallingford CT 06492
  
  
 ---------------------------------------------------------------
 Warning -- This program may not be used in any manner that
 competes with the business of Gaussian, Inc. or will provide
 assistance to any competitor of Gaussian, Inc.  The licensee
 of this program is prohibited from giving any competitor of
 Gaussian, Inc. access to this program.  By using this program,
 the user acknowledges that Gaussian, Inc. is engaged in the
 business of creating and licensing software in the field of
 computational chemistry and represents and warrants to the
 licensee that it is not a competitor of Gaussian, Inc. and that
 it will not use this program in any manner prohibited above.
 ---------------------------------------------------------------
  

 Cite this work as:
 Gaussian 09, Revision D.01,
 M. J. Frisch, G. W. Trucks, H. B. Schlegel, G. E. Scuseria, 
 M. A. Robb, J. R. Cheeseman, G. Scalmani, V. Barone, B. Mennucci, 
 G. A. Petersson, H. Nakatsuji, M. Caricato, X. Li, H. P. Hratchian, 
 A. F. Izmaylov, J. Bloino, G. Zheng, J. L. Sonnenberg, M. Hada, 
 M. Ehara, K. Toyota, R. Fukuda, J. Hasegawa, M. Ishida, T. Nakajima, 
 Y. Honda, O. Kitao, H. Nakai, T. Vreven, J. A. Montgomery, Jr., 
 J. E. Peralta, F. Ogliaro, M. Bearpark, J. J. Heyd, E. Brothers, 
 K. N. Kudin, V. N. Staroverov, T. Keith, R. Kobayashi, J. Normand, 
 K. Raghavachari, A. Rendell, J. C. Burant, S. S. Iyengar, J. Tomasi, 
 M. Cossi, N. Rega, J. M. Millam, M. Klene, J. E. Knox, J. B. Cross, 
 V. Bakken, C. Adamo, J. Jaramillo, R. Gomperts, R. E. Stratmann, 
 O. Yazyev, A. J. Austin, R. Cammi, C. Pomelli, J. W. Ochterski, 
 R. L. Martin, K. Morokuma, V. G. Zakrzewski, G. A. Voth, 
 P. Salvador, J. J. Dannenberg, S. Dapprich, A. D. Daniels, 
 O. Farkas, J. B. Foresman, J. V. Ortiz, J. Cioslowski, 
 and D. J. Fox, Gaussian, Inc., Wallingford CT, 2013.
 
 ******************************************
 Gaussian 09:  ES64L-G09RevD.01 24-Apr-2013
                27-Jan-2020 
 ******************************************
 -----------------------------
 # b3lyp 6-31G(2df,p) opt Freq
 -----------------------------
 1/14=-1,18=20,19=15,26=3,38=1/1,3;
 2/9=110,12=2,17=6,18=5,40=1/2;
 3/5=1,6=6,7=104,11=2,16=1,25=1,30=1,71=1,74=-5/1,2,3;
 4//1;
 5/5=2,38=5/2;
 6/7=2,8=2,9=2,10=2,28=1/1;
 7//1,2,3,16;
 1/14=-1,18=20,19=15,26=3/3(2);
 2/9=110/2;
 99//99;
 2/9=110/2;
 3/5=1,6=6,7=104,11=2,16=1,25=1,30=1,71=1,74=-5/1,2,3;
 4/5=5,16=3,69=1/1;
 5/5=2,38=5/2;
 7//1,2,3,16;
 1/14=-1,18=20,19=15,26=3/3(-5);
 2/9=110/2;
 6/7=2,8=2,9=2,10=2,19=2,28=1/1;
 99/9=1/99;
 -----
 titel
 -----
 Symbolic Z-matrix:
 Charge =  0 Multiplicity = 1
 C                    -0.26389  -0.30216  -0.16795 
 C                     1.22377  -0.01632   0.01302 
 C                     1.7291   -0.63243   1.29778 
 O                     2.73638  -0.31115   1.88867 
 C                     2.20324  -0.44995  -1.11954 
 C                     1.98309   0.3399   -2.37975 
 C                     2.7456    0.9658   -1.24806 
 C                     1.74432   1.48034  -0.19526 
 O                     2.25243   2.15416   0.91093 
 H                    -0.85762   0.20837   0.5988 
 H                    -0.61757   0.0401   -1.14337 
 H                    -0.47604  -1.3755   -0.09723 
 H                     1.11196  -1.47631   1.68091 
 H                     2.73862  -1.39238  -1.12602 
 H                     2.5751    0.01102  -3.22786 
 H                     0.99748   0.71201  -2.64894 
 H                     3.76923   1.3077   -1.3358 
 H                     0.96601   2.12719  -0.61676 
 H                     2.81651   1.52941   1.39328 
 

 GradGradGradGradGradGradGradGradGradGradGradGradGradGradGradGradGradGrad
 Berny optimization.
 Initialization pass.
                           ----------------------------
                           !    Initial Parameters    !
                           ! (Angstroms and Degrees)  !
 --------------------------                            --------------------------
 ! Name  Definition              Value          Derivative Info.                !
 --------------------------------------------------------------------------------
 ! R1    R(1,2)                  1.5256         estimate D2E/DX2                !
 ! R2    R(1,10)                 1.0959         estimate D2E/DX2                !
 ! R3    R(1,11)                 1.0926         estimate D2E/DX2                !
 ! R4    R(1,12)                 1.0964         estimate D2E/DX2                !
 ! R5    R(2,3)                  1.5118         estimate D2E/DX2                !
 ! R6    R(2,5)                  1.5589         estimate D2E/DX2                !
 ! R7    R(2,8)                  1.5982         estimate D2E/DX2                !
 ! R8    R(3,4)                  1.2112         estimate D2E/DX2                !
 ! R9    R(3,13)                 1.1135         estimate D2E/DX2                !
 ! R10   R(5,6)                  1.5035         estimate D2E/DX2                !
 ! R11   R(5,7)                  1.5215         estimate D2E/DX2                !
 ! R12   R(5,14)                 1.0839         estimate D2E/DX2                !
 ! R13   R(6,7)                  1.5013         estimate D2E/DX2                !
 ! R14   R(6,15)                 1.0853         estimate D2E/DX2                !
 ! R15   R(6,16)                 1.0874         estimate D2E/DX2                !
 ! R16   R(7,8)                  1.5413         estimate D2E/DX2                !
 ! R17   R(7,17)                 1.0828         estimate D2E/DX2                !
 ! R18   R(8,9)                  1.3914         estimate D2E/DX2                !
 ! R19   R(8,18)                 1.0963         estimate D2E/DX2                !
 ! R20   R(9,19)                 0.9701         estimate D2E/DX2                !
 ! A1    A(2,1,10)             110.9771         estimate D2E/DX2                !
 ! A2    A(2,1,11)             111.2762         estimate D2E/DX2                !
 ! A3    A(2,1,12)             111.3733         estimate D2E/DX2                !
 ! A4    A(10,1,11)            107.6569         estimate D2E/DX2                !
 ! A5    A(10,1,12)            107.8246         estimate D2E/DX2                !
 ! A6    A(11,1,12)            107.5557         estimate D2E/DX2                !
 ! A7    A(1,2,3)              110.5113         estimate D2E/DX2                !
 ! A8    A(1,2,5)              118.3192         estimate D2E/DX2                !
 ! A9    A(1,2,8)              118.528          estimate D2E/DX2                !
 ! A10   A(3,2,5)              107.0992         estimate D2E/DX2                !
 ! A11   A(3,2,8)              112.5511         estimate D2E/DX2                !
 ! A12   A(5,2,8)               87.7739         estimate D2E/DX2                !
 ! A13   A(2,3,4)              125.7661         estimate D2E/DX2                !
 ! A14   A(2,3,13)             114.5829         estimate D2E/DX2                !
 ! A15   A(4,3,13)             119.6113         estimate D2E/DX2                !
 ! A16   A(2,5,6)              111.7666         estimate D2E/DX2                !
 ! A17   A(2,5,7)               91.519          estimate D2E/DX2                !
 ! A18   A(2,5,14)             123.8177         estimate D2E/DX2                !
 ! A19   A(6,5,14)             121.6073         estimate D2E/DX2                !
 ! A20   A(7,5,14)             129.2325         estimate D2E/DX2                !
 ! A21   A(5,6,15)             114.5776         estimate D2E/DX2                !
 ! A22   A(5,6,16)             121.3334         estimate D2E/DX2                !
 ! A23   A(7,6,15)             115.9979         estimate D2E/DX2                !
 ! A24   A(7,6,16)             120.2864         estimate D2E/DX2                !
 ! A25   A(15,6,16)            113.8703         estimate D2E/DX2                !
 ! A26   A(5,7,8)               91.2246         estimate D2E/DX2                !
 ! A27   A(5,7,17)             129.6157         estimate D2E/DX2                !
 ! A28   A(6,7,8)              108.9123         estimate D2E/DX2                !
 ! A29   A(6,7,17)             123.4157         estimate D2E/DX2                !
 ! A30   A(8,7,17)             124.3381         estimate D2E/DX2                !
 ! A31   A(2,8,7)               89.3116         estimate D2E/DX2                !
 ! A32   A(2,8,9)              117.9591         estimate D2E/DX2                !
 ! A33   A(2,8,18)             111.8024         estimate D2E/DX2                !
 ! A34   A(7,8,9)              117.8718         estimate D2E/DX2                !
 ! A35   A(7,8,18)             113.3006         estimate D2E/DX2                !
 ! A36   A(9,8,18)             106.2124         estimate D2E/DX2                !
 ! A37   A(8,9,19)             107.2029         estimate D2E/DX2                !
 ! D1    D(10,1,2,3)            66.4753         estimate D2E/DX2                !
 ! D2    D(10,1,2,5)          -169.5929         estimate D2E/DX2                !
 ! D3    D(10,1,2,8)           -65.5466         estimate D2E/DX2                !
 ! D4    D(11,1,2,3)          -173.6631         estimate D2E/DX2                !
 ! D5    D(11,1,2,5)           -49.7312         estimate D2E/DX2                !
 ! D6    D(11,1,2,8)            54.315          estimate D2E/DX2                !
 ! D7    D(12,1,2,3)           -53.6633         estimate D2E/DX2                !
 ! D8    D(12,1,2,5)            70.2686         estimate D2E/DX2                !
 ! D9    D(12,1,2,8)           174.3149         estimate D2E/DX2                !
 ! D10   D(1,2,3,4)           -159.9054         estimate D2E/DX2                !
 ! D11   D(1,2,3,13)            22.4067         estimate D2E/DX2                !
 ! D12   D(5,2,3,4)             69.9287         estimate D2E/DX2                !
 ! D13   D(5,2,3,13)          -107.7592         estimate D2E/DX2                !
 ! D14   D(8,2,3,4)            -24.8748         estimate D2E/DX2                !
 ! D15   D(8,2,3,13)           157.4373         estimate D2E/DX2                !
 ! D16   D(1,2,5,6)             66.9806         estimate D2E/DX2                !
 ! D17   D(1,2,5,7)            124.5693         estimate D2E/DX2                !
 ! D18   D(1,2,5,14)           -94.2346         estimate D2E/DX2                !
 ! D19   D(3,2,5,6)           -167.4135         estimate D2E/DX2                !
 ! D20   D(3,2,5,7)           -109.8248         estimate D2E/DX2                !
 ! D21   D(3,2,5,14)            31.3714         estimate D2E/DX2                !
 ! D22   D(8,2,5,6)            -54.4846         estimate D2E/DX2                !
 ! D23   D(8,2,5,7)              3.1041         estimate D2E/DX2                !
 ! D24   D(8,2,5,14)           144.3003         estimate D2E/DX2                !
 ! D25   D(1,2,8,7)           -124.3432         estimate D2E/DX2                !
 ! D26   D(1,2,8,9)            114.1279         estimate D2E/DX2                !
 ! D27   D(1,2,8,18)            -9.4295         estimate D2E/DX2                !
 ! D28   D(3,2,8,7)            104.5425         estimate D2E/DX2                !
 ! D29   D(3,2,8,9)            -16.9864         estimate D2E/DX2                !
 ! D30   D(3,2,8,18)          -140.5438         estimate D2E/DX2                !
 ! D31   D(5,2,8,7)             -3.0633         estimate D2E/DX2                !
 ! D32   D(5,2,8,9)           -124.5923         estimate D2E/DX2                !
 ! D33   D(5,2,8,18)           111.8503         estimate D2E/DX2                !
 ! D34   D(2,5,6,15)          -174.3897         estimate D2E/DX2                !
 ! D35   D(2,5,6,16)           -31.316          estimate D2E/DX2                !
 ! D36   D(14,5,6,15)          -12.6982         estimate D2E/DX2                !
 ! D37   D(14,5,6,16)          130.3755         estimate D2E/DX2                !
 ! D38   D(2,5,7,8)             -3.2172         estimate D2E/DX2                !
 ! D39   D(2,5,7,17)           135.3822         estimate D2E/DX2                !
 ! D40   D(14,5,7,8)          -140.9844         estimate D2E/DX2                !
 ! D41   D(14,5,7,17)           -2.3851         estimate D2E/DX2                !
 ! D42   D(15,6,7,8)           175.1052         estimate D2E/DX2                !
 ! D43   D(15,6,7,17)           14.9871         estimate D2E/DX2                !
 ! D44   D(16,6,7,8)            31.3775         estimate D2E/DX2                !
 ! D45   D(16,6,7,17)         -128.7406         estimate D2E/DX2                !
 ! D46   D(5,7,8,2)              3.137          estimate D2E/DX2                !
 ! D47   D(5,7,8,9)            124.7413         estimate D2E/DX2                !
 ! D48   D(5,7,8,18)          -110.3938         estimate D2E/DX2                !
 ! D49   D(6,7,8,2)             61.3389         estimate D2E/DX2                !
 ! D50   D(6,7,8,9)           -177.0569         estimate D2E/DX2                !
 ! D51   D(6,7,8,18)           -52.1919         estimate D2E/DX2                !
 ! D52   D(17,7,8,2)          -138.7684         estimate D2E/DX2                !
 ! D53   D(17,7,8,9)           -17.1641         estimate D2E/DX2                !
 ! D54   D(17,7,8,18)          107.7009         estimate D2E/DX2                !
 ! D55   D(2,8,9,19)            42.996          estimate D2E/DX2                !
 ! D56   D(7,8,9,19)           -62.3899         estimate D2E/DX2                !
 ! D57   D(18,8,9,19)          169.3116         estimate D2E/DX2                !
 --------------------------------------------------------------------------------
 Trust Radius=3.00D-01 FncErr=1.00D-07 GrdErr=1.00D-06
 Number of steps in this run=    114 maximum allowed number of steps=    114.
 GradGradGradGradGradGradGradGradGradGradGradGradGradGradGradGradGradGrad

                          Input orientation:                          
 ---------------------------------------------------------------------
 Center     Atomic      Atomic             Coordinates (Angstroms)
 Number     Number       Type             X           Y           Z
 ---------------------------------------------------------------------
      1          6           0       -0.263894   -0.302162   -0.167951
      2          6           0        1.223765   -0.016323    0.013020
      3          6           0        1.729104   -0.632430    1.297778
      4          8           0        2.736376   -0.311147    1.888675
      5          6           0        2.203244   -0.449948   -1.119541
      6          6           0        1.983087    0.339904   -2.379749
      7          6           0        2.745595    0.965801   -1.248058
      8          6           0        1.744322    1.480343   -0.195263
      9          8           0        2.252425    2.154159    0.910933
     10          1           0       -0.857615    0.208374    0.598796
     11          1           0       -0.617570    0.040101   -1.143374
     12          1           0       -0.476036   -1.375498   -0.097233
     13          1           0        1.111960   -1.476306    1.680909
     14          1           0        2.738623   -1.392382   -1.126023
     15          1           0        2.575103    0.011025   -3.227863
     16          1           0        0.997476    0.712010   -2.648944
     17          1           0        3.769234    1.307698   -1.335804
     18          1           0        0.966011    2.127190   -0.616762
     19          1           0        2.816509    1.529407    1.393276
 ---------------------------------------------------------------------
                    Distance matrix (angstroms):
                    1          2          3          4          5
     1  C    0.000000
     2  C    1.525642   0.000000
     3  C    2.495892   1.511806   0.000000
     4  O    3.637500   2.427548   1.211189   0.000000
     5  C    2.648421   1.558879   2.470129   3.058244   0.000000
     6  C    3.217643   2.535511   3.812367   4.383007   1.503483
     7  C    3.439679   2.207001   3.173150   3.386705   1.521514
     8  C    2.685331   1.598240   2.587125   2.921712   2.188817
     9  O    3.678229   2.564251   2.861572   2.695907   3.302516
    10  H    1.095926   2.173883   2.808317   3.853629   3.571405
    11  H    1.092557   2.175073   3.452303   4.534935   2.863164
    12  H    1.096382   2.179182   2.713088   3.923807   3.013354
    13  H    2.586478   2.219437   1.113455   2.009848   3.175978
    14  H    3.334905   2.342168   2.733398   3.202729   1.083907
    15  H    4.185816   3.511437   4.648782   5.129206   2.189930
    16  H    2.962250   2.769067   4.233133   4.965945   2.267840
    17  H    4.496849   3.170453   3.855124   3.752961   2.363982
    18  H    2.759683   2.248936   3.444311   3.918786   2.902615
    19  H    3.909087   2.613661   2.421799   1.907742   3.257021
                    6          7          8          9         10
     6  C    0.000000
     7  C    1.501295   0.000000
     8  C    2.475800   1.541324   0.000000
     9  O    3.767313   2.513296   1.391354   0.000000
    10  H    4.118085   4.119186   3.003084   3.681828   0.000000
    11  H    2.895155   3.489808   2.924336   4.114157   1.766662
    12  H    3.768259   4.145478   3.618760   4.573770   1.771641
    13  H    4.532817   4.148675   3.558325   3.882499   2.808619
    14  H    2.267924   2.361349   3.179229   4.118681   4.297715
    15  H    1.085330   2.204606   3.470699   4.671913   5.144494
    16  H    1.087363   2.254510   2.677436   4.040720   3.773967
    17  H    2.284024   1.082788   2.330431   2.839900   5.134094
    18  H    2.708682   2.216818   1.096284   1.997358   2.912911
    19  H    4.042923   2.701727   1.917146   0.970134   3.984409
                   11         12         13         14         15
    11  H    0.000000
    12  H    1.765888   0.000000
    13  H    3.642435   2.386144   0.000000
    14  H    3.649156   3.375311   3.245296   0.000000
    15  H    3.813017   4.586146   5.333759   2.532592   0.000000
    16  H    2.307937   3.611115   4.852779   3.127195   1.820834
    17  H    4.570326   5.172612   4.890025   2.897689   2.585962
    18  H    2.672263   3.823380   4.276187   3.973524   3.726282
    19  H    4.521672   4.636911   3.467353   3.858729   4.870183
                   16         17         18         19
    16  H    0.000000
    17  H    3.124392   0.000000
    18  H    2.476588   3.007764   0.000000
    19  H    4.507390   2.899089   2.796773   0.000000
 Stoichiometry    C7H10O2
 Framework group  C1[X(C7H10O2)]
 Deg. of freedom    51
 Full point group                 C1      NOp   1
 Largest Abelian subgroup         C1      NOp   1
 Largest concise Abelian subgroup C1      NOp   1
                         Standard orientation:                         
 ---------------------------------------------------------------------
 Center     Atomic      Atomic             Coordinates (Angstroms)
 Number     Number       Type             X           Y           Z
 ---------------------------------------------------------------------
      1          6           0        0.130244    1.938920    0.924288
      2          6           0       -0.112267    0.664154    0.121951
      3          6           0       -1.467894    0.708348   -0.545789
      4          8           0       -2.088290   -0.249121   -0.952408
      5          6           0        0.925362    0.270816   -0.972908
      6          6           0        2.253884   -0.099841   -0.374492
      7          6           0        1.132949   -1.098002   -0.341838
      8          6           0        0.182273   -0.743823    0.818529
      9          8           0       -0.895061   -1.590969    1.058454
     10          1           0       -0.559242    2.005097    1.773572
     11          1           0        1.147965    1.970450    1.320430
     12          1           0       -0.011878    2.833215    0.306152
     13          1           0       -1.879988    1.732620   -0.690110
     14          1           0        0.827737    0.535532   -2.019450
     15          1           0        3.038638   -0.289305   -1.099894
     16          1           0        2.606996    0.358532    0.546141
     17          1           0        1.188696   -2.072793   -0.809924
     18          1           0        0.696625   -0.623175    1.779115
     19          1           0       -1.456049   -1.572893    0.267173
 ---------------------------------------------------------------------
 Rotational constants (GHZ):      2.1924611      1.6558319      1.3703677
 Standard basis: 6-31G(2df,p) (6D, 7F)
 There are   329 symmetry adapted cartesian basis functions of A   symmetry.
 There are   302 symmetry adapted basis functions of A   symmetry.
   302 basis functions,   466 primitive gaussians,   329 cartesian basis functions
    34 alpha electrons       34 beta electrons
       nuclear repulsion energy       469.4176795206 Hartrees.
 NAtoms=   19 NActive=   19 NUniq=   19 SFac= 1.00D+00 NAtFMM=   60 NAOKFM=F Big=F
 Integral buffers will be    131072 words long.
 Raffenetti 2 integral format.
 Two-electron integral symmetry is turned on.
 One-electron integrals computed using PRISM.
 NBasis=   302 RedAO= T EigKep=  3.09D-04  NBF=   302
 NBsUse=   302 1.00D-06 EigRej= -1.00D+00 NBFU=   302
 ExpMin= 1.61D-01 ExpMax= 5.48D+03 ExpMxC= 8.25D+02 IAcc=1 IRadAn=         1 AccDes= 0.00D+00
 Harris functional with IExCor=  402 and IRadAn=       1 diagonalized for initial guess.
 HarFok:  IExCor=  402 AccDes= 0.00D+00 IRadAn=         1 IDoV= 1 UseB2=F ITyADJ=14
 ICtDFT=  3500011 ScaDFX=  1.000000  1.000000  1.000000  1.000000
 FoFCou: FMM=F IPFlag=           0 FMFlag=      100000 FMFlg1=           0
         NFxFlg=           0 DoJE=T BraDBF=F KetDBF=T FulRan=T
         wScrn=  0.000000 ICntrl=     500 IOpCl=  0 I1Cent=   200000004 NGrid=           0
         NMat0=    1 NMatS0=      1 NMatT0=    0 NMatD0=    1 NMtDS0=    0 NMtDT0=    0
 Petite list used in FoFCou.
 Requested convergence on RMS density matrix=1.00D-08 within 128 cycles.
 Requested convergence on MAX density matrix=1.00D-06.
 Requested convergence on             energy=1.00D-06.
 No special actions if energy rises.
 Integral accuracy reduced to 1.0D-05 until final iterations.
 Initial convergence to 1.0D-05 achieved.  Increase integral accuracy.
 SCF Done:  E(RB3LYP) =  -423.160952800     A.U. after   14 cycles
            NFock= 14  Conv=0.46D-08     -V/T= 2.0075

 **********************************************************************

            Population analysis using the SCF density.

 **********************************************************************

 Orbital symmetries:
       Occupied  (A) (A) (A) (A) (A) (A) (A) (A) (A) (A) (A) (A)
                 (A) (A) (A) (A) (A) (A) (A) (A) (A) (A) (A) (A)
                 (A) (A) (A) (A) (A) (A) (A) (A) (A) (A)
       Virtual   (A) (A) (A) (A) (A) (A) (A) (A) (A) (A) (A) (A)
                 (A) (A) (A) (A) (A) (A) (A) (A) (A) (A) (A) (A)
                 (A) (A) (A) (A) (A) (A) (A) (A) (A) (A) (A) (A)
                 (A) (A) (A) (A) (A) (A) (A) (A) (A) (A) (A) (A)
                 (A) (A) (A) (A) (A) (A) (A) (A) (A) (A) (A) (A)
                 (A) (A) (A) (A) (A) (A) (A) (A) (A) (A) (A) (A)
                 (A) (A) (A) (A) (A) (A) (A) (A) (A) (A) (A) (A)
                 (A) (A) (A) (A) (A) (A) (A) (A) (A) (A) (A) (A)
                 (A) (A) (A) (A) (A) (A) (A) (A) (A) (A) (A) (A)
                 (A) (A) (A) (A) (A) (A) (A) (A) (A) (A) (A) (A)
                 (A) (A) (A) (A) (A) (A) (A) (A) (A) (A) (A) (A)
                 (A) (A) (A) (A) (A) (A) (A) (A) (A) (A) (A) (A)
                 (A) (A) (A) (A) (A) (A) (A) (A) (A) (A) (A) (A)
                 (A) (A) (A) (A) (A) (A) (A) (A) (A) (A) (A) (A)
                 (A) (A) (A) (A) (A) (A) (A) (A) (A) (A) (A) (A)
                 (A) (A) (A) (A) (A) (A) (A) (A) (A) (A) (A) (A)
                 (A) (A) (A) (A) (A) (A) (A) (A) (A) (A) (A) (A)
                 (A) (A) (A) (A) (A) (A) (A) (A) (A) (A) (A) (A)
                 (A) (A) (A) (A) (A) (A) (A) (A) (A) (A) (A) (A)
                 (A) (A) (A) (A) (A) (A) (A) (A) (A) (A) (A) (A)
                 (A) (A) (A) (A) (A) (A) (A) (A) (A) (A) (A) (A)
                 (A) (A) (A) (A) (A) (A) (A) (A) (A) (A) (A) (A)
                 (A) (A) (A) (A)
 The electronic state is 1-A.
 Alpha  occ. eigenvalues --  -19.15619 -19.12757 -10.28263 -10.24029 -10.21074
 Alpha  occ. eigenvalues --  -10.20722 -10.19743 -10.19405 -10.18864  -1.06364
 Alpha  occ. eigenvalues --   -1.01592  -0.90115  -0.78273  -0.68974  -0.66247
 Alpha  occ. eigenvalues --   -0.61063  -0.58662  -0.55551  -0.51481  -0.47753
 Alpha  occ. eigenvalues --   -0.47189  -0.44973  -0.44357  -0.42734  -0.40499
 Alpha  occ. eigenvalues --   -0.40308  -0.39285  -0.36828  -0.36361  -0.31734
 Alpha  occ. eigenvalues --   -0.30642  -0.27258  -0.26863  -0.24619
 Alpha virt. eigenvalues --   -0.03927   0.08552   0.08935   0.10195   0.11489
 Alpha virt. eigenvalues --    0.13216   0.14372   0.14843   0.15835   0.16092
 Alpha virt. eigenvalues --    0.17210   0.17457   0.20373   0.21780   0.22892
 Alpha virt. eigenvalues --    0.24508   0.25659   0.26466   0.31138   0.32887
 Alpha virt. eigenvalues --    0.35352   0.42700   0.43122   0.44829   0.46113
 Alpha virt. eigenvalues --    0.47104   0.48624   0.50183   0.52358   0.54216
 Alpha virt. eigenvalues --    0.54492   0.55334   0.57305   0.57855   0.58726
 Alpha virt. eigenvalues --    0.60750   0.61254   0.63210   0.64859   0.67414
 Alpha virt. eigenvalues --    0.69164   0.70086   0.71466   0.73248   0.74085
 Alpha virt. eigenvalues --    0.74753   0.76405   0.76813   0.78106   0.79270
 Alpha virt. eigenvalues --    0.80837   0.83557   0.85714   0.87859   0.89277
 Alpha virt. eigenvalues --    0.92078   0.94856   0.95538   0.97131   0.97697
 Alpha virt. eigenvalues --    0.99067   1.03887   1.04728   1.07288   1.08151
 Alpha virt. eigenvalues --    1.09061   1.11730   1.14180   1.16372   1.17159
 Alpha virt. eigenvalues --    1.20663   1.22546   1.26145   1.29374   1.31026
 Alpha virt. eigenvalues --    1.32465   1.34104   1.37114   1.38419   1.39461
 Alpha virt. eigenvalues --    1.41074   1.43996   1.45665   1.48756   1.49035
 Alpha virt. eigenvalues --    1.51201   1.52331   1.54249   1.55908   1.57212
 Alpha virt. eigenvalues --    1.58636   1.61404   1.62320   1.64444   1.67212
 Alpha virt. eigenvalues --    1.68968   1.70356   1.72144   1.74770   1.76329
 Alpha virt. eigenvalues --    1.79234   1.81494   1.84063   1.90035   1.93131
 Alpha virt. eigenvalues --    1.94791   1.95020   1.96002   2.00109   2.06151
 Alpha virt. eigenvalues --    2.10535   2.17888   2.22034   2.26146   2.28954
 Alpha virt. eigenvalues --    2.30498   2.33390   2.37879   2.40876   2.42180
 Alpha virt. eigenvalues --    2.45765   2.47318   2.50235   2.51523   2.59241
 Alpha virt. eigenvalues --    2.60052   2.65358   2.67203   2.71801   2.74907
 Alpha virt. eigenvalues --    2.76958   2.79664   2.82441   2.83164   2.83653
 Alpha virt. eigenvalues --    2.87419   2.88458   2.90185   2.91661   2.93119
 Alpha virt. eigenvalues --    2.94263   2.95972   2.97082   3.02851   3.05506
 Alpha virt. eigenvalues --    3.06245   3.06526   3.08202   3.10833   3.12423
 Alpha virt. eigenvalues --    3.13289   3.17526   3.18496   3.19557   3.20001
 Alpha virt. eigenvalues --    3.24005   3.25384   3.29840   3.32064   3.33843
 Alpha virt. eigenvalues --    3.36544   3.39224   3.40498   3.42365   3.46882
 Alpha virt. eigenvalues --    3.47835   3.50833   3.53259   3.55925   3.60722
 Alpha virt. eigenvalues --    3.63884   3.68501   3.71698   3.74884   3.80328
 Alpha virt. eigenvalues --    3.81752   3.86475   3.91895   3.95525   3.95995
 Alpha virt. eigenvalues --    3.98301   4.00070   4.06146   4.11967   4.14188
 Alpha virt. eigenvalues --    4.15082   4.16284   4.19246   4.22834   4.25064
 Alpha virt. eigenvalues --    4.28181   4.29250   4.32620   4.34953   4.35915
 Alpha virt. eigenvalues --    4.39682   4.40548   4.44814   4.46507   4.48421
 Alpha virt. eigenvalues --    4.50112   4.50460   4.51709   4.56518   4.57437
 Alpha virt. eigenvalues --    4.59278   4.60990   4.62467   4.65263   4.67208
 Alpha virt. eigenvalues --    4.69399   4.70600   4.71579   4.75266   4.75836
 Alpha virt. eigenvalues --    4.78400   4.79305   4.81211   4.83842   4.85094
 Alpha virt. eigenvalues --    4.86721   4.89676   4.92009   4.94175   4.97650
 Alpha virt. eigenvalues --    5.03625   5.06359   5.08756   5.11323   5.12101
 Alpha virt. eigenvalues --    5.14917   5.17910   5.19473   5.25654   5.28324
 Alpha virt. eigenvalues --    5.32009   5.37936   5.40579   5.42791   5.48757
 Alpha virt. eigenvalues --    5.50234   5.52452   5.55503   5.58584   5.63925
 Alpha virt. eigenvalues --    5.64106   5.70801   5.76477   5.86489   5.99003
 Alpha virt. eigenvalues --    6.03293   6.09976   6.12257   6.19375   6.31628
 Alpha virt. eigenvalues --    6.41839   6.81242   7.05681   7.34388  10.66493
 Alpha virt. eigenvalues --   11.06732  11.64840  11.83191  11.97611  12.40273
 Alpha virt. eigenvalues --   13.05168  13.10177  13.43634
          Condensed to atoms (all electrons):
               1          2          3          4          5          6
     1  C    5.160991   0.353517  -0.032863   0.001972  -0.047843  -0.005071
     2  C    0.353517   5.029872   0.280859  -0.059106   0.313765   0.014137
     3  C   -0.032863   0.280859   4.591688   0.695896  -0.013786   0.000776
     4  O    0.001972  -0.059106   0.695896   7.672991  -0.003810   0.000293
     5  C   -0.047843   0.313765  -0.013786  -0.003810   4.896019   0.332799
     6  C   -0.005071   0.014137   0.000776   0.000293   0.332799   5.045905
     7  C    0.005020  -0.071700   0.010655   0.002210   0.275415   0.257029
     8  C   -0.039525   0.280206  -0.011395  -0.006121  -0.013347  -0.001676
     9  O    0.001356  -0.039004   0.001565  -0.017027   0.003373   0.002348
    10  H    0.364092  -0.016746  -0.000903   0.000044   0.004021   0.000109
    11  H    0.368118  -0.011830   0.002526  -0.000046  -0.007095   0.002713
    12  H    0.360691  -0.018324  -0.004594   0.000063  -0.001048  -0.000019
    13  H   -0.005038  -0.110175   0.350954  -0.044504   0.004530  -0.000157
    14  H    0.001814  -0.046646  -0.004440   0.000768   0.378186  -0.037783
    15  H    0.000240   0.001934  -0.000071   0.000000  -0.015653   0.368588
    16  H    0.000213  -0.007277   0.000214  -0.000006  -0.018652   0.374119
    17  H   -0.000392   0.007884   0.000549   0.000051  -0.032014  -0.034860
    18  H   -0.006521  -0.038688   0.001359  -0.000030   0.005105  -0.007116
    19  H    0.000048  -0.010513  -0.003525   0.044215   0.001048   0.000055
               7          8          9         10         11         12
     1  C    0.005020  -0.039525   0.001356   0.364092   0.368118   0.360691
     2  C   -0.071700   0.280206  -0.039004  -0.016746  -0.011830  -0.018324
     3  C    0.010655  -0.011395   0.001565  -0.000903   0.002526  -0.004594
     4  O    0.002210  -0.006121  -0.017027   0.000044  -0.000046   0.000063
     5  C    0.275415  -0.013347   0.003373   0.004021  -0.007095  -0.001048
     6  C    0.257029  -0.001676   0.002348   0.000109   0.002713  -0.000019
     7  C    5.076558   0.308302  -0.039840   0.000122   0.000589  -0.000261
     8  C    0.308302   4.701494   0.434750  -0.002576  -0.002996   0.003112
     9  O   -0.039840   0.434750   7.795714   0.000257   0.000005  -0.000051
    10  H    0.000122  -0.002576   0.000257   0.581854  -0.030876  -0.032151
    11  H    0.000589  -0.002996   0.000005  -0.030876   0.576196  -0.030115
    12  H   -0.000261   0.003112  -0.000051  -0.032151  -0.030115   0.594416
    13  H   -0.000055   0.003991  -0.000250   0.001512  -0.000392   0.007558
    14  H   -0.033687   0.009906   0.000004  -0.000115  -0.000168   0.000634
    15  H   -0.010042   0.001466  -0.000035   0.000001  -0.000121  -0.000029
    16  H   -0.027549  -0.006855   0.000101  -0.000259   0.004976   0.000010
    17  H    0.377715  -0.036518  -0.001078   0.000011  -0.000002   0.000011
    18  H   -0.047926   0.343860  -0.020394   0.001308   0.002066  -0.000099
    19  H    0.001628  -0.075556   0.315426   0.000023   0.000005   0.000005
              13         14         15         16         17         18
     1  C   -0.005038   0.001814   0.000240   0.000213  -0.000392  -0.006521
     2  C   -0.110175  -0.046646   0.001934  -0.007277   0.007884  -0.038688
     3  C    0.350954  -0.004440  -0.000071   0.000214   0.000549   0.001359
     4  O   -0.044504   0.000768   0.000000  -0.000006   0.000051  -0.000030
     5  C    0.004530   0.378186  -0.015653  -0.018652  -0.032014   0.005105
     6  C   -0.000157  -0.037783   0.368588   0.374119  -0.034860  -0.007116
     7  C   -0.000055  -0.033687  -0.010042  -0.027549   0.377715  -0.047926
     8  C    0.003991   0.009906   0.001466  -0.006855  -0.036518   0.343860
     9  O   -0.000250   0.000004  -0.000035   0.000101  -0.001078  -0.020394
    10  H    0.001512  -0.000115   0.000001  -0.000259   0.000011   0.001308
    11  H   -0.000392  -0.000168  -0.000121   0.004976  -0.000002   0.002066
    12  H    0.007558   0.000634  -0.000029   0.000010   0.000011  -0.000099
    13  H    0.701287   0.001247   0.000002  -0.000001   0.000019  -0.000153
    14  H    0.001247   0.643498  -0.004442   0.001703  -0.003305  -0.000622
    15  H    0.000002  -0.004442   0.580254  -0.038579  -0.003895   0.000021
    16  H   -0.000001   0.001703  -0.038579   0.599814   0.001465   0.006412
    17  H    0.000019  -0.003305  -0.003895   0.001465   0.624215   0.002124
    18  H   -0.000153  -0.000622   0.000021   0.006412   0.002124   0.664981
    19  H    0.001290  -0.000086   0.000004   0.000019   0.000801   0.007123
              19
     1  C    0.000048
     2  C   -0.010513
     3  C   -0.003525
     4  O    0.044215
     5  C    0.001048
     6  C    0.000055
     7  C    0.001628
     8  C   -0.075556
     9  O    0.315426
    10  H    0.000023
    11  H    0.000005
    12  H    0.000005
    13  H    0.001290
    14  H   -0.000086
    15  H    0.000004
    16  H    0.000019
    17  H    0.000801
    18  H    0.007123
    19  H    0.420241
 Mulliken charges:
               1
     1  C   -0.480819
     2  C    0.147835
     3  C    0.134537
     4  O   -0.287853
     5  C   -0.061013
     6  C   -0.312189
     7  C   -0.084184
     8  C    0.109477
     9  O   -0.437220
    10  H    0.130272
    11  H    0.126448
    12  H    0.120190
    13  H    0.088335
    14  H    0.093534
    15  H    0.120356
    16  H    0.110133
    17  H    0.097219
    18  H    0.087190
    19  H    0.297749
 Sum of Mulliken charges =   0.00000
 Mulliken charges with hydrogens summed into heavy atoms:
               1
     1  C   -0.103909
     2  C    0.147835
     3  C    0.222873
     4  O   -0.287853
     5  C    0.032521
     6  C   -0.081700
     7  C    0.013035
     8  C    0.196668
     9  O   -0.139471
 Electronic spatial extent (au):  <R**2>=           1049.1705
 Charge=              0.0000 electrons
 Dipole moment (field-independent basis, Debye):
    X=              1.8288    Y=              2.2123    Z=             -0.6245  Tot=              2.9375
 Quadrupole moment (field-independent basis, Debye-Ang):
   XX=            -55.2069   YY=            -53.6896   ZZ=            -54.2893
   XY=             -3.2036   XZ=             -1.0949   YZ=              2.3739
 Traceless Quadrupole moment (field-independent basis, Debye-Ang):
   XX=             -0.8116   YY=              0.7057   ZZ=              0.1059
   XY=             -3.2036   XZ=             -1.0949   YZ=              2.3739
 Octapole moment (field-independent basis, Debye-Ang**2):
  XXX=             -1.5404  YYY=             -4.4346  ZZZ=             -1.9136  XYY=             -6.6187
  XXY=              0.2612  XXZ=              3.5474  XZZ=              3.4966  YZZ=              2.5120
  YYZ=             -7.0677  XYZ=              0.6707
 Hexadecapole moment (field-independent basis, Debye-Ang**3):
 XXXX=           -624.8766 YYYY=           -453.9409 ZZZZ=           -268.9559 XXXY=              5.9810
 XXXZ=            -15.9459 YYYX=              2.4328 YYYZ=              4.0909 ZZZX=              2.1673
 ZZZY=             -2.9883 XXYY=           -173.7997 XXZZ=           -151.3888 YYZZ=           -127.1067
 XXYZ=              2.0766 YYXZ=              6.6596 ZZXY=             -5.2840
 N-N= 4.694176795206D+02 E-N=-1.925298316687D+03  KE= 4.200202396386D+02
 Calling FoFJK, ICntrl=      2127 FMM=F ISym2X=0 I1Cent= 0 IOpClX= 0 NMat=1 NMatS=1 NMatT=0.
 ***** Axes restored to original set *****
 -------------------------------------------------------------------
 Center     Atomic                   Forces (Hartrees/Bohr)
 Number     Number              X              Y              Z
 -------------------------------------------------------------------
      1        6          -0.000000745   -0.000014573   -0.000000814
      2        6          -0.000014606    0.000008602    0.000000662
      3        6           0.000006859    0.000012772    0.000000449
      4        8           0.000001034    0.000013046    0.000003180
      5        6           0.000003211    0.000007385   -0.000004999
      6        6           0.000028423   -0.000016022    0.000030867
      7        6          -0.000005656   -0.000006092   -0.000022792
      8        6          -0.000005140   -0.000002206    0.000007304
      9        8          -0.000015739    0.000003397   -0.000000697
     10        1           0.000001116   -0.000006201    0.000001109
     11        1           0.000000937   -0.000005584    0.000000575
     12        1           0.000007639   -0.000003843    0.000003114
     13        1           0.000003839    0.000002329    0.000006602
     14        1           0.000007402    0.000000929    0.000010821
     15        1          -0.000009963    0.000000402   -0.000010649
     16        1          -0.000002916   -0.000006026   -0.000006376
     17        1          -0.000002521    0.000003948   -0.000000329
     18        1          -0.000004232   -0.000006487   -0.000013059
     19        1           0.000001059    0.000014224   -0.000004968
 -------------------------------------------------------------------
 Cartesian Forces:  Max     0.000030867 RMS     0.000009464

 GradGradGradGradGradGradGradGradGradGradGradGradGradGradGradGradGradGrad
 Berny optimization.
 FormGI is forming the generalized inverse of G from B-inverse, IUseBI=4.
 Internal  Forces:  Max     0.000011900 RMS     0.000003125
 Search for a local minimum.
 Step number   1 out of a maximum of  114
 All quantities printed in internal units (Hartrees-Bohrs-Radians)
 Mixed Optimization -- En-DIIS/RFO-DIIS
 Second derivative matrix not updated -- first step.
 ITU=  0
     Eigenvalues ---    0.00427   0.00543   0.00610   0.00614   0.01692
     Eigenvalues ---    0.01712   0.01806   0.03064   0.03204   0.03402
     Eigenvalues ---    0.03896   0.04276   0.05191   0.05449   0.05509
     Eigenvalues ---    0.05543   0.06078   0.06748   0.07955   0.09577
     Eigenvalues ---    0.10080   0.10788   0.11053   0.16000   0.16000
     Eigenvalues ---    0.16000   0.16000   0.16000   0.16638   0.17305
     Eigenvalues ---    0.20359   0.22002   0.22189   0.23718   0.25455
     Eigenvalues ---    0.27774   0.29830   0.31117   0.31170   0.32237
     Eigenvalues ---    0.34085   0.34096   0.34137   0.34519   0.35119
     Eigenvalues ---    0.35358   0.35526   0.35660   0.47084   0.53350
     Eigenvalues ---    0.99396
 RFO step:  Lambda=-1.88736528D-08 EMin= 4.26751754D-03
 Linear search not attempted -- first point.
 Iteration  1 RMS(Cart)=  0.00014099 RMS(Int)=  0.00000002
 Iteration  2 RMS(Cart)=  0.00000002 RMS(Int)=  0.00000000
 Variable       Old X    -DE/DX   Delta X   Delta X   Delta X     New X
                                 (Linear)    (Quad)   (Total)
    R1        2.88305   0.00000   0.00000   0.00000   0.00000   2.88305
    R2        2.07100   0.00000   0.00000   0.00000   0.00000   2.07100
    R3        2.06463   0.00000   0.00000   0.00000   0.00000   2.06463
    R4        2.07186   0.00000   0.00000  -0.00001  -0.00001   2.07185
    R5        2.85690   0.00000   0.00000   0.00000   0.00000   2.85689
    R6        2.94586   0.00000   0.00000   0.00002   0.00002   2.94587
    R7        3.02024  -0.00001   0.00000  -0.00002  -0.00002   3.02021
    R8        2.28882   0.00000   0.00000   0.00000   0.00000   2.28882
    R9        2.10413   0.00000   0.00000   0.00001   0.00001   2.10414
   R10        2.84117  -0.00001   0.00000  -0.00002  -0.00002   2.84115
   R11        2.87524   0.00000   0.00000  -0.00001  -0.00001   2.87523
   R12        2.04829   0.00000   0.00000   0.00000   0.00000   2.04829
   R13        2.83704  -0.00001   0.00000  -0.00005  -0.00005   2.83699
   R14        2.05098   0.00000   0.00000   0.00000   0.00000   2.05098
   R15        2.05482   0.00000   0.00000   0.00001   0.00001   2.05483
   R16        2.91268   0.00001   0.00000   0.00003   0.00003   2.91271
   R17        2.04617   0.00000   0.00000   0.00000   0.00000   2.04617
   R18        2.62928   0.00000   0.00000   0.00001   0.00001   2.62928
   R19        2.07168   0.00000   0.00000   0.00000   0.00000   2.07167
   R20        1.83329   0.00000   0.00000   0.00000   0.00000   1.83329
    A1        1.93692   0.00000   0.00000  -0.00002  -0.00002   1.93689
    A2        1.94214   0.00000   0.00000   0.00000   0.00000   1.94213
    A3        1.94383   0.00000   0.00000   0.00000   0.00000   1.94383
    A4        1.87897   0.00000   0.00000   0.00000   0.00000   1.87896
    A5        1.88189   0.00000   0.00000   0.00000   0.00000   1.88190
    A6        1.87720   0.00000   0.00000   0.00003   0.00003   1.87723
    A7        1.92879   0.00000   0.00000   0.00001   0.00001   1.92880
    A8        2.06506   0.00000   0.00000   0.00002   0.00002   2.06508
    A9        2.06870   0.00000   0.00000   0.00003   0.00003   2.06873
   A10        1.86923   0.00000   0.00000  -0.00003  -0.00003   1.86921
   A11        1.96439   0.00000   0.00000  -0.00003  -0.00003   1.96435
   A12        1.53194   0.00000   0.00000   0.00000   0.00000   1.53194
   A13        2.19503   0.00000   0.00000   0.00000   0.00000   2.19503
   A14        1.99985   0.00000   0.00000   0.00000   0.00000   1.99985
   A15        2.08761   0.00000   0.00000   0.00000   0.00000   2.08761
   A16        1.95070   0.00000   0.00000   0.00000   0.00000   1.95069
   A17        1.59731   0.00000   0.00000   0.00001   0.00001   1.59731
   A18        2.16103   0.00000   0.00000  -0.00002  -0.00002   2.16100
   A19        2.12245   0.00000   0.00000   0.00004   0.00004   2.12248
   A20        2.25553   0.00000   0.00000  -0.00002  -0.00002   2.25552
   A21        1.99976   0.00001   0.00000   0.00011   0.00011   1.99987
   A22        2.11767   0.00000   0.00000   0.00000   0.00000   2.11767
   A23        2.02455   0.00001   0.00000   0.00007   0.00007   2.02461
   A24        2.09939   0.00000   0.00000  -0.00005  -0.00005   2.09935
   A25        1.98741  -0.00001   0.00000  -0.00008  -0.00008   1.98733
   A26        1.59217   0.00000   0.00000  -0.00001  -0.00001   1.59216
   A27        2.26222   0.00000   0.00000  -0.00001  -0.00001   2.26221
   A28        1.90088   0.00000   0.00000  -0.00003  -0.00003   1.90084
   A29        2.15401   0.00000   0.00000   0.00003   0.00003   2.15404
   A30        2.17011   0.00000   0.00000   0.00001   0.00001   2.17012
   A31        1.55878   0.00000   0.00000   0.00001   0.00001   1.55879
   A32        2.05877   0.00000   0.00000   0.00001   0.00001   2.05879
   A33        1.95132   0.00000   0.00000  -0.00003  -0.00003   1.95129
   A34        2.05725   0.00000   0.00000   0.00003   0.00003   2.05728
   A35        1.97747   0.00000   0.00000  -0.00006  -0.00006   1.97741
   A36        1.85376   0.00000   0.00000   0.00002   0.00002   1.85378
   A37        1.87104   0.00001   0.00000   0.00003   0.00003   1.87108
    D1        1.16021   0.00000   0.00000  -0.00041  -0.00041   1.15980
    D2       -2.95995   0.00000   0.00000  -0.00043  -0.00043  -2.96038
    D3       -1.14400   0.00000   0.00000  -0.00040  -0.00040  -1.14441
    D4       -3.03099   0.00000   0.00000  -0.00044  -0.00044  -3.03143
    D5       -0.86797   0.00000   0.00000  -0.00045  -0.00045  -0.86842
    D6        0.94798   0.00000   0.00000  -0.00042  -0.00042   0.94755
    D7       -0.93660   0.00000   0.00000  -0.00040  -0.00040  -0.93701
    D8        1.22642   0.00000   0.00000  -0.00042  -0.00042   1.22600
    D9        3.04237   0.00000   0.00000  -0.00039  -0.00039   3.04198
   D10       -2.79088   0.00000   0.00000   0.00007   0.00007  -2.79080
   D11        0.39107   0.00000   0.00000   0.00009   0.00009   0.39116
   D12        1.22049   0.00000   0.00000   0.00006   0.00006   1.22055
   D13       -1.88075   0.00000   0.00000   0.00008   0.00008  -1.88068
   D14       -0.43415   0.00000   0.00000   0.00009   0.00009  -0.43406
   D15        2.74780   0.00000   0.00000   0.00010   0.00010   2.74790
   D16        1.16903   0.00000   0.00000   0.00007   0.00007   1.16910
   D17        2.17414   0.00000   0.00000   0.00006   0.00006   2.17421
   D18       -1.64470   0.00000   0.00000   0.00003   0.00003  -1.64468
   D19       -2.92192   0.00000   0.00000   0.00008   0.00008  -2.92184
   D20       -1.91680   0.00000   0.00000   0.00007   0.00007  -1.91673
   D21        0.54753   0.00000   0.00000   0.00003   0.00003   0.54757
   D22       -0.95094   0.00000   0.00000   0.00004   0.00004  -0.95089
   D23        0.05418   0.00000   0.00000   0.00003   0.00003   0.05421
   D24        2.51852   0.00000   0.00000  -0.00001  -0.00001   2.51851
   D25       -2.17020   0.00000   0.00000  -0.00005  -0.00005  -2.17025
   D26        1.99191   0.00000   0.00000  -0.00010  -0.00010   1.99181
   D27       -0.16458   0.00000   0.00000  -0.00012  -0.00012  -0.16469
   D28        1.82461   0.00000   0.00000  -0.00006  -0.00006   1.82455
   D29       -0.29647   0.00000   0.00000  -0.00011  -0.00011  -0.29658
   D30       -2.45295   0.00000   0.00000  -0.00013  -0.00013  -2.45308
   D31       -0.05347   0.00000   0.00000  -0.00003  -0.00003  -0.05349
   D32       -2.17455   0.00000   0.00000  -0.00007  -0.00007  -2.17462
   D33        1.95216   0.00000   0.00000  -0.00009  -0.00009   1.95206
   D34       -3.04367   0.00001   0.00000   0.00004   0.00004  -3.04364
   D35       -0.54657   0.00000   0.00000   0.00006   0.00006  -0.54651
   D36       -0.22163   0.00000   0.00000   0.00007   0.00007  -0.22156
   D37        2.27548   0.00000   0.00000   0.00009   0.00009   2.27557
   D38       -0.05615   0.00000   0.00000  -0.00003  -0.00003  -0.05618
   D39        2.36286   0.00000   0.00000  -0.00004  -0.00004   2.36282
   D40       -2.46064   0.00000   0.00000   0.00001   0.00001  -2.46063
   D41       -0.04163   0.00000   0.00000   0.00000   0.00000  -0.04162
   D42        3.05616  -0.00001   0.00000  -0.00011  -0.00011   3.05605
   D43        0.26157  -0.00001   0.00000  -0.00012  -0.00012   0.26145
   D44        0.54764   0.00000   0.00000   0.00002   0.00002   0.54766
   D45       -2.24695   0.00000   0.00000   0.00001   0.00001  -2.24694
   D46        0.05475   0.00000   0.00000   0.00003   0.00003   0.05478
   D47        2.17715   0.00000   0.00000   0.00006   0.00006   2.17721
   D48       -1.92673   0.00000   0.00000   0.00007   0.00007  -1.92667
   D49        1.07057   0.00000   0.00000   0.00004   0.00004   1.07060
   D50       -3.09023   0.00000   0.00000   0.00007   0.00007  -3.09016
   D51       -0.91092   0.00000   0.00000   0.00007   0.00007  -0.91085
   D52       -2.42196   0.00000   0.00000   0.00005   0.00005  -2.42192
   D53       -0.29957   0.00000   0.00000   0.00008   0.00008  -0.29949
   D54        1.87973   0.00000   0.00000   0.00009   0.00009   1.87982
   D55        0.75042   0.00001   0.00000   0.00024   0.00024   0.75066
   D56       -1.08891   0.00000   0.00000   0.00020   0.00020  -1.08871
   D57        2.95504   0.00000   0.00000   0.00023   0.00023   2.95528
         Item               Value     Threshold  Converged?
 Maximum Force            0.000012     0.000450     YES
 RMS     Force            0.000003     0.000300     YES
 Maximum Displacement     0.000677     0.001800     YES
 RMS     Displacement     0.000141     0.001200     YES
 Predicted change in Energy=-9.436884D-09
 Optimization completed.
    -- Stationary point found.
                           ----------------------------
                           !   Optimized Parameters   !
                           ! (Angstroms and Degrees)  !
 --------------------------                            --------------------------
 ! Name  Definition              Value          Derivative Info.                !
 --------------------------------------------------------------------------------
 ! R1    R(1,2)                  1.5256         -DE/DX =    0.0                 !
 ! R2    R(1,10)                 1.0959         -DE/DX =    0.0                 !
 ! R3    R(1,11)                 1.0926         -DE/DX =    0.0                 !
 ! R4    R(1,12)                 1.0964         -DE/DX =    0.0                 !
 ! R5    R(2,3)                  1.5118         -DE/DX =    0.0                 !
 ! R6    R(2,5)                  1.5589         -DE/DX =    0.0                 !
 ! R7    R(2,8)                  1.5982         -DE/DX =    0.0                 !
 ! R8    R(3,4)                  1.2112         -DE/DX =    0.0                 !
 ! R9    R(3,13)                 1.1135         -DE/DX =    0.0                 !
 ! R10   R(5,6)                  1.5035         -DE/DX =    0.0                 !
 ! R11   R(5,7)                  1.5215         -DE/DX =    0.0                 !
 ! R12   R(5,14)                 1.0839         -DE/DX =    0.0                 !
 ! R13   R(6,7)                  1.5013         -DE/DX =    0.0                 !
 ! R14   R(6,15)                 1.0853         -DE/DX =    0.0                 !
 ! R15   R(6,16)                 1.0874         -DE/DX =    0.0                 !
 ! R16   R(7,8)                  1.5413         -DE/DX =    0.0                 !
 ! R17   R(7,17)                 1.0828         -DE/DX =    0.0                 !
 ! R18   R(8,9)                  1.3914         -DE/DX =    0.0                 !
 ! R19   R(8,18)                 1.0963         -DE/DX =    0.0                 !
 ! R20   R(9,19)                 0.9701         -DE/DX =    0.0                 !
 ! A1    A(2,1,10)             110.9771         -DE/DX =    0.0                 !
 ! A2    A(2,1,11)             111.2762         -DE/DX =    0.0                 !
 ! A3    A(2,1,12)             111.3733         -DE/DX =    0.0                 !
 ! A4    A(10,1,11)            107.6569         -DE/DX =    0.0                 !
 ! A5    A(10,1,12)            107.8246         -DE/DX =    0.0                 !
 ! A6    A(11,1,12)            107.5557         -DE/DX =    0.0                 !
 ! A7    A(1,2,3)              110.5113         -DE/DX =    0.0                 !
 ! A8    A(1,2,5)              118.3192         -DE/DX =    0.0                 !
 ! A9    A(1,2,8)              118.528          -DE/DX =    0.0                 !
 ! A10   A(3,2,5)              107.0992         -DE/DX =    0.0                 !
 ! A11   A(3,2,8)              112.5511         -DE/DX =    0.0                 !
 ! A12   A(5,2,8)               87.7739         -DE/DX =    0.0                 !
 ! A13   A(2,3,4)              125.7661         -DE/DX =    0.0                 !
 ! A14   A(2,3,13)             114.5829         -DE/DX =    0.0                 !
 ! A15   A(4,3,13)             119.6113         -DE/DX =    0.0                 !
 ! A16   A(2,5,6)              111.7666         -DE/DX =    0.0                 !
 ! A17   A(2,5,7)               91.519          -DE/DX =    0.0                 !
 ! A18   A(2,5,14)             123.8177         -DE/DX =    0.0                 !
 ! A19   A(6,5,14)             121.6073         -DE/DX =    0.0                 !
 ! A20   A(7,5,14)             129.2325         -DE/DX =    0.0                 !
 ! A21   A(5,6,15)             114.5776         -DE/DX =    0.0                 !
 ! A22   A(5,6,16)             121.3334         -DE/DX =    0.0                 !
 ! A23   A(7,6,15)             115.9979         -DE/DX =    0.0                 !
 ! A24   A(7,6,16)             120.2864         -DE/DX =    0.0                 !
 ! A25   A(15,6,16)            113.8703         -DE/DX =    0.0                 !
 ! A26   A(5,7,8)               91.2246         -DE/DX =    0.0                 !
 ! A27   A(5,7,17)             129.6157         -DE/DX =    0.0                 !
 ! A28   A(6,7,8)              108.9123         -DE/DX =    0.0                 !
 ! A29   A(6,7,17)             123.4157         -DE/DX =    0.0                 !
 ! A30   A(8,7,17)             124.3381         -DE/DX =    0.0                 !
 ! A31   A(2,8,7)               89.3116         -DE/DX =    0.0                 !
 ! A32   A(2,8,9)              117.9591         -DE/DX =    0.0                 !
 ! A33   A(2,8,18)             111.8024         -DE/DX =    0.0                 !
 ! A34   A(7,8,9)              117.8718         -DE/DX =    0.0                 !
 ! A35   A(7,8,18)             113.3006         -DE/DX =    0.0                 !
 ! A36   A(9,8,18)             106.2124         -DE/DX =    0.0                 !
 ! A37   A(8,9,19)             107.2029         -DE/DX =    0.0                 !
 ! D1    D(10,1,2,3)            66.4753         -DE/DX =    0.0                 !
 ! D2    D(10,1,2,5)          -169.5929         -DE/DX =    0.0                 !
 ! D3    D(10,1,2,8)           -65.5466         -DE/DX =    0.0                 !
 ! D4    D(11,1,2,3)          -173.6631         -DE/DX =    0.0                 !
 ! D5    D(11,1,2,5)           -49.7312         -DE/DX =    0.0                 !
 ! D6    D(11,1,2,8)            54.315          -DE/DX =    0.0                 !
 ! D7    D(12,1,2,3)           -53.6633         -DE/DX =    0.0                 !
 ! D8    D(12,1,2,5)            70.2686         -DE/DX =    0.0                 !
 ! D9    D(12,1,2,8)           174.3149         -DE/DX =    0.0                 !
 ! D10   D(1,2,3,4)           -159.9054         -DE/DX =    0.0                 !
 ! D11   D(1,2,3,13)            22.4067         -DE/DX =    0.0                 !
 ! D12   D(5,2,3,4)             69.9287         -DE/DX =    0.0                 !
 ! D13   D(5,2,3,13)          -107.7592         -DE/DX =    0.0                 !
 ! D14   D(8,2,3,4)            -24.8748         -DE/DX =    0.0                 !
 ! D15   D(8,2,3,13)           157.4373         -DE/DX =    0.0                 !
 ! D16   D(1,2,5,6)             66.9806         -DE/DX =    0.0                 !
 ! D17   D(1,2,5,7)            124.5693         -DE/DX =    0.0                 !
 ! D18   D(1,2,5,14)           -94.2346         -DE/DX =    0.0                 !
 ! D19   D(3,2,5,6)           -167.4135         -DE/DX =    0.0                 !
 ! D20   D(3,2,5,7)           -109.8248         -DE/DX =    0.0                 !
 ! D21   D(3,2,5,14)            31.3714         -DE/DX =    0.0                 !
 ! D22   D(8,2,5,6)            -54.4846         -DE/DX =    0.0                 !
 ! D23   D(8,2,5,7)              3.1041         -DE/DX =    0.0                 !
 ! D24   D(8,2,5,14)           144.3003         -DE/DX =    0.0                 !
 ! D25   D(1,2,8,7)           -124.3432         -DE/DX =    0.0                 !
 ! D26   D(1,2,8,9)            114.1279         -DE/DX =    0.0                 !
 ! D27   D(1,2,8,18)            -9.4295         -DE/DX =    0.0                 !
 ! D28   D(3,2,8,7)            104.5425         -DE/DX =    0.0                 !
 ! D29   D(3,2,8,9)            -16.9864         -DE/DX =    0.0                 !
 ! D30   D(3,2,8,18)          -140.5438         -DE/DX =    0.0                 !
 ! D31   D(5,2,8,7)             -3.0633         -DE/DX =    0.0                 !
 ! D32   D(5,2,8,9)           -124.5923         -DE/DX =    0.0                 !
 ! D33   D(5,2,8,18)           111.8503         -DE/DX =    0.0                 !
 ! D34   D(2,5,6,15)          -174.3897         -DE/DX =    0.0                 !
 ! D35   D(2,5,6,16)           -31.316          -DE/DX =    0.0                 !
 ! D36   D(14,5,6,15)          -12.6982         -DE/DX =    0.0                 !
 ! D37   D(14,5,6,16)          130.3755         -DE/DX =    0.0                 !
 ! D38   D(2,5,7,8)             -3.2172         -DE/DX =    0.0                 !
 ! D39   D(2,5,7,17)           135.3822         -DE/DX =    0.0                 !
 ! D40   D(14,5,7,8)          -140.9844         -DE/DX =    0.0                 !
 ! D41   D(14,5,7,17)           -2.3851         -DE/DX =    0.0                 !
 ! D42   D(15,6,7,8)           175.1052         -DE/DX =    0.0                 !
 ! D43   D(15,6,7,17)           14.9871         -DE/DX =    0.0                 !
 ! D44   D(16,6,7,8)            31.3775         -DE/DX =    0.0                 !
 ! D45   D(16,6,7,17)         -128.7406         -DE/DX =    0.0                 !
 ! D46   D(5,7,8,2)              3.137          -DE/DX =    0.0                 !
 ! D47   D(5,7,8,9)            124.7413         -DE/DX =    0.0                 !
 ! D48   D(5,7,8,18)          -110.3938         -DE/DX =    0.0                 !
 ! D49   D(6,7,8,2)             61.3389         -DE/DX =    0.0                 !
 ! D50   D(6,7,8,9)           -177.0569         -DE/DX =    0.0                 !
 ! D51   D(6,7,8,18)           -52.1919         -DE/DX =    0.0                 !
 ! D52   D(17,7,8,2)          -138.7684         -DE/DX =    0.0                 !
 ! D53   D(17,7,8,9)           -17.1641         -DE/DX =    0.0                 !
 ! D54   D(17,7,8,18)          107.7009         -DE/DX =    0.0                 !
 ! D55   D(2,8,9,19)            42.996          -DE/DX =    0.0                 !
 ! D56   D(7,8,9,19)           -62.3899         -DE/DX =    0.0                 !
 ! D57   D(18,8,9,19)          169.3116         -DE/DX =    0.0                 !
 --------------------------------------------------------------------------------
 GradGradGradGradGradGradGradGradGradGradGradGradGradGradGradGradGradGrad

                          Input orientation:                          
 ---------------------------------------------------------------------
 Center     Atomic      Atomic             Coordinates (Angstroms)
 Number     Number       Type             X           Y           Z
 ---------------------------------------------------------------------
      1          6           0       -0.263894   -0.302162   -0.167951
      2          6           0        1.223765   -0.016323    0.013020
      3          6           0        1.729104   -0.632430    1.297778
      4          8           0        2.736376   -0.311147    1.888675
      5          6           0        2.203244   -0.449948   -1.119541
      6          6           0        1.983087    0.339904   -2.379749
      7          6           0        2.745595    0.965801   -1.248058
      8          6           0        1.744322    1.480343   -0.195263
      9          8           0        2.252425    2.154159    0.910933
     10          1           0       -0.857615    0.208374    0.598796
     11          1           0       -0.617570    0.040101   -1.143374
     12          1           0       -0.476036   -1.375498   -0.097233
     13          1           0        1.111960   -1.476306    1.680909
     14          1           0        2.738623   -1.392382   -1.126023
     15          1           0        2.575103    0.011025   -3.227863
     16          1           0        0.997476    0.712010   -2.648944
     17          1           0        3.769234    1.307698   -1.335804
     18          1           0        0.966011    2.127190   -0.616762
     19          1           0        2.816509    1.529407    1.393276
 ---------------------------------------------------------------------
                    Distance matrix (angstroms):
                    1          2          3          4          5
     1  C    0.000000
     2  C    1.525642   0.000000
     3  C    2.495892   1.511806   0.000000
     4  O    3.637500   2.427548   1.211189   0.000000
     5  C    2.648421   1.558879   2.470129   3.058244   0.000000
     6  C    3.217643   2.535511   3.812367   4.383007   1.503483
     7  C    3.439679   2.207001   3.173150   3.386705   1.521514
     8  C    2.685331   1.598240   2.587125   2.921712   2.188817
     9  O    3.678229   2.564251   2.861572   2.695907   3.302516
    10  H    1.095926   2.173883   2.808317   3.853629   3.571405
    11  H    1.092557   2.175073   3.452303   4.534935   2.863164
    12  H    1.096382   2.179182   2.713088   3.923807   3.013354
    13  H    2.586478   2.219437   1.113455   2.009848   3.175978
    14  H    3.334905   2.342168   2.733398   3.202729   1.083907
    15  H    4.185816   3.511437   4.648782   5.129206   2.189930
    16  H    2.962250   2.769067   4.233133   4.965945   2.267840
    17  H    4.496849   3.170453   3.855124   3.752961   2.363982
    18  H    2.759683   2.248936   3.444311   3.918786   2.902615
    19  H    3.909087   2.613661   2.421799   1.907742   3.257021
                    6          7          8          9         10
     6  C    0.000000
     7  C    1.501295   0.000000
     8  C    2.475800   1.541324   0.000000
     9  O    3.767313   2.513296   1.391354   0.000000
    10  H    4.118085   4.119186   3.003084   3.681828   0.000000
    11  H    2.895155   3.489808   2.924336   4.114157   1.766662
    12  H    3.768259   4.145478   3.618760   4.573770   1.771641
    13  H    4.532817   4.148675   3.558325   3.882499   2.808619
    14  H    2.267924   2.361349   3.179229   4.118681   4.297715
    15  H    1.085330   2.204606   3.470699   4.671913   5.144494
    16  H    1.087363   2.254510   2.677436   4.040720   3.773967
    17  H    2.284024   1.082788   2.330431   2.839900   5.134094
    18  H    2.708682   2.216818   1.096284   1.997358   2.912911
    19  H    4.042923   2.701727   1.917146   0.970134   3.984409
                   11         12         13         14         15
    11  H    0.000000
    12  H    1.765888   0.000000
    13  H    3.642435   2.386144   0.000000
    14  H    3.649156   3.375311   3.245296   0.000000
    15  H    3.813017   4.586146   5.333759   2.532592   0.000000
    16  H    2.307937   3.611115   4.852779   3.127195   1.820834
    17  H    4.570326   5.172612   4.890025   2.897689   2.585962
    18  H    2.672263   3.823380   4.276187   3.973524   3.726282
    19  H    4.521672   4.636911   3.467353   3.858729   4.870183
                   16         17         18         19
    16  H    0.000000
    17  H    3.124392   0.000000
    18  H    2.476588   3.007764   0.000000
    19  H    4.507390   2.899089   2.796773   0.000000
 Stoichiometry    C7H10O2
 Framework group  C1[X(C7H10O2)]
 Deg. of freedom    51
 Full point group                 C1      NOp   1
 Largest Abelian subgroup         C1      NOp   1
 Largest concise Abelian subgroup C1      NOp   1
                         Standard orientation:                         
 ---------------------------------------------------------------------
 Center     Atomic      Atomic             Coordinates (Angstroms)
 Number     Number       Type             X           Y           Z
 ---------------------------------------------------------------------
      1          6           0        0.130244    1.938920    0.924288
      2          6           0       -0.112267    0.664154    0.121951
      3          6           0       -1.467894    0.708348   -0.545789
      4          8           0       -2.088290   -0.249121   -0.952408
      5          6           0        0.925362    0.270816   -0.972908
      6          6           0        2.253884   -0.099841   -0.374492
      7          6           0        1.132949   -1.098002   -0.341838
      8          6           0        0.182273   -0.743823    0.818529
      9          8           0       -0.895061   -1.590969    1.058454
     10          1           0       -0.559242    2.005097    1.773572
     11          1           0        1.147965    1.970450    1.320430
     12          1           0       -0.011878    2.833215    0.306152
     13          1           0       -1.879988    1.732620   -0.690110
     14          1           0        0.827737    0.535532   -2.019450
     15          1           0        3.038638   -0.289305   -1.099894
     16          1           0        2.606996    0.358532    0.546141
     17          1           0        1.188696   -2.072793   -0.809924
     18          1           0        0.696625   -0.623175    1.779115
     19          1           0       -1.456049   -1.572893    0.267173
 ---------------------------------------------------------------------
 Rotational constants (GHZ):      2.1924611      1.6558319      1.3703677
 1\1\GINC-ALCHEMY-SE\FOpt\RB3LYP\6-31G(2df,p)\C7H10O2\PUCK\27-Jan-2020\
 0\\# b3lyp 6-31G(2df,p) opt Freq\\titel\\0,1\C,-0.2638939539,-0.302162
 3227,-0.1679508376\C,1.2237650436,-0.0163234187,0.0130204666\C,1.72910
 38738,-0.6324303419,1.2977779553\O,2.7363756702,-0.3111468299,1.888674
 5004\C,2.2032444164,-0.4499477391,-1.1195408126\C,1.9830874588,0.33990
 43827,-2.3797488345\C,2.745595464,0.9658007474,-1.248058392\C,1.744321
 9755,1.4803431108,-0.1952633288\O,2.2524252799,2.1541585686,0.91093310
 54\H,-0.8576153337,0.2083744526,0.5987962322\H,-0.617569525,0.04010058
 48,-1.1433736177\H,-0.4760363155,-1.3754976372,-0.0972330365\H,1.11195
 95822,-1.476305823,1.6809091829\H,2.738622884,-1.3923824277,-1.1260228
 325\H,2.5751033362,0.0110246794,-3.2278626351\H,0.9974756087,0.7120098
 794,-2.6489440922\H,3.7692338424,1.307698479,-1.3358038728\H,0.9660113
 539,2.1271900706,-0.6167617093\H,2.8165091385,1.529407315,1.3932760086
 \\Version=ES64L-G09RevD.01\State=1-A\HF=-423.1609528\RMSD=4.603e-09\RM
 SF=9.464e-06\Dipole=-0.5005337,-0.7219855,-0.7509103\Quadrupole=1.8067
 412,-1.2994532,-0.507288,0.267959,-2.4093035,-1.1365457\PG=C01 [X(C7H1
 0O2)]\\@


      THE ONE-EYED VIEW OF OUR UNIVERSE SAYS YOU MUST NOT LOOK
      FAR AFIELD FOR PROBLEMS.  SUCH PROBLEMS MAY NEVER ARRIVE. 
      INSTEAD, TEND TO THE WOLF WITHIN YOUR FENCES.
      THE PACKS RANGING OUTSIDE MAY NOT EVEN EXIST.

                              -- THE AZHAR BOOK SHAMRA I:4
                                 CHILDREN OF DUNE, BY FRANK HERBERT
 Job cpu time:       0 days  0 hours  7 minutes 40.2 seconds.
 File lengths (MBytes):  RWF=     52 Int=      0 D2E=      0 Chk=      7 Scr=      1
 Normal termination of Gaussian 09 at Mon Jan 27 23:07:29 2020.
 Link1:  Proceeding to internal job step number  2.
 ----------------------------------------------------------------------
 #N Geom=AllCheck Guess=TCheck SCRF=Check GenChk RB3LYP/6-31G(2df,p) Fr
 eq
 ----------------------------------------------------------------------
 1/10=4,29=7,30=1,38=1,40=1/1,3;
 2/12=2,40=1/2;
 3/5=1,6=6,7=104,11=2,14=-4,16=1,25=1,30=1,70=2,71=2,74=-5,116=1,140=1/1,2,3;
 4/5=101/1;
 5/5=2,98=1/2;
 8/6=4,10=90,11=11/1;
 11/6=1,8=1,9=11,15=111,16=1/1,2,10;
 10/6=1/2;
 6/7=2,8=2,9=2,10=2,18=1,28=1/1;
 7/8=1,10=1,25=1/1,2,3,16;
 1/10=4,30=1/3;
 99//99;
 Structure from the checkpoint file:  "/scratch/puck/g09_af8ef691-96b3-40f4-a575-e67f0656e6e4/Gau-18432.chk"
 -----
 titel
 -----
 Charge =  0 Multiplicity = 1
 Redundant internal coordinates found in file.
 C,0,-0.2638939539,-0.3021623227,-0.1679508376
 C,0,1.2237650436,-0.0163234187,0.0130204666
 C,0,1.7291038738,-0.6324303419,1.2977779553
 O,0,2.7363756702,-0.3111468299,1.8886745004
 C,0,2.2032444164,-0.4499477391,-1.1195408126
 C,0,1.9830874588,0.3399043827,-2.3797488345
 C,0,2.745595464,0.9658007474,-1.248058392
 C,0,1.7443219755,1.4803431108,-0.1952633288
 O,0,2.2524252799,2.1541585686,0.9109331054
 H,0,-0.8576153337,0.2083744526,0.5987962322
 H,0,-0.617569525,0.0401005848,-1.1433736177
 H,0,-0.4760363155,-1.3754976372,-0.0972330365
 H,0,1.1119595822,-1.476305823,1.6809091829
 H,0,2.738622884,-1.3923824277,-1.1260228325
 H,0,2.5751033362,0.0110246794,-3.2278626351
 H,0,0.9974756087,0.7120098794,-2.6489440922
 H,0,3.7692338424,1.307698479,-1.3358038728
 H,0,0.9660113539,2.1271900706,-0.6167617093
 H,0,2.8165091385,1.529407315,1.3932760086
 Recover connectivity data from disk.

 GradGradGradGradGradGradGradGradGradGradGradGradGradGradGradGradGradGrad
 Berny optimization.
 Initialization pass.
                           ----------------------------
                           !    Initial Parameters    !
                           ! (Angstroms and Degrees)  !
 --------------------------                            --------------------------
 ! Name  Definition              Value          Derivative Info.                !
 --------------------------------------------------------------------------------
 ! R1    R(1,2)                  1.5256         calculate D2E/DX2 analytically  !
 ! R2    R(1,10)                 1.0959         calculate D2E/DX2 analytically  !
 ! R3    R(1,11)                 1.0926         calculate D2E/DX2 analytically  !
 ! R4    R(1,12)                 1.0964         calculate D2E/DX2 analytically  !
 ! R5    R(2,3)                  1.5118         calculate D2E/DX2 analytically  !
 ! R6    R(2,5)                  1.5589         calculate D2E/DX2 analytically  !
 ! R7    R(2,8)                  1.5982         calculate D2E/DX2 analytically  !
 ! R8    R(3,4)                  1.2112         calculate D2E/DX2 analytically  !
 ! R9    R(3,13)                 1.1135         calculate D2E/DX2 analytically  !
 ! R10   R(5,6)                  1.5035         calculate D2E/DX2 analytically  !
 ! R11   R(5,7)                  1.5215         calculate D2E/DX2 analytically  !
 ! R12   R(5,14)                 1.0839         calculate D2E/DX2 analytically  !
 ! R13   R(6,7)                  1.5013         calculate D2E/DX2 analytically  !
 ! R14   R(6,15)                 1.0853         calculate D2E/DX2 analytically  !
 ! R15   R(6,16)                 1.0874         calculate D2E/DX2 analytically  !
 ! R16   R(7,8)                  1.5413         calculate D2E/DX2 analytically  !
 ! R17   R(7,17)                 1.0828         calculate D2E/DX2 analytically  !
 ! R18   R(8,9)                  1.3914         calculate D2E/DX2 analytically  !
 ! R19   R(8,18)                 1.0963         calculate D2E/DX2 analytically  !
 ! R20   R(9,19)                 0.9701         calculate D2E/DX2 analytically  !
 ! A1    A(2,1,10)             110.9771         calculate D2E/DX2 analytically  !
 ! A2    A(2,1,11)             111.2762         calculate D2E/DX2 analytically  !
 ! A3    A(2,1,12)             111.3733         calculate D2E/DX2 analytically  !
 ! A4    A(10,1,11)            107.6569         calculate D2E/DX2 analytically  !
 ! A5    A(10,1,12)            107.8246         calculate D2E/DX2 analytically  !
 ! A6    A(11,1,12)            107.5557         calculate D2E/DX2 analytically  !
 ! A7    A(1,2,3)              110.5113         calculate D2E/DX2 analytically  !
 ! A8    A(1,2,5)              118.3192         calculate D2E/DX2 analytically  !
 ! A9    A(1,2,8)              118.528          calculate D2E/DX2 analytically  !
 ! A10   A(3,2,5)              107.0992         calculate D2E/DX2 analytically  !
 ! A11   A(3,2,8)              112.5511         calculate D2E/DX2 analytically  !
 ! A12   A(5,2,8)               87.7739         calculate D2E/DX2 analytically  !
 ! A13   A(2,3,4)              125.7661         calculate D2E/DX2 analytically  !
 ! A14   A(2,3,13)             114.5829         calculate D2E/DX2 analytically  !
 ! A15   A(4,3,13)             119.6113         calculate D2E/DX2 analytically  !
 ! A16   A(2,5,6)              111.7666         calculate D2E/DX2 analytically  !
 ! A17   A(2,5,7)               91.519          calculate D2E/DX2 analytically  !
 ! A18   A(2,5,14)             123.8177         calculate D2E/DX2 analytically  !
 ! A19   A(6,5,14)             121.6073         calculate D2E/DX2 analytically  !
 ! A20   A(7,5,14)             129.2325         calculate D2E/DX2 analytically  !
 ! A21   A(5,6,15)             114.5776         calculate D2E/DX2 analytically  !
 ! A22   A(5,6,16)             121.3334         calculate D2E/DX2 analytically  !
 ! A23   A(7,6,15)             115.9979         calculate D2E/DX2 analytically  !
 ! A24   A(7,6,16)             120.2864         calculate D2E/DX2 analytically  !
 ! A25   A(15,6,16)            113.8703         calculate D2E/DX2 analytically  !
 ! A26   A(5,7,8)               91.2246         calculate D2E/DX2 analytically  !
 ! A27   A(5,7,17)             129.6157         calculate D2E/DX2 analytically  !
 ! A28   A(6,7,8)              108.9123         calculate D2E/DX2 analytically  !
 ! A29   A(6,7,17)             123.4157         calculate D2E/DX2 analytically  !
 ! A30   A(8,7,17)             124.3381         calculate D2E/DX2 analytically  !
 ! A31   A(2,8,7)               89.3116         calculate D2E/DX2 analytically  !
 ! A32   A(2,8,9)              117.9591         calculate D2E/DX2 analytically  !
 ! A33   A(2,8,18)             111.8024         calculate D2E/DX2 analytically  !
 ! A34   A(7,8,9)              117.8718         calculate D2E/DX2 analytically  !
 ! A35   A(7,8,18)             113.3006         calculate D2E/DX2 analytically  !
 ! A36   A(9,8,18)             106.2124         calculate D2E/DX2 analytically  !
 ! A37   A(8,9,19)             107.2029         calculate D2E/DX2 analytically  !
 ! D1    D(10,1,2,3)            66.4753         calculate D2E/DX2 analytically  !
 ! D2    D(10,1,2,5)          -169.5929         calculate D2E/DX2 analytically  !
 ! D3    D(10,1,2,8)           -65.5466         calculate D2E/DX2 analytically  !
 ! D4    D(11,1,2,3)          -173.6631         calculate D2E/DX2 analytically  !
 ! D5    D(11,1,2,5)           -49.7312         calculate D2E/DX2 analytically  !
 ! D6    D(11,1,2,8)            54.315          calculate D2E/DX2 analytically  !
 ! D7    D(12,1,2,3)           -53.6633         calculate D2E/DX2 analytically  !
 ! D8    D(12,1,2,5)            70.2686         calculate D2E/DX2 analytically  !
 ! D9    D(12,1,2,8)           174.3149         calculate D2E/DX2 analytically  !
 ! D10   D(1,2,3,4)           -159.9054         calculate D2E/DX2 analytically  !
 ! D11   D(1,2,3,13)            22.4067         calculate D2E/DX2 analytically  !
 ! D12   D(5,2,3,4)             69.9287         calculate D2E/DX2 analytically  !
 ! D13   D(5,2,3,13)          -107.7592         calculate D2E/DX2 analytically  !
 ! D14   D(8,2,3,4)            -24.8748         calculate D2E/DX2 analytically  !
 ! D15   D(8,2,3,13)           157.4373         calculate D2E/DX2 analytically  !
 ! D16   D(1,2,5,6)             66.9806         calculate D2E/DX2 analytically  !
 ! D17   D(1,2,5,7)            124.5693         calculate D2E/DX2 analytically  !
 ! D18   D(1,2,5,14)           -94.2346         calculate D2E/DX2 analytically  !
 ! D19   D(3,2,5,6)           -167.4135         calculate D2E/DX2 analytically  !
 ! D20   D(3,2,5,7)           -109.8248         calculate D2E/DX2 analytically  !
 ! D21   D(3,2,5,14)            31.3714         calculate D2E/DX2 analytically  !
 ! D22   D(8,2,5,6)            -54.4846         calculate D2E/DX2 analytically  !
 ! D23   D(8,2,5,7)              3.1041         calculate D2E/DX2 analytically  !
 ! D24   D(8,2,5,14)           144.3003         calculate D2E/DX2 analytically  !
 ! D25   D(1,2,8,7)           -124.3432         calculate D2E/DX2 analytically  !
 ! D26   D(1,2,8,9)            114.1279         calculate D2E/DX2 analytically  !
 ! D27   D(1,2,8,18)            -9.4295         calculate D2E/DX2 analytically  !
 ! D28   D(3,2,8,7)            104.5425         calculate D2E/DX2 analytically  !
 ! D29   D(3,2,8,9)            -16.9864         calculate D2E/DX2 analytically  !
 ! D30   D(3,2,8,18)          -140.5438         calculate D2E/DX2 analytically  !
 ! D31   D(5,2,8,7)             -3.0633         calculate D2E/DX2 analytically  !
 ! D32   D(5,2,8,9)           -124.5923         calculate D2E/DX2 analytically  !
 ! D33   D(5,2,8,18)           111.8503         calculate D2E/DX2 analytically  !
 ! D34   D(2,5,6,15)          -174.3897         calculate D2E/DX2 analytically  !
 ! D35   D(2,5,6,16)           -31.316          calculate D2E/DX2 analytically  !
 ! D36   D(14,5,6,15)          -12.6982         calculate D2E/DX2 analytically  !
 ! D37   D(14,5,6,16)          130.3755         calculate D2E/DX2 analytically  !
 ! D38   D(2,5,7,8)             -3.2172         calculate D2E/DX2 analytically  !
 ! D39   D(2,5,7,17)           135.3822         calculate D2E/DX2 analytically  !
 ! D40   D(14,5,7,8)          -140.9844         calculate D2E/DX2 analytically  !
 ! D41   D(14,5,7,17)           -2.3851         calculate D2E/DX2 analytically  !
 ! D42   D(15,6,7,8)           175.1052         calculate D2E/DX2 analytically  !
 ! D43   D(15,6,7,17)           14.9871         calculate D2E/DX2 analytically  !
 ! D44   D(16,6,7,8)            31.3775         calculate D2E/DX2 analytically  !
 ! D45   D(16,6,7,17)         -128.7406         calculate D2E/DX2 analytically  !
 ! D46   D(5,7,8,2)              3.137          calculate D2E/DX2 analytically  !
 ! D47   D(5,7,8,9)            124.7413         calculate D2E/DX2 analytically  !
 ! D48   D(5,7,8,18)          -110.3938         calculate D2E/DX2 analytically  !
 ! D49   D(6,7,8,2)             61.3389         calculate D2E/DX2 analytically  !
 ! D50   D(6,7,8,9)           -177.0569         calculate D2E/DX2 analytically  !
 ! D51   D(6,7,8,18)           -52.1919         calculate D2E/DX2 analytically  !
 ! D52   D(17,7,8,2)          -138.7684         calculate D2E/DX2 analytically  !
 ! D53   D(17,7,8,9)           -17.1641         calculate D2E/DX2 analytically  !
[...]
 0119924,0.00055283,0.00184624,0.00641843,0.02378321,-0.00302865,-0.159
 72361,-0.13943392,-0.06341735,0.18466075,0.12905491,0.00120235,0.00475
 895,-0.00756428,-0.03918481,-0.00608418,-0.01842038,-0.26952774,-0.070
 00105,-0.24004917,0.32241380,0.07114844,0.24682599,-0.01873927,0.00917
 250,0.02232143,-0.09006095,0.03273110,0.02395199,0.01304442,-0.0078879
 4,0.00694665,-0.00799239,-0.00064554,-0.00442379,0.34768203,-0.0033867
 6,0.00220662,0.00389937,0.02578243,-0.05258258,-0.00976222,-0.00492098
 ,0.00586770,0.00889696,0.00022630,-0.00070062,0.00166326,-0.15575680,0
 .63763366,0.00234975,0.00399534,0.00517529,0.03904938,-0.02037274,-0.1
 0333577,0.00993793,-0.01232026,-0.03712746,0.00164889,0.00276591,0.001
 31596,-0.06011707,-0.06758954,0.38050783,0.00161243,-0.00125325,-0.000
 27467,0.00599018,-0.00388386,0.02427179,-0.00528528,0.00335490,0.00018
 126,0.00271407,-0.00045719,0.00044935,-0.05326921,0.05526078,-0.024706
 62,0.58872219,-0.00031373,-0.00039221,-0.00043748,-0.00543557,0.003416
 88,-0.00219973,0.00355027,-0.00245047,0.00049818,-0.00268467,-0.000130
 51,-0.00117059,0.03439872,-0.08826356,0.06208749,-0.15207657,0.2884255
 0,-0.00139358,0.00224800,0.00241033,-0.00544669,0.00345051,-0.02373354
 ,0.00296767,-0.00435248,-0.00100299,-0.00098470,0.00094207,-0.00025652
 ,-0.00047167,0.09912528,-0.16053989,0.00440476,0.04024343,0.61568301,-
 0.00242698,-0.00062456,0.00436607,-0.04148722,-0.01900875,0.02137370,0
 .00020722,-0.00072329,-0.00063277,0.00009056,0.00076987,-0.00005372,-0
 .06808981,-0.06462220,0.01584068,-0.12172461,-0.02183830,-0.06417355,0
 .66814428,0.00030421,-0.00069986,0.00173707,-0.02762229,-0.01763828,0.
 01611985,-0.00285103,-0.00501926,-0.00142829,0.00135317,0.00151027,-0.
 00071579,-0.03909754,-0.17491975,0.03605667,-0.04802691,-0.05250292,-0
 .09045564,0.16158507,0.39480519,0.00088982,0.00171635,-0.00240280,0.04
 391739,0.01326433,-0.00903051,-0.00275185,0.00047964,-0.00069326,0.001
 48477,0.00076265,0.00059087,-0.00166194,-0.00645419,-0.01160867,-0.052
 47622,-0.04425093,-0.13829408,-0.04687524,0.09073999,0.34999615,-0.006
 96048,-0.02256093,0.00206044,-0.06340522,-0.00508121,-0.01784304,0.010
 83931,0.00759687,0.01711105,-0.00830106,-0.00714851,-0.00306960,-0.004
 90574,0.01563224,0.01645339,0.01126000,-0.00605030,-0.01308058,-0.1414
 2750,0.03109094,0.04175673,0.49998698,-0.00622920,0.00278042,0.0003782
 0,-0.00053726,-0.09204584,0.01475649,0.00857228,-0.01838792,0.01661601
 ,-0.00863531,-0.00620340,-0.00489150,0.01526095,-0.06309813,-0.0309708
 5,-0.00074668,-0.00247507,-0.00054081,0.02113609,-0.05749900,-0.020140
 81,-0.11423626,0.48450025,0.00077825,-0.00676671,-0.00192783,-0.013258
 84,0.02689538,-0.07262650,0.01491258,0.03486540,0.00683989,-0.00432107
 ,-0.01226169,-0.00054745,0.00636534,-0.02240722,-0.00587888,0.01051201
 ,-0.02071353,-0.02078472,0.04250346,-0.03038664,-0.09858447,0.09302776
 ,0.01954731,0.49946225,0.00065901,-0.00323893,0.00015218,-0.00690381,-
 0.01118878,-0.01046446,-0.00626824,0.00145574,-0.00910462,0.00753260,0
 .00798500,0.00144600,0.00029779,-0.00098543,-0.00015536,-0.00193700,0.
 00135084,0.00280991,0.01894803,0.00507231,0.01087180,-0.09852839,-0.02
 627825,-0.06771890,0.25958508,0.00142475,-0.00438110,-0.00074633,-0.01
 413386,-0.01604468,-0.02563464,0.00354114,0.00413373,0.00059862,-0.000
 07963,-0.01595971,0.00414656,-0.00102295,-0.00134236,0.00214420,0.0026
 7662,-0.00103740,-0.00032003,-0.00487692,-0.00497939,-0.01594051,-0.00
 464735,-0.12673175,-0.05117890,-0.14314226,0.38272696,0.00058173,-0.00
 172198,0.00035133,-0.00524663,-0.01584134,0.00784495,-0.01288491,-0.00
 100382,-0.01320259,0.00856333,0.01465525,0.00569665,0.00009902,0.00150
 718,0.00179463,0.00600420,-0.00198516,-0.00288620,-0.01464122,-0.01572
 010,-0.03047744,-0.05258826,-0.07651245,-0.19216446,0.22727809,-0.0349
 4891,0.37614683,-0.11984977,0.06478058,0.09694050,-0.01749620,0.016505
 49,0.02277121,0.00074629,-0.00041509,0.00206303,-0.00035975,-0.0000389
 1,-0.00053392,-0.00449711,-0.00118747,-0.00290109,0.00067390,0.0006212
 2,-0.00070450,-0.00089130,0.00008470,0.00015773,0.00081249,0.00031737,
 0.00089111,0.00018906,-0.00020416,-0.00063946,0.13277366,0.06508323,-0
 .10497916,-0.08650229,-0.00329084,0.00271337,0.00549766,0.00049312,0.0
 0066880,-0.00033318,-0.00013370,-0.00026208,0.00012883,-0.00211331,0.0
 0077925,0.00035399,-0.00011276,0.00010567,-0.00021737,0.00009224,0.000
 36811,0.00020885,0.00047053,0.00050648,0.00038303,0.00033947,0.0002379
 2,0.00007396,-0.07120715,0.10956299,0.09679539,-0.08614870,-0.17621969
 ,-0.00341884,0.00334665,0.00447643,-0.00018794,0.00033337,0.00014808,0
 .00052738,0.00017080,0.00040125,-0.00091040,0.00010741,-0.00053544,0.0
 0012940,-0.00027198,0.00038057,0.00002435,0.00002323,0.00002904,0.0006
 2009,-0.00042208,0.00027593,-0.00000625,0.00025475,-0.00005298,-0.1068
 7018,0.09540770,0.18883460,-0.07085665,0.02617422,-0.07388027,-0.01154
 102,0.01110164,-0.02895880,-0.00634925,-0.00349191,0.00192075,-0.00088
 389,0.00068866,-0.00290263,0.00194728,0.00042666,-0.00067405,-0.000743
 23,0.00026058,0.00026241,0.00050009,0.00026996,-0.00026851,0.00083133,
 0.00125458,-0.00075821,0.00028157,-0.00036028,0.00036647,0.00540454,-0
 .00649605,0.01544445,0.07980028,0.02687847,-0.07247842,0.07602148,-0.0
 0278019,0.00151136,-0.00689004,-0.00091696,-0.00056781,0.00164424,0.00
 009758,0.00037000,-0.00079214,0.00070620,-0.00005008,0.00107393,-0.000
 57402,0.00011009,-0.00030157,0.00011657,-0.00011199,-0.00005447,-0.000
 28174,0.00059081,-0.00069233,0.00013076,-0.00008141,0.00009957,-0.0055
 6377,0.00469817,-0.01455187,-0.02775677,0.07548139,-0.07581689,0.07643
 558,-0.26121696,-0.00154679,0.00061584,-0.00216180,-0.00004260,-0.0007
 6937,0.00075673,-0.00014007,0.00015279,-0.00009004,0.00040715,-0.00021
 133,-0.00027284,0.00043669,0.00016860,-0.00003572,0.00006745,0.0000828
 1,0.00017526,-0.00030115,0.00101671,-0.00035049,0.00016158,-0.00034068
 ,0.00023077,-0.00706125,0.00799393,-0.01981861,0.08199332,-0.08422377,
 0.28333223,-0.05497799,-0.04513104,0.00345380,-0.00690739,-0.03527245,
 0.00084888,0.00032824,-0.00210846,0.00169779,0.00052610,0.00087058,-0.
 00003710,0.00124175,0.00087863,0.00037420,-0.00066958,-0.00005693,0.00
 041920,0.00014884,-0.00061891,0.00062689,-0.00340207,0.00376259,-0.002
 10860,-0.00138008,-0.00177861,-0.00087452,0.00303469,0.01704597,-0.002
 41233,0.00116678,0.00994286,0.00026081,0.06032529,-0.04474864,-0.29516
 007,0.01627399,-0.00216875,-0.00566260,-0.00078841,0.00058128,-0.00083
 161,0.00231460,0.00019093,0.00074035,-0.00051487,-0.00064857,0.0003557
 4,-0.00001751,-0.00001935,-0.00005745,0.00030631,-0.00052164,-0.000316
 84,0.00012452,0.00015444,0.00255650,0.00024336,-0.00048161,-0.00023807
 ,-0.00044617,-0.00259959,-0.01409302,0.00198693,-0.00128928,-0.0096685
 3,-0.00019364,0.05157082,0.32156192,0.00263684,0.01676205,-0.04747728,
 0.00019039,-0.00416320,-0.00094241,-0.00115024,-0.00188903,0.00024722,
 0.00087970,0.00057774,0.00026825,-0.00042217,0.00014639,0.00050975,-0.
 00034194,0.00023102,-0.00057360,-0.00041917,0.00010252,0.00020075,-0.0
 0068086,0.00085867,0.00004173,0.00020302,-0.00002748,0.00003755,-0.004
 87464,-0.02297802,0.00163144,0.00561374,0.02907259,-0.00095362,-0.0022
 4613,-0.01862369,0.04683056,0.00125878,0.00111565,-0.00017689,0.007008
 87,-0.00267164,-0.00859550,-0.10205631,-0.07395292,0.04606452,-0.03222
 902,-0.03863589,-0.00613239,-0.00088542,0.00133816,-0.00177332,0.00050
 519,-0.00023765,-0.00011858,0.00009670,0.00036712,0.00008813,0.0017091
 9,0.00098300,-0.00101001,0.00042425,-0.00142005,0.00047960,0.00002382,
 -0.00004125,0.00023456,0.00036197,0.00007955,0.00019969,0.00024130,0.0
 0018223,-0.00011964,0.12377173,-0.00105061,0.00037334,-0.00124944,-0.0
 1478725,0.00082051,0.00896255,-0.06894780,-0.17859110,0.06858914,-0.02
 769762,-0.00011476,-0.00400772,0.00274368,-0.00274904,0.00301336,-0.00
 113904,0.00069349,0.00050592,0.00009017,-0.00024861,-0.00042413,-0.000
 90816,0.00046709,0.00112353,0.00055655,0.00026026,-0.00019193,0.000514
 17,-0.00016619,-0.00011193,0.00025922,0.00024276,-0.00019784,0.0008016
 7,0.00059163,0.00041468,0.11043362,0.17826077,0.00158693,0.00100554,0.
 00048231,0.00700063,0.02981972,-0.00161820,0.04303008,0.06510297,-0.09
 661054,-0.01816093,-0.01560294,0.01955087,0.00051280,-0.00122691,0.001
 46594,-0.00004443,-0.00011107,-0.00015980,-0.00033142,0.00055094,0.000
 68177,-0.00489899,-0.00198988,-0.00577131,0.00102032,-0.00033660,0.001
 92908,-0.00038813,0.00015985,-0.00004859,-0.00010570,-0.00064748,0.000
 12941,-0.00081969,-0.00100888,-0.00041310,-0.02896213,-0.07715939,0.08
 172673,-0.00035287,0.00141471,0.00118337,-0.00431826,0.00956787,-0.004
 81612,-0.00050663,0.00108953,-0.00239695,0.00083232,-0.00000984,0.0007
 2453,-0.11803978,0.13102778,0.00823824,-0.00604277,0.00422464,0.003216
 06,0.01285697,-0.00969762,-0.00024721,0.00036308,-0.00221786,0.0034607
 7,0.00053937,0.00106024,-0.00044041,-0.00082230,-0.00040622,-0.0000084
 5,0.00003720,-0.00000068,-0.00004898,-0.00019653,-0.00022836,0.0000675
 4,-0.00019106,-0.00021319,0.00033136,0.11355931,-0.00005413,0.00024833
 ,0.00027384,-0.00249950,0.00041060,-0.00203352,0.00173856,0.00058863,0
 .00092513,-0.00128269,0.00004251,-0.00025143,0.12619065,-0.26342157,0.
 00243778,-0.00199024,-0.00553590,-0.00026075,0.01299515,-0.00752246,0.
 00292194,0.00190786,-0.00313811,0.00112062,0.00022355,0.00008980,-0.00
 048958,-0.00022306,-0.00014782,0.00006607,-0.00001406,0.00003494,-0.00
 003121,0.00015196,0.00001997,-0.00000018,0.00012403,-0.00005379,-0.000
 49311,-0.13724378,0.27610053,-0.00047214,-0.00068502,-0.00085440,0.004
 71881,-0.01485680,-0.00066660,0.00293915,-0.00201653,0.00300267,-0.001
 60716,0.00041025,-0.00015320,0.00813155,0.00049560,-0.04140214,-0.0129
 2340,0.02223085,0.00116898,0.00296027,-0.00131270,-0.00567747,0.002422
 07,-0.00261151,-0.00258097,-0.00066746,-0.00108338,-0.00005705,0.00051
 478,0.00013192,0.00014736,0.00018807,0.00004818,0.00006553,0.00012714,
 0.00021991,0.00018515,0.00013231,0.00005346,-0.00030448,-0.00737615,-0
 .00216313,0.04589830,-0.00003386,0.00026624,-0.00000022,-0.00014609,-0
 .00088647,0.00056239,-0.00038905,-0.00003143,-0.00012710,0.00027649,0.
 00017280,0.00016007,-0.00229182,0.00085536,0.00058862,-0.13787676,0.05
 566624,0.12427409,0.01093600,-0.00510783,-0.01535937,-0.00311850,0.001
 09392,-0.00190751,0.00062220,-0.00074253,-0.00137067,-0.00001278,-0.00
 005712,0.00010615,0.00048066,0.00008397,0.00008216,0.00008472,-0.00005
 295,0.00021774,0.00010533,-0.00011236,-0.00002603,0.00082520,0.0003070
 5,-0.00093723,0.14078940,0.00047220,0.00010647,-0.00009407,0.00205837,
 -0.00117922,0.00632298,-0.00193668,0.00137739,-0.00032175,0.00114598,0
 .00021372,0.00054001,-0.01492074,0.00815848,0.02070117,0.05556485,-0.0
 6205599,-0.07020070,0.01503582,-0.00755940,-0.01778795,-0.00440395,-0.
 00131154,-0.00181978,0.00080493,-0.00023722,-0.00237696,-0.00002673,-0
 .00000771,-0.00003435,-0.00011100,-0.00001906,-0.00020685,0.00000704,0
 .00002292,-0.00006392,0.00023310,-0.00045753,-0.00010243,-0.00121130,0
 .00036122,-0.00222295,-0.05669513,0.06556967,-0.00041589,0.00029560,0.
 00021840,-0.00231774,0.00098547,-0.00207782,0.00091412,-0.00122744,0.0
 0034412,-0.00051067,0.00016023,-0.00032889,0.00890282,-0.00768385,-0.0
 1490757,0.12058113,-0.06819181,-0.21775495,0.00833085,-0.00141618,-0.0
 1147332,-0.00259462,0.00141716,-0.00030917,0.00032365,-0.00042198,-0.0
 0063262,0.00002400,-0.00004015,0.00004846,0.00021609,0.00002194,0.0000
 9615,0.00015222,0.00002453,0.00007573,-0.00001353,0.00019002,-0.000082
 99,0.00040578,0.00049109,0.00126057,-0.12906803,0.07301284,0.23660407,
 -0.00004376,-0.00055080,0.00003543,-0.00006763,0.00013105,-0.00037001,
 0.00007635,-0.00043666,0.00008096,0.00001272,0.00010970,-0.00014067,0.
 00372273,-0.00426851,-0.00277321,-0.27801439,0.09218117,-0.05461704,-0
 .01077863,0.00599045,-0.00337338,0.00090109,0.00042918,0.00249329,0.00
 012406,-0.00040315,0.00014923,0.00019421,0.00017315,-0.00015143,-0.000
 74106,-0.00022114,0.00103125,0.00010356,-0.00003229,0.00027398,0.00000
 418,0.00013646,-0.00000271,0.00028732,-0.00059625,0.00120331,-0.011481
 79,0.00382741,-0.00498263,0.29518117,0.00021237,-0.00001195,0.00039097
 ,0.00001826,0.00015813,-0.00252328,0.00048680,-0.00005757,-0.00023150,
 -0.00033780,-0.00007824,-0.00008812,0.01924019,-0.00807173,-0.00045577
 ,0.09192498,-0.07342310,0.02074332,-0.02028825,0.00703428,-0.00048389,
 -0.00114859,0.00152813,0.00115349,0.00018140,0.00009010,0.00082588,-0.
 00026952,0.00008171,-0.00033117,-0.00086739,0.00016905,0.00019092,0.00
 000124,-0.00000310,-0.00005751,-0.00008173,0.00005307,0.00007883,0.001
 82968,0.00075237,0.00360973,0.00655791,-0.00292434,0.00289358,-0.09719
 888,0.07421075,0.00014751,0.00014660,-0.00076735,-0.00072718,0.0009642
 0,0.00169058,-0.00062223,-0.00000804,0.00000887,0.00058624,0.00006366,
 -0.00004867,-0.01707069,0.00431849,-0.00783409,-0.05389297,0.01989421,
 -0.06049275,-0.01266945,0.00563152,-0.00857543,-0.00269087,0.00056629,
 0.00096167,0.00063686,-0.00009404,0.00034317,0.00021193,-0.00014979,0.
 00033088,0.00130159,0.00032943,-0.00027103,-0.00006022,-0.00013080,0.0
 0016146,0.00000531,0.00003757,0.00003839,-0.00091967,-0.00081977,-0.00
 131172,0.02127712,-0.00791012,0.00779372,0.06367438,-0.02301191,0.0683
 7206,0.00017143,-0.00069552,0.00008770,-0.00166306,0.00016694,0.001548
 75,-0.00082312,-0.00027193,-0.00055936,0.00048100,0.00017733,0.0001667
 6,0.00290983,0.00184915,-0.00164559,-0.00667085,-0.00182893,0.00349448
 ,-0.31417764,-0.08773976,0.02850782,-0.00762613,-0.00687179,-0.0065436
 4,0.00267108,0.00067420,0.00032751,0.00008441,0.00001545,0.00002895,0.
 00007571,0.00001104,0.00009939,-0.00023990,-0.00014944,0.00002412,0.00
 002042,-0.00005508,0.00023720,0.00048635,-0.00032295,0.00008051,0.0009
 6701,0.00049862,-0.00015534,-0.00029583,-0.00109485,0.00006787,0.32482
 744,-0.00062452,0.00082128,0.00137677,-0.00259899,-0.00109688,-0.00186
 585,-0.00026275,0.00071730,-0.00062030,0.00059751,0.00008637,0.0002044
 9,-0.02161365,0.00063323,-0.00263902,-0.00030299,-0.00567447,-0.000653
 73,-0.08315785,-0.07156072,-0.00023267,0.01087892,0.00406057,0.0056272
 9,-0.00154953,0.00095833,0.00152428,-0.00060183,-0.00010214,0.00011991
 ,0.00016102,-0.00003768,-0.00004391,0.00022275,0.00007444,-0.00007020,
 0.00008125,-0.00001343,-0.00024984,0.00157859,0.00217751,0.00081295,-0
 .00074931,0.00039673,-0.00034568,0.00118692,0.00074337,0.00077704,0.09
 576279,0.06846981,0.00002831,0.00096694,-0.00098476,0.00471080,0.00131
 568,-0.00278915,0.00113914,0.00011799,0.00089577,-0.00076509,-0.000213
 11,-0.00011330,0.00679234,-0.00264908,-0.00560964,-0.02468728,-0.00700
 036,0.00447120,0.02913611,0.00231448,-0.04046775,0.01366563,0.00896797
 ,0.00132534,-0.00306072,0.00025611,0.00178347,0.00015993,-0.00009462,0
 .00007363,0.00008031,-0.00012612,0.00011606,0.00032026,0.00021068,0.00
 011126,-0.00005278,0.00007007,-0.00021812,-0.00059230,-0.00093264,0.00
 104290,0.00125974,0.00231763,0.00093422,-0.00180810,-0.00338881,-0.000
 78935,-0.02722214,-0.00253888,0.04120231,0.00101210,0.00028317,-0.0001
 0773,0.00766181,-0.00949613,0.00702580,-0.00192327,-0.00247979,-0.0019
 6504,0.00134034,0.00118689,0.00042193,-0.00300273,0.00198430,0.0008002
 4,0.00123681,-0.00247825,-0.00134491,-0.01312558,0.01481908,-0.0054477
 8,-0.17271059,0.10571088,-0.06360513,-0.01110228,0.00454553,-0.0161720
 9,0.00009199,0.00022122,0.00007601,0.00009168,0.00007635,0.00007870,0.
 00022475,0.00016465,0.00007899,-0.00018349,0.00016299,0.00106641,0.000
 98663,0.00063510,0.00025761,0.00020246,-0.00039078,0.00006995,0.000955
 51,0.00084560,0.00073868,-0.00099222,0.00151299,0.00044502,0.18890645,
 0.00133815,0.00146859,0.00041564,0.01614416,-0.01488962,0.01284035,-0.
 00234391,-0.00210290,-0.00434737,0.00152172,0.00135290,0.00060017,0.00
 180844,-0.00005644,-0.00080747,0.00138322,0.00102064,-0.00034235,0.004
 09016,-0.00343266,-0.00224412,0.11077311,-0.14379199,0.06577470,-0.015
 52573,0.01251109,-0.01270239,-0.00052041,-0.00007053,0.00021883,-0.000
 67278,-0.00019758,-0.00066943,0.00000254,0.00034868,-0.00022714,-0.000
 23951,-0.00016551,0.00131381,-0.00037486,-0.00075774,-0.00094724,-0.00
 041052,0.00008381,-0.00020767,-0.00057407,-0.00032587,-0.00076527,-0.0
 0009744,-0.00064317,0.00030224,-0.11428176,0.15104189,-0.00065405,-0.0
 0074639,0.00053311,-0.00543046,0.00559256,-0.00201650,0.00037297,0.000
 46966,0.00034690,-0.00001800,0.00064443,0.00056875,0.00167579,-0.00161
 888,-0.00105209,0.00262606,0.00151637,0.00250962,0.01478592,-0.0130158
 1,0.00435671,-0.06019959,0.05521176,-0.07871267,-0.02809742,0.01347885
 ,-0.02479868,0.00015418,0.00005303,-0.00014654,0.00023730,-0.00010995,
 0.00029876,0.00004932,-0.00012254,0.00003452,0.00047744,0.00007559,-0.
 00068108,-0.00087269,-0.00093978,0.00017703,0.00004321,0.00003984,0.00
 008522,-0.00104797,0.00061495,0.00021353,0.00099031,-0.00130105,-0.000
 46763,0.07833169,-0.05529092,0.10144561,-0.00053389,0.00061167,0.00006
 114,0.00000846,0.00363121,0.00007048,0.00047686,-0.00470139,0.00257664
 ,-0.00481408,0.00242024,-0.00097842,0.00092838,-0.00013364,-0.00053501
 ,-0.00048109,0.00074721,0.00048721,0.00220055,-0.00017514,0.00016044,-
 0.01631778,0.00723178,-0.01371267,-0.16575429,0.15888927,-0.13899101,-
 0.00009985,-0.00007598,-0.00002091,0.00013599,-0.00002809,0.00013956,0
 .00034752,0.00009611,0.00006873,0.00001358,-0.00078744,-0.00104557,-0.
 00030355,-0.00004726,0.00030794,0.00006119,0.00004798,0.00013784,-0.00
 013982,-0.00001141,0.00000578,-0.00020594,-0.00052130,0.00045083,0.000
 32962,-0.00202050,-0.00342404,0.18414814,-0.00022623,-0.00085738,0.000
 80823,-0.00204155,-0.00214292,0.00243434,-0.01463432,-0.00516352,-0.01
 100979,0.00893367,0.00517615,0.00532667,0.00145459,-0.00037883,0.00054
 334,0.00041753,0.00022677,0.00008061,-0.00024940,0.00029328,-0.0022045
 9,-0.01203792,0.01769250,-0.01050731,0.18428998,-0.22997511,0.14525465
 ,0.00003416,0.00010617,-0.00016357,0.00046298,0.00000397,0.00023085,-0
 .00029226,-0.00024085,-0.00006529,0.00234294,0.00079705,0.00089687,-0.
 00018934,-0.00024901,-0.00011359,-0.00015785,-0.00053841,0.00004230,0.
 00011624,0.00007496,0.00016074,-0.00002783,-0.00001044,0.00010383,-0.0
 0302206,-0.00139359,-0.00455172,-0.16517332,0.21657921,-0.00001982,0.0
 0058398,-0.00015299,0.00018114,0.00080774,-0.00030713,0.00416594,-0.00
 139359,0.00641413,-0.00276740,0.00022327,-0.00764670,-0.00102913,-0.00
 055671,-0.00066492,-0.00024914,-0.00053751,-0.00010894,0.00040768,0.00
 109210,0.00125464,-0.02916962,0.01874332,-0.02866789,-0.12562819,0.110
 19440,-0.13188640,0.00008475,-0.00007734,0.00004418,-0.00007633,0.0000
 7838,-0.00002980,0.00022806,0.00014168,0.00002462,-0.00072678,0.000306
 51,-0.00009627,0.00009129,0.00017866,0.00005953,0.00022485,0.00020738,
 0.00010665,0.00032531,0.00007030,0.00017606,0.00046471,0.00011841,-0.0
 0051646,-0.00074833,-0.00291438,-0.00269456,0.15424104,-0.12726657,0.1
 6469226\\0.00000078,0.00001457,0.00000077,0.00001462,-0.00000858,-0.00
 000079,-0.00000689,-0.00001277,-0.00000046,-0.00000098,-0.00001302,-0.
 00000315,-0.00000320,-0.00000736,0.00000506,-0.00002846,0.00001598,-0.
 00003080,0.00000568,0.00000605,0.00002281,0.00000508,0.00000211,-0.000
 00739,0.00001575,-0.00000332,0.00000076,-0.00000114,0.00000622,-0.0000
 0109,-0.00000093,0.00000558,-0.00000056,-0.00000764,0.00000384,-0.0000
 0311,-0.00000385,-0.00000235,-0.00000659,-0.00000743,-0.00000088,-0.00
 001082,0.00000998,-0.00000040,0.00001062,0.00000291,0.00000604,0.00000
 637,0.00000252,-0.00000394,0.00000032,0.00000424,0.00000649,0.00001306
 ,-0.00000104,-0.00001426,0.00000499\\\@


 WE ARE REACHING THE STAGE WHERE THE PROBLEMS WE MUST SOLVE ARE 
 GOING TO BECOME INSOLUBLE WITHOUT COMPUTERS.
 I DO NOT FEAR COMPUTERS.  I FEAR THE LACK OF THEM.

                                   -- ISSAC ASIMOV
 Job cpu time:       0 days  0 hours 48 minutes 22.2 seconds.
 File lengths (MBytes):  RWF=    152 Int=      0 D2E=      0 Chk=      8 Scr=      1
 Normal termination of Gaussian 09 at Mon Jan 27 23:55:50 2020.
