 Entering Gaussian System, Link 0=/home/puck/opt/gaussian_09/g09
 Input=dsC7O2H10nsd_3645.com
 Output=dsC7O2H10nsd_3645.log
 Initial command:
 /home/puck/opt/gaussian_09/l1.exe "/scratch/puck/g09_748338d9-6454-4516-b13d-00d0ccdb6ec2/Gau-87548.inp" -scrdir="/scratch/puck/g09_748338d9-6454-4516-b13d-00d0ccdb6ec2/"
 Entering Link 1 = /home/puck/opt/gaussian_09/l1.exe PID=     87572.
  
 Copyright (c) 1988,1990,1992,1993,1995,1998,2003,2009,2013,
            Gaussian, Inc.  All Rights Reserved.
  
 This is part of the Gaussian(R) 09 program.  It is based on
 the Gaussian(R) 03 system (copyright 2003, Gaussian, Inc.),
 the Gaussian(R) 98 system (copyright 1998, Gaussian, Inc.),
 the Gaussian(R) 94 system (copyright 1995, Gaussian, Inc.),
 the Gaussian 92(TM) system (copyright 1992, Gaussian, Inc.),
 the Gaussian 90(TM) system (copyright 1990, Gaussian, Inc.),
 the Gaussian 88(TM) system (copyright 1988, Gaussian, Inc.),
 the Gaussian 86(TM) system (copyright 1986, Carnegie Mellon
 University), and the Gaussian 82(TM) system (copyright 1983,
 Carnegie Mellon University). Gaussian is a federally registered
 trademark of Gaussian, Inc.
  
 This software contains proprietary and confidential information,
 including trade secrets, belonging to Gaussian, Inc.
  
 This software is provided under written license and may be
 used, copied, transmitted, or stored only in accord with that
 written license.
  
 The following legend is applicable only to US Government
 contracts under FAR:
  
                    RESTRICTED RIGHTS LEGEND
  
 Use, reproduction and disclosure by the US Government is
 subject to restrictions as set forth in subparagraphs (a)
 and (c) of the Commercial Computer Software - Restricted
 Rights clause in FAR 52.227-19.
  
 Gaussian, Inc.
 340 Quinnipiac St., Bldg. 40, Wallingford CT 06492
  
  
 ---------------------------------------------------------------
 Warning -- This program may not be used in any manner that
 competes with the business of Gaussian, Inc. or will provide
 assistance to any competitor of Gaussian, Inc.  The licensee
 of this program is prohibited from giving any competitor of
 Gaussian, Inc. access to this program.  By using this program,
 the user acknowledges that Gaussian, Inc. is engaged in the
 business of creating and licensing software in the field of
 computational chemistry and represents and warrants to the
 licensee that it is not a competitor of Gaussian, Inc. and that
 it will not use this program in any manner prohibited above.
 ---------------------------------------------------------------
  

 Cite this work as:
 Gaussian 09, Revision D.01,
 M. J. Frisch, G. W. Trucks, H. B. Schlegel, G. E. Scuseria, 
 M. A. Robb, J. R. Cheeseman, G. Scalmani, V. Barone, B. Mennucci, 
 G. A. Petersson, H. Nakatsuji, M. Caricato, X. Li, H. P. Hratchian, 
 A. F. Izmaylov, J. Bloino, G. Zheng, J. L. Sonnenberg, M. Hada, 
 M. Ehara, K. Toyota, R. Fukuda, J. Hasegawa, M. Ishida, T. Nakajima, 
 Y. Honda, O. Kitao, H. Nakai, T. Vreven, J. A. Montgomery, Jr., 
 J. E. Peralta, F. Ogliaro, M. Bearpark, J. J. Heyd, E. Brothers, 
 K. N. Kudin, V. N. Staroverov, T. Keith, R. Kobayashi, J. Normand, 
 K. Raghavachari, A. Rendell, J. C. Burant, S. S. Iyengar, J. Tomasi, 
 M. Cossi, N. Rega, J. M. Millam, M. Klene, J. E. Knox, J. B. Cross, 
 V. Bakken, C. Adamo, J. Jaramillo, R. Gomperts, R. E. Stratmann, 
 O. Yazyev, A. J. Austin, R. Cammi, C. Pomelli, J. W. Ochterski, 
 R. L. Martin, K. Morokuma, V. G. Zakrzewski, G. A. Voth, 
 P. Salvador, J. J. Dannenberg, S. Dapprich, A. D. Daniels, 
 O. Farkas, J. B. Foresman, J. V. Ortiz, J. Cioslowski, 
 and D. J. Fox, Gaussian, Inc., Wallingford CT, 2013.
 
 ******************************************
 Gaussian 09:  ES64L-G09RevD.01 24-Apr-2013
                28-Jan-2020 
 ******************************************
 -----------------------------
 # b3lyp 6-31G(2df,p) opt Freq
 -----------------------------
 1/14=-1,18=20,19=15,26=3,38=1/1,3;
 2/9=110,12=2,17=6,18=5,40=1/2;
 3/5=1,6=6,7=104,11=2,16=1,25=1,30=1,71=1,74=-5/1,2,3;
 4//1;
 5/5=2,38=5/2;
 6/7=2,8=2,9=2,10=2,28=1/1;
 7//1,2,3,16;
 1/14=-1,18=20,19=15,26=3/3(2);
 2/9=110/2;
 99//99;
 2/9=110/2;
 3/5=1,6=6,7=104,11=2,16=1,25=1,30=1,71=1,74=-5/1,2,3;
 4/5=5,16=3,69=1/1;
 5/5=2,38=5/2;
 7//1,2,3,16;
 1/14=-1,18=20,19=15,26=3/3(-5);
 2/9=110/2;
 6/7=2,8=2,9=2,10=2,19=2,28=1/1;
 99/9=1/99;
 -----
 titel
 -----
 Symbolic Z-matrix:
 Charge =  0 Multiplicity = 1
 O                    -4.78687   2.1193    0.28001 
 C                    -3.45994   2.62914   0.24624 
 C                    -2.38744   1.59289  -0.18328 
 C                    -1.13404   1.88138   0.68425 
 C                    -0.3726    0.6355    1.14693 
 C                     0.34619  -0.10721   0.04394 
 O                     0.3817    0.23802  -1.10994 
 C                    -1.70089   2.70806   1.81907 
 C                    -2.94524   3.11705   1.58139 
 H                    -4.8124    1.43357   0.9569 
 H                    -3.5169    3.45908  -0.46972 
 H                    -2.77824   0.59464   0.05265 
 H                    -2.17423   1.60796  -1.25254 
 H                    -0.42711   2.49251   0.10627 
 H                     0.38844   0.89033   1.90129 
 H                    -1.03984  -0.07878   1.65262 
 H                     0.87279  -1.03077   0.3785 
 H                    -1.11392   2.95789   2.69793 
 H                    -3.54331   3.75433   2.22353 
 

 GradGradGradGradGradGradGradGradGradGradGradGradGradGradGradGradGradGrad
 Berny optimization.
 Initialization pass.
                           ----------------------------
                           !    Initial Parameters    !
                           ! (Angstroms and Degrees)  !
 --------------------------                            --------------------------
 ! Name  Definition              Value          Derivative Info.                !
 --------------------------------------------------------------------------------
 ! R1    R(1,2)                  1.4219         estimate D2E/DX2                !
 ! R2    R(1,10)                 0.9639         estimate D2E/DX2                !
 ! R3    R(2,3)                  1.552          estimate D2E/DX2                !
 ! R4    R(2,9)                  1.5118         estimate D2E/DX2                !
 ! R5    R(2,11)                 1.0976         estimate D2E/DX2                !
 ! R6    R(3,4)                  1.5514         estimate D2E/DX2                !
 ! R7    R(3,12)                 1.0977         estimate D2E/DX2                !
 ! R8    R(3,13)                 1.0904         estimate D2E/DX2                !
 ! R9    R(4,5)                  1.5317         estimate D2E/DX2                !
 ! R10   R(4,8)                  1.5141         estimate D2E/DX2                !
 ! R11   R(4,14)                 1.0988         estimate D2E/DX2                !
 ! R12   R(5,6)                  1.5116         estimate D2E/DX2                !
 ! R13   R(5,15)                 1.1014         estimate D2E/DX2                !
 ! R14   R(5,16)                 1.1005         estimate D2E/DX2                !
 ! R15   R(6,7)                  1.2049         estimate D2E/DX2                !
 ! R16   R(6,17)                 1.1145         estimate D2E/DX2                !
 ! R17   R(8,9)                  1.3312         estimate D2E/DX2                !
 ! R18   R(8,18)                 1.086          estimate D2E/DX2                !
 ! R19   R(9,19)                 1.0845         estimate D2E/DX2                !
 ! A1    A(2,1,10)             107.2471         estimate D2E/DX2                !
 ! A2    A(1,2,3)              114.3347         estimate D2E/DX2                !
 ! A3    A(1,2,9)              114.3588         estimate D2E/DX2                !
 ! A4    A(1,2,11)             103.7806         estimate D2E/DX2                !
 ! A5    A(3,2,9)              102.981          estimate D2E/DX2                !
 ! A6    A(3,2,11)             111.1139         estimate D2E/DX2                !
 ! A7    A(9,2,11)             110.4701         estimate D2E/DX2                !
 ! A8    A(2,3,4)              106.2243         estimate D2E/DX2                !
 ! A9    A(2,3,12)             107.5598         estimate D2E/DX2                !
 ! A10   A(2,3,13)             113.4088         estimate D2E/DX2                !
 ! A11   A(4,3,12)             109.6674         estimate D2E/DX2                !
 ! A12   A(4,3,13)             112.8177         estimate D2E/DX2                !
 ! A13   A(12,3,13)            107.0347         estimate D2E/DX2                !
 ! A14   A(3,4,5)              114.7896         estimate D2E/DX2                !
 ! A15   A(3,4,8)              102.6019         estimate D2E/DX2                !
 ! A16   A(3,4,14)             109.2128         estimate D2E/DX2                !
 ! A17   A(5,4,8)              113.8165         estimate D2E/DX2                !
 ! A18   A(5,4,14)             106.9462         estimate D2E/DX2                !
 ! A19   A(8,4,14)             109.3569         estimate D2E/DX2                !
 ! A20   A(4,5,6)              114.5591         estimate D2E/DX2                !
 ! A21   A(4,5,15)             111.234          estimate D2E/DX2                !
 ! A22   A(4,5,16)             111.4284         estimate D2E/DX2                !
 ! A23   A(6,5,15)             106.5512         estimate D2E/DX2                !
 ! A24   A(6,5,16)             107.7403         estimate D2E/DX2                !
 ! A25   A(15,5,16)            104.7367         estimate D2E/DX2                !
 ! A26   A(5,6,7)              124.8905         estimate D2E/DX2                !
 ! A27   A(5,6,17)             114.38           estimate D2E/DX2                !
 ! A28   A(7,6,17)             120.7275         estimate D2E/DX2                !
 ! A29   A(4,8,9)              112.5734         estimate D2E/DX2                !
 ! A30   A(4,8,18)             121.9924         estimate D2E/DX2                !
 ! A31   A(9,8,18)             125.383          estimate D2E/DX2                !
 ! A32   A(2,9,8)              112.1332         estimate D2E/DX2                !
 ! A33   A(2,9,19)             121.6549         estimate D2E/DX2                !
 ! A34   A(8,9,19)             126.178          estimate D2E/DX2                !
 ! D1    D(10,1,2,3)            63.7744         estimate D2E/DX2                !
 ! D2    D(10,1,2,9)           -54.6096         estimate D2E/DX2                !
 ! D3    D(10,1,2,11)         -175.0283         estimate D2E/DX2                !
 ! D4    D(1,2,3,4)           -142.2996         estimate D2E/DX2                !
 ! D5    D(1,2,3,12)           -24.9298         estimate D2E/DX2                !
 ! D6    D(1,2,3,13)            93.2229         estimate D2E/DX2                !
 ! D7    D(9,2,3,4)            -17.6336         estimate D2E/DX2                !
 ! D8    D(9,2,3,12)            99.7362         estimate D2E/DX2                !
 ! D9    D(9,2,3,13)          -142.1111         estimate D2E/DX2                !
 ! D10   D(11,2,3,4)           100.6432         estimate D2E/DX2                !
 ! D11   D(11,2,3,12)         -141.9869         estimate D2E/DX2                !
 ! D12   D(11,2,3,13)          -23.8342         estimate D2E/DX2                !
 ! D13   D(1,2,9,8)            135.5611         estimate D2E/DX2                !
 ! D14   D(1,2,9,19)           -46.4321         estimate D2E/DX2                !
 ! D15   D(3,2,9,8)             10.9109         estimate D2E/DX2                !
 ! D16   D(3,2,9,19)          -171.0823         estimate D2E/DX2                !
 ! D17   D(11,2,9,8)          -107.8162         estimate D2E/DX2                !
 ! D18   D(11,2,9,19)           70.1907         estimate D2E/DX2                !
 ! D19   D(2,3,4,5)            141.8932         estimate D2E/DX2                !
 ! D20   D(2,3,4,8)             17.9047         estimate D2E/DX2                !
 ! D21   D(2,3,4,14)           -98.0445         estimate D2E/DX2                !
 ! D22   D(12,3,4,5)            25.9371         estimate D2E/DX2                !
 ! D23   D(12,3,4,8)           -98.0514         estimate D2E/DX2                !
 ! D24   D(12,3,4,14)          145.9994         estimate D2E/DX2                !
 ! D25   D(13,3,4,5)           -93.2645         estimate D2E/DX2                !
 ! D26   D(13,3,4,8)           142.747          estimate D2E/DX2                !
 ! D27   D(13,3,4,14)           26.7979         estimate D2E/DX2                !
 ! D28   D(3,4,5,6)             69.4762         estimate D2E/DX2                !
 ! D29   D(3,4,5,15)          -169.6213         estimate D2E/DX2                !
 ! D30   D(3,4,5,16)           -53.1553         estimate D2E/DX2                !
 ! D31   D(8,4,5,6)           -172.7134         estimate D2E/DX2                !
 ! D32   D(8,4,5,15)           -51.8108         estimate D2E/DX2                !
 ! D33   D(8,4,5,16)            64.6551         estimate D2E/DX2                !
 ! D34   D(14,4,5,6)           -51.8331         estimate D2E/DX2                !
 ! D35   D(14,4,5,15)           69.0694         estimate D2E/DX2                !
 ! D36   D(14,4,5,16)         -174.4646         estimate D2E/DX2                !
 ! D37   D(3,4,8,9)            -11.9396         estimate D2E/DX2                !
 ! D38   D(3,4,8,18)           170.5306         estimate D2E/DX2                !
 ! D39   D(5,4,8,9)           -136.572          estimate D2E/DX2                !
 ! D40   D(5,4,8,18)            45.8982         estimate D2E/DX2                !
 ! D41   D(14,4,8,9)           103.9057         estimate D2E/DX2                !
 ! D42   D(14,4,8,18)          -73.6241         estimate D2E/DX2                !
 ! D43   D(4,5,6,7)              2.3399         estimate D2E/DX2                !
 ! D44   D(4,5,6,17)          -178.183          estimate D2E/DX2                !
 ! D45   D(15,5,6,7)          -121.1108         estimate D2E/DX2                !
 ! D46   D(15,5,6,17)           58.3662         estimate D2E/DX2                !
 ! D47   D(16,5,6,7)           126.9454         estimate D2E/DX2                !
 ! D48   D(16,5,6,17)          -53.5776         estimate D2E/DX2                !
 ! D49   D(4,8,9,2)              0.6775         estimate D2E/DX2                !
 ! D50   D(4,8,9,19)          -177.2206         estimate D2E/DX2                !
 ! D51   D(18,8,9,2)           178.1077         estimate D2E/DX2                !
 ! D52   D(18,8,9,19)            0.2097         estimate D2E/DX2                !
 --------------------------------------------------------------------------------
 Trust Radius=3.00D-01 FncErr=1.00D-07 GrdErr=1.00D-06
 Number of steps in this run=    114 maximum allowed number of steps=    114.
 GradGradGradGradGradGradGradGradGradGradGradGradGradGradGradGradGradGrad

                          Input orientation:                          
 ---------------------------------------------------------------------
 Center     Atomic      Atomic             Coordinates (Angstroms)
 Number     Number       Type             X           Y           Z
 ---------------------------------------------------------------------
      1          8           0       -4.786871    2.119297    0.280014
      2          6           0       -3.459945    2.629140    0.246239
      3          6           0       -2.387437    1.592890   -0.183279
      4          6           0       -1.134038    1.881384    0.684249
      5          6           0       -0.372604    0.635497    1.146934
      6          6           0        0.346189   -0.107213    0.043936
      7          8           0        0.381699    0.238022   -1.109942
      8          6           0       -1.700888    2.708063    1.819074
      9          6           0       -2.945242    3.117046    1.581394
     10          1           0       -4.812403    1.433565    0.956903
     11          1           0       -3.516899    3.459083   -0.469720
     12          1           0       -2.778239    0.594637    0.052655
     13          1           0       -2.174227    1.607959   -1.252538
     14          1           0       -0.427111    2.492514    0.106267
     15          1           0        0.388437    0.890328    1.901293
     16          1           0       -1.039835   -0.078777    1.652620
     17          1           0        0.872791   -1.030774    0.378501
     18          1           0       -1.113921    2.957891    2.697934
     19          1           0       -3.543314    3.754330    2.223531
 ---------------------------------------------------------------------
                    Distance matrix (angstroms):
                    1          2          3          4          5
     1  O    0.000000
     2  C    1.421905   0.000000
     3  C    2.499806   1.551958   0.000000
     4  C    3.682825   2.482103   1.551400   0.000000
     5  C    4.736979   3.783853   2.597234   1.531697   0.000000
     6  C    5.600124   4.692037   3.227180   2.560389   1.511583
     7  O    5.673208   4.723865   3.219081   2.866569   2.412561
     8  C    3.498377   2.361000   2.392567   1.514115   2.551792
     9  C    2.465905   1.511824   2.397555   2.369006   3.600738
    10  H    0.963877   1.939996   2.684374   3.715542   4.514958
    11  H    1.992475   1.097563   2.200093   3.082013   4.524688
    12  H    2.531973   2.154391   1.097679   2.181289   2.643141
    13  H    3.071823   2.223109   1.090413   2.215377   3.154203
    14  H    4.379154   3.039135   2.176244   1.098767   2.129430
    15  H    5.560821   4.535716   3.541823   2.186623   1.101444
    16  H    4.555860   3.894568   2.825072   2.188344   1.100501
    17  H    6.477996   5.673188   4.222357   3.549861   2.217647
    18  H    4.476622   3.409210   3.433141   2.283462   2.889405
    19  H    2.827901   2.276552   3.435201   3.417883   4.575979
                    6          7          8          9         10
     6  C    0.000000
     7  O    1.204942   0.000000
     8  C    3.907354   4.360895   0.000000
     9  C    4.857277   5.157578   1.331231   0.000000
    10  H    5.460639   5.716631   3.471197   2.590441   0.000000
    11  H    5.282590   5.097468   3.016704   2.156583   2.795765
    12  H    3.202299   3.385854   2.957615   2.954231   2.378926
    13  H    3.312877   2.903414   3.296828   3.301966   3.445580
    14  H    2.713017   2.686275   2.145385   2.984464   4.590833
    15  H    2.108707   3.081085   2.770596   4.021695   5.313730
    16  H    2.123614   3.122959   2.869002   3.721416   4.123527
    17  H    1.114544   2.016551   4.762140   5.764438   6.223259
    18  H    4.309348   4.912686   1.085974   2.150751   4.362743
    19  H    5.898336   6.235558   2.157033   1.084509   2.932726
                   11         12         13         14         15
    11  H    0.000000
    12  H    3.003921   0.000000
    13  H    2.417072   1.759312   0.000000
    14  H    3.288283   3.022021   2.383527   0.000000
    15  H    5.241360   3.678686   4.126607   2.540519   0.000000
    16  H    4.812133   2.456710   3.545683   3.062381   1.743836
    17  H    6.336219   4.009758   4.348277   3.765291   2.498825
    18  H    4.007434   3.918216   4.307295   2.721216   2.677038
    19  H    2.709514   3.909181   4.308638   3.973123   4.874937
                   16         17         18         19
    16  H    0.000000
    17  H    2.487532   0.000000
    18  H    3.212401   5.023568   0.000000
    19  H    4.613681   6.767816   2.600254   0.000000
 Stoichiometry    C7H10O2
 Framework group  C1[X(C7H10O2)]
 Deg. of freedom    51
 Full point group                 C1      NOp   1
 Largest Abelian subgroup         C1      NOp   1
 Largest concise Abelian subgroup C1      NOp   1
                         Standard orientation:                         
 ---------------------------------------------------------------------
 Center     Atomic      Atomic             Coordinates (Angstroms)
 Number     Number       Type             X           Y           Z
 ---------------------------------------------------------------------
      1          8           0       -2.742003   -1.164871    0.518290
      2          6           0       -1.861658   -0.464884   -0.351668
      3          6           0       -0.360086   -0.799076   -0.146314
      4          6           0        0.411044    0.532890   -0.341421
      5          6           0        1.597237    0.733062    0.606720
      6          6           0        2.769332   -0.186084    0.349333
      7          8           0        2.828567   -0.994339   -0.542351
      8          6           0       -0.679176    1.571809   -0.184537
      9          6           0       -1.898926    1.038721   -0.198715
     10          1           0       -2.540512   -0.881521    1.417274
     11          1           0       -2.198168   -0.757133   -1.354662
     12          1           0       -0.237023   -1.149305    0.886688
     13          1           0       -0.000368   -1.595403   -0.798592
     14          1           0        0.808656    0.573923   -1.364900
     15          1           0        1.986261    1.761802    0.547278
     16          1           0        1.297222    0.607535    1.658070
     17          1           0        3.617942   -0.059760    1.060749
     18          1           0       -0.457289    2.632538   -0.114097
     19          1           0       -2.835833    1.582370   -0.145705
 ---------------------------------------------------------------------
 Rotational constants (GHZ):      3.3826316      0.9456103      0.8107131
 Standard basis: 6-31G(2df,p) (6D, 7F)
 There are   329 symmetry adapted cartesian basis functions of A   symmetry.
 There are   302 symmetry adapted basis functions of A   symmetry.
   302 basis functions,   466 primitive gaussians,   329 cartesian basis functions
    34 alpha electrons       34 beta electrons
       nuclear repulsion energy       439.5039329788 Hartrees.
 NAtoms=   19 NActive=   19 NUniq=   19 SFac= 1.00D+00 NAtFMM=   60 NAOKFM=F Big=F
 Integral buffers will be    131072 words long.
 Raffenetti 2 integral format.
 Two-electron integral symmetry is turned on.
 One-electron integrals computed using PRISM.
 NBasis=   302 RedAO= T EigKep=  4.14D-04  NBF=   302
 NBsUse=   302 1.00D-06 EigRej= -1.00D+00 NBFU=   302
 ExpMin= 1.61D-01 ExpMax= 5.48D+03 ExpMxC= 8.25D+02 IAcc=1 IRadAn=         1 AccDes= 0.00D+00
 Harris functional with IExCor=  402 and IRadAn=       1 diagonalized for initial guess.
 HarFok:  IExCor=  402 AccDes= 0.00D+00 IRadAn=         1 IDoV= 1 UseB2=F ITyADJ=14
 ICtDFT=  3500011 ScaDFX=  1.000000  1.000000  1.000000  1.000000
 FoFCou: FMM=F IPFlag=           0 FMFlag=      100000 FMFlg1=           0
         NFxFlg=           0 DoJE=T BraDBF=F KetDBF=T FulRan=T
         wScrn=  0.000000 ICntrl=     500 IOpCl=  0 I1Cent=   200000004 NGrid=           0
         NMat0=    1 NMatS0=      1 NMatT0=    0 NMatD0=    1 NMtDS0=    0 NMtDT0=    0
 Petite list used in FoFCou.
 Requested convergence on RMS density matrix=1.00D-08 within 128 cycles.
 Requested convergence on MAX density matrix=1.00D-06.
 Requested convergence on             energy=1.00D-06.
 No special actions if energy rises.
 Integral accuracy reduced to 1.0D-05 until final iterations.
 Initial convergence to 1.0D-05 achieved.  Increase integral accuracy.
 SCF Done:  E(RB3LYP) =  -423.202314888     A.U. after   14 cycles
            NFock= 14  Conv=0.75D-08     -V/T= 2.0075

 **********************************************************************

            Population analysis using the SCF density.

 **********************************************************************

 Orbital symmetries:
       Occupied  (A) (A) (A) (A) (A) (A) (A) (A) (A) (A) (A) (A)
                 (A) (A) (A) (A) (A) (A) (A) (A) (A) (A) (A) (A)
                 (A) (A) (A) (A) (A) (A) (A) (A) (A) (A)
       Virtual   (A) (A) (A) (A) (A) (A) (A) (A) (A) (A) (A) (A)
                 (A) (A) (A) (A) (A) (A) (A) (A) (A) (A) (A) (A)
                 (A) (A) (A) (A) (A) (A) (A) (A) (A) (A) (A) (A)
                 (A) (A) (A) (A) (A) (A) (A) (A) (A) (A) (A) (A)
                 (A) (A) (A) (A) (A) (A) (A) (A) (A) (A) (A) (A)
                 (A) (A) (A) (A) (A) (A) (A) (A) (A) (A) (A) (A)
                 (A) (A) (A) (A) (A) (A) (A) (A) (A) (A) (A) (A)
                 (A) (A) (A) (A) (A) (A) (A) (A) (A) (A) (A) (A)
                 (A) (A) (A) (A) (A) (A) (A) (A) (A) (A) (A) (A)
                 (A) (A) (A) (A) (A) (A) (A) (A) (A) (A) (A) (A)
                 (A) (A) (A) (A) (A) (A) (A) (A) (A) (A) (A) (A)
                 (A) (A) (A) (A) (A) (A) (A) (A) (A) (A) (A) (A)
                 (A) (A) (A) (A) (A) (A) (A) (A) (A) (A) (A) (A)
                 (A) (A) (A) (A) (A) (A) (A) (A) (A) (A) (A) (A)
                 (A) (A) (A) (A) (A) (A) (A) (A) (A) (A) (A) (A)
                 (A) (A) (A) (A) (A) (A) (A) (A) (A) (A) (A) (A)
                 (A) (A) (A) (A) (A) (A) (A) (A) (A) (A) (A) (A)
                 (A) (A) (A) (A) (A) (A) (A) (A) (A) (A) (A) (A)
                 (A) (A) (A) (A) (A) (A) (A) (A) (A) (A) (A) (A)
                 (A) (A) (A) (A) (A) (A) (A) (A) (A) (A) (A) (A)
                 (A) (A) (A) (A) (A) (A) (A) (A) (A) (A) (A) (A)
                 (A) (A) (A) (A) (A) (A) (A) (A) (A) (A) (A) (A)
                 (A) (A) (A) (A)
 The electronic state is 1-A.
 Alpha  occ. eigenvalues --  -19.14553 -19.13168 -10.27713 -10.23084 -10.20248
 Alpha  occ. eigenvalues --  -10.19882 -10.18851 -10.18049 -10.17914  -1.05192
 Alpha  occ. eigenvalues --   -1.01382  -0.84693  -0.77097  -0.70868  -0.67962
 Alpha  occ. eigenvalues --   -0.59576  -0.56229  -0.54435  -0.51226  -0.47902
 Alpha  occ. eigenvalues --   -0.47314  -0.45520  -0.44150  -0.42659  -0.39467
 Alpha  occ. eigenvalues --   -0.38273  -0.37162  -0.36529  -0.35101  -0.34176
 Alpha  occ. eigenvalues --   -0.31645  -0.26913  -0.26311  -0.24591
 Alpha virt. eigenvalues --   -0.02366   0.00916   0.08566   0.10121   0.10866
 Alpha virt. eigenvalues --    0.12215   0.13394   0.13762   0.15395   0.16248
 Alpha virt. eigenvalues --    0.17434   0.18788   0.20128   0.21046   0.22516
 Alpha virt. eigenvalues --    0.26451   0.27433   0.28635   0.31963   0.33454
 Alpha virt. eigenvalues --    0.37916   0.42968   0.45930   0.46772   0.47237
 Alpha virt. eigenvalues --    0.48261   0.50590   0.52435   0.53727   0.54024
 Alpha virt. eigenvalues --    0.54589   0.55513   0.57857   0.59258   0.60670
 Alpha virt. eigenvalues --    0.61539   0.64238   0.66552   0.67943   0.68965
 Alpha virt. eigenvalues --    0.70275   0.71382   0.73263   0.73745   0.74769
 Alpha virt. eigenvalues --    0.75679   0.76648   0.77878   0.78532   0.79746
 Alpha virt. eigenvalues --    0.80432   0.83298   0.83541   0.84750   0.87603
 Alpha virt. eigenvalues --    0.89092   0.90775   0.92546   0.92953   0.95220
 Alpha virt. eigenvalues --    0.97519   0.98720   0.99018   1.00249   1.02880
 Alpha virt. eigenvalues --    1.04381   1.09014   1.10004   1.12456   1.13202
 Alpha virt. eigenvalues --    1.17428   1.19058   1.20986   1.24683   1.28746
 Alpha virt. eigenvalues --    1.31205   1.32020   1.33599   1.36209   1.37637
 Alpha virt. eigenvalues --    1.38829   1.40349   1.41104   1.43255   1.45867
 Alpha virt. eigenvalues --    1.50435   1.52752   1.53911   1.56007   1.57742
 Alpha virt. eigenvalues --    1.58807   1.59610   1.63162   1.63181   1.65106
 Alpha virt. eigenvalues --    1.65863   1.68038   1.69328   1.75743   1.77281
 Alpha virt. eigenvalues --    1.81999   1.83899   1.85981   1.87823   1.90906
 Alpha virt. eigenvalues --    1.94962   1.98195   2.00180   2.03442   2.11611
 Alpha virt. eigenvalues --    2.16650   2.17132   2.18807   2.21124   2.24704
 Alpha virt. eigenvalues --    2.27254   2.33555   2.35513   2.38503   2.42242
 Alpha virt. eigenvalues --    2.43042   2.47235   2.48523   2.50269   2.51173
 Alpha virt. eigenvalues --    2.57409   2.60204   2.64367   2.67813   2.72163
 Alpha virt. eigenvalues --    2.72459   2.75683   2.78483   2.80787   2.81846
 Alpha virt. eigenvalues --    2.86089   2.86662   2.88695   2.89854   2.93033
 Alpha virt. eigenvalues --    2.93914   2.96269   2.97405   2.97837   3.00255
 Alpha virt. eigenvalues --    3.02487   3.03391   3.07699   3.08599   3.11047
 Alpha virt. eigenvalues --    3.12861   3.15380   3.17972   3.19300   3.20661
 Alpha virt. eigenvalues --    3.24694   3.24914   3.27969   3.30081   3.34742
 Alpha virt. eigenvalues --    3.36824   3.36990   3.39721   3.42363   3.44614
 Alpha virt. eigenvalues --    3.48326   3.52287   3.52826   3.55081   3.58420
 Alpha virt. eigenvalues --    3.59800   3.62010   3.63375   3.70190   3.73260
 Alpha virt. eigenvalues --    3.77747   3.81080   3.82562   3.87866   3.94107
 Alpha virt. eigenvalues --    3.96373   3.99493   4.03556   4.05763   4.08373
 Alpha virt. eigenvalues --    4.10665   4.13687   4.16479   4.18775   4.21626
 Alpha virt. eigenvalues --    4.22831   4.25388   4.27552   4.30310   4.34354
 Alpha virt. eigenvalues --    4.35991   4.38171   4.41092   4.43094   4.46899
 Alpha virt. eigenvalues --    4.48815   4.52034   4.53878   4.54811   4.57063
 Alpha virt. eigenvalues --    4.58669   4.59092   4.59863   4.62986   4.65180
 Alpha virt. eigenvalues --    4.67032   4.69786   4.70779   4.72499   4.74738
 Alpha virt. eigenvalues --    4.75880   4.77992   4.80846   4.82370   4.83596
 Alpha virt. eigenvalues --    4.84764   4.87191   4.88403   4.91908   4.96583
 Alpha virt. eigenvalues --    5.01119   5.01782   5.03855   5.05886   5.08206
 Alpha virt. eigenvalues --    5.09507   5.14057   5.19028   5.21664   5.24803
 Alpha virt. eigenvalues --    5.26164   5.30618   5.35656   5.38171   5.43359
 Alpha virt. eigenvalues --    5.47119   5.51554   5.51814   5.53324   5.54773
 Alpha virt. eigenvalues --    5.57867   5.60021   5.65427   5.80499   5.93874
 Alpha virt. eigenvalues --    5.97683   5.99234   6.09877   6.18728   6.30559
 Alpha virt. eigenvalues --    6.36231   6.52524   6.80716   7.07569  10.29292
 Alpha virt. eigenvalues --   10.72501  11.38247  11.55871  12.07397  12.40634
 Alpha virt. eigenvalues --   12.71740  12.97769  13.26522
          Condensed to atoms (all electrons):
               1          2          3          4          5          6
     1  O    7.836417   0.385035  -0.038002   0.002204  -0.000038  -0.000001
     2  C    0.385035   4.656581   0.357493  -0.054360   0.000181   0.000300
     3  C   -0.038002   0.357493   5.093482   0.340085  -0.024426  -0.000124
     4  C    0.002204  -0.054360   0.340085   4.755275   0.367896  -0.016410
     5  C   -0.000038   0.000181  -0.024426   0.367896   5.363461   0.256365
     6  C   -0.000001   0.000300  -0.000124  -0.016410   0.256365   4.501500
     7  O    0.000000   0.000201   0.003101   0.006174  -0.082044   0.765071
     8  C    0.002077  -0.006064  -0.023408   0.372567  -0.040317   0.003828
     9  C   -0.040019   0.362498  -0.074715   0.005457   0.000263  -0.000177
    10  H    0.307156  -0.077174  -0.001653  -0.000348  -0.000100   0.000002
    11  H   -0.023019   0.353590  -0.046866   0.004042  -0.000245   0.000005
    12  H   -0.001615  -0.026664   0.342564  -0.027286  -0.011255  -0.000182
    13  H    0.001805  -0.019345   0.355877  -0.018039  -0.000056   0.001491
    14  H   -0.000078   0.001768  -0.036693   0.366641  -0.059237  -0.000497
    15  H    0.000000   0.000049   0.004052  -0.026231   0.337211  -0.014121
    16  H   -0.000020  -0.000103  -0.008311  -0.021893   0.330303  -0.014559
    17  H    0.000000   0.000013   0.000245   0.005888  -0.124113   0.360799
    18  H   -0.000046   0.005948   0.005449  -0.055786  -0.001277   0.000097
    19  H    0.001130  -0.048852   0.006073   0.005684  -0.000049   0.000001
               7          8          9         10         11         12
     1  O    0.000000   0.002077  -0.040019   0.307156  -0.023019  -0.001615
     2  C    0.000201  -0.006064   0.362498  -0.077174   0.353590  -0.026664
     3  C    0.003101  -0.023408  -0.074715  -0.001653  -0.046866   0.342564
     4  C    0.006174   0.372567   0.005457  -0.000348   0.004042  -0.027286
     5  C   -0.082044  -0.040317   0.000263  -0.000100  -0.000245  -0.011255
     6  C    0.765071   0.003828  -0.000177   0.000002   0.000005  -0.000182
     7  O    7.581118   0.000544  -0.000041   0.000000   0.000000  -0.000052
     8  C    0.000544   4.874842   0.608960   0.001594   0.001189   0.000844
     9  C   -0.000041   0.608960   4.977841   0.002811  -0.043049   0.002654
    10  H    0.000000   0.001594   0.002811   0.481188   0.008699   0.006425
    11  H    0.000000   0.001189  -0.043049   0.008699   0.648424   0.005459
    12  H   -0.000052   0.000844   0.002654   0.006425   0.005459   0.644487
    13  H    0.003032   0.003813   0.005295  -0.000055  -0.005716  -0.035549
    14  H    0.006277  -0.037645  -0.000748   0.000034   0.001050   0.005708
    15  H    0.000516  -0.002335  -0.000411   0.000000   0.000006   0.000181
    16  H    0.000755   0.000006   0.001159   0.000054   0.000010   0.007044
    17  H   -0.050291  -0.000003  -0.000007   0.000000   0.000000  -0.000086
    18  H    0.000005   0.364178  -0.039976  -0.000035  -0.000276  -0.000199
    19  H    0.000000  -0.039633   0.367869   0.000339  -0.000164  -0.000221
              13         14         15         16         17         18
     1  O    0.001805  -0.000078   0.000000  -0.000020   0.000000  -0.000046
     2  C   -0.019345   0.001768   0.000049  -0.000103   0.000013   0.005948
     3  C    0.355877  -0.036693   0.004052  -0.008311   0.000245   0.005449
     4  C   -0.018039   0.366641  -0.026231  -0.021893   0.005888  -0.055786
     5  C   -0.000056  -0.059237   0.337211   0.330303  -0.124113  -0.001277
     6  C    0.001491  -0.000497  -0.014121  -0.014559   0.360799   0.000097
     7  O    0.003032   0.006277   0.000516   0.000755  -0.050291   0.000005
     8  C    0.003813  -0.037645  -0.002335   0.000006  -0.000003   0.364178
     9  C    0.005295  -0.000748  -0.000411   0.001159  -0.000007  -0.039976
    10  H   -0.000055   0.000034   0.000000   0.000054   0.000000  -0.000035
    11  H   -0.005716   0.001050   0.000006   0.000010   0.000000  -0.000276
    12  H   -0.035549   0.005708   0.000181   0.007044  -0.000086  -0.000199
    13  H    0.590981  -0.006683  -0.000150  -0.000081   0.000082  -0.000122
    14  H   -0.006683   0.653727  -0.001719   0.006694   0.000428   0.000410
    15  H   -0.000150  -0.001719   0.605246  -0.032349   0.002566   0.003971
    16  H   -0.000081   0.006694  -0.032349   0.606824   0.002700  -0.000077
    17  H    0.000082   0.000428   0.002566   0.002700   0.721279   0.000009
    18  H   -0.000122   0.000410   0.003971  -0.000077   0.000009   0.627708
    19  H   -0.000113  -0.000225  -0.000009  -0.000011   0.000000  -0.004345
              19
     1  O    0.001130
     2  C   -0.048852
     3  C    0.006073
     4  C    0.005684
     5  C   -0.000049
     6  C    0.000001
     7  O    0.000000
     8  C   -0.039633
     9  C    0.367869
    10  H    0.000339
    11  H   -0.000164
    12  H   -0.000221
    13  H   -0.000113
    14  H   -0.000225
    15  H   -0.000009
    16  H   -0.000011
    17  H    0.000000
    18  H   -0.004345
    19  H    0.611905
 Mulliken charges:
               1
     1  O   -0.432986
     2  C    0.108906
     3  C   -0.254223
     4  C   -0.011560
     5  C   -0.312524
     6  C    0.156610
     7  O   -0.234365
     8  C   -0.085038
     9  C   -0.135665
    10  H    0.271063
    11  H    0.096861
    12  H    0.087743
    13  H    0.123533
    14  H    0.100787
    15  H    0.123527
    16  H    0.121856
    17  H    0.080491
    18  H    0.094363
    19  H    0.100620
 Sum of Mulliken charges =   0.00000
 Mulliken charges with hydrogens summed into heavy atoms:
               1
     1  O   -0.161923
     2  C    0.205768
     3  C   -0.042946
     4  C    0.089226
     5  C   -0.067141
     6  C    0.237101
     7  O   -0.234365
     8  C    0.009326
     9  C   -0.035045
 Electronic spatial extent (au):  <R**2>=           1411.9609
 Charge=              0.0000 electrons
 Dipole moment (field-independent basis, Debye):
    X=              0.6328    Y=              2.6628    Z=              1.8544  Tot=              3.3060
 Quadrupole moment (field-independent basis, Debye-Ang):
   XX=            -59.5584   YY=            -55.2482   ZZ=            -50.3378
   XY=              1.4599   XZ=              3.4145   YZ=             -1.0015
 Traceless Quadrupole moment (field-independent basis, Debye-Ang):
   XX=             -4.5103   YY=             -0.2001   ZZ=              4.7104
   XY=              1.4599   XZ=              3.4145   YZ=             -1.0015
 Octapole moment (field-independent basis, Debye-Ang**2):
  XXX=             10.2714  YYY=              0.5571  ZZZ=              5.8979  XYY=              2.2531
  XXY=             24.3018  XXZ=             13.9916  XZZ=             -5.9734  YZZ=             -7.1825
  YYZ=              0.3600  XYZ=             -3.9971
 Hexadecapole moment (field-independent basis, Debye-Ang**3):
 XXXX=          -1330.5157 YYYY=           -360.0815 ZZZZ=           -131.6707 XXXY=             -1.5993
 XXXZ=             22.3733 YYYX=             -1.8303 YYYZ=              1.3625 ZZZX=            -23.3696
 ZZZY=             -3.9680 XXYY=           -298.4259 XXZZ=           -216.4810 YYZZ=            -86.5049
 XXYZ=             -8.7881 YYXZ=              0.7316 ZZXY=             11.4891
 N-N= 4.395039329788D+02 E-N=-1.866006245669D+03  KE= 4.200602591511D+02
 Calling FoFJK, ICntrl=      2127 FMM=F ISym2X=0 I1Cent= 0 IOpClX= 0 NMat=1 NMatS=1 NMatT=0.
 ***** Axes restored to original set *****
 -------------------------------------------------------------------
 Center     Atomic                   Forces (Hartrees/Bohr)
 Number     Number              X              Y              Z
 -------------------------------------------------------------------
      1        8           0.000005026   -0.000004032   -0.000006748
      2        6          -0.000011174   -0.000006601   -0.000008445
      3        6           0.000003305   -0.000007121   -0.000003545
      4        6           0.000002488    0.000003195   -0.000001369
      5        6          -0.000000518    0.000004114    0.000008919
      6        6           0.000002857   -0.000000147    0.000011223
      7        8           0.000005669   -0.000003839    0.000009535
      8        6          -0.000007904    0.000004105   -0.000003472
      9        6           0.000001821    0.000002604   -0.000007337
     10        1          -0.000000387   -0.000002653   -0.000006578
     11        1           0.000001366   -0.000007129   -0.000010685
     12        1           0.000002073   -0.000003402    0.000002978
     13        1           0.000004207   -0.000006824    0.000000303
     14        1          -0.000000355   -0.000001815   -0.000000328
     15        1          -0.000001536    0.000007386    0.000007450
     16        1           0.000000625    0.000005510    0.000008191
     17        1           0.000004584    0.000002662    0.000016799
     18        1          -0.000004998    0.000009646   -0.000004261
     19        1          -0.000007150    0.000004342   -0.000012630
 -------------------------------------------------------------------
 Cartesian Forces:  Max     0.000016799 RMS     0.000006127

 GradGradGradGradGradGradGradGradGradGradGradGradGradGradGradGradGradGrad
 Berny optimization.
 FormGI is forming the generalized inverse of G from B-inverse, IUseBI=4.
 Internal  Forces:  Max     0.000005156 RMS     0.000000767
 Search for a local minimum.
 Step number   1 out of a maximum of  114
 All quantities printed in internal units (Hartrees-Bohrs-Radians)
 Mixed Optimization -- En-DIIS/RFO-DIIS
 Second derivative matrix not updated -- first step.
 ITU=  0
     Eigenvalues ---    0.00344   0.00347   0.00613   0.00613   0.00995
     Eigenvalues ---    0.01248   0.01402   0.01842   0.03322   0.03474
     Eigenvalues ---    0.03799   0.04207   0.04820   0.05157   0.05270
     Eigenvalues ---    0.05737   0.06455   0.07044   0.07244   0.08697
     Eigenvalues ---    0.09877   0.13090   0.13693   0.14301   0.15981
     Eigenvalues ---    0.15989   0.16000   0.16000   0.19825   0.21347
     Eigenvalues ---    0.21892   0.22000   0.26545   0.26650   0.29267
     Eigenvalues ---    0.29385   0.30828   0.31192   0.32124   0.33523
     Eigenvalues ---    0.33627   0.33819   0.33940   0.33953   0.34765
     Eigenvalues ---    0.35282   0.35455   0.42175   0.54648   0.56017
     Eigenvalues ---    1.02379
 RFO step:  Lambda= 0.00000000D+00 EMin= 3.43923577D-03
 Linear search not attempted -- first point.
 Iteration  1 RMS(Cart)=  0.00002494 RMS(Int)=  0.00000000
 Iteration  2 RMS(Cart)=  0.00000000 RMS(Int)=  0.00000000
 Variable       Old X    -DE/DX   Delta X   Delta X   Delta X     New X
                                 (Linear)    (Quad)   (Total)
    R1        2.68701  -0.00001   0.00000  -0.00001  -0.00001   2.68700
    R2        1.82146   0.00000   0.00000   0.00000   0.00000   1.82146
    R3        2.93277   0.00000   0.00000   0.00001   0.00001   2.93278
    R4        2.85693   0.00000   0.00000   0.00001   0.00001   2.85694
    R5        2.07409   0.00000   0.00000   0.00000   0.00000   2.07409
    R6        2.93172   0.00000   0.00000   0.00000   0.00000   2.93173
    R7        2.07431   0.00000   0.00000   0.00000   0.00000   2.07431
    R8        2.06058   0.00000   0.00000   0.00000   0.00000   2.06058
    R9        2.89449   0.00000   0.00000   0.00000   0.00000   2.89449
   R10        2.86126   0.00000   0.00000   0.00000   0.00000   2.86126
   R11        2.07637   0.00000   0.00000   0.00000   0.00000   2.07637
   R12        2.85648   0.00000   0.00000   0.00000   0.00000   2.85648
   R13        2.08143   0.00000   0.00000   0.00000   0.00000   2.08143
   R14        2.07965   0.00000   0.00000   0.00000   0.00000   2.07964
   R15        2.27701   0.00000   0.00000   0.00000   0.00000   2.27701
   R16        2.10618   0.00000   0.00000   0.00000   0.00000   2.10618
   R17        2.51566   0.00000   0.00000   0.00000   0.00000   2.51566
   R18        2.05219   0.00000   0.00000   0.00000   0.00000   2.05219
   R19        2.04942   0.00000   0.00000   0.00000   0.00000   2.04943
    A1        1.87182   0.00000   0.00000   0.00000   0.00000   1.87182
    A2        1.99552   0.00000   0.00000   0.00001   0.00001   1.99552
    A3        1.99594   0.00000   0.00000   0.00001   0.00001   1.99594
    A4        1.81131   0.00000   0.00000   0.00001   0.00001   1.81132
    A5        1.79736   0.00000   0.00000   0.00000   0.00000   1.79736
    A6        1.93930   0.00000   0.00000  -0.00001  -0.00001   1.93929
    A7        1.92807   0.00000   0.00000  -0.00001  -0.00001   1.92806
    A8        1.85396   0.00000   0.00000   0.00000   0.00000   1.85397
    A9        1.87727   0.00000   0.00000  -0.00001  -0.00001   1.87727
   A10        1.97936   0.00000   0.00000  -0.00001  -0.00001   1.97935
   A11        1.91406   0.00000   0.00000   0.00000   0.00000   1.91406
   A12        1.96904   0.00000   0.00000  -0.00001  -0.00001   1.96903
   A13        1.86811   0.00000   0.00000   0.00001   0.00001   1.86812
   A14        2.00346   0.00000   0.00000   0.00000   0.00000   2.00345
   A15        1.79074   0.00000   0.00000   0.00000   0.00000   1.79074
   A16        1.90612   0.00000   0.00000   0.00000   0.00000   1.90612
   A17        1.98647   0.00000   0.00000  -0.00001  -0.00001   1.98647
   A18        1.86656   0.00000   0.00000   0.00000   0.00000   1.86656
   A19        1.90864   0.00000   0.00000   0.00001   0.00001   1.90865
   A20        1.99943   0.00000   0.00000  -0.00001  -0.00001   1.99943
   A21        1.94140   0.00000   0.00000   0.00001   0.00001   1.94141
   A22        1.94479   0.00000   0.00000   0.00000   0.00000   1.94479
   A23        1.85967   0.00000   0.00000   0.00000   0.00000   1.85967
   A24        1.88042   0.00000   0.00000   0.00000   0.00000   1.88042
   A25        1.82800   0.00000   0.00000   0.00000   0.00000   1.82800
   A26        2.17975   0.00000   0.00000   0.00000   0.00000   2.17975
   A27        1.99631   0.00000   0.00000   0.00000   0.00000   1.99631
   A28        2.10709   0.00000   0.00000   0.00000   0.00000   2.10709
   A29        1.96478   0.00000   0.00000   0.00000   0.00000   1.96478
   A30        2.12917   0.00000   0.00000  -0.00001  -0.00001   2.12916
   A31        2.18835   0.00000   0.00000   0.00000   0.00000   2.18835
   A32        1.95709   0.00000   0.00000   0.00001   0.00001   1.95710
   A33        2.12328   0.00000   0.00000  -0.00001  -0.00001   2.12327
   A34        2.20222   0.00000   0.00000   0.00000   0.00000   2.20223
    D1        1.11307   0.00000   0.00000  -0.00002  -0.00002   1.11305
    D2       -0.95312   0.00000   0.00000  -0.00003  -0.00003  -0.95315
    D3       -3.05482   0.00000   0.00000  -0.00003  -0.00003  -3.05485
    D4       -2.48360   0.00000   0.00000   0.00003   0.00003  -2.48357
    D5       -0.43511   0.00000   0.00000   0.00003   0.00003  -0.43508
    D6        1.62705   0.00000   0.00000   0.00004   0.00004   1.62708
    D7       -0.30777   0.00000   0.00000   0.00004   0.00004  -0.30773
    D8        1.74072   0.00000   0.00000   0.00004   0.00004   1.74076
    D9       -2.48031   0.00000   0.00000   0.00005   0.00005  -2.48026
   D10        1.75656   0.00000   0.00000   0.00002   0.00002   1.75658
   D11       -2.47814   0.00000   0.00000   0.00002   0.00002  -2.47812
   D12       -0.41599   0.00000   0.00000   0.00003   0.00003  -0.41596
   D13        2.36599   0.00000   0.00000  -0.00002  -0.00002   2.36596
   D14       -0.81039   0.00000   0.00000  -0.00001  -0.00001  -0.81041
   D15        0.19043   0.00000   0.00000  -0.00004  -0.00004   0.19040
   D16       -2.98595   0.00000   0.00000  -0.00002  -0.00002  -2.98597
   D17       -1.88175   0.00000   0.00000  -0.00002  -0.00002  -1.88177
   D18        1.22506   0.00000   0.00000  -0.00001  -0.00001   1.22505
   D19        2.47650   0.00000   0.00000  -0.00004  -0.00004   2.47647
   D20        0.31250   0.00000   0.00000  -0.00003  -0.00003   0.31247
   D21       -1.71120   0.00000   0.00000  -0.00004  -0.00004  -1.71124
   D22        0.45269   0.00000   0.00000  -0.00003  -0.00003   0.45266
   D23       -1.71132   0.00000   0.00000  -0.00002  -0.00002  -1.71134
   D24        2.54817   0.00000   0.00000  -0.00003  -0.00003   2.54814
   D25       -1.62777   0.00000   0.00000  -0.00004  -0.00004  -1.62782
   D26        2.49141   0.00000   0.00000  -0.00004  -0.00004   2.49137
   D27        0.46771   0.00000   0.00000  -0.00005  -0.00005   0.46766
   D28        1.21259   0.00000   0.00000   0.00002   0.00002   1.21261
   D29       -2.96045   0.00000   0.00000   0.00002   0.00002  -2.96043
   D30       -0.92774   0.00000   0.00000   0.00002   0.00002  -0.92772
   D31       -3.01442   0.00000   0.00000   0.00001   0.00001  -3.01440
   D32       -0.90427   0.00000   0.00000   0.00001   0.00001  -0.90426
   D33        1.12845   0.00000   0.00000   0.00001   0.00001   1.12846
   D34       -0.90466   0.00000   0.00000   0.00002   0.00002  -0.90464
   D35        1.20549   0.00000   0.00000   0.00002   0.00002   1.20550
   D36       -3.04498   0.00000   0.00000   0.00002   0.00002  -3.04496
   D37       -0.20839   0.00000   0.00000   0.00001   0.00001  -0.20838
   D38        2.97632   0.00000   0.00000   0.00003   0.00003   2.97635
   D39       -2.38363   0.00000   0.00000   0.00001   0.00001  -2.38362
   D40        0.80107   0.00000   0.00000   0.00004   0.00004   0.80111
   D41        1.81350   0.00000   0.00000   0.00001   0.00001   1.81351
   D42       -1.28498   0.00000   0.00000   0.00004   0.00004  -1.28495
   D43        0.04084   0.00000   0.00000   0.00003   0.00003   0.04087
   D44       -3.10988   0.00000   0.00000  -0.00006  -0.00006  -3.10994
   D45       -2.11378   0.00000   0.00000   0.00003   0.00003  -2.11375
   D46        1.01868   0.00000   0.00000  -0.00006  -0.00006   1.01863
   D47        2.21562   0.00000   0.00000   0.00003   0.00003   2.21564
   D48       -0.93510   0.00000   0.00000  -0.00006  -0.00006  -0.93516
   D49        0.01182   0.00000   0.00000   0.00002   0.00002   0.01184
   D50       -3.09308   0.00000   0.00000   0.00001   0.00001  -3.09307
   D51        3.10857   0.00000   0.00000  -0.00001  -0.00001   3.10856
   D52        0.00366   0.00000   0.00000  -0.00002  -0.00002   0.00364
         Item               Value     Threshold  Converged?
 Maximum Force            0.000005     0.000450     YES
 RMS     Force            0.000001     0.000300     YES
 Maximum Displacement     0.000083     0.001800     YES
 RMS     Displacement     0.000025     0.001200     YES
 Predicted change in Energy=-2.644514D-10
 Optimization completed.
    -- Stationary point found.
                           ----------------------------
                           !   Optimized Parameters   !
                           ! (Angstroms and Degrees)  !
 --------------------------                            --------------------------
 ! Name  Definition              Value          Derivative Info.                !
 --------------------------------------------------------------------------------
 ! R1    R(1,2)                  1.4219         -DE/DX =    0.0                 !
 ! R2    R(1,10)                 0.9639         -DE/DX =    0.0                 !
 ! R3    R(2,3)                  1.552          -DE/DX =    0.0                 !
 ! R4    R(2,9)                  1.5118         -DE/DX =    0.0                 !
 ! R5    R(2,11)                 1.0976         -DE/DX =    0.0                 !
 ! R6    R(3,4)                  1.5514         -DE/DX =    0.0                 !
 ! R7    R(3,12)                 1.0977         -DE/DX =    0.0                 !
 ! R8    R(3,13)                 1.0904         -DE/DX =    0.0                 !
 ! R9    R(4,5)                  1.5317         -DE/DX =    0.0                 !
 ! R10   R(4,8)                  1.5141         -DE/DX =    0.0                 !
 ! R11   R(4,14)                 1.0988         -DE/DX =    0.0                 !
 ! R12   R(5,6)                  1.5116         -DE/DX =    0.0                 !
 ! R13   R(5,15)                 1.1014         -DE/DX =    0.0                 !
 ! R14   R(5,16)                 1.1005         -DE/DX =    0.0                 !
 ! R15   R(6,7)                  1.2049         -DE/DX =    0.0                 !
 ! R16   R(6,17)                 1.1145         -DE/DX =    0.0                 !
 ! R17   R(8,9)                  1.3312         -DE/DX =    0.0                 !
 ! R18   R(8,18)                 1.086          -DE/DX =    0.0                 !
 ! R19   R(9,19)                 1.0845         -DE/DX =    0.0                 !
 ! A1    A(2,1,10)             107.2471         -DE/DX =    0.0                 !
 ! A2    A(1,2,3)              114.3347         -DE/DX =    0.0                 !
 ! A3    A(1,2,9)              114.3588         -DE/DX =    0.0                 !
 ! A4    A(1,2,11)             103.7806         -DE/DX =    0.0                 !
 ! A5    A(3,2,9)              102.981          -DE/DX =    0.0                 !
 ! A6    A(3,2,11)             111.1139         -DE/DX =    0.0                 !
 ! A7    A(9,2,11)             110.4701         -DE/DX =    0.0                 !
 ! A8    A(2,3,4)              106.2243         -DE/DX =    0.0                 !
 ! A9    A(2,3,12)             107.5598         -DE/DX =    0.0                 !
 ! A10   A(2,3,13)             113.4088         -DE/DX =    0.0                 !
 ! A11   A(4,3,12)             109.6674         -DE/DX =    0.0                 !
 ! A12   A(4,3,13)             112.8177         -DE/DX =    0.0                 !
 ! A13   A(12,3,13)            107.0347         -DE/DX =    0.0                 !
 ! A14   A(3,4,5)              114.7896         -DE/DX =    0.0                 !
 ! A15   A(3,4,8)              102.6019         -DE/DX =    0.0                 !
 ! A16   A(3,4,14)             109.2128         -DE/DX =    0.0                 !
 ! A17   A(5,4,8)              113.8165         -DE/DX =    0.0                 !
 ! A18   A(5,4,14)             106.9462         -DE/DX =    0.0                 !
 ! A19   A(8,4,14)             109.3569         -DE/DX =    0.0                 !
 ! A20   A(4,5,6)              114.5591         -DE/DX =    0.0                 !
 ! A21   A(4,5,15)             111.234          -DE/DX =    0.0                 !
 ! A22   A(4,5,16)             111.4284         -DE/DX =    0.0                 !
 ! A23   A(6,5,15)             106.5512         -DE/DX =    0.0                 !
 ! A24   A(6,5,16)             107.7403         -DE/DX =    0.0                 !
 ! A25   A(15,5,16)            104.7367         -DE/DX =    0.0                 !
 ! A26   A(5,6,7)              124.8905         -DE/DX =    0.0                 !
 ! A27   A(5,6,17)             114.38           -DE/DX =    0.0                 !
 ! A28   A(7,6,17)             120.7275         -DE/DX =    0.0                 !
 ! A29   A(4,8,9)              112.5734         -DE/DX =    0.0                 !
 ! A30   A(4,8,18)             121.9924         -DE/DX =    0.0                 !
 ! A31   A(9,8,18)             125.383          -DE/DX =    0.0                 !
 ! A32   A(2,9,8)              112.1332         -DE/DX =    0.0                 !
 ! A33   A(2,9,19)             121.6549         -DE/DX =    0.0                 !
 ! A34   A(8,9,19)             126.178          -DE/DX =    0.0                 !
 ! D1    D(10,1,2,3)            63.7744         -DE/DX =    0.0                 !
 ! D2    D(10,1,2,9)           -54.6096         -DE/DX =    0.0                 !
 ! D3    D(10,1,2,11)         -175.0283         -DE/DX =    0.0                 !
 ! D4    D(1,2,3,4)           -142.2996         -DE/DX =    0.0                 !
 ! D5    D(1,2,3,12)           -24.9298         -DE/DX =    0.0                 !
 ! D6    D(1,2,3,13)            93.2229         -DE/DX =    0.0                 !
 ! D7    D(9,2,3,4)            -17.6336         -DE/DX =    0.0                 !
 ! D8    D(9,2,3,12)            99.7362         -DE/DX =    0.0                 !
 ! D9    D(9,2,3,13)          -142.1111         -DE/DX =    0.0                 !
 ! D10   D(11,2,3,4)           100.6432         -DE/DX =    0.0                 !
 ! D11   D(11,2,3,12)         -141.9869         -DE/DX =    0.0                 !
 ! D12   D(11,2,3,13)          -23.8342         -DE/DX =    0.0                 !
 ! D13   D(1,2,9,8)            135.5611         -DE/DX =    0.0                 !
 ! D14   D(1,2,9,19)           -46.4321         -DE/DX =    0.0                 !
 ! D15   D(3,2,9,8)             10.9109         -DE/DX =    0.0                 !
 ! D16   D(3,2,9,19)          -171.0823         -DE/DX =    0.0                 !
 ! D17   D(11,2,9,8)          -107.8162         -DE/DX =    0.0                 !
 ! D18   D(11,2,9,19)           70.1907         -DE/DX =    0.0                 !
 ! D19   D(2,3,4,5)            141.8932         -DE/DX =    0.0                 !
 ! D20   D(2,3,4,8)             17.9047         -DE/DX =    0.0                 !
 ! D21   D(2,3,4,14)           -98.0445         -DE/DX =    0.0                 !
 ! D22   D(12,3,4,5)            25.9371         -DE/DX =    0.0                 !
 ! D23   D(12,3,4,8)           -98.0514         -DE/DX =    0.0                 !
 ! D24   D(12,3,4,14)          145.9994         -DE/DX =    0.0                 !
 ! D25   D(13,3,4,5)           -93.2645         -DE/DX =    0.0                 !
 ! D26   D(13,3,4,8)           142.747          -DE/DX =    0.0                 !
 ! D27   D(13,3,4,14)           26.7979         -DE/DX =    0.0                 !
 ! D28   D(3,4,5,6)             69.4762         -DE/DX =    0.0                 !
 ! D29   D(3,4,5,15)          -169.6213         -DE/DX =    0.0                 !
 ! D30   D(3,4,5,16)           -53.1553         -DE/DX =    0.0                 !
 ! D31   D(8,4,5,6)           -172.7134         -DE/DX =    0.0                 !
 ! D32   D(8,4,5,15)           -51.8108         -DE/DX =    0.0                 !
 ! D33   D(8,4,5,16)            64.6551         -DE/DX =    0.0                 !
 ! D34   D(14,4,5,6)           -51.8331         -DE/DX =    0.0                 !
 ! D35   D(14,4,5,15)           69.0694         -DE/DX =    0.0                 !
 ! D36   D(14,4,5,16)         -174.4646         -DE/DX =    0.0                 !
 ! D37   D(3,4,8,9)            -11.9396         -DE/DX =    0.0                 !
 ! D38   D(3,4,8,18)           170.5306         -DE/DX =    0.0                 !
 ! D39   D(5,4,8,9)           -136.572          -DE/DX =    0.0                 !
 ! D40   D(5,4,8,18)            45.8982         -DE/DX =    0.0                 !
 ! D41   D(14,4,8,9)           103.9057         -DE/DX =    0.0                 !
 ! D42   D(14,4,8,18)          -73.6241         -DE/DX =    0.0                 !
 ! D43   D(4,5,6,7)              2.3399         -DE/DX =    0.0                 !
 ! D44   D(4,5,6,17)          -178.183          -DE/DX =    0.0                 !
 ! D45   D(15,5,6,7)          -121.1108         -DE/DX =    0.0                 !
 ! D46   D(15,5,6,17)           58.3662         -DE/DX =    0.0                 !
 ! D47   D(16,5,6,7)           126.9454         -DE/DX =    0.0                 !
 ! D48   D(16,5,6,17)          -53.5776         -DE/DX =    0.0                 !
 ! D49   D(4,8,9,2)              0.6775         -DE/DX =    0.0                 !
 ! D50   D(4,8,9,19)          -177.2206         -DE/DX =    0.0                 !
 ! D51   D(18,8,9,2)           178.1077         -DE/DX =    0.0                 !
 ! D52   D(18,8,9,19)            0.2097         -DE/DX =    0.0                 !
 --------------------------------------------------------------------------------
 GradGradGradGradGradGradGradGradGradGradGradGradGradGradGradGradGradGrad

                          Input orientation:                          
 ---------------------------------------------------------------------
 Center     Atomic      Atomic             Coordinates (Angstroms)
 Number     Number       Type             X           Y           Z
 ---------------------------------------------------------------------
      1          8           0       -4.786871    2.119297    0.280014
      2          6           0       -3.459945    2.629140    0.246239
      3          6           0       -2.387437    1.592890   -0.183279
      4          6           0       -1.134038    1.881384    0.684249
      5          6           0       -0.372604    0.635497    1.146934
      6          6           0        0.346189   -0.107213    0.043936
      7          8           0        0.381699    0.238022   -1.109942
      8          6           0       -1.700888    2.708063    1.819074
      9          6           0       -2.945242    3.117046    1.581394
     10          1           0       -4.812403    1.433565    0.956903
     11          1           0       -3.516899    3.459083   -0.469720
     12          1           0       -2.778239    0.594637    0.052655
     13          1           0       -2.174227    1.607959   -1.252538
     14          1           0       -0.427111    2.492514    0.106267
     15          1           0        0.388437    0.890328    1.901293
     16          1           0       -1.039835   -0.078777    1.652620
     17          1           0        0.872791   -1.030774    0.378501
     18          1           0       -1.113921    2.957891    2.697934
     19          1           0       -3.543314    3.754330    2.223531
 ---------------------------------------------------------------------
                    Distance matrix (angstroms):
                    1          2          3          4          5
     1  O    0.000000
     2  C    1.421905   0.000000
     3  C    2.499806   1.551958   0.000000
     4  C    3.682825   2.482103   1.551400   0.000000
     5  C    4.736979   3.783853   2.597234   1.531697   0.000000
     6  C    5.600124   4.692037   3.227180   2.560389   1.511583
     7  O    5.673208   4.723865   3.219081   2.866569   2.412561
     8  C    3.498377   2.361000   2.392567   1.514115   2.551792
     9  C    2.465905   1.511824   2.397555   2.369006   3.600738
    10  H    0.963877   1.939996   2.684374   3.715542   4.514958
    11  H    1.992475   1.097563   2.200093   3.082013   4.524688
    12  H    2.531973   2.154391   1.097679   2.181289   2.643141
    13  H    3.071823   2.223109   1.090413   2.215377   3.154203
    14  H    4.379154   3.039135   2.176244   1.098767   2.129430
    15  H    5.560821   4.535716   3.541823   2.186623   1.101444
    16  H    4.555860   3.894568   2.825072   2.188344   1.100501
    17  H    6.477996   5.673188   4.222357   3.549861   2.217647
    18  H    4.476622   3.409210   3.433141   2.283462   2.889405
    19  H    2.827901   2.276552   3.435201   3.417883   4.575979
                    6          7          8          9         10
     6  C    0.000000
     7  O    1.204942   0.000000
     8  C    3.907354   4.360895   0.000000
     9  C    4.857277   5.157578   1.331231   0.000000
    10  H    5.460639   5.716631   3.471197   2.590441   0.000000
    11  H    5.282590   5.097468   3.016704   2.156583   2.795765
    12  H    3.202299   3.385854   2.957615   2.954231   2.378926
    13  H    3.312877   2.903414   3.296828   3.301966   3.445580
    14  H    2.713017   2.686275   2.145385   2.984464   4.590833
    15  H    2.108707   3.081085   2.770596   4.021695   5.313730
    16  H    2.123614   3.122959   2.869002   3.721416   4.123527
    17  H    1.114544   2.016551   4.762140   5.764438   6.223259
    18  H    4.309348   4.912686   1.085974   2.150751   4.362743
    19  H    5.898336   6.235558   2.157033   1.084509   2.932726
                   11         12         13         14         15
    11  H    0.000000
    12  H    3.003921   0.000000
    13  H    2.417072   1.759312   0.000000
    14  H    3.288283   3.022021   2.383527   0.000000
    15  H    5.241360   3.678686   4.126607   2.540519   0.000000
    16  H    4.812133   2.456710   3.545683   3.062381   1.743836
    17  H    6.336219   4.009758   4.348277   3.765291   2.498825
    18  H    4.007434   3.918216   4.307295   2.721216   2.677038
    19  H    2.709514   3.909181   4.308638   3.973123   4.874937
                   16         17         18         19
    16  H    0.000000
    17  H    2.487532   0.000000
    18  H    3.212401   5.023568   0.000000
    19  H    4.613681   6.767816   2.600254   0.000000
 Stoichiometry    C7H10O2
 Framework group  C1[X(C7H10O2)]
 Deg. of freedom    51
 Full point group                 C1      NOp   1
 Largest Abelian subgroup         C1      NOp   1
 Largest concise Abelian subgroup C1      NOp   1
                         Standard orientation:                         
 ---------------------------------------------------------------------
 Center     Atomic      Atomic             Coordinates (Angstroms)
 Number     Number       Type             X           Y           Z
 ---------------------------------------------------------------------
      1          8           0       -2.742003   -1.164871    0.518290
      2          6           0       -1.861658   -0.464884   -0.351668
      3          6           0       -0.360086   -0.799076   -0.146314
      4          6           0        0.411044    0.532890   -0.341421
      5          6           0        1.597237    0.733062    0.606720
      6          6           0        2.769332   -0.186084    0.349333
      7          8           0        2.828567   -0.994339   -0.542351
      8          6           0       -0.679176    1.571809   -0.184537
      9          6           0       -1.898926    1.038721   -0.198715
     10          1           0       -2.540512   -0.881521    1.417274
     11          1           0       -2.198168   -0.757133   -1.354662
     12          1           0       -0.237023   -1.149305    0.886688
     13          1           0       -0.000368   -1.595403   -0.798592
     14          1           0        0.808656    0.573923   -1.364900
     15          1           0        1.986261    1.761802    0.547278
     16          1           0        1.297222    0.607535    1.658070
     17          1           0        3.617942   -0.059760    1.060749
     18          1           0       -0.457289    2.632538   -0.114097
     19          1           0       -2.835833    1.582370   -0.145705
 ---------------------------------------------------------------------
 Rotational constants (GHZ):      3.3826316      0.9456103      0.8107131
 1\1\GINC-ALCHEMY-NA\FOpt\RB3LYP\6-31G(2df,p)\C7H10O2\PUCK\28-Jan-2020\
 0\\# b3lyp 6-31G(2df,p) opt Freq\\titel\\0,1\O,-4.7868714382,2.1192969
 741,0.2800143382\C,-3.4599448591,2.6291398648,0.246238612\C,-2.3874367
 643,1.5928903556,-0.1832792832\C,-1.1340381459,1.8813842387,0.68424882
 95\C,-0.3726037253,0.6354966131,1.1469342726\C,0.3461887736,-0.1072131
 618,0.0439364771\O,0.3816985565,0.2380217141,-1.1099424055\C,-1.700888
 178,2.7080626906,1.8190736458\C,-2.945242426,3.1170458676,1.5813941022
 \H,-4.8124031791,1.4335654022,0.95690333\H,-3.5168992146,3.4590828329,
 -0.4697195793\H,-2.7782385103,0.5946374065,0.0526549563\H,-2.174226557
 8,1.6079585483,-1.2525380008\H,-0.4271107931,2.4925139915,0.1062670038
 \H,0.3884374934,0.8903278529,1.9012925711\H,-1.0398350898,-0.078777203
 4,1.6526204551\H,0.872791125,-1.0307740948,0.3785010342\H,-1.113920659
 5,2.957890586,2.6979335866\H,-3.5433136375,3.7543295211,2.2235309044\\
 Version=ES64L-G09RevD.01\State=1-A\HF=-423.2023149\RMSD=7.529e-09\RMSF
 =6.127e-06\Dipole=0.3776988,-0.2793128,1.2128834\Quadrupole=-2.5782035
 ,3.233813,-0.6556095,1.5675856,1.8491404,-2.3018658\PG=C01 [X(C7H10O2)
 ]\\@


 ONE OF THE BENEFITS OF A COLLEGE EDUCATION
 IS TO SHOW THE BOY ITS LITTLE AVAIL 
                                    EMERSON IN 'CULTURE'
 Job cpu time:       0 days  0 hours  5 minutes 45.7 seconds.
 File lengths (MBytes):  RWF=     52 Int=      0 D2E=      0 Chk=      7 Scr=      1
 Normal termination of Gaussian 09 at Tue Jan 28 01:54:49 2020.
 Link1:  Proceeding to internal job step number  2.
 ----------------------------------------------------------------------
 #N Geom=AllCheck Guess=TCheck SCRF=Check GenChk RB3LYP/6-31G(2df,p) Fr
 eq
 ----------------------------------------------------------------------
 1/10=4,29=7,30=1,38=1,40=1/1,3;
 2/12=2,40=1/2;
 3/5=1,6=6,7=104,11=2,14=-4,16=1,25=1,30=1,70=2,71=2,74=-5,116=1,140=1/1,2,3;
 4/5=101/1;
 5/5=2,98=1/2;
 8/6=4,10=90,11=11/1;
 11/6=1,8=1,9=11,15=111,16=1/1,2,10;
 10/6=1/2;
 6/7=2,8=2,9=2,10=2,18=1,28=1/1;
 7/8=1,10=1,25=1/1,2,3,16;
 1/10=4,30=1/3;
 99//99;
 Structure from the checkpoint file:  "/scratch/puck/g09_748338d9-6454-4516-b13d-00d0ccdb6ec2/Gau-87572.chk"
 -----
 titel
 -----
 Charge =  0 Multiplicity = 1
 Redundant internal coordinates found in file.
 O,0,-4.7868714382,2.1192969741,0.2800143382
 C,0,-3.4599448591,2.6291398648,0.246238612
 C,0,-2.3874367643,1.5928903556,-0.1832792832
 C,0,-1.1340381459,1.8813842387,0.6842488295
 C,0,-0.3726037253,0.6354966131,1.1469342726
 C,0,0.3461887736,-0.1072131618,0.0439364771
 O,0,0.3816985565,0.2380217141,-1.1099424055
 C,0,-1.700888178,2.7080626906,1.8190736458
 C,0,-2.945242426,3.1170458676,1.5813941022
 H,0,-4.8124031791,1.4335654022,0.95690333
 H,0,-3.5168992146,3.4590828329,-0.4697195793
 H,0,-2.7782385103,0.5946374065,0.0526549563
 H,0,-2.1742265578,1.6079585483,-1.2525380008
 H,0,-0.4271107931,2.4925139915,0.1062670038
 H,0,0.3884374934,0.8903278529,1.9012925711
 H,0,-1.0398350898,-0.0787772034,1.6526204551
 H,0,0.872791125,-1.0307740948,0.3785010342
 H,0,-1.1139206595,2.957890586,2.6979335866
 H,0,-3.5433136375,3.7543295211,2.2235309044
 Recover connectivity data from disk.

 GradGradGradGradGradGradGradGradGradGradGradGradGradGradGradGradGradGrad
 Berny optimization.
 Initialization pass.
                           ----------------------------
                           !    Initial Parameters    !
                           ! (Angstroms and Degrees)  !
 --------------------------                            --------------------------
 ! Name  Definition              Value          Derivative Info.                !
 --------------------------------------------------------------------------------
 ! R1    R(1,2)                  1.4219         calculate D2E/DX2 analytically  !
 ! R2    R(1,10)                 0.9639         calculate D2E/DX2 analytically  !
 ! R3    R(2,3)                  1.552          calculate D2E/DX2 analytically  !
 ! R4    R(2,9)                  1.5118         calculate D2E/DX2 analytically  !
 ! R5    R(2,11)                 1.0976         calculate D2E/DX2 analytically  !
 ! R6    R(3,4)                  1.5514         calculate D2E/DX2 analytically  !
 ! R7    R(3,12)                 1.0977         calculate D2E/DX2 analytically  !
 ! R8    R(3,13)                 1.0904         calculate D2E/DX2 analytically  !
 ! R9    R(4,5)                  1.5317         calculate D2E/DX2 analytically  !
 ! R10   R(4,8)                  1.5141         calculate D2E/DX2 analytically  !
 ! R11   R(4,14)                 1.0988         calculate D2E/DX2 analytically  !
 ! R12   R(5,6)                  1.5116         calculate D2E/DX2 analytically  !
 ! R13   R(5,15)                 1.1014         calculate D2E/DX2 analytically  !
 ! R14   R(5,16)                 1.1005         calculate D2E/DX2 analytically  !
 ! R15   R(6,7)                  1.2049         calculate D2E/DX2 analytically  !
 ! R16   R(6,17)                 1.1145         calculate D2E/DX2 analytically  !
 ! R17   R(8,9)                  1.3312         calculate D2E/DX2 analytically  !
 ! R18   R(8,18)                 1.086          calculate D2E/DX2 analytically  !
 ! R19   R(9,19)                 1.0845         calculate D2E/DX2 analytically  !
 ! A1    A(2,1,10)             107.2471         calculate D2E/DX2 analytically  !
 ! A2    A(1,2,3)              114.3347         calculate D2E/DX2 analytically  !
 ! A3    A(1,2,9)              114.3588         calculate D2E/DX2 analytically  !
 ! A4    A(1,2,11)             103.7806         calculate D2E/DX2 analytically  !
 ! A5    A(3,2,9)              102.981          calculate D2E/DX2 analytically  !
 ! A6    A(3,2,11)             111.1139         calculate D2E/DX2 analytically  !
 ! A7    A(9,2,11)             110.4701         calculate D2E/DX2 analytically  !
 ! A8    A(2,3,4)              106.2243         calculate D2E/DX2 analytically  !
 ! A9    A(2,3,12)             107.5598         calculate D2E/DX2 analytically  !
 ! A10   A(2,3,13)             113.4088         calculate D2E/DX2 analytically  !
 ! A11   A(4,3,12)             109.6674         calculate D2E/DX2 analytically  !
 ! A12   A(4,3,13)             112.8177         calculate D2E/DX2 analytically  !
 ! A13   A(12,3,13)            107.0347         calculate D2E/DX2 analytically  !
 ! A14   A(3,4,5)              114.7896         calculate D2E/DX2 analytically  !
 ! A15   A(3,4,8)              102.6019         calculate D2E/DX2 analytically  !
 ! A16   A(3,4,14)             109.2128         calculate D2E/DX2 analytically  !
 ! A17   A(5,4,8)              113.8165         calculate D2E/DX2 analytically  !
 ! A18   A(5,4,14)             106.9462         calculate D2E/DX2 analytically  !
 ! A19   A(8,4,14)             109.3569         calculate D2E/DX2 analytically  !
 ! A20   A(4,5,6)              114.5591         calculate D2E/DX2 analytically  !
 ! A21   A(4,5,15)             111.234          calculate D2E/DX2 analytically  !
 ! A22   A(4,5,16)             111.4284         calculate D2E/DX2 analytically  !
 ! A23   A(6,5,15)             106.5512         calculate D2E/DX2 analytically  !
 ! A24   A(6,5,16)             107.7403         calculate D2E/DX2 analytically  !
 ! A25   A(15,5,16)            104.7367         calculate D2E/DX2 analytically  !
 ! A26   A(5,6,7)              124.8905         calculate D2E/DX2 analytically  !
 ! A27   A(5,6,17)             114.38           calculate D2E/DX2 analytically  !
 ! A28   A(7,6,17)             120.7275         calculate D2E/DX2 analytically  !
 ! A29   A(4,8,9)              112.5734         calculate D2E/DX2 analytically  !
 ! A30   A(4,8,18)             121.9924         calculate D2E/DX2 analytically  !
 ! A31   A(9,8,18)             125.383          calculate D2E/DX2 analytically  !
 ! A32   A(2,9,8)              112.1332         calculate D2E/DX2 analytically  !
 ! A33   A(2,9,19)             121.6549         calculate D2E/DX2 analytically  !
 ! A34   A(8,9,19)             126.178          calculate D2E/DX2 analytically  !
 ! D1    D(10,1,2,3)            63.7744         calculate D2E/DX2 analytically  !
 ! D2    D(10,1,2,9)           -54.6096         calculate D2E/DX2 analytically  !
 ! D3    D(10,1,2,11)         -175.0283         calculate D2E/DX2 analytically  !
 ! D4    D(1,2,3,4)           -142.2996         calculate D2E/DX2 analytically  !
 ! D5    D(1,2,3,12)           -24.9298         calculate D2E/DX2 analytically  !
 ! D6    D(1,2,3,13)            93.2229         calculate D2E/DX2 analytically  !
 ! D7    D(9,2,3,4)            -17.6336         calculate D2E/DX2 analytically  !
 ! D8    D(9,2,3,12)            99.7362         calculate D2E/DX2 analytically  !
 ! D9    D(9,2,3,13)          -142.1111         calculate D2E/DX2 analytically  !
 ! D10   D(11,2,3,4)           100.6432         calculate D2E/DX2 analytically  !
 ! D11   D(11,2,3,12)         -141.9869         calculate D2E/DX2 analytically  !
 ! D12   D(11,2,3,13)          -23.8342         calculate D2E/DX2 analytically  !
 ! D13   D(1,2,9,8)            135.5611         calculate D2E/DX2 analytically  !
 ! D14   D(1,2,9,19)           -46.4321         calculate D2E/DX2 analytically  !
 ! D15   D(3,2,9,8)             10.9109         calculate D2E/DX2 analytically  !
 ! D16   D(3,2,9,19)          -171.0823         calculate D2E/DX2 analytically  !
 ! D17   D(11,2,9,8)          -107.8162         calculate D2E/DX2 analytically  !
 ! D18   D(11,2,9,19)           70.1907         calculate D2E/DX2 analytically  !
 ! D19   D(2,3,4,5)            141.8932         calculate D2E/DX2 analytically  !
 ! D20   D(2,3,4,8)             17.9047         calculate D2E/DX2 analytically  !
 ! D21   D(2,3,4,14)           -98.0445         calculate D2E/DX2 analytically  !
 ! D22   D(12,3,4,5)            25.9371         calculate D2E/DX2 analytically  !
 ! D23   D(12,3,4,8)           -98.0514         calculate D2E/DX2 analytically  !
 ! D24   D(12,3,4,14)          145.9994         calculate D2E/DX2 analytically  !
 ! D25   D(13,3,4,5)           -93.2645         calculate D2E/DX2 analytically  !
 ! D26   D(13,3,4,8)           142.747          calculate D2E/DX2 analytically  !
 ! D27   D(13,3,4,14)           26.7979         calculate D2E/DX2 analytically  !
 ! D28   D(3,4,5,6)             69.4762         calculate D2E/DX2 analytically  !
 ! D29   D(3,4,5,15)          -169.6213         calculate D2E/DX2 analytically  !
 ! D30   D(3,4,5,16)           -53.1553         calculate D2E/DX2 analytically  !
 ! D31   D(8,4,5,6)           -172.7134         calculate D2E/DX2 analytically  !
 ! D32   D(8,4,5,15)           -51.8108         calculate D2E/DX2 analytically  !
 ! D33   D(8,4,5,16)            64.6551         calculate D2E/DX2 analytically  !
 ! D34   D(14,4,5,6)           -51.8331         calculate D2E/DX2 analytically  !
 ! D35   D(14,4,5,15)           69.0694         calculate D2E/DX2 analytically  !
 ! D36   D(14,4,5,16)         -174.4646         calculate D2E/DX2 analytically  !
 ! D37   D(3,4,8,9)            -11.9396         calculate D2E/DX2 analytically  !
 ! D38   D(3,4,8,18)           170.5306         calculate D2E/DX2 analytically  !
 ! D39   D(5,4,8,9)           -136.572          calculate D2E/DX2 analytically  !
 ! D40   D(5,4,8,18)            45.8982         calculate D2E/DX2 analytically  !
 ! D41   D(14,4,8,9)           103.9057         calculate D2E/DX2 analytically  !
 ! D42   D(14,4,8,18)          -73.6241         calculate D2E/DX2 analytically  !
 ! D43   D(4,5,6,7)              2.3399         calculate D2E/DX2 analytically  !
 ! D44   D(4,5,6,17)          -178.183          calculate D2E/DX2 analytically  !
 ! D45   D(15,5,6,7)          -121.1108         calculate D2E/DX2 analytically  !
 ! D46   D(15,5,6,17)           58.3662         calculate D2E/DX2 analytically  !
 ! D47   D(16,5,6,7)           126.9454         calculate D2E/DX2 analytically  !
 ! D48   D(16,5,6,17)          -53.5776         calculate D2E/DX2 analytically  !
 ! D49   D(4,8,9,2)              0.6775         calculate D2E/DX2 analytically  !
 ! D50   D(4,8,9,19)          -177.2206         calculate D2E/DX2 analytically  !
 ! D51   D(18,8,9,2)           178.1077         calculate D2E/DX2 analytically  !
 ! D52   D(18,8,9,19)            0.2097         calculate D2E/DX2 analytically  !
 --------------------------------------------------------------------------------
 Trust Radius=3.00D-01 FncErr=1.00D-07 GrdErr=1.00D-07
 Number of steps in this run=      2 maximum allowed number of steps=      2.
 GradGradGradGradGradGradGradGradGradGradGradGradGradGradGradGradGradGrad

                          Input orientation:                          
 ---------------------------------------------------------------------
 Center     Atomic      Atomic             Coordinates (Angstroms)
 Number     Number       Type             X           Y           Z
 ---------------------------------------------------------------------
      1          8           0       -4.786871    2.119297    0.280014
      2          6           0       -3.459945    2.629140    0.246239
      3          6           0       -2.387437    1.592890   -0.183279
      4          6           0       -1.134038    1.881384    0.684249
      5          6           0       -0.372604    0.635497    1.146934
      6          6           0        0.346189   -0.107213    0.043936
      7          8           0        0.381699    0.238022   -1.109942
      8          6           0       -1.700888    2.708063    1.819074
      9          6           0       -2.945242    3.117046    1.581394
     10          1           0       -4.812403    1.433565    0.956903
     11          1           0       -3.516899    3.459083   -0.469720
     12          1           0       -2.778239    0.594637    0.052655
     13          1           0       -2.174227    1.607959   -1.252538
     14          1           0       -0.427111    2.492514    0.106267
     15          1           0        0.388437    0.890328    1.901293
     16          1           0       -1.039835   -0.078777    1.652620
     17          1           0        0.872791   -1.030774    0.378501
     18          1           0       -1.113921    2.957891    2.697934
     19          1           0       -3.543314    3.754330    2.223531
 ---------------------------------------------------------------------
                    Distance matrix (angstroms):
                    1          2          3          4          5
     1  O    0.000000
     2  C    1.421905   0.000000
     3  C    2.499806   1.551958   0.000000
     4  C    3.682825   2.482103   1.551400   0.000000
     5  C    4.736979   3.783853   2.597234   1.531697   0.000000
     6  C    5.600124   4.692037   3.227180   2.560389   1.511583
     7  O    5.673208   4.723865   3.219081   2.866569   2.412561
     8  C    3.498377   2.361000   2.392567   1.514115   2.551792
     9  C    2.465905   1.511824   2.397555   2.369006   3.600738
    10  H    0.963877   1.939996   2.684374   3.715542   4.514958
    11  H    1.992475   1.097563   2.200093   3.082013   4.524688
[...]
 .08233274,-0.00794059,0.01071941,0.48558765,0.00529636,-0.00127049,-0.
 00190403,-0.00614798,0.00966768,-0.00056483,-0.03631552,-0.01052637,-0
 .09653771,-0.05205635,-0.03148548,0.45933929,-0.00098878,0.00021245,0.
 00032403,-0.00214268,0.00011694,-0.00372742,-0.01590874,0.01883012,-0.
 00732470,-0.09615404,0.03506454,-0.01600911,0.50368220,-0.00145080,0.0
 0046865,0.00067428,-0.00118531,-0.00228112,-0.00173477,-0.00068863,0.0
 0780300,0.00141956,0.03688278,-0.14329831,0.02788661,0.02829645,0.4945
 6412,-0.00008788,0.00074765,0.00107770,-0.00090507,-0.00260699,-0.0032
 3977,-0.01065923,0.01462374,-0.00668414,-0.01830071,0.02771113,-0.0914
 2844,0.01480585,-0.02518968,0.49929244,0.00082112,-0.00002494,-0.00005
 274,-0.00065196,0.00044141,0.00029869,0.00012986,-0.00006543,-0.000021
 33,-0.01061439,0.01401582,0.01254416,-0.11642374,0.03471092,0.02973674
 ,0.31519608,-0.00094981,0.,0.00014799,0.00082364,-0.00054812,-0.000252
 76,-0.00048206,0.00084894,-0.00012614,0.01636328,-0.02019499,-0.023138
 68,0.03493972,-0.12884513,-0.03494453,-0.14326974,0.49699024,-0.000507
 33,-0.00031798,-0.00062641,-0.00049515,0.00099071,-0.00057005,-0.00011
 592,0.00077573,0.00235281,-0.00241994,-0.00285591,0.01543923,0.0274304
 8,-0.03396164,-0.11125943,-0.04177762,-0.18184725,0.92478762,-0.000704
 00,0.00001110,0.00014862,0.00080387,-0.00057385,0.00039643,-0.00105342
 ,0.00155265,-0.00083841,-0.00001872,-0.00302736,-0.00185512,0.02139025
 ,-0.00018931,0.02300101,-0.07972682,0.01476275,0.02172937,0.04449064,0
 .00058099,0.00012245,-0.00002088,-0.00060984,0.00030458,-0.00041735,-0
 .00007176,-0.00049658,0.00029861,-0.00210059,-0.00016275,0.00141484,0.
 00339632,0.02378650,-0.00983962,0.01356863,-0.15449816,0.19670980,-0.0
 2180435,0.13303886,0.00032371,0.00025033,0.00045949,0.00028475,-0.0004
 5457,0.00021755,-0.00024901,-0.00032424,-0.00115796,-0.00268050,0.0046
 2185,-0.00124936,0.01398241,0.00607473,-0.05381625,0.02348778,0.192281
 66,-0.72334150,-0.03220256,-0.22302461,0.80806404,0.00169797,0.0011396
 0,0.00060309,-0.02155290,-0.00029193,-0.02289540,0.00506679,-0.0117546
 2,-0.01725386,-0.09323021,0.02313269,0.02905860,-0.01087970,0.01294161
 ,0.01217755,-0.00062996,0.00271199,-0.00090580,0.00024314,-0.00009583,
 -0.00033547,0.75895515,-0.00285402,-0.00179425,-0.00273967,-0.00134624
 ,0.00958263,0.00232216,-0.00463693,-0.00529468,-0.01680115,0.02022121,
 -0.10326072,-0.04795936,0.01486418,-0.01945112,-0.02148186,0.00119374,
 -0.00329760,0.00463695,-0.00062827,0.00178403,-0.00096061,-0.15128486,
 0.28021555,-0.00343247,-0.00401069,-0.00393968,-0.02805517,0.00638562,
 -0.01147723,-0.00836944,-0.01135544,-0.03102715,0.02458949,-0.04796122
 ,-0.13961138,-0.00047739,0.00307623,0.01302816,-0.00156969,0.00326128,
 -0.00418498,0.00055774,-0.00077058,0.00157216,0.19846035,0.12624070,0.
 52753163,-0.03046742,-0.02072468,-0.03412266,-0.07989440,-0.00167724,-
 0.02291987,0.00180805,0.00783762,0.01323320,-0.02364120,0.01837366,0.0
 1383189,0.00147298,-0.00114734,0.00216410,0.00017795,0.00046579,-0.000
 25586,-0.00026781,0.00018801,-0.00016207,-0.48284006,0.13897130,-0.082
 22577,0.76073780,-0.01249957,-0.00219194,-0.01136292,0.00116795,-0.088
 81740,-0.02724210,0.00578667,-0.01233224,-0.02720922,0.02157121,-0.006
 00072,-0.00767786,0.00065072,-0.00035052,-0.00264205,0.00042363,-0.000
 65875,0.00012289,0.00019519,-0.00015279,0.00019337,0.14200983,-0.11242
 663,0.00187861,-0.25636056,0.34933330,-0.00465568,-0.00088191,0.006226
 41,-0.02360300,-0.03422924,-0.17230451,0.00844105,-0.01246628,-0.02076
 499,0.02235563,-0.01212897,0.00312714,0.00041401,-0.00112976,-0.003875
 54,0.00054149,-0.00103476,0.00099908,-0.00012809,-0.00005163,-0.000115
 06,-0.08470153,0.00213883,-0.10659484,0.02603954,0.16588892,0.46738860
 ,-0.04097305,0.01290202,-0.02579200,-0.00947829,-0.03520028,0.03198786
 ,0.00060288,-0.00182954,0.00052193,0.00034257,0.00024787,-0.00026309,-
 0.00002108,0.00005478,-0.00012742,-0.00024189,0.00028158,0.00021315,0.
 00015392,-0.00012145,-0.00014009,-0.00042049,0.00067511,-0.00004175,0.
 00232623,0.00005278,-0.00064107,0.05342763,-0.02231973,-0.25404457,0.2
 4306721,-0.00034170,-0.01560280,0.01367949,0.00136854,0.00330307,-0.00
 060557,0.00044703,0.00010315,-0.00020666,-0.00002272,0.00004007,-0.000
 28460,-0.00001487,0.00002080,0.00016845,-0.00000781,-0.00006274,-0.000
 11110,-0.00043582,0.00047334,0.00016167,0.00180899,0.00080253,-0.00040
 956,0.02378532,0.26709689,0.01008622,0.25671812,-0.25805184,-0.0037093
 9,0.00091264,-0.00274525,-0.00107556,0.00007611,-0.00054909,-0.0003111
 6,-0.00015868,0.00075513,-0.00005842,-0.00023973,-0.00032526,0.0000890
 9,-0.00007703,0.00025119,-0.00011482,0.00002272,-0.00018342,-0.0009835
 5,0.00071545,0.00006685,0.00039501,-0.00145476,0.00269731,-0.00611817,
 -0.25460079,0.25685920,-0.01208558,-0.03375676,0.02567278,-0.04395071,
 0.02277976,-0.01683479,0.00078714,0.01608015,-0.01027908,0.00007565,0.
 00047740,-0.00080974,-0.00065695,0.00002278,0.00025284,0.00012219,-0.0
 0007847,-0.00033836,-0.00006273,-0.00002157,0.00020278,0.00044688,-0.0
 0000846,-0.00173964,-0.00058806,0.00635285,-0.00763147,-0.00616086,-0.
 00435615,0.00094579,0.06422521,-0.00846537,-0.01373307,0.01211889,0.01
 392001,-0.18683666,0.11824411,0.00253135,-0.01503620,0.01243214,0.0009
 4863,-0.00142649,-0.00046219,0.00057738,0.00036206,0.00050781,-0.00019
 903,0.00012024,0.00010852,0.00010808,0.00003228,-0.00007656,-0.0003432
 9,0.00001082,-0.00135058,-0.00047871,0.01109651,-0.00687516,-0.0027895
 4,-0.00006116,-0.00052694,-0.00785564,0.20726113,0.00438724,0.00390477
 ,0.00023887,-0.00932911,0.12600130,-0.15645910,0.00172961,-0.00921895,
 0.00661442,-0.00000232,0.00026555,-0.00082858,0.00010300,0.00018232,0.
 00069529,-0.00001394,0.00002570,-0.00028976,-0.00001210,0.00002270,0.0
 0017993,0.00096475,-0.00207713,-0.00334059,-0.00737532,0.02024655,-0.0
 2080132,0.00025162,-0.00065629,0.00179419,0.00980119,-0.13482277,0.169
 52212,0.00318300,0.00013855,-0.00165462,0.00389485,0.02231441,-0.00424
 313,-0.07320043,-0.08209476,0.02156304,-0.01312404,-0.02380327,0.00476
 671,0.00126813,-0.00154189,0.00140996,-0.00055383,0.00024534,0.0001500
 1,0.00023971,0.00014831,0.00000001,-0.00149415,0.00047772,0.00037923,-
 0.00064537,0.00030225,-0.00042236,-0.00036685,-0.00006104,0.00107719,-
 0.00225641,0.00250517,0.00135811,0.08717225,-0.00231766,0.00496359,0.0
 0027201,-0.00785501,-0.02389429,0.00699084,-0.08201279,-0.25473615,0.0
 5158788,-0.00235294,-0.00439654,0.00227004,0.00168909,0.00080184,0.000
 55725,-0.00016741,0.00023332,-0.00003026,-0.00000601,0.00016947,-0.000
 01826,0.00010225,0.00054223,-0.00014626,0.00145208,0.00020649,0.000083
 79,0.00181224,-0.00039024,-0.00111957,0.00234041,-0.00191408,-0.002178
 16,0.08816897,0.27835446,-0.00149884,-0.00075698,0.00098253,-0.0022758
 7,-0.00710729,0.00092073,0.02193845,0.05165705,-0.06042984,-0.00666180
 ,-0.01603650,0.00284867,-0.00008606,-0.00098258,0.00149574,-0.00005822
 ,0.00032853,0.00045642,-0.00012501,-0.00013343,-0.00031658,-0.00091450
 ,0.00008541,0.00000253,0.00035071,0.00009989,-0.00002101,0.00008730,0.
 00008410,-0.00002068,0.00022760,-0.00055950,0.00039995,-0.02128116,-0.
 05618258,0.06177284,-0.00203245,0.00073384,-0.00089797,-0.00183276,-0.
 00255340,0.02101185,-0.05708511,-0.00177926,0.05530343,0.00553784,0.00
 064182,-0.02576224,-0.00062434,-0.00048601,-0.00067409,0.00028081,0.00
 012156,-0.00137344,-0.00010945,-0.00018987,0.00104896,-0.00389634,-0.0
 0004468,-0.00234980,-0.00218326,0.00236868,0.00022917,0.00040371,0.000
 10709,-0.00019246,0.00081373,-0.00060865,-0.00068374,-0.00194843,-0.00
 024660,0.01117801,0.06104650,0.00098199,0.00037146,0.00015495,0.002581
 42,-0.00011739,-0.02153548,-0.00186516,-0.04603823,0.00963533,0.000049
 30,-0.00091485,-0.00554500,0.00011639,-0.00030588,0.00016300,-0.000013
 99,0.00003834,0.00094704,-0.00023633,-0.00025185,-0.00067068,-0.000398
 35,-0.00042026,-0.00177276,0.00266738,-0.00261100,-0.00199763,0.000454
 09,-0.00040567,-0.00013970,-0.00058365,0.00126593,0.00019186,-0.006092
 26,-0.00102538,0.02996262,0.00201815,0.05000133,0.00107233,-0.00009457
 ,0.00031883,-0.00136418,0.00188286,-0.00426507,0.05287959,0.00771497,-
 0.30985836,0.00473309,0.00103569,-0.01241294,-0.00054617,-0.00053786,-
 0.00033949,0.00017358,0.00029683,-0.00180290,0.00110273,-0.00064308,0.
 00119441,-0.00171382,-0.00032107,-0.00125852,0.00021480,-0.00070834,-0
 .00027759,-0.00018557,-0.00011898,0.00008368,-0.00012568,-0.00031423,0
 .00110571,0.00122541,0.00012757,-0.00639525,-0.05721730,-0.00740810,0.
 33279634,-0.00109666,0.00057305,-0.00017947,-0.00057207,-0.00151473,0.
 00097635,-0.01630035,-0.01436666,0.00995569,-0.14617384,-0.09135734,0.
 08200178,0.00956796,0.01016246,-0.00886400,0.00071745,-0.00003159,0.00
 051121,-0.00043963,0.00073386,0.00011928,-0.00896762,-0.00241791,0.007
 70057,0.00029534,0.00048214,0.00119711,0.00033895,0.00013104,-0.000225
 81,-0.00022145,0.00023715,-0.00007745,-0.00308998,-0.00015332,-0.00174
 809,0.00129269,0.00035197,0.00020021,0.16486521,0.00021164,0.00043998,
 0.00072141,-0.00014854,-0.00000253,-0.00170851,-0.00487395,-0.00415422
 ,0.00275461,-0.08728993,-0.12057163,0.07214952,-0.01600622,-0.02018708
 ,0.01619300,-0.00155163,0.00016530,0.00314193,0.00024048,0.00162321,-0
 .00198052,0.01379760,0.01040843,-0.00984170,0.00110579,-0.00035562,-0.
 00180761,-0.00003063,-0.00024441,-0.00013155,-0.00016578,-0.00003958,0
 .00021409,-0.00145237,0.00023780,-0.00092465,0.00030788,0.00062535,-0.
 00016506,0.09342510,0.13699944,-0.00046170,0.00082629,0.00064409,0.000
 40241,-0.00035871,-0.00066221,-0.01352860,-0.01164708,0.00796625,0.085
 18400,0.07769163,-0.11322241,0.00540362,0.00983254,-0.00607480,0.00020
 989,-0.00095754,-0.00031118,0.00011293,-0.00041744,0.00048286,0.019608
 30,0.00982803,-0.01439391,-0.00143432,-0.00103329,-0.00253739,0.000130
 13,-0.00011818,-0.00028369,0.00019063,0.00020233,0.00002687,-0.0036379
 0,-0.00099059,-0.00092273,0.00039918,-0.00033511,0.00117981,-0.0905992
 5,-0.08172681,0.12752775,-0.00044086,0.00019813,0.00034067,0.00023593,
 -0.00048798,-0.00130316,-0.00052164,0.00317688,-0.00048596,-0.01165500
 ,-0.00425881,-0.00941849,-0.15743431,-0.03795158,-0.11589653,0.0126239
 5,0.00383342,0.01102359,-0.00354494,-0.00083611,0.00209050,0.00053672,
 -0.00116095,-0.00059583,-0.00002651,0.00016530,0.00027423,0.00009388,-
 0.00006243,-0.00012565,-0.00012238,0.00026293,0.00017161,0.00050895,0.
 00039603,0.00025484,-0.00060615,0.00030155,-0.00037415,0.00060173,0.00
 019679,0.00012418,0.17559979,0.00055538,-0.00028311,-0.00028152,0.0005
 3240,0.00089680,0.00114101,0.00141448,-0.00471422,0.00032729,0.0194476
 3,0.00694097,0.01830284,-0.04099209,-0.06191099,-0.04466556,-0.0143404
 1,-0.00292123,-0.00875972,0.00250554,0.00010207,-0.00119029,-0.0002353
 8,0.00158270,0.00051560,-0.00015731,0.00007636,0.00007711,-0.00004633,
 0.00000385,0.00008120,0.00004505,-0.00020068,-0.00008027,0.00006384,0.
 00019539,-0.00024620,0.00046126,0.00006587,0.00029370,-0.00066285,0.00
 058481,-0.00019009,0.04377160,0.06550441,-0.00033878,0.00002552,0.0001
 7608,0.00030020,-0.00045347,-0.00063379,0.00018785,0.00180514,0.000694
 64,-0.00628254,-0.00233393,-0.00638995,-0.12189927,-0.04468541,-0.1573
 4728,-0.02023082,-0.00498434,-0.02231241,0.00537943,-0.00190015,-0.001
 31103,0.00120655,-0.00031192,0.00070157,-0.00003503,0.00010133,0.00000
 534,0.00003069,0.00000145,-0.00003977,-0.00004584,0.00008890,0.0000488
 8,0.00002524,-0.00017913,0.00012257,-0.00012628,-0.00008727,-0.0000005
 5,0.00009060,0.00016465,-0.00007088,0.12974512,0.04742436,0.17482715,0
 .00007938,-0.00007296,0.00000082,0.00008854,0.00015199,-0.00000188,0.0
 0186107,0.00096690,-0.00007759,0.00923839,0.01084498,-0.00820882,-0.14
 158853,-0.09724682,0.07311584,-0.00893927,-0.01328492,0.00472545,-0.00
 008613,0.00235602,0.00146391,0.00104380,-0.00070964,-0.00021934,-0.000
 13386,-0.00025155,-0.00007695,-0.00003379,0.00001750,0.00001121,0.0000
 2829,-0.00005127,0.00003665,0.00012120,-0.00057194,0.00024061,-0.00008
 982,-0.00001831,-0.00004166,-0.00090507,0.00330640,-0.00132968,-0.0149
 8860,-0.01375100,0.00964105,0.15338381,0.00025711,-0.00002438,-0.00000
 457,-0.00013282,0.00030395,-0.00026928,-0.00147432,0.00058913,-0.00130
 104,-0.01605204,-0.01813650,0.01273896,-0.09390118,-0.14660195,0.07215
 874,0.01082658,0.01261142,-0.00535146,-0.00144794,-0.00225890,-0.00341
 093,-0.00111373,0.00158046,0.00046609,0.00080349,0.00007996,-0.0003070
 1,0.00000955,-0.00005159,0.00002429,-0.00016338,0.00007527,0.00002354,
 0.00089064,0.00092407,0.00024725,-0.00000026,0.00024392,-0.00006823,0.
 00341663,-0.00424323,0.00126572,-0.00693856,-0.00621667,0.00447912,0.1
 0672963,0.16201756,-0.00006735,-0.00013718,-0.00015189,-0.00015532,-0.
 00008213,0.00044178,0.00124767,0.00072677,0.00013298,0.00539982,0.0057
 3066,-0.00478125,0.07495947,0.07551401,-0.09097209,0.01597036,0.019985
 52,-0.01509531,0.00048001,-0.00503719,-0.00291431,-0.00025427,-0.00054
 813,0.00014153,-0.00013084,0.00005890,0.00017869,-0.00004186,0.0000934
 2,0.00008474,0.00010452,-0.00011013,-0.00008554,-0.00071100,-0.0004902
 4,-0.00017774,-0.00002873,-0.00018834,0.00004418,-0.00078800,0.0017016
 0,-0.00026045,-0.01503146,-0.01356317,0.00981100,-0.07895613,-0.081697
 77,0.10323342,-0.00021966,-0.00009862,-0.00009312,0.00022271,0.0001294
 1,0.00012645,0.00037379,-0.00019691,0.00008598,0.00114218,0.00117088,0
 .00375056,0.00494182,0.01892532,-0.00318334,-0.11210365,0.08342273,-0.
 01694998,0.01866831,0.00487832,-0.00744170,-0.00040826,0.00069723,-0.0
 0108220,-0.00018721,0.00017650,0.00033748,0.00006440,0.00005436,0.0000
 2612,-0.00003124,-0.00001779,-0.00006382,-0.00010639,-0.00008956,0.000
 02556,-0.00013239,0.00007830,-0.00011277,-0.00002537,-0.00000180,-0.00
 004871,-0.00076685,0.00158499,0.00267295,0.00096044,-0.00173122,-0.001
 92327,0.08773747,0.00043828,0.00008875,0.00004095,-0.00033328,-0.00000
 082,-0.00002353,0.00004432,-0.00043778,-0.00005063,0.00118491,0.001353
 61,-0.00361566,0.01409757,-0.00703849,0.00773959,0.08433782,-0.2004796
 8,0.02652541,0.00837275,-0.00256336,0.02817928,0.00052840,-0.00070952,
 0.00105733,0.00005599,-0.00026660,-0.00036379,-0.00011361,-0.00004618,
 0.00000380,0.00008691,-0.00002569,0.00006577,0.00002141,0.00004491,-0.
 00000178,-0.00014903,0.00010567,-0.00008041,-0.00026764,0.00027715,0.0
 0021329,-0.00118926,0.00053357,0.00066002,0.00161048,-0.00048101,-0.00
 201732,-0.10887037,0.20962184,0.00003917,0.00004040,0.00007102,0.00007
 926,-0.00017538,0.00006682,-0.00011500,-0.00006130,-0.00037481,0.00171
 316,-0.00087424,-0.00423832,0.01295950,-0.01682934,0.00978003,-0.01973
 854,0.03110302,-0.06433703,-0.01775411,0.04387255,-0.02813237,0.000548
 82,-0.00093149,0.00093438,0.00007643,-0.00015689,-0.00033170,-0.000010
 22,-0.00002148,-0.00002695,0.00004402,-0.00000704,0.00004828,0.0000357
 0,0.00005163,0.00002839,0.00021995,-0.00008380,0.00020319,-0.00019189,
 -0.00018833,-0.00016975,-0.00155583,0.00132152,0.00133009,-0.00035471,
 0.00105991,0.00046087,0.02385682,-0.05821136,0.08476750,-0.00055496,-0
 .00083769,-0.00029054,-0.00191145,0.00618456,-0.00148032,-0.00152273,0
 .00219943,0.00176266,0.00855696,0.00401348,0.00979196,0.00105529,-0.00
 069587,0.00018080,-0.00005957,-0.00028040,0.00010403,-0.00006168,0.000
 13022,0.00000414,-0.13559655,-0.02874901,-0.12186630,-0.00798525,-0.00
 930732,-0.02569696,0.00000847,0.00013946,0.00021799,-0.00045796,-0.000
 64652,-0.00149502,0.00033373,-0.00010316,0.00030020,0.00058884,0.00011
 761,0.00020092,-0.00009900,-0.00070848,-0.00048432,-0.00008199,-0.0001
 3261,-0.00031284,-0.00004405,-0.00001101,-0.00007846,0.00002659,-0.000
 00742,-0.00001794,0.13764993,0.00218796,0.00121855,0.00249258,0.004872
 78,0.00646712,-0.00755447,0.00060581,0.00069860,-0.00317153,-0.0087923
 4,-0.00066444,-0.00795450,-0.00141654,0.00139661,0.00005875,0.00034460
 ,0.00002963,-0.00037469,0.00000019,-0.00019912,0.00042653,-0.03124360,
 -0.05896839,-0.05984935,0.00682211,0.00667943,0.01004972,-0.00010441,-
 0.00041384,0.00031837,-0.00097645,-0.00079439,-0.00145548,0.00011629,-
 0.00024743,0.00031198,-0.00109400,-0.00018580,-0.00065834,0.00013527,-
 0.00002360,-0.00053996,0.00054199,-0.00013188,0.00018026,-0.00001389,-
 0.00030066,-0.00002811,-0.00004541,-0.00002442,-0.00001961,0.03024280,
 0.04880899,-0.00158656,-0.00016116,-0.00099382,-0.00128368,-0.00507400
 ,0.00380078,0.00232331,-0.00178430,-0.00169274,-0.01379822,-0.00192267
 ,-0.01011406,-0.00069729,0.00096663,0.00033680,0.00039279,-0.00002897,
 -0.00027883,0.00003298,-0.00015087,0.00031667,-0.12571945,-0.05719353,
 -0.23538290,0.00170851,-0.00308588,-0.00009819,0.00015729,0.00016935,-
 0.00032023,0.00045299,0.00069278,0.00095661,-0.00049835,-0.00012224,-0
 .00048922,-0.00081689,-0.00029909,-0.00024540,0.00039428,0.00042498,0.
 00004830,0.00068573,-0.00048094,0.00033916,0.00003951,-0.00010908,0.00
 001769,0.00000522,-0.00008274,-0.00004976,0.13762960,0.06593482,0.2444
 3317,0.00136706,0.00126267,0.00162931,0.00690215,-0.00751377,-0.007172
 51,-0.00086239,-0.00047255,-0.00290422,-0.00195581,0.00430219,-0.00419
 556,-0.00055573,0.00058647,0.00185359,-0.00012431,0.00040520,-0.000747
 88,0.00008546,-0.00012931,0.00020317,-0.00807420,0.01674046,0.02033739
 ,-0.13795792,0.09671329,0.08772739,-0.00006635,-0.00023706,0.00006637,
 0.00009526,0.00036510,0.00024903,0.00006406,-0.00008468,0.00004629,0.0
 0057636,-0.00051009,-0.00012137,0.00021170,-0.00036236,-0.00024079,-0.
 00001171,-0.00006419,-0.00000829,0.00000422,0.00003282,0.00000484,-0.0
 0015665,0.00015177,0.00016540,0.00015538,-0.00218316,0.00057825,0.1403
 0343,-0.00016104,0.00042772,0.00143194,0.00491797,-0.00163962,-0.00146
 236,0.00083028,0.00120873,-0.00156814,0.00382081,0.00772316,-0.0045882
 4,-0.00051311,0.00104774,0.00119423,-0.00021569,0.00038542,-0.00062852
 ,0.00017250,-0.00031719,0.00019464,0.00083343,-0.00055701,-0.00598456,
 0.09999363,-0.14211036,-0.10455505,-0.00003953,-0.00052050,-0.00042394
 ,-0.00021901,-0.00015625,-0.00065510,-0.00034730,-0.00006946,0.0001546
 7,0.00039148,-0.00044156,-0.00023334,0.00112337,-0.00153958,-0.0015450
 3,0.00004106,-0.00010801,0.00000487,-0.00001161,-0.00011086,0.00008883
 ,-0.00006637,0.00004804,0.00011121,-0.00154808,-0.00334496,0.00230689,
 -0.10900279,0.14007456,-0.00117190,0.00127867,0.00229699,0.01818041,-0
 .01273302,-0.00716510,-0.00178867,-0.00111014,-0.00379670,-0.00421574,
 -0.00439943,0.00177381,0.00044347,-0.00033616,-0.00034368,0.00001831,-
 0.00003852,0.00012343,0.00008898,0.00006561,0.00005073,-0.00695037,0.0
 0535837,0.00723238,0.09064755,-0.10601714,-0.15290042,-0.00001873,-0.0
 0029193,-0.00004611,-0.00009053,0.00070962,0.00017379,0.00045792,-0.00
 048371,-0.00025733,0.00073238,-0.00099183,-0.00007009,-0.00047311,0.00
 100894,0.00103347,0.00007659,-0.00002688,0.00004917,-0.00000830,0.0000
 5575,-0.00010830,0.00001175,-0.00003822,-0.00002988,0.00153040,0.00183
 303,-0.00058404,-0.09747041,0.11615699,0.15256789\\-0.00000514,0.00000
 405,0.00000668,0.00001146,0.00000667,0.00000846,-0.00000334,0.00000716
 ,0.00000356,-0.00000252,-0.00000315,0.00000129,0.00000048,-0.00000405,
 -0.00000885,-0.00000281,0.00000004,-0.00001113,-0.00000567,0.00000390,
 -0.00000969,0.00000794,-0.00000415,0.00000345,-0.00000192,-0.00000262,
 0.00000727,0.00000036,0.00000259,0.00000663,-0.00000139,0.00000710,0.0
 0001071,-0.00000207,0.00000339,-0.00000298,-0.00000421,0.00000682,-0.0
 0000028,0.00000034,0.00000179,0.00000035,0.00000155,-0.00000739,-0.000
 00745,-0.00000063,-0.00000553,-0.00000818,-0.00000459,-0.00000266,-0.0
 0001679,0.00000501,-0.00000963,0.00000429,0.00000715,-0.00000433,0.000
 01265\\\@


 EVERYBODY NEEDS BEAUTY AS WELL AS BREAD, PLACES TO PLAY IN AND PRAY IN,
 WHERE NATURE MAY HEAL AND CHEER AND GIVE STRENGTH TO BODY AND SOUL ALIKE.

                                    -- JOHN MUIR
 Job cpu time:       0 days  0 hours 38 minutes 17.7 seconds.
 File lengths (MBytes):  RWF=    152 Int=      0 D2E=      0 Chk=      8 Scr=      1
 Normal termination of Gaussian 09 at Tue Jan 28 02:33:05 2020.
