 Entering Gaussian System, Link 0=/home/puck/opt/gaussian_09/g09
 Input=dsC7O2H10nsd_4520.com
 Output=dsC7O2H10nsd_4520.log
 Initial command:
 /home/puck/opt/gaussian_09/l1.exe "/scratch/puck/g09_fb749d9d-2c06-4599-b4f6-2fa9e244dfa5/Gau-127693.inp" -scrdir="/scratch/puck/g09_fb749d9d-2c06-4599-b4f6-2fa9e244dfa5/"
 Entering Link 1 = /home/puck/opt/gaussian_09/l1.exe PID=    127697.
  
 Copyright (c) 1988,1990,1992,1993,1995,1998,2003,2009,2013,
            Gaussian, Inc.  All Rights Reserved.
  
 This is part of the Gaussian(R) 09 program.  It is based on
 the Gaussian(R) 03 system (copyright 2003, Gaussian, Inc.),
 the Gaussian(R) 98 system (copyright 1998, Gaussian, Inc.),
 the Gaussian(R) 94 system (copyright 1995, Gaussian, Inc.),
 the Gaussian 92(TM) system (copyright 1992, Gaussian, Inc.),
 the Gaussian 90(TM) system (copyright 1990, Gaussian, Inc.),
 the Gaussian 88(TM) system (copyright 1988, Gaussian, Inc.),
 the Gaussian 86(TM) system (copyright 1986, Carnegie Mellon
 University), and the Gaussian 82(TM) system (copyright 1983,
 Carnegie Mellon University). Gaussian is a federally registered
 trademark of Gaussian, Inc.
  
 This software contains proprietary and confidential information,
 including trade secrets, belonging to Gaussian, Inc.
  
 This software is provided under written license and may be
 used, copied, transmitted, or stored only in accord with that
 written license.
  
 The following legend is applicable only to US Government
 contracts under FAR:
  
                    RESTRICTED RIGHTS LEGEND
  
 Use, reproduction and disclosure by the US Government is
 subject to restrictions as set forth in subparagraphs (a)
 and (c) of the Commercial Computer Software - Restricted
 Rights clause in FAR 52.227-19.
  
 Gaussian, Inc.
 340 Quinnipiac St., Bldg. 40, Wallingford CT 06492
  
  
 ---------------------------------------------------------------
 Warning -- This program may not be used in any manner that
 competes with the business of Gaussian, Inc. or will provide
 assistance to any competitor of Gaussian, Inc.  The licensee
 of this program is prohibited from giving any competitor of
 Gaussian, Inc. access to this program.  By using this program,
 the user acknowledges that Gaussian, Inc. is engaged in the
 business of creating and licensing software in the field of
 computational chemistry and represents and warrants to the
 licensee that it is not a competitor of Gaussian, Inc. and that
 it will not use this program in any manner prohibited above.
 ---------------------------------------------------------------
  

 Cite this work as:
 Gaussian 09, Revision D.01,
 M. J. Frisch, G. W. Trucks, H. B. Schlegel, G. E. Scuseria, 
 M. A. Robb, J. R. Cheeseman, G. Scalmani, V. Barone, B. Mennucci, 
 G. A. Petersson, H. Nakatsuji, M. Caricato, X. Li, H. P. Hratchian, 
 A. F. Izmaylov, J. Bloino, G. Zheng, J. L. Sonnenberg, M. Hada, 
 M. Ehara, K. Toyota, R. Fukuda, J. Hasegawa, M. Ishida, T. Nakajima, 
 Y. Honda, O. Kitao, H. Nakai, T. Vreven, J. A. Montgomery, Jr., 
 J. E. Peralta, F. Ogliaro, M. Bearpark, J. J. Heyd, E. Brothers, 
 K. N. Kudin, V. N. Staroverov, T. Keith, R. Kobayashi, J. Normand, 
 K. Raghavachari, A. Rendell, J. C. Burant, S. S. Iyengar, J. Tomasi, 
 M. Cossi, N. Rega, J. M. Millam, M. Klene, J. E. Knox, J. B. Cross, 
 V. Bakken, C. Adamo, J. Jaramillo, R. Gomperts, R. E. Stratmann, 
 O. Yazyev, A. J. Austin, R. Cammi, C. Pomelli, J. W. Ochterski, 
 R. L. Martin, K. Morokuma, V. G. Zakrzewski, G. A. Voth, 
 P. Salvador, J. J. Dannenberg, S. Dapprich, A. D. Daniels, 
 O. Farkas, J. B. Foresman, J. V. Ortiz, J. Cioslowski, 
 and D. J. Fox, Gaussian, Inc., Wallingford CT, 2013.
 
 ******************************************
 Gaussian 09:  ES64L-G09RevD.01 24-Apr-2013
                28-Jan-2020 
 ******************************************
 -----------------------------
 # b3lyp 6-31G(2df,p) opt Freq
 -----------------------------
 1/14=-1,18=20,19=15,26=3,38=1/1,3;
 2/9=110,12=2,17=6,18=5,40=1/2;
 3/5=1,6=6,7=104,11=2,16=1,25=1,30=1,71=1,74=-5/1,2,3;
 4//1;
 5/5=2,38=5/2;
 6/7=2,8=2,9=2,10=2,28=1/1;
 7//1,2,3,16;
 1/14=-1,18=20,19=15,26=3/3(2);
 2/9=110/2;
 99//99;
 2/9=110/2;
 3/5=1,6=6,7=104,11=2,16=1,25=1,30=1,71=1,74=-5/1,2,3;
 4/5=5,16=3,69=1/1;
 5/5=2,38=5/2;
 7//1,2,3,16;
 1/14=-1,18=20,19=15,26=3/3(-5);
 2/9=110/2;
 6/7=2,8=2,9=2,10=2,19=2,28=1/1;
 99/9=1/99;
 -----
 titel
 -----
 Symbolic Z-matrix:
 Charge =  0 Multiplicity = 1
 O                     0.40758   0.63698   0.19547 
 C                    -0.77344  -0.02473   0.61915 
 C                    -1.08709   0.27324   2.08515 
 O                    -1.64992   1.58482   2.0474 
 C                    -2.50957   1.66539   0.9014 
 C                    -3.99254   1.35399   1.23919 
 C                    -4.24818   0.01923   0.58786 
 C                    -3.20934  -0.4045   -0.13088 
 C                    -2.03705   0.54125  -0.079 
 H                     0.36209   1.53604   0.54251 
 H                    -0.62178  -1.08781   0.41604 
 H                    -1.79488  -0.4581    2.5018 
 H                    -0.19177   0.30464   2.71057 
 H                    -2.39323   2.67596   0.5028 
 H                    -4.13467   1.34124   2.32622 
 H                    -4.66646   2.12688   0.84744 
 H                    -5.19058  -0.50841   0.69048 
 H                    -3.17568  -1.33025  -0.69552 
 H                    -1.75203   0.91161  -1.06855 
 

 GradGradGradGradGradGradGradGradGradGradGradGradGradGradGradGradGradGrad
 Berny optimization.
 Initialization pass.
                           ----------------------------
                           !    Initial Parameters    !
                           ! (Angstroms and Degrees)  !
 --------------------------                            --------------------------
 ! Name  Definition              Value          Derivative Info.                !
 --------------------------------------------------------------------------------
 ! R1    R(1,2)                  1.4185         estimate D2E/DX2                !
 ! R2    R(1,10)                 0.9648         estimate D2E/DX2                !
 ! R3    R(2,3)                  1.5285         estimate D2E/DX2                !
 ! R4    R(2,9)                  1.5506         estimate D2E/DX2                !
 ! R5    R(2,11)                 1.0929         estimate D2E/DX2                !
 ! R6    R(3,4)                  1.4277         estimate D2E/DX2                !
 ! R7    R(3,12)                 1.0997         estimate D2E/DX2                !
 ! R8    R(3,13)                 1.0926         estimate D2E/DX2                !
 ! R9    R(4,5)                  1.4349         estimate D2E/DX2                !
 ! R10   R(5,6)                  1.5525         estimate D2E/DX2                !
 ! R11   R(5,9)                  1.5647         estimate D2E/DX2                !
 ! R12   R(5,14)                 1.0926         estimate D2E/DX2                !
 ! R13   R(6,7)                  1.507          estimate D2E/DX2                !
 ! R14   R(6,15)                 1.0964         estimate D2E/DX2                !
 ! R15   R(6,16)                 1.0977         estimate D2E/DX2                !
 ! R16   R(7,8)                  1.3324         estimate D2E/DX2                !
 ! R17   R(7,17)                 1.0849         estimate D2E/DX2                !
 ! R18   R(8,9)                  1.5071         estimate D2E/DX2                !
 ! R19   R(8,18)                 1.0849         estimate D2E/DX2                !
 ! R20   R(9,19)                 1.0944         estimate D2E/DX2                !
 ! A1    A(2,1,10)             106.7383         estimate D2E/DX2                !
 ! A2    A(1,2,3)              111.4923         estimate D2E/DX2                !
 ! A3    A(1,2,9)              111.946          estimate D2E/DX2                !
 ! A4    A(1,2,11)             106.4223         estimate D2E/DX2                !
 ! A5    A(3,2,9)              101.1543         estimate D2E/DX2                !
 ! A6    A(3,2,11)             113.3502         estimate D2E/DX2                !
 ! A7    A(9,2,11)             112.6096         estimate D2E/DX2                !
 ! A8    A(2,3,4)              103.5691         estimate D2E/DX2                !
 ! A9    A(2,3,12)             111.4569         estimate D2E/DX2                !
 ! A10   A(2,3,13)             112.7345         estimate D2E/DX2                !
 ! A11   A(4,3,12)             111.5438         estimate D2E/DX2                !
 ! A12   A(4,3,13)             108.1664         estimate D2E/DX2                !
 ! A13   A(12,3,13)            109.2467         estimate D2E/DX2                !
 ! A14   A(3,4,5)              107.9917         estimate D2E/DX2                !
 ! A15   A(4,5,6)              112.7828         estimate D2E/DX2                !
 ! A16   A(4,5,9)              106.2108         estimate D2E/DX2                !
 ! A17   A(4,5,14)             106.2322         estimate D2E/DX2                !
 ! A18   A(6,5,9)              106.3019         estimate D2E/DX2                !
 ! A19   A(6,5,14)             111.5076         estimate D2E/DX2                !
 ! A20   A(9,5,14)             113.8155         estimate D2E/DX2                !
 ! A21   A(5,6,7)              104.22           estimate D2E/DX2                !
 ! A22   A(5,6,15)             109.9928         estimate D2E/DX2                !
 ! A23   A(5,6,16)             111.5651         estimate D2E/DX2                !
 ! A24   A(7,6,15)             113.3419         estimate D2E/DX2                !
 ! A25   A(7,6,16)             111.4203         estimate D2E/DX2                !
 ! A26   A(15,6,16)            106.4063         estimate D2E/DX2                !
 ! A27   A(6,7,8)              112.491          estimate D2E/DX2                !
 ! A28   A(6,7,17)             122.4937         estimate D2E/DX2                !
 ! A29   A(8,7,17)             125.0026         estimate D2E/DX2                !
 ! A30   A(7,8,9)              112.8504         estimate D2E/DX2                !
 ! A31   A(7,8,18)             125.1914         estimate D2E/DX2                !
 ! A32   A(9,8,18)             121.9555         estimate D2E/DX2                !
 ! A33   A(2,9,5)              103.0748         estimate D2E/DX2                !
 ! A34   A(2,9,8)              114.8546         estimate D2E/DX2                !
 ! A35   A(2,9,19)             108.5669         estimate D2E/DX2                !
 ! A36   A(5,9,8)              103.7399         estimate D2E/DX2                !
 ! A37   A(5,9,19)             113.7086         estimate D2E/DX2                !
 ! A38   A(8,9,19)             112.5706         estimate D2E/DX2                !
 ! D1    D(10,1,2,3)           -43.9175         estimate D2E/DX2                !
 ! D2    D(10,1,2,9)            68.5901         estimate D2E/DX2                !
 ! D3    D(10,1,2,11)         -167.983          estimate D2E/DX2                !
 ! D4    D(1,2,3,4)             77.6037         estimate D2E/DX2                !
 ! D5    D(1,2,3,12)          -162.3467         estimate D2E/DX2                !
 ! D6    D(1,2,3,13)           -39.0681         estimate D2E/DX2                !
 ! D7    D(9,2,3,4)            -41.542          estimate D2E/DX2                !
 ! D8    D(9,2,3,12)            78.5076         estimate D2E/DX2                !
 ! D9    D(9,2,3,13)          -158.2138         estimate D2E/DX2                !
 ! D10   D(11,2,3,4)          -162.3345         estimate D2E/DX2                !
 ! D11   D(11,2,3,12)          -42.285          estimate D2E/DX2                !
 ! D12   D(11,2,3,13)           80.9937         estimate D2E/DX2                !
 ! D13   D(1,2,9,5)            -91.198          estimate D2E/DX2                !
 ! D14   D(1,2,9,8)            156.6969         estimate D2E/DX2                !
 ! D15   D(1,2,9,19)            29.6966         estimate D2E/DX2                !
 ! D16   D(3,2,9,5)             27.6214         estimate D2E/DX2                !
 ! D17   D(3,2,9,8)            -84.4837         estimate D2E/DX2                !
 ! D18   D(3,2,9,19)           148.516          estimate D2E/DX2                !
 ! D19   D(11,2,9,5)           148.9355         estimate D2E/DX2                !
 ! D20   D(11,2,9,8)            36.8304         estimate D2E/DX2                !
 ! D21   D(11,2,9,19)          -90.1699         estimate D2E/DX2                !
 ! D22   D(2,3,4,5)             40.3494         estimate D2E/DX2                !
 ! D23   D(12,3,4,5)           -79.6409         estimate D2E/DX2                !
 ! D24   D(13,3,4,5)           160.1914         estimate D2E/DX2                !
 ! D25   D(3,4,5,6)             94.3777         estimate D2E/DX2                !
 ! D26   D(3,4,5,9)            -21.6731         estimate D2E/DX2                !
 ! D27   D(3,4,5,14)          -143.1808         estimate D2E/DX2                !
 ! D28   D(4,5,6,7)           -109.7469         estimate D2E/DX2                !
 ! D29   D(4,5,6,15)            12.0663         estimate D2E/DX2                !
 ! D30   D(4,5,6,16)           129.9044         estimate D2E/DX2                !
 ! D31   D(9,5,6,7)              6.2495         estimate D2E/DX2                !
 ! D32   D(9,5,6,15)           128.0627         estimate D2E/DX2                !
 ! D33   D(9,5,6,16)          -114.0992         estimate D2E/DX2                !
 ! D34   D(14,5,6,7)           130.8214         estimate D2E/DX2                !
 ! D35   D(14,5,6,15)         -107.3654         estimate D2E/DX2                !
 ! D36   D(14,5,6,16)           10.4727         estimate D2E/DX2                !
 ! D37   D(4,5,9,2)             -5.2179         estimate D2E/DX2                !
 ! D38   D(4,5,9,8)            114.8484         estimate D2E/DX2                !
 ! D39   D(4,5,9,19)          -122.541          estimate D2E/DX2                !
 ! D40   D(6,5,9,2)           -125.5619         estimate D2E/DX2                !
 ! D41   D(6,5,9,8)             -5.4956         estimate D2E/DX2                !
 ! D42   D(6,5,9,19)           117.115          estimate D2E/DX2                !
 ! D43   D(14,5,9,2)           111.3028         estimate D2E/DX2                !
 ! D44   D(14,5,9,8)          -128.6309         estimate D2E/DX2                !
 ! D45   D(14,5,9,19)           -6.0203         estimate D2E/DX2                !
 ! D46   D(5,6,7,8)             -4.9412         estimate D2E/DX2                !
 ! D47   D(5,6,7,17)           176.2941         estimate D2E/DX2                !
 ! D48   D(15,6,7,8)          -124.5124         estimate D2E/DX2                !
 ! D49   D(15,6,7,17)           56.7229         estimate D2E/DX2                !
 ! D50   D(16,6,7,8)           115.5047         estimate D2E/DX2                !
 ! D51   D(16,6,7,17)          -63.26           estimate D2E/DX2                !
 ! D52   D(6,7,8,9)              1.4444         estimate D2E/DX2                !
 ! D53   D(6,7,8,18)          -179.1427         estimate D2E/DX2                !
 ! D54   D(17,7,8,9)          -179.8275         estimate D2E/DX2                !
 ! D55   D(17,7,8,18)           -0.4147         estimate D2E/DX2                !
 ! D56   D(7,8,9,2)            114.3938         estimate D2E/DX2                !
 ! D57   D(7,8,9,5)              2.6829         estimate D2E/DX2                !
 ! D58   D(7,8,9,19)          -120.677          estimate D2E/DX2                !
 ! D59   D(18,8,9,2)           -65.0406         estimate D2E/DX2                !
 ! D60   D(18,8,9,5)          -176.7515         estimate D2E/DX2                !
 ! D61   D(18,8,9,19)           59.8885         estimate D2E/DX2                !
 --------------------------------------------------------------------------------
 Trust Radius=3.00D-01 FncErr=1.00D-07 GrdErr=1.00D-06
 Number of steps in this run=    114 maximum allowed number of steps=    114.
 GradGradGradGradGradGradGradGradGradGradGradGradGradGradGradGradGradGrad

                          Input orientation:                          
 ---------------------------------------------------------------------
 Center     Atomic      Atomic             Coordinates (Angstroms)
 Number     Number       Type             X           Y           Z
 ---------------------------------------------------------------------
      1          8           0        0.407584    0.636982    0.195471
      2          6           0       -0.773441   -0.024725    0.619148
      3          6           0       -1.087095    0.273244    2.085148
      4          8           0       -1.649923    1.584818    2.047402
      5          6           0       -2.509568    1.665392    0.901397
      6          6           0       -3.992538    1.353995    1.239193
      7          6           0       -4.248184    0.019227    0.587856
      8          6           0       -3.209338   -0.404501   -0.130880
      9          6           0       -2.037046    0.541247   -0.078997
     10          1           0        0.362087    1.536037    0.542512
     11          1           0       -0.621782   -1.087815    0.416035
     12          1           0       -1.794885   -0.458100    2.501800
     13          1           0       -0.191767    0.304636    2.710570
     14          1           0       -2.393226    2.675962    0.502800
     15          1           0       -4.134674    1.341236    2.326217
     16          1           0       -4.666465    2.126883    0.847435
     17          1           0       -5.190577   -0.508407    0.690484
     18          1           0       -3.175679   -1.330252   -0.695524
     19          1           0       -1.752034    0.911607   -1.068549
 ---------------------------------------------------------------------
                    Distance matrix (angstroms):
                    1          2          3          4          5
     1  O    0.000000
     2  C    1.418513   0.000000
     3  C    2.436648   1.528503   0.000000
     4  O    2.925983   2.323523   1.427735   0.000000
     5  C    3.172654   2.439323   2.315766   1.434855   0.000000
     6  C    4.578705   3.556390   3.213295   2.488840   1.552506
     7  C    4.712936   3.475162   3.506978   3.366349   2.414736
     8  C    3.778004   2.576891   3.142298   3.336776   2.416553
     9  C    2.461851   1.550621   2.378604   2.400099   1.564657
    10  H    0.964784   1.931652   2.464651   2.513018   2.896884
    11  H    2.020685   1.092893   2.203391   3.295663   3.373345
    12  H    3.371828   2.185300   1.099740   2.097857   2.753412
    13  H    2.606799   2.195648   1.092588   2.050580   3.239902
    14  H    3.477992   3.151341   3.159566   2.031967   1.092551
    15  H    5.066376   4.009716   3.238281   2.512182   2.185443
    16  H    5.328304   4.453893   4.216610   3.291394   2.206374
    17  H    5.735535   4.444112   4.403934   4.331172   3.457990
    18  H    4.183737   3.033729   3.829559   4.283598   3.459443
    19  H    2.517362   2.163951   3.285644   3.189481   2.241146
                    6          7          8          9         10
     6  C    0.000000
     7  C    1.507050   0.000000
     8  C    2.362798   1.332415   0.000000
     9  C    2.494421   2.367769   1.507117   0.000000
    10  H    4.413759   4.853594   4.119979   2.670528   0.000000
    11  H    4.242878   3.795505   2.731571   2.214016   2.805102
    12  H    3.115693   3.147968   2.989073   2.778101   3.530994
    13  H    4.208558   4.587144   4.205050   3.353017   2.554130
    14  H    2.201743   3.241349   3.249130   2.241062   2.982072
    15  H    1.096351   2.186890   3.152963   3.290149   4.841530
    16  H    1.097728   2.164382   3.080296   3.207236   5.072318
    17  H    2.281430   1.084913   2.147265   3.411545   5.918930
    18  H    3.408163   2.149053   1.084883   2.275764   4.718489
    19  H    3.246727   3.125825   2.176028   1.094354   2.730373
                   11         12         13         14         15
    11  H    0.000000
    12  H    2.474494   0.000000
    13  H    2.718220   1.787550   0.000000
    14  H    4.160716   3.765150   3.917124   0.000000
    15  H    4.678620   2.956865   4.094970   2.852891   0.000000
    16  H    5.184577   4.202978   5.178298   2.363869   1.756940
    17  H    4.613559   3.848912   5.452512   4.242712   2.685467
    18  H    2.795841   3.590282   4.814360   4.254171   4.145774
    19  H    2.734803   3.824307   4.133350   2.448104   4.169651
                   16         17         18         19
    16  H    0.000000
    17  H    2.691483   0.000000
    18  H    4.068777   2.579974   0.000000
    19  H    3.693480   4.115121   2.681762   0.000000
 Stoichiometry    C7H10O2
 Framework group  C1[X(C7H10O2)]
 Deg. of freedom    51
 Full point group                 C1      NOp   1
 Largest Abelian subgroup         C1      NOp   1
 Largest concise Abelian subgroup C1      NOp   1
                         Standard orientation:                         
 ---------------------------------------------------------------------
 Center     Atomic      Atomic             Coordinates (Angstroms)
 Number     Number       Type             X           Y           Z
 ---------------------------------------------------------------------
      1          8           0       -2.456832    0.543187   -0.481713
      2          6           0       -1.292587    0.635724    0.323365
      3          6           0       -1.017175   -0.673647    1.062294
      4          8           0       -0.444258   -1.511037    0.057817
      5          6           0        0.447055   -0.710134   -0.731438
      6          6           0        1.917958   -0.786332   -0.240610
      7          6           0        2.181931    0.574567    0.350551
      8          6           0        1.160225    1.412198    0.177863
      9          6           0       -0.006330    0.773993   -0.531535
     10          1           0       -2.414515   -0.307594   -0.934692
     11          1           0       -1.446132    1.486443    0.992031
     12          1           0       -0.326275   -0.522653    1.904485
     13          1           0       -1.929081   -1.153085    1.426046
     14          1           0        0.348846   -1.066770   -1.759462
     15          1           0        2.030122   -1.603077    0.482117
     16          1           0        2.607831   -1.005628   -1.065832
     17          1           0        3.117397    0.826375    0.838949
     18          1           0        1.135523    2.444935    0.509247
     19          1           0       -0.261456    1.285642   -1.464667
 ---------------------------------------------------------------------
 Rotational constants (GHZ):      3.0952778      1.5214881      1.2532492
 Standard basis: 6-31G(2df,p) (6D, 7F)
 There are   329 symmetry adapted cartesian basis functions of A   symmetry.
 There are   302 symmetry adapted basis functions of A   symmetry.
   302 basis functions,   466 primitive gaussians,   329 cartesian basis functions
    34 alpha electrons       34 beta electrons
       nuclear repulsion energy       476.7794535305 Hartrees.
 NAtoms=   19 NActive=   19 NUniq=   19 SFac= 1.00D+00 NAtFMM=   60 NAOKFM=F Big=F
 Integral buffers will be    131072 words long.
 Raffenetti 2 integral format.
 Two-electron integral symmetry is turned on.
 One-electron integrals computed using PRISM.
 NBasis=   302 RedAO= T EigKep=  4.19D-04  NBF=   302
 NBsUse=   302 1.00D-06 EigRej= -1.00D+00 NBFU=   302
 ExpMin= 1.61D-01 ExpMax= 5.48D+03 ExpMxC= 8.25D+02 IAcc=1 IRadAn=         1 AccDes= 0.00D+00
 Harris functional with IExCor=  402 and IRadAn=       1 diagonalized for initial guess.
 HarFok:  IExCor=  402 AccDes= 0.00D+00 IRadAn=         1 IDoV= 1 UseB2=F ITyADJ=14
 ICtDFT=  3500011 ScaDFX=  1.000000  1.000000  1.000000  1.000000
 FoFCou: FMM=F IPFlag=           0 FMFlag=      100000 FMFlg1=           0
         NFxFlg=           0 DoJE=T BraDBF=F KetDBF=T FulRan=T
         wScrn=  0.000000 ICntrl=     500 IOpCl=  0 I1Cent=   200000004 NGrid=           0
         NMat0=    1 NMatS0=      1 NMatT0=    0 NMatD0=    1 NMtDS0=    0 NMtDT0=    0
 Petite list used in FoFCou.
 Requested convergence on RMS density matrix=1.00D-08 within 128 cycles.
 Requested convergence on MAX density matrix=1.00D-06.
 Requested convergence on             energy=1.00D-06.
 No special actions if energy rises.
 Integral accuracy reduced to 1.0D-05 until final iterations.
 Initial convergence to 1.0D-05 achieved.  Increase integral accuracy.
 SCF Done:  E(RB3LYP) =  -423.203336538     A.U. after   13 cycles
            NFock= 13  Conv=0.59D-08     -V/T= 2.0074

 **********************************************************************

            Population analysis using the SCF density.

 **********************************************************************

 Orbital symmetries:
       Occupied  (A) (A) (A) (A) (A) (A) (A) (A) (A) (A) (A) (A)
                 (A) (A) (A) (A) (A) (A) (A) (A) (A) (A) (A) (A)
                 (A) (A) (A) (A) (A) (A) (A) (A) (A) (A)
       Virtual   (A) (A) (A) (A) (A) (A) (A) (A) (A) (A) (A) (A)
                 (A) (A) (A) (A) (A) (A) (A) (A) (A) (A) (A) (A)
                 (A) (A) (A) (A) (A) (A) (A) (A) (A) (A) (A) (A)
                 (A) (A) (A) (A) (A) (A) (A) (A) (A) (A) (A) (A)
                 (A) (A) (A) (A) (A) (A) (A) (A) (A) (A) (A) (A)
                 (A) (A) (A) (A) (A) (A) (A) (A) (A) (A) (A) (A)
                 (A) (A) (A) (A) (A) (A) (A) (A) (A) (A) (A) (A)
                 (A) (A) (A) (A) (A) (A) (A) (A) (A) (A) (A) (A)
                 (A) (A) (A) (A) (A) (A) (A) (A) (A) (A) (A) (A)
                 (A) (A) (A) (A) (A) (A) (A) (A) (A) (A) (A) (A)
                 (A) (A) (A) (A) (A) (A) (A) (A) (A) (A) (A) (A)
                 (A) (A) (A) (A) (A) (A) (A) (A) (A) (A) (A) (A)
                 (A) (A) (A) (A) (A) (A) (A) (A) (A) (A) (A) (A)
                 (A) (A) (A) (A) (A) (A) (A) (A) (A) (A) (A) (A)
                 (A) (A) (A) (A) (A) (A) (A) (A) (A) (A) (A) (A)
                 (A) (A) (A) (A) (A) (A) (A) (A) (A) (A) (A) (A)
                 (A) (A) (A) (A) (A) (A) (A) (A) (A) (A) (A) (A)
                 (A) (A) (A) (A) (A) (A) (A) (A) (A) (A) (A) (A)
                 (A) (A) (A) (A) (A) (A) (A) (A) (A) (A) (A) (A)
                 (A) (A) (A) (A) (A) (A) (A) (A) (A) (A) (A) (A)
                 (A) (A) (A) (A) (A) (A) (A) (A) (A) (A) (A) (A)
                 (A) (A) (A) (A) (A) (A) (A) (A) (A) (A) (A) (A)
                 (A) (A) (A) (A)
 The electronic state is 1-A.
 Alpha  occ. eigenvalues --  -19.14048 -19.13336 -10.23209 -10.23152 -10.22343
 Alpha  occ. eigenvalues --  -10.18808 -10.18591 -10.18449 -10.18310  -1.04273
 Alpha  occ. eigenvalues --   -1.00897  -0.83844  -0.75752  -0.71360  -0.68755
 Alpha  occ. eigenvalues --   -0.60212  -0.56627  -0.54778  -0.51414  -0.50294
 Alpha  occ. eigenvalues --   -0.47773  -0.44872  -0.42973  -0.40245  -0.39923
 Alpha  occ. eigenvalues --   -0.37470  -0.37331  -0.36132  -0.35492  -0.32234
 Alpha  occ. eigenvalues --   -0.31217  -0.27733  -0.25782  -0.23781
 Alpha virt. eigenvalues --    0.01718   0.08075   0.10794   0.11455   0.12218
 Alpha virt. eigenvalues --    0.13482   0.14332   0.14826   0.16531   0.17512
 Alpha virt. eigenvalues --    0.17752   0.18734   0.19241   0.20468   0.21615
 Alpha virt. eigenvalues --    0.23787   0.24206   0.28624   0.32378   0.32439
 Alpha virt. eigenvalues --    0.39921   0.41435   0.44867   0.47434   0.48254
 Alpha virt. eigenvalues --    0.49570   0.50000   0.50761   0.53023   0.53779
 Alpha virt. eigenvalues --    0.54870   0.56493   0.57542   0.58272   0.58797
 Alpha virt. eigenvalues --    0.60294   0.63997   0.65157   0.67400   0.69837
 Alpha virt. eigenvalues --    0.71041   0.72502   0.73619   0.74170   0.76148
 Alpha virt. eigenvalues --    0.76920   0.77742   0.78507   0.79624   0.80203
 Alpha virt. eigenvalues --    0.81302   0.83273   0.84571   0.86030   0.87608
 Alpha virt. eigenvalues --    0.91592   0.92751   0.93189   0.95072   0.96137
 Alpha virt. eigenvalues --    0.97570   1.03748   1.04528   1.07335   1.08455
 Alpha virt. eigenvalues --    1.12321   1.13187   1.17707   1.18907   1.22079
 Alpha virt. eigenvalues --    1.23291   1.26035   1.28119   1.32459   1.33678
 Alpha virt. eigenvalues --    1.35225   1.36792   1.37918   1.40216   1.42124
 Alpha virt. eigenvalues --    1.44494   1.45765   1.46991   1.48552   1.49513
 Alpha virt. eigenvalues --    1.52347   1.54138   1.56974   1.57666   1.59180
 Alpha virt. eigenvalues --    1.61195   1.64275   1.66560   1.67484   1.70443
 Alpha virt. eigenvalues --    1.71902   1.74906   1.78881   1.80250   1.80796
 Alpha virt. eigenvalues --    1.85207   1.86195   1.88853   1.89343   1.94966
 Alpha virt. eigenvalues --    1.95734   2.01476   2.05289   2.07851   2.13164
 Alpha virt. eigenvalues --    2.17791   2.21291   2.22187   2.25448   2.26283
 Alpha virt. eigenvalues --    2.32542   2.36434   2.37566   2.40388   2.43940
 Alpha virt. eigenvalues --    2.46086   2.48549   2.51957   2.55740   2.58443
 Alpha virt. eigenvalues --    2.60511   2.63254   2.67338   2.68786   2.71015
 Alpha virt. eigenvalues --    2.76074   2.77014   2.79455   2.81496   2.84417
 Alpha virt. eigenvalues --    2.84914   2.86856   2.88473   2.91718   2.92273
 Alpha virt. eigenvalues --    2.94761   2.96016   2.98123   3.00543   3.03342
 Alpha virt. eigenvalues --    3.06685   3.10715   3.11734   3.14606   3.15403
 Alpha virt. eigenvalues --    3.18248   3.19770   3.22944   3.24542   3.26444
 Alpha virt. eigenvalues --    3.27885   3.31963   3.32159   3.36149   3.37731
 Alpha virt. eigenvalues --    3.39198   3.40096   3.41806   3.43901   3.47545
 Alpha virt. eigenvalues --    3.49093   3.50611   3.53884   3.57719   3.60915
 Alpha virt. eigenvalues --    3.63559   3.65774   3.67407   3.70056   3.73250
 Alpha virt. eigenvalues --    3.76933   3.83448   3.88489   3.91547   3.98654
 Alpha virt. eigenvalues --    4.03974   4.06467   4.10360   4.13994   4.14582
 Alpha virt. eigenvalues --    4.19329   4.21324   4.23641   4.24452   4.27630
 Alpha virt. eigenvalues --    4.31924   4.32679   4.36751   4.38295   4.41048
 Alpha virt. eigenvalues --    4.42333   4.43139   4.47206   4.49370   4.51021
 Alpha virt. eigenvalues --    4.52066   4.56205   4.57127   4.58134   4.59417
 Alpha virt. eigenvalues --    4.61024   4.63373   4.64327   4.64635   4.68607
 Alpha virt. eigenvalues --    4.68802   4.69909   4.72770   4.74240   4.76225
 Alpha virt. eigenvalues --    4.77397   4.79432   4.83002   4.85740   4.87436
 Alpha virt. eigenvalues --    4.90332   4.92891   4.94963   4.97299   4.99752
 Alpha virt. eigenvalues --    5.02439   5.05867   5.09497   5.12035   5.18051
 Alpha virt. eigenvalues --    5.18611   5.24555   5.30963   5.33172   5.33911
 Alpha virt. eigenvalues --    5.38586   5.44278   5.45379   5.47678   5.48522
 Alpha virt. eigenvalues --    5.51552   5.52542   5.53805   5.60871   5.67835
 Alpha virt. eigenvalues --    5.70064   5.85965   5.87259   5.94673   5.96330
 Alpha virt. eigenvalues --    6.02357   6.07323   6.10942   6.15738   6.19255
 Alpha virt. eigenvalues --    6.38135   6.70992   7.15646   7.40848  10.37615
 Alpha virt. eigenvalues --   11.22113  11.45393  11.72225  12.28767  12.44259
 Alpha virt. eigenvalues --   12.83715  13.37159  13.66641
          Condensed to atoms (all electrons):
               1          2          3          4          5          6
     1  O    7.836026   0.380772  -0.031486  -0.002749   0.006868   0.000123
     2  C    0.380772   4.713874   0.328049  -0.059004  -0.029959  -0.000921
     3  C   -0.031486   0.328049   4.932185   0.382910  -0.136459   0.004689
     4  O   -0.002749  -0.059004   0.382910   7.728940   0.371687  -0.039281
     5  C    0.006868  -0.029959  -0.136459   0.371687   4.743987   0.368927
     6  C    0.000123  -0.000921   0.004689  -0.039281   0.368927   5.053385
     7  C   -0.000094  -0.003505   0.000979   0.002010  -0.039612   0.373668
     8  C    0.003263  -0.026311   0.001029   0.000666  -0.002343  -0.023121
     9  C   -0.052224   0.382009  -0.026069  -0.046086   0.309352  -0.066601
    10  H    0.317546  -0.079154  -0.005162   0.012772   0.005332   0.000246
    11  H   -0.020521   0.353933  -0.040604   0.002758   0.006265   0.000054
    12  H    0.003254  -0.033747   0.342610  -0.034134   0.008791   0.003434
    13  H   -0.000738  -0.018930   0.360433  -0.020910   0.004526  -0.000340
    14  H    0.000201   0.002684   0.006475  -0.026460   0.363519  -0.058007
    15  H   -0.000001   0.000690   0.000829   0.000827  -0.023448   0.349233
    16  H    0.000001  -0.000165  -0.000154   0.002564  -0.020367   0.349507
    17  H    0.000000  -0.000013  -0.000036  -0.000069   0.004011  -0.053132
    18  H    0.000050  -0.000529  -0.000337  -0.000047   0.004518   0.008133
    19  H    0.003192  -0.043532   0.007527   0.002686  -0.038332   0.006382
               7          8          9         10         11         12
     1  O   -0.000094   0.003263  -0.052224   0.317546  -0.020521   0.003254
     2  C   -0.003505  -0.026311   0.382009  -0.079154   0.353933  -0.033747
     3  C    0.000979   0.001029  -0.026069  -0.005162  -0.040604   0.342610
     4  O    0.002010   0.000666  -0.046086   0.012772   0.002758  -0.034134
     5  C   -0.039612  -0.002343   0.309352   0.005332   0.006265   0.008791
     6  C    0.373668  -0.023121  -0.066601   0.000246   0.000054   0.003434
     7  C    4.789304   0.661178   0.015290  -0.000017  -0.000268   0.001714
     8  C    0.661178   4.891634   0.271515  -0.000113  -0.001357   0.001644
     9  C    0.015290   0.271515   5.103390  -0.003057  -0.047624  -0.006801
    10  H   -0.000017  -0.000113  -0.003057   0.459285   0.007458   0.000687
    11  H   -0.000268  -0.001357  -0.047624   0.007458   0.648655   0.000358
    12  H    0.001714   0.001644  -0.006801   0.000687   0.000358   0.659787
    13  H    0.000080  -0.000042   0.004943  -0.000768   0.001367  -0.044200
    14  H    0.003974   0.006700  -0.036380  -0.000975  -0.000152  -0.000360
    15  H   -0.023616  -0.000383   0.005135  -0.000001  -0.000003  -0.000622
    16  H   -0.028542  -0.001186   0.004031  -0.000005   0.000005  -0.000067
    17  H    0.371123  -0.041411   0.006513   0.000000  -0.000003   0.000111
    18  H   -0.053101   0.379256  -0.058264   0.000006   0.002517   0.000112
    19  H    0.000468  -0.035886   0.356266  -0.000155   0.001410  -0.000114
              13         14         15         16         17         18
     1  O   -0.000738   0.000201  -0.000001   0.000001   0.000000   0.000050
     2  C   -0.018930   0.002684   0.000690  -0.000165  -0.000013  -0.000529
     3  C    0.360433   0.006475   0.000829  -0.000154  -0.000036  -0.000337
     4  O   -0.020910  -0.026460   0.000827   0.002564  -0.000069  -0.000047
     5  C    0.004526   0.363519  -0.023448  -0.020367   0.004011   0.004518
     6  C   -0.000340  -0.058007   0.349233   0.349507  -0.053132   0.008133
     7  C    0.000080   0.003974  -0.023616  -0.028542   0.371123  -0.053101
     8  C   -0.000042   0.006700  -0.000383  -0.001186  -0.041411   0.379256
     9  C    0.004943  -0.036380   0.005135   0.004031   0.006513  -0.058264
    10  H   -0.000768  -0.000975  -0.000001  -0.000005   0.000000   0.000006
    11  H    0.001367  -0.000152  -0.000003   0.000005  -0.000003   0.002517
    12  H   -0.044200  -0.000360  -0.000622  -0.000067   0.000111   0.000112
    13  H    0.601409  -0.000191  -0.000073   0.000005  -0.000001  -0.000004
    14  H   -0.000191   0.664570   0.003931  -0.005139  -0.000179  -0.000136
    15  H   -0.000073   0.003931   0.608180  -0.039166  -0.000122  -0.000162
    16  H    0.000005  -0.005139  -0.039166   0.630478   0.000521  -0.000163
    17  H   -0.000001  -0.000179  -0.000122   0.000521   0.621805  -0.005157
    18  H   -0.000004  -0.000136  -0.000162  -0.000163  -0.005157   0.627497
    19  H   -0.000208  -0.006082  -0.000222   0.000245  -0.000179  -0.000338
              19
     1  O    0.003192
     2  C   -0.043532
     3  C    0.007527
     4  O    0.002686
     5  C   -0.038332
     6  C    0.006382
     7  C    0.000468
     8  C   -0.035886
     9  C    0.356266
    10  H   -0.000155
    11  H    0.001410
    12  H   -0.000114
    13  H   -0.000208
    14  H   -0.006082
    15  H   -0.000222
    16  H    0.000245
    17  H   -0.000179
    18  H   -0.000338
    19  H    0.659877
 Mulliken charges:
               1
     1  O   -0.443486
     2  C    0.133757
     3  C   -0.127410
     4  O   -0.279078
     5  C    0.092738
     6  C   -0.276379
     7  C   -0.071032
     8  C   -0.084732
     9  C   -0.115338
    10  H    0.286074
    11  H    0.085750
    12  H    0.097543
    13  H    0.113642
    14  H    0.082004
    15  H    0.118993
    16  H    0.107596
    17  H    0.096215
    18  H    0.096149
    19  H    0.086994
 Sum of Mulliken charges =   0.00000
 Mulliken charges with hydrogens summed into heavy atoms:
               1
     1  O   -0.157412
     2  C    0.219507
     3  C    0.083775
     4  O   -0.279078
     5  C    0.174742
     6  C   -0.049790
     7  C    0.025183
     8  C    0.011418
     9  C   -0.028344
 Electronic spatial extent (au):  <R**2>=           1038.8143
 Charge=              0.0000 electrons
 Dipole moment (field-independent basis, Debye):
    X=              1.4360    Y=              0.2225    Z=              0.1687  Tot=              1.4629
 Quadrupole moment (field-independent basis, Debye-Ang):
   XX=            -55.1065   YY=            -55.0663   ZZ=            -50.6128
   XY=              2.1047   XZ=             -0.4780   YZ=              1.8123
 Traceless Quadrupole moment (field-independent basis, Debye-Ang):
   XX=             -1.5113   YY=             -1.4711   ZZ=              2.9824
   XY=              2.1047   XZ=             -0.4780   YZ=              1.8123
 Octapole moment (field-independent basis, Debye-Ang**2):
  XXX=              4.7923  YYY=              6.0567  ZZZ=             -4.6023  XYY=             -2.1908
  XXY=            -13.7471  XXZ=              2.6516  XZZ=             -7.5435  YZZ=             -4.5889
  YYZ=              1.4712  XYZ=             -1.0669
 Hexadecapole moment (field-independent basis, Debye-Ang**3):
 XXXX=           -800.5883 YYYY=           -358.2449 ZZZZ=           -189.5559 XXXY=             28.0286
 XXXZ=             12.1942 YYYX=             -4.9154 YYYZ=              3.4892 ZZZX=              5.0129
 ZZZY=             -0.2590 XXYY=           -189.9954 XXZZ=           -153.6168 YYZZ=            -88.5555
 XXYZ=             11.2070 YYXZ=              1.0338 ZZXY=              0.8501
 N-N= 4.767794535305D+02 E-N=-1.940730781966D+03  KE= 4.200906198079D+02
 Calling FoFJK, ICntrl=      2127 FMM=F ISym2X=0 I1Cent= 0 IOpClX= 0 NMat=1 NMatS=1 NMatT=0.
 ***** Axes restored to original set *****
 -------------------------------------------------------------------
 Center     Atomic                   Forces (Hartrees/Bohr)
 Number     Number              X              Y              Z
 -------------------------------------------------------------------
      1        8          -0.000005873   -0.000015674    0.000017739
      2        6           0.000019512    0.000023248    0.000004310
      3        6          -0.000000080    0.000042355    0.000015873
      4        8          -0.000005348   -0.000032246    0.000002637
      5        6          -0.000015256    0.000013257   -0.000006957
      6        6           0.000004031   -0.000016061   -0.000000205
      7        6          -0.000009991   -0.000001193    0.000001683
      8        6           0.000014207    0.000000419    0.000000665
      9        6           0.000019122   -0.000017111   -0.000007702
     10        1          -0.000007634    0.000002612   -0.000005990
     11        1           0.000005455    0.000006159    0.000006365
     12        1          -0.000006838    0.000003912    0.000009378
     13        1          -0.000009574    0.000020936    0.000006411
     14        1           0.000000928   -0.000001497   -0.000009711
     15        1          -0.000006073    0.000007553   -0.000012142
     16        1          -0.000003680   -0.000004681   -0.000023773
     17        1           0.000006222   -0.000013281   -0.000004486
     18        1           0.000003529   -0.000013063    0.000010152
     19        1          -0.000002659   -0.000005645   -0.000004245
 -------------------------------------------------------------------
 Cartesian Forces:  Max     0.000042355 RMS     0.000012467

 GradGradGradGradGradGradGradGradGradGradGradGradGradGradGradGradGradGrad
 Berny optimization.
 FormGI is forming the generalized inverse of G from B-inverse, IUseBI=4.
 Internal  Forces:  Max     0.000028491 RMS     0.000004852
 Search for a local minimum.
 Step number   1 out of a maximum of  114
 All quantities printed in internal units (Hartrees-Bohrs-Radians)
 Mixed Optimization -- En-DIIS/RFO-DIIS
 Second derivative matrix not updated -- first step.
 ITU=  0
     Eigenvalues ---    0.00369   0.00824   0.01073   0.01296   0.01447
     Eigenvalues ---    0.01850   0.02827   0.03467   0.03905   0.04490
     Eigenvalues ---    0.04891   0.05094   0.05260   0.05735   0.05849
     Eigenvalues ---    0.06085   0.06392   0.06675   0.07935   0.08133
     Eigenvalues ---    0.08196   0.09690   0.09961   0.10985   0.12607
     Eigenvalues ---    0.15994   0.15999   0.16000   0.17300   0.18863
     Eigenvalues ---    0.21570   0.23671   0.26230   0.26698   0.27980
     Eigenvalues ---    0.29792   0.31330   0.33711   0.33935   0.34089
     Eigenvalues ---    0.34314   0.34480   0.34515   0.34519   0.35407
     Eigenvalues ---    0.35411   0.37883   0.38491   0.42685   0.54457
     Eigenvalues ---    0.55275
 RFO step:  Lambda=-3.74067878D-08 EMin= 3.68898214D-03
 Linear search not attempted -- first point.
 Iteration  1 RMS(Cart)=  0.00018563 RMS(Int)=  0.00000002
 Iteration  2 RMS(Cart)=  0.00000003 RMS(Int)=  0.00000001
 Variable       Old X    -DE/DX   Delta X   Delta X   Delta X     New X
                                 (Linear)    (Quad)   (Total)
    R1        2.68060  -0.00002   0.00000  -0.00005  -0.00005   2.68055
    R2        1.82318  -0.00001   0.00000  -0.00001  -0.00001   1.82317
    R3        2.88845   0.00001   0.00000   0.00005   0.00005   2.88850
    R4        2.93025   0.00000   0.00000   0.00000   0.00000   2.93025
    R5        2.06527   0.00000   0.00000  -0.00001  -0.00001   2.06526
    R6        2.69803  -0.00003   0.00000  -0.00007  -0.00007   2.69796
    R7        2.07821   0.00001   0.00000   0.00002   0.00002   2.07823
    R8        2.06469   0.00000   0.00000  -0.00001  -0.00001   2.06468
    R9        2.71148   0.00000   0.00000   0.00001   0.00001   2.71149
   R10        2.93381   0.00000   0.00000  -0.00002  -0.00002   2.93379
   R11        2.95677   0.00001   0.00000   0.00003   0.00003   2.95681
   R12        2.06462   0.00000   0.00000   0.00000   0.00000   2.06462
   R13        2.84791   0.00000   0.00000  -0.00002  -0.00002   2.84789
   R14        2.07180   0.00000   0.00000  -0.00001  -0.00001   2.07180
   R15        2.07441   0.00000   0.00000   0.00001   0.00001   2.07442
   R16        2.51790   0.00000   0.00000   0.00001   0.00001   2.51791
   R17        2.05019   0.00000   0.00000   0.00000   0.00000   2.05019
   R18        2.84804   0.00000   0.00000   0.00001   0.00001   2.84805
   R19        2.05013   0.00000   0.00000   0.00000   0.00000   2.05013
   R20        2.06803   0.00000   0.00000   0.00001   0.00001   2.06804
    A1        1.86293   0.00000   0.00000  -0.00002  -0.00002   1.86291
    A2        1.94591   0.00001   0.00000   0.00009   0.00009   1.94599
    A3        1.95383   0.00000   0.00000   0.00003   0.00003   1.95386
    A4        1.85742  -0.00001   0.00000  -0.00008  -0.00008   1.85734
    A5        1.76548   0.00000   0.00000   0.00002   0.00002   1.76549
    A6        1.97833   0.00000   0.00000   0.00000   0.00000   1.97834
    A7        1.96541   0.00000   0.00000  -0.00006  -0.00006   1.96535
    A8        1.80762   0.00000   0.00000   0.00004   0.00004   1.80766
    A9        1.94529   0.00000   0.00000  -0.00003  -0.00003   1.94525
   A10        1.96759   0.00000   0.00000   0.00004   0.00004   1.96763
   A11        1.94681   0.00000   0.00000  -0.00001  -0.00001   1.94680
   A12        1.88786   0.00000   0.00000  -0.00004  -0.00004   1.88782
   A13        1.90672   0.00000   0.00000   0.00001   0.00001   1.90672
   A14        1.88481   0.00001   0.00000   0.00010   0.00010   1.88491
   A15        1.96843   0.00000   0.00000  -0.00001  -0.00001   1.96842
   A16        1.85373   0.00000   0.00000   0.00001   0.00001   1.85374
   A17        1.85410   0.00000   0.00000  -0.00003  -0.00003   1.85408
   A18        1.85532   0.00000   0.00000   0.00000   0.00000   1.85532
   A19        1.94617   0.00000   0.00000   0.00002   0.00002   1.94620
   A20        1.98646   0.00000   0.00000   0.00001   0.00001   1.98646
   A21        1.81898   0.00000   0.00000   0.00000   0.00000   1.81898
   A22        1.91974   0.00000   0.00000   0.00000   0.00000   1.91974
   A23        1.94718   0.00000   0.00000  -0.00004  -0.00004   1.94714
   A24        1.97819   0.00000   0.00000   0.00005   0.00005   1.97824
   A25        1.94465   0.00000   0.00000  -0.00004  -0.00004   1.94462
   A26        1.85714   0.00000   0.00000   0.00002   0.00002   1.85716
   A27        1.96334   0.00000   0.00000  -0.00002  -0.00002   1.96332
   A28        2.13792   0.00001   0.00000   0.00004   0.00004   2.13796
   A29        2.18171   0.00000   0.00000  -0.00002  -0.00002   2.18169
   A30        1.96961   0.00000   0.00000   0.00003   0.00003   1.96964
   A31        2.18500  -0.00001   0.00000  -0.00006  -0.00006   2.18494
   A32        2.12853   0.00001   0.00000   0.00003   0.00003   2.12856
   A33        1.79899   0.00000   0.00000  -0.00001  -0.00001   1.79898
   A34        2.00459   0.00001   0.00000   0.00000   0.00000   2.00459
   A35        1.89485   0.00000   0.00000   0.00008   0.00008   1.89493
   A36        1.81060  -0.00001   0.00000  -0.00004  -0.00004   1.81056
   A37        1.98459   0.00000   0.00000  -0.00001  -0.00001   1.98458
   A38        1.96473   0.00000   0.00000  -0.00001  -0.00001   1.96471
    D1       -0.76651   0.00000   0.00000  -0.00041  -0.00041  -0.76691
    D2        1.19712   0.00000   0.00000  -0.00031  -0.00031   1.19681
    D3       -2.93186  -0.00001   0.00000  -0.00041  -0.00041  -2.93227
    D4        1.35444   0.00000   0.00000   0.00020   0.00020   1.35464
    D5       -2.83348   0.00000   0.00000   0.00020   0.00020  -2.83329
    D6       -0.68187   0.00000   0.00000   0.00021   0.00021  -0.68166
    D7       -0.72504   0.00000   0.00000   0.00011   0.00011  -0.72493
    D8        1.37022   0.00000   0.00000   0.00011   0.00011   1.37032
    D9       -2.76135   0.00000   0.00000   0.00012   0.00012  -2.76123
   D10       -2.83327   0.00000   0.00000   0.00016   0.00016  -2.83311
   D11       -0.73801   0.00000   0.00000   0.00016   0.00016  -0.73785
   D12        1.41361   0.00000   0.00000   0.00017   0.00017   1.41378
   D13       -1.59171  -0.00001   0.00000  -0.00005  -0.00005  -1.59176
   D14        2.73488   0.00000   0.00000   0.00001   0.00001   2.73488
   D15        0.51830  -0.00001   0.00000  -0.00004  -0.00004   0.51827
   D16        0.48209   0.00000   0.00000   0.00007   0.00007   0.48216
   D17       -1.47452   0.00000   0.00000   0.00014   0.00014  -1.47438
   D18        2.59209   0.00000   0.00000   0.00009   0.00009   2.59219
   D19        2.59942   0.00000   0.00000   0.00006   0.00006   2.59948
   D20        0.64281   0.00000   0.00000   0.00013   0.00013   0.64294
   D21       -1.57376   0.00000   0.00000   0.00008   0.00008  -1.57368
   D22        0.70423   0.00000   0.00000  -0.00028  -0.00028   0.70395
   D23       -1.39000   0.00000   0.00000  -0.00026  -0.00026  -1.39025
   D24        2.79587   0.00000   0.00000  -0.00023  -0.00023   2.79564
   D25        1.64720   0.00000   0.00000   0.00032   0.00032   1.64752
   D26       -0.37827   0.00000   0.00000   0.00032   0.00032  -0.37795
   D27       -2.49898   0.00000   0.00000   0.00032   0.00032  -2.49866
   D28       -1.91544   0.00000   0.00000   0.00029   0.00029  -1.91515
   D29        0.21060   0.00000   0.00000   0.00036   0.00036   0.21095
   D30        2.26726   0.00000   0.00000   0.00035   0.00035   2.26761
   D31        0.10907   0.00000   0.00000   0.00029   0.00029   0.10937
   D32        2.23512   0.00000   0.00000   0.00036   0.00036   2.23548
   D33       -1.99141   0.00000   0.00000   0.00036   0.00036  -1.99105
   D34        2.28326   0.00000   0.00000   0.00032   0.00032   2.28358
   D35       -1.87388   0.00000   0.00000   0.00038   0.00038  -1.87350
   D36        0.18278   0.00000   0.00000   0.00038   0.00038   0.18317
   D37       -0.09107  -0.00001   0.00000  -0.00025  -0.00025  -0.09132
   D38        2.00448   0.00000   0.00000  -0.00028  -0.00028   2.00421
   D39       -2.13874  -0.00001   0.00000  -0.00033  -0.00033  -2.13907
   D40       -2.19147   0.00000   0.00000  -0.00024  -0.00024  -2.19171
   D41       -0.09592   0.00000   0.00000  -0.00027  -0.00027  -0.09618
   D42        2.04404   0.00000   0.00000  -0.00032  -0.00032   2.04373
   D43        1.94260   0.00000   0.00000  -0.00027  -0.00027   1.94233
   D44       -2.24503   0.00000   0.00000  -0.00030  -0.00030  -2.24533
   D45       -0.10507   0.00000   0.00000  -0.00035  -0.00035  -0.10542
   D46       -0.08624   0.00000   0.00000  -0.00022  -0.00022  -0.08646
   D47        3.07691   0.00000   0.00000  -0.00016  -0.00016   3.07675
   D48       -2.17315   0.00000   0.00000  -0.00025  -0.00025  -2.17340
   D49        0.99000   0.00000   0.00000  -0.00019  -0.00019   0.98981
   D50        2.01594   0.00000   0.00000  -0.00029  -0.00029   2.01565
   D51       -1.10410   0.00000   0.00000  -0.00023  -0.00023  -1.10432
   D52        0.02521   0.00000   0.00000   0.00005   0.00005   0.02526
   D53       -3.12663   0.00000   0.00000   0.00005   0.00005  -3.12658
   D54       -3.13858   0.00000   0.00000  -0.00001  -0.00001  -3.13860
   D55       -0.00724   0.00000   0.00000  -0.00001  -0.00001  -0.00725
   D56        1.99655   0.00000   0.00000   0.00010   0.00010   1.99665
   D57        0.04683   0.00000   0.00000   0.00014   0.00014   0.04697
   D58       -2.10621   0.00000   0.00000   0.00019   0.00019  -2.10602
   D59       -1.13517   0.00000   0.00000   0.00009   0.00009  -1.13508
   D60       -3.08490   0.00000   0.00000   0.00014   0.00014  -3.08476
   D61        1.04525   0.00000   0.00000   0.00019   0.00019   1.04544
         Item               Value     Threshold  Converged?
 Maximum Force            0.000028     0.000450     YES
 RMS     Force            0.000005     0.000300     YES
 Maximum Displacement     0.000836     0.001800     YES
 RMS     Displacement     0.000186     0.001200     YES
 Predicted change in Energy=-1.870419D-08
 Optimization completed.
    -- Stationary point found.
                           ----------------------------
                           !   Optimized Parameters   !
                           ! (Angstroms and Degrees)  !
 --------------------------                            --------------------------
 ! Name  Definition              Value          Derivative Info.                !
 --------------------------------------------------------------------------------
 ! R1    R(1,2)                  1.4185         -DE/DX =    0.0                 !
 ! R2    R(1,10)                 0.9648         -DE/DX =    0.0                 !
 ! R3    R(2,3)                  1.5285         -DE/DX =    0.0                 !
 ! R4    R(2,9)                  1.5506         -DE/DX =    0.0                 !
 ! R5    R(2,11)                 1.0929         -DE/DX =    0.0                 !
 ! R6    R(3,4)                  1.4277         -DE/DX =    0.0                 !
 ! R7    R(3,12)                 1.0997         -DE/DX =    0.0                 !
 ! R8    R(3,13)                 1.0926         -DE/DX =    0.0                 !
 ! R9    R(4,5)                  1.4349         -DE/DX =    0.0                 !
 ! R10   R(5,6)                  1.5525         -DE/DX =    0.0                 !
 ! R11   R(5,9)                  1.5647         -DE/DX =    0.0                 !
 ! R12   R(5,14)                 1.0926         -DE/DX =    0.0                 !
 ! R13   R(6,7)                  1.507          -DE/DX =    0.0                 !
 ! R14   R(6,15)                 1.0964         -DE/DX =    0.0                 !
 ! R15   R(6,16)                 1.0977         -DE/DX =    0.0                 !
 ! R16   R(7,8)                  1.3324         -DE/DX =    0.0                 !
 ! R17   R(7,17)                 1.0849         -DE/DX =    0.0                 !
 ! R18   R(8,9)                  1.5071         -DE/DX =    0.0                 !
 ! R19   R(8,18)                 1.0849         -DE/DX =    0.0                 !
 ! R20   R(9,19)                 1.0944         -DE/DX =    0.0                 !
 ! A1    A(2,1,10)             106.7383         -DE/DX =    0.0                 !
 ! A2    A(1,2,3)              111.4923         -DE/DX =    0.0                 !
 ! A3    A(1,2,9)              111.946          -DE/DX =    0.0                 !
 ! A4    A(1,2,11)             106.4223         -DE/DX =    0.0                 !
 ! A5    A(3,2,9)              101.1543         -DE/DX =    0.0                 !
 ! A6    A(3,2,11)             113.3502         -DE/DX =    0.0                 !
 ! A7    A(9,2,11)             112.6096         -DE/DX =    0.0                 !
 ! A8    A(2,3,4)              103.5691         -DE/DX =    0.0                 !
 ! A9    A(2,3,12)             111.4569         -DE/DX =    0.0                 !
 ! A10   A(2,3,13)             112.7345         -DE/DX =    0.0                 !
 ! A11   A(4,3,12)             111.5438         -DE/DX =    0.0                 !
 ! A12   A(4,3,13)             108.1664         -DE/DX =    0.0                 !
 ! A13   A(12,3,13)            109.2467         -DE/DX =    0.0                 !
 ! A14   A(3,4,5)              107.9917         -DE/DX =    0.0                 !
 ! A15   A(4,5,6)              112.7828         -DE/DX =    0.0                 !
 ! A16   A(4,5,9)              106.2108         -DE/DX =    0.0                 !
 ! A17   A(4,5,14)             106.2322         -DE/DX =    0.0                 !
 ! A18   A(6,5,9)              106.3019         -DE/DX =    0.0                 !
 ! A19   A(6,5,14)             111.5076         -DE/DX =    0.0                 !
 ! A20   A(9,5,14)             113.8155         -DE/DX =    0.0                 !
 ! A21   A(5,6,7)              104.22           -DE/DX =    0.0                 !
 ! A22   A(5,6,15)             109.9928         -DE/DX =    0.0                 !
 ! A23   A(5,6,16)             111.5651         -DE/DX =    0.0                 !
 ! A24   A(7,6,15)             113.3419         -DE/DX =    0.0                 !
 ! A25   A(7,6,16)             111.4203         -DE/DX =    0.0                 !
 ! A26   A(15,6,16)            106.4063         -DE/DX =    0.0                 !
 ! A27   A(6,7,8)              112.491          -DE/DX =    0.0                 !
 ! A28   A(6,7,17)             122.4937         -DE/DX =    0.0                 !
 ! A29   A(8,7,17)             125.0026         -DE/DX =    0.0                 !
 ! A30   A(7,8,9)              112.8504         -DE/DX =    0.0                 !
 ! A31   A(7,8,18)             125.1914         -DE/DX =    0.0                 !
 ! A32   A(9,8,18)             121.9555         -DE/DX =    0.0                 !
 ! A33   A(2,9,5)              103.0748         -DE/DX =    0.0                 !
 ! A34   A(2,9,8)              114.8546         -DE/DX =    0.0                 !
 ! A35   A(2,9,19)             108.5669         -DE/DX =    0.0                 !
 ! A36   A(5,9,8)              103.7399         -DE/DX =    0.0                 !
 ! A37   A(5,9,19)             113.7086         -DE/DX =    0.0                 !
 ! A38   A(8,9,19)             112.5706         -DE/DX =    0.0                 !
 ! D1    D(10,1,2,3)           -43.9175         -DE/DX =    0.0                 !
 ! D2    D(10,1,2,9)            68.5901         -DE/DX =    0.0                 !
 ! D3    D(10,1,2,11)         -167.983          -DE/DX =    0.0                 !
 ! D4    D(1,2,3,4)             77.6037         -DE/DX =    0.0                 !
 ! D5    D(1,2,3,12)          -162.3467         -DE/DX =    0.0                 !
 ! D6    D(1,2,3,13)           -39.0681         -DE/DX =    0.0                 !
 ! D7    D(9,2,3,4)            -41.542          -DE/DX =    0.0                 !
 ! D8    D(9,2,3,12)            78.5076         -DE/DX =    0.0                 !
 ! D9    D(9,2,3,13)          -158.2138         -DE/DX =    0.0                 !
 ! D10   D(11,2,3,4)          -162.3345         -DE/DX =    0.0                 !
 ! D11   D(11,2,3,12)          -42.285          -DE/DX =    0.0                 !
 ! D12   D(11,2,3,13)           80.9937         -DE/DX =    0.0                 !
 ! D13   D(1,2,9,5)            -91.198          -DE/DX =    0.0                 !
 ! D14   D(1,2,9,8)            156.6969         -DE/DX =    0.0                 !
 ! D15   D(1,2,9,19)            29.6966         -DE/DX =    0.0                 !
 ! D16   D(3,2,9,5)             27.6214         -DE/DX =    0.0                 !
 ! D17   D(3,2,9,8)            -84.4837         -DE/DX =    0.0                 !
 ! D18   D(3,2,9,19)           148.516          -DE/DX =    0.0                 !
 ! D19   D(11,2,9,5)           148.9355         -DE/DX =    0.0                 !
 ! D20   D(11,2,9,8)            36.8304         -DE/DX =    0.0                 !
 ! D21   D(11,2,9,19)          -90.1699         -DE/DX =    0.0                 !
 ! D22   D(2,3,4,5)             40.3494         -DE/DX =    0.0                 !
 ! D23   D(12,3,4,5)           -79.6409         -DE/DX =    0.0                 !
 ! D24   D(13,3,4,5)           160.1914         -DE/DX =    0.0                 !
 ! D25   D(3,4,5,6)             94.3777         -DE/DX =    0.0                 !
 ! D26   D(3,4,5,9)            -21.6731         -DE/DX =    0.0                 !
 ! D27   D(3,4,5,14)          -143.1808         -DE/DX =    0.0                 !
 ! D28   D(4,5,6,7)           -109.7469         -DE/DX =    0.0                 !
 ! D29   D(4,5,6,15)            12.0663         -DE/DX =    0.0                 !
 ! D30   D(4,5,6,16)           129.9044         -DE/DX =    0.0                 !
 ! D31   D(9,5,6,7)              6.2495         -DE/DX =    0.0                 !
 ! D32   D(9,5,6,15)           128.0627         -DE/DX =    0.0                 !
 ! D33   D(9,5,6,16)          -114.0992         -DE/DX =    0.0                 !
 ! D34   D(14,5,6,7)           130.8214         -DE/DX =    0.0                 !
 ! D35   D(14,5,6,15)         -107.3654         -DE/DX =    0.0                 !
 ! D36   D(14,5,6,16)           10.4727         -DE/DX =    0.0                 !
 ! D37   D(4,5,9,2)             -5.2179         -DE/DX =    0.0                 !
 ! D38   D(4,5,9,8)            114.8484         -DE/DX =    0.0                 !
 ! D39   D(4,5,9,19)          -122.541          -DE/DX =    0.0                 !
 ! D40   D(6,5,9,2)           -125.5619         -DE/DX =    0.0                 !
 ! D41   D(6,5,9,8)             -5.4956         -DE/DX =    0.0                 !
 ! D42   D(6,5,9,19)           117.115          -DE/DX =    0.0                 !
 ! D43   D(14,5,9,2)           111.3028         -DE/DX =    0.0                 !
 ! D44   D(14,5,9,8)          -128.6309         -DE/DX =    0.0                 !
 ! D45   D(14,5,9,19)           -6.0203         -DE/DX =    0.0                 !
 ! D46   D(5,6,7,8)             -4.9412         -DE/DX =    0.0                 !
 ! D47   D(5,6,7,17)           176.2941         -DE/DX =    0.0                 !
 ! D48   D(15,6,7,8)          -124.5124         -DE/DX =    0.0                 !
 ! D49   D(15,6,7,17)           56.7229         -DE/DX =    0.0                 !
 ! D50   D(16,6,7,8)           115.5047         -DE/DX =    0.0                 !
 ! D51   D(16,6,7,17)          -63.26           -DE/DX =    0.0                 !
 ! D52   D(6,7,8,9)              1.4444         -DE/DX =    0.0                 !
 ! D53   D(6,7,8,18)          -179.1427         -DE/DX =    0.0                 !
 ! D54   D(17,7,8,9)          -179.8275         -DE/DX =    0.0                 !
 ! D55   D(17,7,8,18)           -0.4147         -DE/DX =    0.0                 !
 ! D56   D(7,8,9,2)            114.3938         -DE/DX =    0.0                 !
 ! D57   D(7,8,9,5)              2.6829         -DE/DX =    0.0                 !
 ! D58   D(7,8,9,19)          -120.677          -DE/DX =    0.0                 !
 ! D59   D(18,8,9,2)           -65.0406         -DE/DX =    0.0                 !
 ! D60   D(18,8,9,5)          -176.7515         -DE/DX =    0.0                 !
 ! D61   D(18,8,9,19)           59.8885         -DE/DX =    0.0                 !
 --------------------------------------------------------------------------------
 GradGradGradGradGradGradGradGradGradGradGradGradGradGradGradGradGradGrad

                          Input orientation:                          
 ---------------------------------------------------------------------
 Center     Atomic      Atomic             Coordinates (Angstroms)
 Number     Number       Type             X           Y           Z
 ---------------------------------------------------------------------
      1          8           0        0.407584    0.636982    0.195471
      2          6           0       -0.773441   -0.024725    0.619148
      3          6           0       -1.087095    0.273244    2.085148
      4          8           0       -1.649923    1.584818    2.047402
      5          6           0       -2.509568    1.665392    0.901397
      6          6           0       -3.992538    1.353995    1.239193
      7          6           0       -4.248184    0.019227    0.587856
      8          6           0       -3.209338   -0.404501   -0.130880
      9          6           0       -2.037046    0.541247   -0.078997
     10          1           0        0.362087    1.536037    0.542512
     11          1           0       -0.621782   -1.087815    0.416035
     12          1           0       -1.794885   -0.458100    2.501800
     13          1           0       -0.191767    0.304636    2.710570
     14          1           0       -2.393226    2.675962    0.502800
     15          1           0       -4.134674    1.341236    2.326217
     16          1           0       -4.666465    2.126883    0.847435
     17          1           0       -5.190577   -0.508407    0.690484
     18          1           0       -3.175679   -1.330252   -0.695524
     19          1           0       -1.752034    0.911607   -1.068549
 ---------------------------------------------------------------------
                    Distance matrix (angstroms):
                    1          2          3          4          5
     1  O    0.000000
     2  C    1.418513   0.000000
     3  C    2.436648   1.528503   0.000000
     4  O    2.925983   2.323523   1.427735   0.000000
     5  C    3.172654   2.439323   2.315766   1.434855   0.000000
     6  C    4.578705   3.556390   3.213295   2.488840   1.552506
     7  C    4.712936   3.475162   3.506978   3.366349   2.414736
     8  C    3.778004   2.576891   3.142298   3.336776   2.416553
     9  C    2.461851   1.550621   2.378604   2.400099   1.564657
    10  H    0.964784   1.931652   2.464651   2.513018   2.896884
    11  H    2.020685   1.092893   2.203391   3.295663   3.373345
    12  H    3.371828   2.185300   1.099740   2.097857   2.753412
    13  H    2.606799   2.195648   1.092588   2.050580   3.239902
    14  H    3.477992   3.151341   3.159566   2.031967   1.092551
    15  H    5.066376   4.009716   3.238281   2.512182   2.185443
    16  H    5.328304   4.453893   4.216610   3.291394   2.206374
    17  H    5.735535   4.444112   4.403934   4.331172   3.457990
    18  H    4.183737   3.033729   3.829559   4.283598   3.459443
    19  H    2.517362   2.163951   3.285644   3.189481   2.241146
                    6          7          8          9         10
     6  C    0.000000
     7  C    1.507050   0.000000
     8  C    2.362798   1.332415   0.000000
     9  C    2.494421   2.367769   1.507117   0.000000
    10  H    4.413759   4.853594   4.119979   2.670528   0.000000
    11  H    4.242878   3.795505   2.731571   2.214016   2.805102
    12  H    3.115693   3.147968   2.989073   2.778101   3.530994
    13  H    4.208558   4.587144   4.205050   3.353017   2.554130
    14  H    2.201743   3.241349   3.249130   2.241062   2.982072
    15  H    1.096351   2.186890   3.152963   3.290149   4.841530
    16  H    1.097728   2.164382   3.080296   3.207236   5.072318
    17  H    2.281430   1.084913   2.147265   3.411545   5.918930
    18  H    3.408163   2.149053   1.084883   2.275764   4.718489
    19  H    3.246727   3.125825   2.176028   1.094354   2.730373
                   11         12         13         14         15
    11  H    0.000000
    12  H    2.474494   0.000000
    13  H    2.718220   1.787550   0.000000
    14  H    4.160716   3.765150   3.917124   0.000000
    15  H    4.678620   2.956865   4.094970   2.852891   0.000000
    16  H    5.184577   4.202978   5.178298   2.363869   1.756940
    17  H    4.613559   3.848912   5.452512   4.242712   2.685467
    18  H    2.795841   3.590282   4.814360   4.254171   4.145774
    19  H    2.734803   3.824307   4.133350   2.448104   4.169651
                   16         17         18         19
    16  H    0.000000
    17  H    2.691483   0.000000
    18  H    4.068777   2.579974   0.000000
    19  H    3.693480   4.115121   2.681762   0.000000
 Stoichiometry    C7H10O2
 Framework group  C1[X(C7H10O2)]
 Deg. of freedom    51
 Full point group                 C1      NOp   1
 Largest Abelian subgroup         C1      NOp   1
 Largest concise Abelian subgroup C1      NOp   1
                         Standard orientation:                         
 ---------------------------------------------------------------------
 Center     Atomic      Atomic             Coordinates (Angstroms)
 Number     Number       Type             X           Y           Z
 ---------------------------------------------------------------------
      1          8           0       -2.456832    0.543187   -0.481713
      2          6           0       -1.292587    0.635724    0.323365
      3          6           0       -1.017175   -0.673647    1.062294
      4          8           0       -0.444258   -1.511037    0.057817
      5          6           0        0.447055   -0.710134   -0.731438
      6          6           0        1.917958   -0.786332   -0.240610
      7          6           0        2.181931    0.574567    0.350551
      8          6           0        1.160225    1.412198    0.177863
      9          6           0       -0.006330    0.773993   -0.531535
     10          1           0       -2.414515   -0.307594   -0.934692
     11          1           0       -1.446132    1.486443    0.992031
     12          1           0       -0.326275   -0.522653    1.904485
     13          1           0       -1.929081   -1.153085    1.426046
     14          1           0        0.348846   -1.066770   -1.759462
     15          1           0        2.030122   -1.603077    0.482117
     16          1           0        2.607831   -1.005628   -1.065832
     17          1           0        3.117397    0.826375    0.838949
     18          1           0        1.135523    2.444935    0.509247
     19          1           0       -0.261456    1.285642   -1.464667
 ---------------------------------------------------------------------
 Rotational constants (GHZ):      3.0952778      1.5214881      1.2532492
 1\1\GINC-ALCHEMY-S\FOpt\RB3LYP\6-31G(2df,p)\C7H10O2\PUCK\28-Jan-2020\0
 \\# b3lyp 6-31G(2df,p) opt Freq\\titel\\0,1\O,0.4075838964,0.636982366
 6,0.1954705178\C,-0.7734413359,-0.0247252272,0.6191479078\C,-1.0870949
 53,0.2732436168,2.085148248\O,-1.6499233511,1.5848179674,2.0474016445\
 C,-2.5095681767,1.6653916232,0.9013969215\C,-3.992538244,1.3539948051,
 1.239193391\C,-4.2481843659,0.0192274095,0.5878561074\C,-3.2093380469,
 -0.404501131,-0.1308803092\C,-2.0370455945,0.5412469355,-0.0789969994\
 H,0.3620870328,1.5360374538,0.5425117648\H,-0.6217824357,-1.0878146762
 ,0.4160354238\H,-1.7948846974,-0.4580996734,2.5017996355\H,-0.19176720
 81,0.3046355679,2.710569853\H,-2.3932260163,2.6759620127,0.5027999381\
 H,-4.1346743124,1.3412356806,2.3262172323\H,-4.6664646108,2.1268825235
 ,0.8474351858\H,-5.1905774437,-0.5084074408,0.6904842428\H,-3.17567912
 1,-1.330252472,-0.6955243095\H,-1.7520341258,0.9116071578,-1.068548735
 9\\Version=ES64L-G09RevD.01\State=1-A\HF=-423.2033365\RMSD=5.893e-09\R
 MSF=1.247e-05\Dipole=-0.5648749,-0.1034227,-0.0384285\Quadrupole=-1.18
 98665,2.126116,-0.9362495,0.8157377,1.4017659,-1.4287086\PG=C01 [X(C7H
 10O2)]\\@


 THERE IS MORE TO LIFE THAN INCREASING ITS SPEED.

                                       -- GANDHI
 Job cpu time:       0 days  0 hours  6 minutes 48.7 seconds.
 File lengths (MBytes):  RWF=     52 Int=      0 D2E=      0 Chk=      7 Scr=      1
 Normal termination of Gaussian 09 at Tue Jan 28 08:10:18 2020.
 Link1:  Proceeding to internal job step number  2.
 ----------------------------------------------------------------------
 #N Geom=AllCheck Guess=TCheck SCRF=Check GenChk RB3LYP/6-31G(2df,p) Fr
 eq
 ----------------------------------------------------------------------
 1/10=4,29=7,30=1,38=1,40=1/1,3;
 2/12=2,40=1/2;
 3/5=1,6=6,7=104,11=2,14=-4,16=1,25=1,30=1,70=2,71=2,74=-5,116=1,140=1/1,2,3;
 4/5=101/1;
 5/5=2,98=1/2;
 8/6=4,10=90,11=11/1;
 11/6=1,8=1,9=11,15=111,16=1/1,2,10;
 10/6=1/2;
 6/7=2,8=2,9=2,10=2,18=1,28=1/1;
 7/8=1,10=1,25=1/1,2,3,16;
 1/10=4,30=1/3;
 99//99;
 Structure from the checkpoint file:  "/scratch/puck/g09_fb749d9d-2c06-4599-b4f6-2fa9e244dfa5/Gau-127697.chk"
 -----
 titel
 -----
 Charge =  0 Multiplicity = 1
 Redundant internal coordinates found in file.
 O,0,0.4075838964,0.6369823666,0.1954705178
 C,0,-0.7734413359,-0.0247252272,0.6191479078
 C,0,-1.087094953,0.2732436168,2.085148248
 O,0,-1.6499233511,1.5848179674,2.0474016445
 C,0,-2.5095681767,1.6653916232,0.9013969215
 C,0,-3.992538244,1.3539948051,1.239193391
 C,0,-4.2481843659,0.0192274095,0.5878561074
 C,0,-3.2093380469,-0.404501131,-0.1308803092
 C,0,-2.0370455945,0.5412469355,-0.0789969994
 H,0,0.3620870328,1.5360374538,0.5425117648
 H,0,-0.6217824357,-1.0878146762,0.4160354238
 H,0,-1.7948846974,-0.4580996734,2.5017996355
 H,0,-0.1917672081,0.3046355679,2.710569853
 H,0,-2.3932260163,2.6759620127,0.5027999381
 H,0,-4.1346743124,1.3412356806,2.3262172323
 H,0,-4.6664646108,2.1268825235,0.8474351858
 H,0,-5.1905774437,-0.5084074408,0.6904842428
 H,0,-3.175679121,-1.330252472,-0.6955243095
 H,0,-1.7520341258,0.9116071578,-1.0685487359
 Recover connectivity data from disk.

 GradGradGradGradGradGradGradGradGradGradGradGradGradGradGradGradGradGrad
 Berny optimization.
 Initialization pass.
                           ----------------------------
                           !    Initial Parameters    !
                           ! (Angstroms and Degrees)  !
 --------------------------                            --------------------------
 ! Name  Definition              Value          Derivative Info.                !
 --------------------------------------------------------------------------------
 ! R1    R(1,2)                  1.4185         calculate D2E/DX2 analytically  !
 ! R2    R(1,10)                 0.9648         calculate D2E/DX2 analytically  !
 ! R3    R(2,3)                  1.5285         calculate D2E/DX2 analytically  !
 ! R4    R(2,9)                  1.5506         calculate D2E/DX2 analytically  !
 ! R5    R(2,11)                 1.0929         calculate D2E/DX2 analytically  !
 ! R6    R(3,4)                  1.4277         calculate D2E/DX2 analytically  !
 ! R7    R(3,12)                 1.0997         calculate D2E/DX2 analytically  !
 ! R8    R(3,13)                 1.0926         calculate D2E/DX2 analytically  !
 ! R9    R(4,5)                  1.4349         calculate D2E/DX2 analytically  !
 ! R10   R(5,6)                  1.5525         calculate D2E/DX2 analytically  !
 ! R11   R(5,9)                  1.5647         calculate D2E/DX2 analytically  !
 ! R12   R(5,14)                 1.0926         calculate D2E/DX2 analytically  !
 ! R13   R(6,7)                  1.507          calculate D2E/DX2 analytically  !
 ! R14   R(6,15)                 1.0964         calculate D2E/DX2 analytically  !
 ! R15   R(6,16)                 1.0977         calculate D2E/DX2 analytically  !
 ! R16   R(7,8)                  1.3324         calculate D2E/DX2 analytically  !
 ! R17   R(7,17)                 1.0849         calculate D2E/DX2 analytically  !
 ! R18   R(8,9)                  1.5071         calculate D2E/DX2 analytically  !
 ! R19   R(8,18)                 1.0849         calculate D2E/DX2 analytically  !
 ! R20   R(9,19)                 1.0944         calculate D2E/DX2 analytically  !
 ! A1    A(2,1,10)             106.7383         calculate D2E/DX2 analytically  !
 ! A2    A(1,2,3)              111.4923         calculate D2E/DX2 analytically  !
 ! A3    A(1,2,9)              111.946          calculate D2E/DX2 analytically  !
 ! A4    A(1,2,11)             106.4223         calculate D2E/DX2 analytically  !
 ! A5    A(3,2,9)              101.1543         calculate D2E/DX2 analytically  !
 ! A6    A(3,2,11)             113.3502         calculate D2E/DX2 analytically  !
 ! A7    A(9,2,11)             112.6096         calculate D2E/DX2 analytically  !
 ! A8    A(2,3,4)              103.5691         calculate D2E/DX2 analytically  !
 ! A9    A(2,3,12)             111.4569         calculate D2E/DX2 analytically  !
 ! A10   A(2,3,13)             112.7345         calculate D2E/DX2 analytically  !
 ! A11   A(4,3,12)             111.5438         calculate D2E/DX2 analytically  !
 ! A12   A(4,3,13)             108.1664         calculate D2E/DX2 analytically  !
 ! A13   A(12,3,13)            109.2467         calculate D2E/DX2 analytically  !
 ! A14   A(3,4,5)              107.9917         calculate D2E/DX2 analytically  !
 ! A15   A(4,5,6)              112.7828         calculate D2E/DX2 analytically  !
 ! A16   A(4,5,9)              106.2108         calculate D2E/DX2 analytically  !
 ! A17   A(4,5,14)             106.2322         calculate D2E/DX2 analytically  !
 ! A18   A(6,5,9)              106.3019         calculate D2E/DX2 analytically  !
 ! A19   A(6,5,14)             111.5076         calculate D2E/DX2 analytically  !
 ! A20   A(9,5,14)             113.8155         calculate D2E/DX2 analytically  !
 ! A21   A(5,6,7)              104.22           calculate D2E/DX2 analytically  !
 ! A22   A(5,6,15)             109.9928         calculate D2E/DX2 analytically  !
 ! A23   A(5,6,16)             111.5651         calculate D2E/DX2 analytically  !
 ! A24   A(7,6,15)             113.3419         calculate D2E/DX2 analytically  !
 ! A25   A(7,6,16)             111.4203         calculate D2E/DX2 analytically  !
 ! A26   A(15,6,16)            106.4063         calculate D2E/DX2 analytically  !
 ! A27   A(6,7,8)              112.491          calculate D2E/DX2 analytically  !
 ! A28   A(6,7,17)             122.4937         calculate D2E/DX2 analytically  !
 ! A29   A(8,7,17)             125.0026         calculate D2E/DX2 analytically  !
 ! A30   A(7,8,9)              112.8504         calculate D2E/DX2 analytically  !
 ! A31   A(7,8,18)             125.1914         calculate D2E/DX2 analytically  !
 ! A32   A(9,8,18)             121.9555         calculate D2E/DX2 analytically  !
 ! A33   A(2,9,5)              103.0748         calculate D2E/DX2 analytically  !
 ! A34   A(2,9,8)              114.8546         calculate D2E/DX2 analytically  !
 ! A35   A(2,9,19)             108.5669         calculate D2E/DX2 analytically  !
 ! A36   A(5,9,8)              103.7399         calculate D2E/DX2 analytically  !
 ! A37   A(5,9,19)             113.7086         calculate D2E/DX2 analytically  !
 ! A38   A(8,9,19)             112.5706         calculate D2E/DX2 analytically  !
 ! D1    D(10,1,2,3)           -43.9175         calculate D2E/DX2 analytically  !
 ! D2    D(10,1,2,9)            68.5901         calculate D2E/DX2 analytically  !
 ! D3    D(10,1,2,11)         -167.983          calculate D2E/DX2 analytically  !
 ! D4    D(1,2,3,4)             77.6037         calculate D2E/DX2 analytically  !
 ! D5    D(1,2,3,12)          -162.3467         calculate D2E/DX2 analytically  !
 ! D6    D(1,2,3,13)           -39.0681         calculate D2E/DX2 analytically  !
 ! D7    D(9,2,3,4)            -41.542          calculate D2E/DX2 analytically  !
 ! D8    D(9,2,3,12)            78.5076         calculate D2E/DX2 analytically  !
 ! D9    D(9,2,3,13)          -158.2138         calculate D2E/DX2 analytically  !
 ! D10   D(11,2,3,4)          -162.3345         calculate D2E/DX2 analytically  !
 ! D11   D(11,2,3,12)          -42.285          calculate D2E/DX2 analytically  !
 ! D12   D(11,2,3,13)           80.9937         calculate D2E/DX2 analytically  !
 ! D13   D(1,2,9,5)            -91.198          calculate D2E/DX2 analytically  !
 ! D14   D(1,2,9,8)            156.6969         calculate D2E/DX2 analytically  !
 ! D15   D(1,2,9,19)            29.6966         calculate D2E/DX2 analytically  !
 ! D16   D(3,2,9,5)             27.6214         calculate D2E/DX2 analytically  !
 ! D17   D(3,2,9,8)            -84.4837         calculate D2E/DX2 analytically  !
 ! D18   D(3,2,9,19)           148.516          calculate D2E/DX2 analytically  !
 ! D19   D(11,2,9,5)           148.9355         calculate D2E/DX2 analytically  !
 ! D20   D(11,2,9,8)            36.8304         calculate D2E/DX2 analytically  !
 ! D21   D(11,2,9,19)          -90.1699         calculate D2E/DX2 analytically  !
 ! D22   D(2,3,4,5)             40.3494         calculate D2E/DX2 analytically  !
 ! D23   D(12,3,4,5)           -79.6409         calculate D2E/DX2 analytically  !
 ! D24   D(13,3,4,5)           160.1914         calculate D2E/DX2 analytically  !
 ! D25   D(3,4,5,6)             94.3777         calculate D2E/DX2 analytically  !
 ! D26   D(3,4,5,9)            -21.6731         calculate D2E/DX2 analytically  !
 ! D27   D(3,4,5,14)          -143.1808         calculate D2E/DX2 analytically  !
 ! D28   D(4,5,6,7)           -109.7469         calculate D2E/DX2 analytically  !
 ! D29   D(4,5,6,15)            12.0663         calculate D2E/DX2 analytically  !
 ! D30   D(4,5,6,16)           129.9044         calculate D2E/DX2 analytically  !
 ! D31   D(9,5,6,7)              6.2495         calculate D2E/DX2 analytically  !
 ! D32   D(9,5,6,15)           128.0627         calculate D2E/DX2 analytically  !
 ! D33   D(9,5,6,16)          -114.0992         calculate D2E/DX2 analytically  !
 ! D34   D(14,5,6,7)           130.8214         calculate D2E/DX2 analytically  !
 ! D35   D(14,5,6,15)         -107.3654         calculate D2E/DX2 analytically  !
 ! D36   D(14,5,6,16)           10.4727         calculate D2E/DX2 analytically  !
 ! D37   D(4,5,9,2)             -5.2179         calculate D2E/DX2 analytically  !
 ! D38   D(4,5,9,8)            114.8484         calculate D2E/DX2 analytically  !
 ! D39   D(4,5,9,19)          -122.541          calculate D2E/DX2 analytically  !
 ! D40   D(6,5,9,2)           -125.5619         calculate D2E/DX2 analytically  !
 ! D41   D(6,5,9,8)             -5.4956         calculate D2E/DX2 analytically  !
[...]
 0.00404363,-0.00077207,0.01330540,-0.03992540,-0.01668739,0.02603284,-
 0.17963254,-0.02470868,-0.09633244,0.34231478,0.00111259,-0.00146372,0
 .00329370,0.00459436,-0.02975880,-0.01311136,-0.01853742,0.00454681,-0
 .07364968,0.11236999,0.02546450,0.27706370,0.00018797,-0.00211714,-0.0
 0258657,-0.01008203,0.02478623,0.01167271,-0.02407541,0.01828220,-0.01
 515766,-0.09803494,0.01248992,-0.04601892,0.43507721,-0.00193354,-0.00
 010246,-0.00038242,0.01898344,-0.01997573,-0.00038123,0.02870952,-0.01
 198802,0.02994675,-0.00555757,-0.08788630,-0.01644152,0.01469464,0.624
 18911,-0.00266317,-0.00187094,-0.00335198,0.01166922,-0.00107541,0.013
 00564,-0.01878319,0.02459952,-0.01247177,-0.05845577,0.00960644,-0.135
 89133,0.00338372,-0.07398538,0.40504746,-0.00034160,-0.00018680,0.0001
 7565,-0.00151208,-0.00046986,0.00004366,-0.00112841,-0.00199545,0.0002
 6434,-0.02761562,-0.00076959,-0.00863547,-0.13744537,-0.01565159,0.022
 99917,0.46001725,0.00005034,0.00016604,0.00013816,0.00026469,-0.001621
 81,-0.00154883,0.00051750,0.00072101,-0.00005591,0.00381457,0.00610290
 ,-0.00306658,-0.01533941,-0.08124133,0.01091393,-0.07223590,0.48830398
 ,-0.00032610,0.00023697,0.00047421,-0.00059229,-0.00176905,-0.00195805
 ,-0.00141036,-0.00391101,0.00045220,-0.03342096,-0.00280071,-0.0000934
 3,0.02594541,0.00980074,-0.08115846,-0.00276264,-0.00508371,0.56657167
 ,-0.00204006,0.00013619,-0.00054414,0.00197311,-0.00342969,0.00213301,
 -0.00072498,-0.00088272,0.00036037,-0.00287988,0.00146818,-0.00149689,
 -0.01609618,-0.02927423,-0.00587015,-0.08395327,-0.01552546,-0.0036840
 8,0.76674181,-0.00235804,0.00005271,-0.00092130,0.00028625,-0.00338128
 ,0.00062703,-0.00096121,0.00218488,0.00023753,0.00341994,-0.00177089,0
 .00039965,-0.02217679,-0.01338872,0.00130879,-0.02391307,-0.17015641,-
 0.04632561,0.05993630,0.46114581,-0.00031241,-0.00020107,0.00012535,-0
 .00229698,0.00027723,-0.00121080,-0.00010938,0.00198986,-0.00067819,0.
 00156164,-0.00102414,0.00166604,-0.00474873,0.00260339,0.00106267,-0.0
 0845175,-0.05036471,-0.09618889,-0.24001859,0.15963211,0.34288945,-0.0
 0437108,0.00046487,-0.00228626,-0.02653451,-0.01547359,-0.00217303,0.0
 0126730,0.00177119,-0.00214881,-0.00003477,-0.00027400,0.00369770,0.00
 636983,-0.00396651,-0.00793301,0.00280777,0.00914113,0.00859972,-0.363
 43990,0.10307658,0.19900471,0.60406429,0.00834387,0.00127785,0.0016301
 0,-0.00028304,0.01332868,-0.00366650,0.00142689,-0.00244051,0.00081421
 ,-0.00149965,0.00007091,-0.00171493,-0.01062228,-0.02984552,-0.0123234
 8,0.01876992,-0.02305825,-0.02583384,0.09930790,-0.13407912,-0.0939853
 0,-0.03864977,0.56202044,-0.00185235,-0.00051029,0.00092105,-0.0040398
 1,-0.00918859,0.00132553,-0.00051470,-0.00103916,-0.00121972,-0.000027
 66,0.00002899,-0.00334706,-0.01075094,-0.01554658,-0.00333021,0.012820
 39,-0.02180824,-0.01008932,0.19737315,-0.09563340,-0.19692085,-0.22406
 114,0.26771738,0.40385484,-0.04324214,-0.00197503,-0.00909633,-0.09634
 145,0.01986959,-0.01998776,0.00377612,-0.00178921,-0.01586640,0.002549
 73,-0.00474537,-0.01254920,-0.07890176,0.01114067,0.01230919,-0.015618
 85,0.01318771,0.01490666,-0.03999239,-0.01594861,0.01332555,-0.1425428
 6,-0.05330330,0.00106390,0.46989019,-0.02297622,0.00715712,-0.00549811
 ,0.03029796,-0.09247372,0.01639528,0.00346467,0.00380900,0.00534385,-0
 .00186479,-0.00066172,-0.01392241,0.01332548,-0.10562036,-0.02057399,0
 .00929989,0.00067196,-0.00033112,-0.00719688,0.00621495,0.00239665,-0.
 06197866,-0.12686676,-0.00453118,0.05231991,0.41489321,0.00791518,0.00
 001098,0.00594534,-0.03049419,0.01257705,-0.09062763,-0.02660035,0.003
 61957,-0.03278993,-0.00935071,-0.01471679,-0.03842506,0.01430094,-0.01
 437162,-0.09051449,0.01310406,-0.00372894,-0.01147300,0.01532589,0.005
 12569,0.00405636,-0.00167542,-0.00545058,-0.07841763,-0.04574712,-0.05
 011433,0.57462988,-0.03704805,0.04603493,0.03495517,-0.00425119,-0.040
 94872,-0.01196992,0.00162372,-0.00328346,0.00210007,0.00244381,0.00216
 245,-0.00139458,-0.00309377,0.00025788,-0.00104488,-0.00002193,0.00000
 086,-0.00000897,0.00019696,0.00002897,-0.00012060,-0.00043924,0.000194
 64,-0.00003100,-0.00001679,-0.00102210,-0.00051186,0.04498639,0.003860
 92,-0.43324742,-0.15564479,-0.00025547,-0.02595563,-0.00701811,0.00129
 281,0.00180297,-0.00112170,-0.00002118,-0.00012105,0.00010357,-0.00018
 314,0.00075487,0.00008923,0.00001499,-0.00006984,0.00006151,0.00016313
 ,0.00017878,0.00003176,0.00024996,-0.00049057,0.00020824,0.00095422,0.
 00130070,-0.00033190,-0.00270615,0.45613866,0.01965989,-0.18217810,-0.
 08007688,0.00175001,0.01565720,0.00339596,0.00167816,0.00361698,0.0002
 3598,-0.00329040,-0.00075861,-0.00084587,0.00174999,-0.00042253,0.0031
 1118,-0.00037144,0.00008527,-0.00045325,0.00013569,0.00042517,0.000015
 56,-0.00009925,-0.00020865,-0.00036644,0.00022675,-0.00060662,0.000501
 84,-0.02320483,0.16219118,0.07684582,-0.00384366,-0.03704045,-0.004890
 99,-0.05178858,0.04813575,0.00945639,-0.00018782,0.00318254,-0.0016158
 6,-0.00084439,0.00184902,0.00013983,-0.00203982,0.00224216,-0.00120061
 ,0.00024629,0.00030920,0.00045434,-0.00018300,-0.00000539,0.00019966,0
 .00152340,0.00053815,0.00058403,-0.00426294,0.02065417,0.00574802,-0.0
 0411389,-0.00443940,0.00288748,0.06664242,-0.00760454,-0.02001850,-0.0
 0197253,0.04051281,-0.29275537,-0.05057338,0.00109464,-0.00298785,0.00
 136909,0.00086018,0.00072789,0.00016720,0.00003011,-0.00012392,0.00025
 432,-0.00015725,-0.00020420,0.00017107,0.00045280,0.00014057,-0.000212
 52,-0.00122185,0.00047988,-0.00005545,0.00243999,-0.00803356,-0.003424
 79,-0.00210103,-0.00005045,0.00242783,-0.03560789,0.32191548,0.0015794
 4,0.01274713,0.00386617,0.00789697,-0.05232049,-0.06178854,0.00433061,
 -0.02709994,0.00120758,0.00437317,-0.00615042,-0.00481976,-0.00396287,
 0.00050081,-0.00494152,0.00020118,0.00041470,0.00056111,0.00003074,0.0
 0000603,0.00002704,0.00130334,-0.00007483,0.00066652,-0.00515351,0.016
 96806,0.00477326,0.00190572,0.00127802,-0.00034581,-0.01185088,0.05265
 920,0.05973392,0.00000597,-0.00018038,0.00385453,-0.00568612,-0.005296
 71,-0.00049991,-0.16525671,-0.10586672,0.06172568,0.01511836,0.0145031
 1,-0.00720598,0.00174134,0.00050764,-0.00004732,0.00019117,-0.00047850
 ,0.00052671,-0.00040064,0.00004281,-0.00066820,-0.00027378,0.00010785,
 -0.00050467,-0.00004350,-0.00006557,-0.00003706,-0.00006452,0.00081536
 ,-0.00037600,0.00006191,0.00031330,0.00025956,0.17065292,0.00162995,0.
 00162855,-0.00315031,0.00383830,0.00581524,-0.00066466,-0.10323444,-0.
 14044147,0.05728699,-0.00827062,-0.03893930,0.01344639,-0.00416866,-0.
 00073421,-0.00355578,0.00039249,0.00015035,0.00064550,0.00039673,0.000
 02220,-0.00077802,-0.00104312,0.00058610,-0.00004865,-0.00011227,-0.00
 040475,0.00063621,0.00048851,-0.00042706,-0.00053866,0.00021057,0.0005
 7756,0.00092369,0.11133889,0.17101712,0.00335783,0.00091577,-0.0077677
 6,0.02081577,0.01892148,-0.00529705,0.05918708,0.05689642,-0.09087284,
 -0.00259091,0.00250427,0.00442847,0.00102058,0.00066629,0.00032569,-0.
 00015419,0.00009217,0.00019575,-0.00082320,-0.00019942,0.00037525,0.00
 024556,-0.00009550,-0.00037966,-0.00032043,-0.00046975,0.00023262,-0.0
 0037276,-0.00075353,0.00009278,0.00006040,-0.00070946,0.00107654,-0.06
 770073,-0.06613819,0.08972003,0.00173934,0.00076317,-0.00023726,0.0063
 0215,-0.00083299,0.00628891,-0.22750873,-0.01330712,-0.12401436,-0.009
 97764,0.00741053,-0.00966328,0.00065187,0.00116112,0.00273247,0.000019
 84,-0.00016181,-0.00022105,0.00012998,0.00012687,-0.00018701,-0.000227
 53,0.00007364,-0.00004277,-0.00029817,-0.00009805,0.00226098,-0.000076
 29,-0.00000456,-0.00020735,-0.00000236,-0.00000137,-0.00075649,-0.0156
 4321,-0.00290800,-0.01250872,0.24471041,0.00039316,-0.00011035,0.00133
 633,-0.00881835,0.00098830,-0.00283337,-0.02096755,-0.04861734,-0.0141
 7246,0.03134380,-0.00694961,0.02441721,0.00247481,-0.00476421,-0.00203
 844,0.00053083,-0.00020735,0.00091672,0.00035646,-0.00031752,-0.000245
 49,0.00010822,0.00050845,0.00000157,0.00135898,-0.00080856,-0.00238505
 ,0.00036094,0.00000539,0.00031342,-0.00010424,-0.00007250,0.00037142,-
 0.01567487,0.00095828,-0.01140317,0.00821248,0.05866471,0.00010885,-0.
 00046857,0.00536942,-0.02524140,-0.00156974,-0.01572664,-0.12322804,-0
 .00623458,-0.13400154,0.00097984,0.00071250,0.00117389,-0.00019143,-0.
 00080958,-0.00086819,-0.00014314,0.00026814,-0.00013841,-0.00019317,-0
 .00020177,0.00036024,0.00078656,0.00033282,-0.00001887,0.00105352,0.00
 046835,-0.00464650,-0.00020358,0.00101836,-0.00086958,0.00042337,-0.00
 024530,-0.00036935,0.01070601,0.00109787,0.00790391,0.13683195,0.00496
 441,0.14245051,-0.00019896,-0.00050378,0.00047482,0.00007448,0.0007743
 3,-0.00070591,-0.00047465,0.00050240,-0.00378579,-0.00404004,0.0226784
 2,-0.01477672,-0.05003583,-0.03507279,0.01601306,-0.00521900,-0.026266
 93,0.01002958,-0.00400810,-0.00047311,0.00207421,-0.00130053,0.0006392
 8,0.00078135,0.00289854,0.00887644,-0.00310829,-0.00034433,0.00037536,
 -0.00028902,-0.00030959,0.00016964,0.00003081,-0.00029319,0.00087594,-
 0.00017220,-0.00032042,0.00078213,-0.00010517,0.06355588,0.00053121,0.
 00044303,-0.00034076,-0.00057308,-0.00145954,0.00008671,-0.00069318,0.
 00111620,-0.00007672,0.00532575,0.00224617,0.00371590,-0.03059097,-0.2
 7873200,0.08537798,0.00111927,-0.00274114,0.00110434,-0.00059655,-0.00
 031178,-0.00025327,0.00100685,-0.00167461,-0.00139641,-0.00381233,-0.0
 1331160,0.00731650,0.00016033,-0.00009598,0.00043430,0.00050659,-0.000
 18963,0.00005597,-0.00010961,-0.00006283,0.00000635,0.00005977,-0.0001
 5075,0.00012433,0.02920905,0.29330072,0.00031803,0.00019962,0.00038013
 ,-0.00004497,-0.00226822,-0.00114850,0.00104290,-0.00244423,-0.0053611
 1,-0.01236047,0.02974886,-0.01790969,0.01538857,0.07929759,-0.07672649
 ,0.00156352,0.00969335,0.00054874,0.00170752,-0.00047663,-0.00092453,0
 .00155761,-0.00216742,-0.00130709,-0.00195072,-0.01797478,0.00851394,0
 .00015079,0.00006483,-0.00025729,0.00057486,-0.00023464,0.00044282,-0.
 00022528,0.00090244,0.00001226,-0.00037699,0.00097288,0.00007569,-0.00
 553696,-0.09510140,0.09159543,0.00002258,0.00006420,-0.00032696,0.0002
 5748,0.00030872,0.00086753,-0.00055686,0.00074949,-0.00004698,0.004643
 92,0.00014465,-0.00065843,-0.00523199,-0.00046741,0.02945243,-0.048306
 13,-0.00273523,0.02975833,0.00125962,0.00264689,-0.00623039,-0.0002830
 4,-0.00164404,-0.00024536,-0.00335761,-0.00128365,0.00108096,0.0000598
 7,-0.00003561,0.00020431,-0.00029511,0.00002991,-0.00027530,-0.0002289
 8,0.00016968,0.00003644,0.00007786,0.00000676,-0.00008669,-0.00215406,
 -0.00035011,0.00022821,0.05163704,0.00010071,0.00004542,0.00017787,-0.
 00009568,-0.00001106,-0.00006386,0.00021204,0.00042608,-0.00055117,0.0
 0127788,0.00062765,-0.00015025,-0.00041932,-0.00140113,0.00743047,-0.0
 0275036,-0.04412395,0.00601260,0.00594018,0.00149541,-0.03109097,-0.00
 138601,-0.00332664,-0.00168252,-0.00083664,-0.00084568,-0.00159307,0.0
 0004992,0.00000909,-0.00001502,-0.00011041,0.00006467,-0.00004935,-0.0
 0003201,-0.00024592,0.00006154,-0.00010739,0.00002038,0.00010239,-0.00
 107407,-0.00015257,-0.00012123,-0.00003718,0.04885716,0.00018588,0.000
 10236,0.00018584,-0.00039673,0.00011788,-0.00026670,0.00035981,0.00004
 314,0.00014686,-0.00197962,-0.00046911,0.00209442,-0.00028820,0.000587
 89,-0.00603591,0.03304755,0.00732000,-0.29856677,0.00253119,-0.0021817
 0,-0.01004747,-0.00151447,-0.00100915,-0.00015221,0.00001220,0.0003405
 6,-0.00089629,0.00000629,-0.00001788,-0.00010695,-0.00004311,0.0000103
 4,0.00009729,0.00013749,-0.00015640,-0.00008674,0.00001132,-0.00001932
 ,0.00001609,0.00084407,-0.00021148,-0.00012969,-0.03491403,-0.00455682
 ,0.32608971,-0.00009038,-0.00008690,0.00012447,-0.00011861,0.00065828,
 0.00021644,-0.00001860,-0.00151827,0.00022629,-0.00635769,-0.00043694,
 0.00041132,-0.01288756,0.01991214,-0.01182942,-0.14045106,0.10509225,-
 0.05648180,0.00633933,-0.00330595,0.00526565,0.00011567,-0.00104227,-0
 .00060140,-0.00187051,-0.00028783,0.00047283,0.00011611,0.00005111,-0.
 00017404,-0.00010226,0.00014025,-0.00000463,0.00021854,0.00012262,-0.0
 0007977,-0.00011617,0.00031619,-0.00005677,0.00124123,-0.00043717,-0.0
 0058405,0.00249651,-0.00249522,0.00133758,0.15162244,0.00044334,0.0001
 0519,0.00009659,-0.00023419,0.00044951,-0.00012291,-0.00018137,-0.0005
 4507,-0.00018065,-0.00271075,0.00048253,-0.00011592,-0.00563397,0.0053
 3589,-0.00329931,0.10972850,-0.16903270,0.06849602,0.01900255,-0.02241
 922,0.00730363,-0.00283354,-0.00297934,-0.00042106,0.00003036,-0.00120
 477,0.00109250,0.00000514,-0.00004401,-0.00006867,-0.00009283,0.000076
 68,-0.00001638,0.00001319,0.00010791,-0.00006704,-0.00001249,0.0002097
 7,-0.00001827,0.00006604,0.00115289,-0.00068832,0.00117066,-0.00073340
 ,0.00124664,-0.11805236,0.18755096,0.00006154,0.00004521,0.00014343,0.
 00015259,-0.00010922,-0.00026294,0.00050280,-0.00030673,-0.00006390,-0
 .00109209,-0.00039156,0.00041861,0.00511289,-0.00455578,0.00128893,-0.
 05713096,0.06657147,-0.07835124,0.01057560,-0.01238120,0.00540091,-0.0
 0033138,-0.00184477,-0.00024175,0.00086788,-0.00064665,-0.00007591,0.0
 0006451,0.00000912,-0.00005222,-0.00002663,-0.00003093,0.00004522,0.00
 009647,-0.00008204,-0.00003655,0.00000216,-0.00004337,0.00000988,-0.00
 036671,-0.00031128,0.00086212,-0.01993678,0.02367647,-0.01269619,0.061
 97843,-0.07069263,0.08492152,-0.00027009,0.00011140,-0.00022431,0.0003
 6325,0.00004146,0.00029802,-0.00004735,-0.00012678,0.00015652,0.000106
 80,0.00007871,-0.00036502,0.00042034,0.00040174,0.00150085,0.00105923,
 0.00213974,0.00127458,-0.26644066,-0.11995450,0.02936200,-0.01372533,-
 0.01536996,-0.00119599,-0.00002322,-0.00065757,0.00517431,0.00009128,0
 .00002681,0.00007015,-0.00008085,0.00004703,-0.00003937,-0.00003547,0.
 00003734,-0.00005980,-0.00003051,-0.00000619,-0.00003348,-0.00018975,-
 0.00007658,-0.00007641,0.00004565,-0.00030389,-0.00013777,-0.00017757,
 -0.00064258,-0.00029192,0.28019437,-0.00025649,-0.00004306,0.00011016,
 -0.00048141,-0.00036027,0.00027390,0.00030115,-0.00085459,-0.00001998,
 -0.00179581,0.00041875,-0.00057693,0.00108659,-0.00360905,-0.00217480,
 -0.02084368,-0.00467958,0.00520520,-0.12425323,-0.11939395,0.00712467,
 0.01155670,0.00878556,-0.00220823,-0.00065593,0.00158583,-0.00655672,0
 .00005070,0.00001276,-0.00010399,-0.00002544,0.00004830,0.00004131,0.0
 0006578,0.00018735,0.00001852,-0.00004077,0.00012429,-0.00002425,-0.00
 105293,-0.00015618,0.00033917,0.00021139,0.00043887,-0.00054270,0.0007
 2117,0.00022483,0.00051467,0.13369541,0.11686662,0.00130677,0.00015095
 ,0.00017754,0.00038254,0.00213971,-0.00082799,0.00008308,-0.00030631,-
 0.00003640,-0.00032700,0.00063128,-0.00031738,0.00112967,-0.00401934,0
 .00050728,-0.01175829,-0.00443762,0.00340125,0.02644345,0.00512199,-0.
 04700133,0.01484533,0.00944093,0.00350356,0.00561779,-0.00633690,0.006
 73801,0.00004621,-0.00010531,-0.00000515,-0.00005837,-0.00000365,-0.00
 005865,-0.00008014,0.00004175,-0.00005523,-0.00005386,0.00005755,0.000
 07585,-0.00103452,-0.00002658,0.00045724,0.00034274,0.00096323,0.00011
 293,0.00013582,-0.00027913,0.00020627,-0.03348426,-0.00440145,0.036579
 06,-0.00031351,0.00040674,0.00013698,0.00182481,-0.00099459,0.00057720
 ,0.00008435,-0.00030698,0.00022574,0.00030745,-0.00010533,-0.00128233,
 -0.00419198,-0.00273929,0.00186679,-0.00209205,-0.00148564,0.00555629,
 0.00470386,0.02247155,0.01290009,-0.05373071,0.00201846,0.00841977,0.0
 0422346,-0.01728806,-0.01300444,0.00018894,0.00009973,0.00005255,-0.00
 036812,0.00064839,-0.00012388,0.00000544,0.00011672,-0.00008214,-0.000
 00507,0.00000885,-0.00005848,0.00051416,-0.00067074,-0.00084523,0.0003
 9287,0.00171522,0.00048616,0.00000795,-0.00018435,-0.00018148,0.000068
 29,0.00044808,-0.00228524,0.04803658,-0.00047503,0.00015215,0.00008662
 ,0.00052608,-0.00047155,0.00031554,0.00021901,-0.00042248,0.00016365,-
 0.00048567,-0.00003365,-0.00093088,-0.00164129,-0.00064779,0.00027586,
 -0.00195362,0.00286739,-0.00522356,-0.00435943,-0.00328235,-0.00221023
 ,0.00595751,-0.25678339,-0.13331323,0.00491918,-0.00870919,-0.00812173
 ,0.00019066,0.00005862,0.00000148,-0.00039234,0.00045566,-0.00021801,0
 .00002366,0.00008806,-0.00002844,-0.00003373,0.00005388,-0.00003282,0.
 00008538,-0.00038582,-0.00047160,0.00006577,-0.00142283,-0.00040255,0.
 00042214,0.00105993,0.00058071,0.00139430,-0.00076088,0.00224025,-0.00
 444868,0.26799755,-0.00002272,0.00024207,-0.00004322,0.00046228,-0.000
 44496,0.00019320,0.00000505,-0.00013606,-0.00013584,-0.00015934,0.0004
 7067,0.00035562,0.00180429,-0.00035503,0.00135965,0.00506165,-0.004703
 28,0.00718973,-0.00296643,-0.01442642,-0.00336679,0.01090458,-0.131033
 07,-0.12044503,0.00063265,0.00230529,0.00201596,0.00003616,0.00001625,
 -0.00001310,-0.00034451,0.00018133,-0.00001695,0.00002455,0.00002840,-
 0.00008437,-0.00000315,-0.00000252,-0.00001690,0.00001545,-0.00013378,
 -0.00015374,0.00031045,0.00142444,0.00036600,-0.00052047,-0.00229014,-
 0.00145486,-0.00166567,0.00257518,-0.00318925,-0.01298269,0.14688794,0
 .11750818,0.00357024,-0.00008060,0.00122026,0.00263987,0.00973211,-0.0
 2589253,-0.00499005,0.00182103,-0.00164372,0.00002702,-0.00012157,0.00
 025845,-0.00233195,-0.00334802,0.00590061,-0.00063616,-0.00028913,0.00
 185664,-0.00118560,-0.00293949,-0.00054948,-0.00924501,-0.00900626,0.0
 2282518,-0.05682584,-0.02351913,0.06514628,-0.00023710,-0.00025888,-0.
 00040265,-0.00005163,-0.00004512,0.00025541,-0.00006955,0.00011937,0.0
 0014118,0.00057467,-0.00068240,-0.00134876,0.00060415,-0.00000850,-0.0
 0053094,-0.00047964,0.00035222,0.00031438,0.00003264,0.00011866,-0.000
 05693,-0.00132841,0.00126871,-0.00125172,0.00034330,-0.00001392,-0.000
 59212,0.06958903,-0.00243270,0.00063461,-0.00224991,-0.00237058,-0.005
 01512,0.01580879,0.00337547,-0.00267172,-0.00012291,-0.00109154,-0.001
 11475,-0.00411928,0.00572300,0.00978088,-0.01895898,0.00107127,-0.0018
 4707,-0.00137204,-0.00164223,-0.00293409,-0.00099360,-0.00650597,-0.00
 551316,0.01942683,-0.02304193,-0.07669212,0.08041702,0.00007552,0.0002
 4014,-0.00025198,0.00019024,-0.00005073,-0.00003692,-0.00002724,0.0001
 1682,-0.00021831,-0.00029929,0.00046475,0.00051572,-0.00059081,0.00116
 542,0.00072973,0.00098510,0.00027844,-0.00020169,0.00022674,0.00020240
 ,-0.00000148,-0.00083589,0.00116437,-0.00087134,0.00028991,0.00018667,
 -0.00060631,0.02690095,0.08160426,0.00201202,-0.00158113,0.00304095,0.
 00337264,0.00567850,-0.01425341,-0.00187218,-0.00033353,-0.00103370,-0
 .00094164,-0.00068805,-0.00208384,0.00219656,0.00786754,-0.01041815,0.
 00012670,-0.00069937,-0.00092383,-0.00101994,-0.00013656,0.00035998,0.
 00127764,-0.00052741,0.00596433,0.06065539,0.07678780,-0.25954076,-0.0
 0040195,-0.00007884,-0.00080657,-0.00049739,0.00022227,-0.00015688,0.0
 0001430,0.00010348,0.00021689,0.00014451,-0.00020833,-0.00077948,-0.00
 038205,-0.00037069,0.00102974,0.00043952,0.00002526,-0.00012420,0.0001
 6351,0.00002508,-0.00006134,-0.00026243,0.00040628,-0.00026761,0.00062
 434,0.00040101,-0.00006828,-0.06564953,-0.08689331,0.27990618\\0.00000
 581,0.00001571,-0.00001770,-0.00001942,-0.00002321,-0.00000428,0.00000
 015,-0.00004240,-0.00001591,0.00000546,0.00003226,-0.00000247,0.000015
 20,-0.00001321,0.00000679,-0.00000413,0.00001608,0.00000017,0.00000996
 ,0.00000118,-0.00000166,-0.00001419,-0.00000046,-0.00000070,-0.0000190
 9,0.00001711,0.00000761,0.00000764,-0.00000266,0.00000597,-0.00000547,
 -0.00000615,-0.00000636,0.00000681,-0.00000391,-0.00000936,0.00000954,
 -0.00002093,-0.00000643,-0.00000093,0.00000149,0.00000971,0.00000608,-
 0.00000756,0.00001221,0.00000370,0.00000467,0.00002378,-0.00000623,0.0
 0001328,0.00000449,-0.00000353,0.00001307,-0.00001014,0.00000264,0.000
 00564,0.00000429\\\@


 THE MORE ACCURATE THE CALCULATIONS BECOME, THE MORE THE CONCEPTS
 TEND TO VANISH INTO THIN AIR.
     -- R.S. MULLIKEN, J.C.P. 43,S2(1965)
 Job cpu time:       0 days  0 hours 43 minutes 44.2 seconds.
 File lengths (MBytes):  RWF=    152 Int=      0 D2E=      0 Chk=      8 Scr=      1
 Normal termination of Gaussian 09 at Tue Jan 28 08:54:00 2020.
