 Entering Gaussian System, Link 0=/home/puck/opt/gaussian_09/g09
 Input=dsC7O2H10nsd_1230.com
 Output=dsC7O2H10nsd_1230.log
 Initial command:
 /home/puck/opt/gaussian_09/l1.exe "/scratch/puck/g09_403aa5f7-cb86-4e97-bc4d-cf39ef51aee4/Gau-159426.inp" -scrdir="/scratch/puck/g09_403aa5f7-cb86-4e97-bc4d-cf39ef51aee4/"
 Entering Link 1 = /home/puck/opt/gaussian_09/l1.exe PID=    159427.
  
 Copyright (c) 1988,1990,1992,1993,1995,1998,2003,2009,2013,
            Gaussian, Inc.  All Rights Reserved.
  
 This is part of the Gaussian(R) 09 program.  It is based on
 the Gaussian(R) 03 system (copyright 2003, Gaussian, Inc.),
 the Gaussian(R) 98 system (copyright 1998, Gaussian, Inc.),
 the Gaussian(R) 94 system (copyright 1995, Gaussian, Inc.),
 the Gaussian 92(TM) system (copyright 1992, Gaussian, Inc.),
 the Gaussian 90(TM) system (copyright 1990, Gaussian, Inc.),
 the Gaussian 88(TM) system (copyright 1988, Gaussian, Inc.),
 the Gaussian 86(TM) system (copyright 1986, Carnegie Mellon
 University), and the Gaussian 82(TM) system (copyright 1983,
 Carnegie Mellon University). Gaussian is a federally registered
 trademark of Gaussian, Inc.
  
 This software contains proprietary and confidential information,
 including trade secrets, belonging to Gaussian, Inc.
  
 This software is provided under written license and may be
 used, copied, transmitted, or stored only in accord with that
 written license.
  
 The following legend is applicable only to US Government
 contracts under FAR:
  
                    RESTRICTED RIGHTS LEGEND
  
 Use, reproduction and disclosure by the US Government is
 subject to restrictions as set forth in subparagraphs (a)
 and (c) of the Commercial Computer Software - Restricted
 Rights clause in FAR 52.227-19.
  
 Gaussian, Inc.
 340 Quinnipiac St., Bldg. 40, Wallingford CT 06492
  
  
 ---------------------------------------------------------------
 Warning -- This program may not be used in any manner that
 competes with the business of Gaussian, Inc. or will provide
 assistance to any competitor of Gaussian, Inc.  The licensee
 of this program is prohibited from giving any competitor of
 Gaussian, Inc. access to this program.  By using this program,
 the user acknowledges that Gaussian, Inc. is engaged in the
 business of creating and licensing software in the field of
 computational chemistry and represents and warrants to the
 licensee that it is not a competitor of Gaussian, Inc. and that
 it will not use this program in any manner prohibited above.
 ---------------------------------------------------------------
  

 Cite this work as:
 Gaussian 09, Revision D.01,
 M. J. Frisch, G. W. Trucks, H. B. Schlegel, G. E. Scuseria, 
 M. A. Robb, J. R. Cheeseman, G. Scalmani, V. Barone, B. Mennucci, 
 G. A. Petersson, H. Nakatsuji, M. Caricato, X. Li, H. P. Hratchian, 
 A. F. Izmaylov, J. Bloino, G. Zheng, J. L. Sonnenberg, M. Hada, 
 M. Ehara, K. Toyota, R. Fukuda, J. Hasegawa, M. Ishida, T. Nakajima, 
 Y. Honda, O. Kitao, H. Nakai, T. Vreven, J. A. Montgomery, Jr., 
 J. E. Peralta, F. Ogliaro, M. Bearpark, J. J. Heyd, E. Brothers, 
 K. N. Kudin, V. N. Staroverov, T. Keith, R. Kobayashi, J. Normand, 
 K. Raghavachari, A. Rendell, J. C. Burant, S. S. Iyengar, J. Tomasi, 
 M. Cossi, N. Rega, J. M. Millam, M. Klene, J. E. Knox, J. B. Cross, 
 V. Bakken, C. Adamo, J. Jaramillo, R. Gomperts, R. E. Stratmann, 
 O. Yazyev, A. J. Austin, R. Cammi, C. Pomelli, J. W. Ochterski, 
 R. L. Martin, K. Morokuma, V. G. Zakrzewski, G. A. Voth, 
 P. Salvador, J. J. Dannenberg, S. Dapprich, A. D. Daniels, 
 O. Farkas, J. B. Foresman, J. V. Ortiz, J. Cioslowski, 
 and D. J. Fox, Gaussian, Inc., Wallingford CT, 2013.
 
 ******************************************
 Gaussian 09:  ES64L-G09RevD.01 24-Apr-2013
                27-Jan-2020 
 ******************************************
 -----------------------------
 # b3lyp 6-31G(2df,p) opt Freq
 -----------------------------
 1/14=-1,18=20,19=15,26=3,38=1/1,3;
 2/9=110,12=2,17=6,18=5,40=1/2;
 3/5=1,6=6,7=104,11=2,16=1,25=1,30=1,71=1,74=-5/1,2,3;
 4//1;
 5/5=2,38=5/2;
 6/7=2,8=2,9=2,10=2,28=1/1;
 7//1,2,3,16;
 1/14=-1,18=20,19=15,26=3/3(2);
 2/9=110/2;
 99//99;
 2/9=110/2;
 3/5=1,6=6,7=104,11=2,16=1,25=1,30=1,71=1,74=-5/1,2,3;
 4/5=5,16=3,69=1/1;
 5/5=2,38=5/2;
 7//1,2,3,16;
 1/14=-1,18=20,19=15,26=3/3(-5);
 2/9=110/2;
 6/7=2,8=2,9=2,10=2,19=2,28=1/1;
 99/9=1/99;
 -----
 titel
 -----
 Symbolic Z-matrix:
 Charge =  0 Multiplicity = 1
 C                    -6.01861   2.0472   -2.36885 
 C                    -5.81349   2.78906  -1.03939 
 O                    -5.49384   4.16368  -1.25505 
 C                    -4.81337   2.12181  -0.20102 
 C                    -3.95331   1.58931   0.45657 
 C                    -2.94169   0.9624    1.2538 
 C                    -2.75707  -0.55747   1.22823 
 C                    -1.72404   0.33802   0.61223 
 O                    -0.51956   0.56319   1.27838 
 H                    -6.36223   1.02304  -2.19575 
 H                    -6.76185   2.57786  -2.96965 
 H                    -5.07958   2.00207  -2.92988 
 H                    -6.7706    2.81507  -0.50363 
 H                    -4.57145   4.20146  -1.53125 
 H                    -2.73616   1.42604   2.21416 
 H                    -2.50943  -1.02235   2.17584 
 H                    -3.40441  -1.13223   0.57649 
 H                    -1.67507   0.37876  -0.47508 
 H                     0.01927  -0.23117   1.19679 
 

 GradGradGradGradGradGradGradGradGradGradGradGradGradGradGradGradGradGrad
 Berny optimization.
 Initialization pass.
                           ----------------------------
                           !    Initial Parameters    !
                           ! (Angstroms and Degrees)  !
 --------------------------                            --------------------------
 ! Name  Definition              Value          Derivative Info.                !
 --------------------------------------------------------------------------------
 ! R1    R(1,2)                  1.5362         estimate D2E/DX2                !
 ! R2    R(1,10)                 1.094          estimate D2E/DX2                !
 ! R3    R(1,11)                 1.0931         estimate D2E/DX2                !
 ! R4    R(1,12)                 1.0948         estimate D2E/DX2                !
 ! R5    R(2,3)                  1.4277         estimate D2E/DX2                !
 ! R6    R(2,4)                  1.4657         estimate D2E/DX2                !
 ! R7    R(2,13)                 1.0972         estimate D2E/DX2                !
 ! R8    R(3,14)                 0.9636         estimate D2E/DX2                !
 ! R9    R(4,5)                  1.2065         estimate D2E/DX2                !
 ! R10   R(5,6)                  1.4325         estimate D2E/DX2                !
 ! R11   R(6,7)                  1.5313         estimate D2E/DX2                !
 ! R12   R(6,8)                  1.5113         estimate D2E/DX2                !
 ! R13   R(6,15)                 1.086          estimate D2E/DX2                !
 ! R14   R(7,8)                  1.4995         estimate D2E/DX2                !
 ! R15   R(7,16)                 1.0842         estimate D2E/DX2                !
 ! R16   R(7,17)                 1.0836         estimate D2E/DX2                !
 ! R17   R(8,9)                  1.3947         estimate D2E/DX2                !
 ! R18   R(8,18)                 1.0892         estimate D2E/DX2                !
 ! R19   R(9,19)                 0.9633         estimate D2E/DX2                !
 ! A1    A(2,1,10)             110.921          estimate D2E/DX2                !
 ! A2    A(2,1,11)             109.3898         estimate D2E/DX2                !
 ! A3    A(2,1,12)             110.4179         estimate D2E/DX2                !
 ! A4    A(10,1,11)            109.1383         estimate D2E/DX2                !
 ! A5    A(10,1,12)            108.1732         estimate D2E/DX2                !
 ! A6    A(11,1,12)            108.7562         estimate D2E/DX2                !
 ! A7    A(1,2,3)              111.355          estimate D2E/DX2                !
 ! A8    A(1,2,4)              111.4861         estimate D2E/DX2                !
 ! A9    A(1,2,13)             108.5162         estimate D2E/DX2                !
 ! A10   A(3,2,4)              111.8356         estimate D2E/DX2                !
 ! A11   A(3,2,13)             104.2554         estimate D2E/DX2                !
 ! A12   A(4,2,13)             109.0701         estimate D2E/DX2                !
 ! A13   A(2,3,14)             107.1797         estimate D2E/DX2                !
 ! A14   A(5,6,7)              120.6801         estimate D2E/DX2                !
 ! A15   A(5,6,8)              120.8989         estimate D2E/DX2                !
 ! A16   A(5,6,15)             116.0372         estimate D2E/DX2                !
 ! A17   A(7,6,15)             114.5617         estimate D2E/DX2                !
 ! A18   A(8,6,15)             113.5327         estimate D2E/DX2                !
 ! A19   A(6,7,16)             116.0116         estimate D2E/DX2                !
 ! A20   A(6,7,17)             117.6768         estimate D2E/DX2                !
 ! A21   A(8,7,16)             117.2442         estimate D2E/DX2                !
 ! A22   A(8,7,17)             118.7663         estimate D2E/DX2                !
 ! A23   A(16,7,17)            115.7679         estimate D2E/DX2                !
 ! A24   A(6,8,9)              115.2353         estimate D2E/DX2                !
 ! A25   A(6,8,18)             116.3948         estimate D2E/DX2                !
 ! A26   A(7,8,9)              119.6793         estimate D2E/DX2                !
 ! A27   A(7,8,18)             117.6075         estimate D2E/DX2                !
 ! A28   A(9,8,18)             115.5907         estimate D2E/DX2                !
 ! A29   A(8,9,19)             108.0275         estimate D2E/DX2                !
 ! A30   L(2,4,5,12,-1)        178.3305         estimate D2E/DX2                !
 ! A31   L(4,5,6,17,-1)        180.317          estimate D2E/DX2                !
 ! A32   L(2,4,5,12,-2)        177.7268         estimate D2E/DX2                !
 ! A33   L(4,5,6,17,-2)        180.9002         estimate D2E/DX2                !
 ! D1    D(10,1,2,3)          -174.2215         estimate D2E/DX2                !
 ! D2    D(10,1,2,4)            60.1101         estimate D2E/DX2                !
 ! D3    D(10,1,2,13)          -60.0306         estimate D2E/DX2                !
 ! D4    D(11,1,2,3)           -53.7812         estimate D2E/DX2                !
 ! D5    D(11,1,2,4)          -179.4497         estimate D2E/DX2                !
 ! D6    D(11,1,2,13)           60.4096         estimate D2E/DX2                !
 ! D7    D(12,1,2,3)            65.8715         estimate D2E/DX2                !
 ! D8    D(12,1,2,4)           -59.7969         estimate D2E/DX2                !
 ! D9    D(12,1,2,13)         -179.9376         estimate D2E/DX2                !
 ! D10   D(1,2,3,14)           -76.4232         estimate D2E/DX2                !
 ! D11   D(4,2,3,14)            49.0512         estimate D2E/DX2                !
 ! D12   D(13,2,3,14)          166.759          estimate D2E/DX2                !
 ! D13   D(1,2,6,7)            -33.5834         estimate D2E/DX2                !
 ! D14   D(1,2,6,8)             36.5251         estimate D2E/DX2                !
 ! D15   D(1,2,6,15)          -179.9498         estimate D2E/DX2                !
 ! D16   D(3,2,6,7)           -158.0684         estimate D2E/DX2                !
 ! D17   D(3,2,6,8)            -87.9599         estimate D2E/DX2                !
 ! D18   D(3,2,6,15)            55.5652         estimate D2E/DX2                !
 ! D19   D(13,2,6,7)            86.9249         estimate D2E/DX2                !
 ! D20   D(13,2,6,8)           157.0334         estimate D2E/DX2                !
 ! D21   D(13,2,6,15)          -59.4416         estimate D2E/DX2                !
 ! D22   D(5,6,7,16)          -142.3114         estimate D2E/DX2                !
 ! D23   D(5,6,7,17)             1.0262         estimate D2E/DX2                !
 ! D24   D(15,6,7,16)            4.0266         estimate D2E/DX2                !
 ! D25   D(15,6,7,17)          147.3642         estimate D2E/DX2                !
 ! D26   D(5,6,8,9)            139.0363         estimate D2E/DX2                !
 ! D27   D(5,6,8,18)            -1.0485         estimate D2E/DX2                !
 ! D28   D(15,6,8,9)            -5.9073         estimate D2E/DX2                !
 ! D29   D(15,6,8,18)         -145.9921         estimate D2E/DX2                !
 ! D30   D(16,7,8,9)            -1.4794         estimate D2E/DX2                !
 ! D31   D(16,7,8,18)          147.7338         estimate D2E/DX2                !
 ! D32   D(17,7,8,9)          -148.671          estimate D2E/DX2                !
 ! D33   D(17,7,8,18)            0.5422         estimate D2E/DX2                !
 ! D34   D(6,8,9,19)           143.9375         estimate D2E/DX2                !
 ! D35   D(7,8,9,19)            74.1564         estimate D2E/DX2                !
 ! D36   D(18,8,9,19)          -75.6516         estimate D2E/DX2                !
 --------------------------------------------------------------------------------
 Trust Radius=3.00D-01 FncErr=1.00D-07 GrdErr=1.00D-06
 Number of steps in this run=     98 maximum allowed number of steps=    114.
 GradGradGradGradGradGradGradGradGradGradGradGradGradGradGradGradGradGrad

                          Input orientation:                          
 ---------------------------------------------------------------------
 Center     Atomic      Atomic             Coordinates (Angstroms)
 Number     Number       Type             X           Y           Z
 ---------------------------------------------------------------------
      1          6           0       -6.018614    2.047196   -2.368851
      2          6           0       -5.813494    2.789057   -1.039391
      3          8           0       -5.493842    4.163679   -1.255046
      4          6           0       -4.813365    2.121806   -0.201020
      5          6           0       -3.953312    1.589309    0.456569
      6          6           0       -2.941694    0.962404    1.253796
      7          6           0       -2.757065   -0.557472    1.228231
      8          6           0       -1.724041    0.338024    0.612226
      9          8           0       -0.519560    0.563187    1.278378
     10          1           0       -6.362233    1.023040   -2.195749
     11          1           0       -6.761850    2.577858   -2.969647
     12          1           0       -5.079580    2.002069   -2.929877
     13          1           0       -6.770596    2.815074   -0.503629
     14          1           0       -4.571451    4.201458   -1.531255
     15          1           0       -2.736163    1.426040    2.214158
     16          1           0       -2.509431   -1.022354    2.175842
     17          1           0       -3.404413   -1.132228    0.576488
     18          1           0       -1.675068    0.378757   -0.475083
     19          1           0        0.019270   -0.231174    1.196790
 ---------------------------------------------------------------------
                    Distance matrix (angstroms):
                    1          2          3          4          5
     1  C    0.000000
     2  C    1.536196   0.000000
     3  O    2.448560   1.427679   0.000000
     4  C    2.481467   1.465724   2.396511   0.000000
     5  C    3.529607   2.671623   3.454018   1.206511   0.000000
     6  C    4.875221   4.103973   4.801656   2.638912   1.432463
     7  C    5.510081   5.067852   5.995488   3.667378   2.575876
     8  C    5.500131   5.045694   5.686276   3.658848   2.561170
     9  O    6.763443   6.192923   6.642685   4.801529   3.676813
    10  H    1.094045   2.181077   3.391554   2.754128   3.627444
    11  H    1.093142   2.160989   2.657542   3.416119   4.539171
    12  H    1.094792   2.175297   2.765724   2.744425   3.592613
    13  H    2.152712   1.097161   2.003363   2.098319   3.218939
    14  H    2.727030   1.944088   0.963600   2.480524   3.340189
    15  H    5.671357   4.681171   5.209111   3.260666   2.144115
    16  H    6.510817   5.981756   6.897292   4.565450   3.444049
    17  H    5.061403   4.877623   5.980540   3.630207   2.778926
    18  H    5.023588   4.822298   5.432956   3.600312   2.742956
    19  H    7.372978   6.938547   7.464626   5.553805   4.432098
                    6          7          8          9         10
     6  C    0.000000
     7  C    1.531263   0.000000
     8  C    1.511338   1.499505   0.000000
     9  O    2.454937   2.502963   1.394716   0.000000
    10  H    4.858304   5.217172   5.465052   6.813065   0.000000
    11  H    5.919523   6.594754   6.574663   7.814782   1.782154
    12  H    4.811921   5.406958   5.155113   6.369740   1.772749
    13  H    4.602327   5.521036   5.731372   6.879099   2.498283
    14  H    4.572099   5.792597   5.256270   6.127714   3.708206
    15  H    1.086046   2.215131   2.185029   2.556077   5.723466
    16  H    2.230759   1.084161   2.216385   2.697956   6.175639
    17  H    2.249520   1.083593   2.233062   3.418985   4.591205
    18  H    2.221263   2.224527   1.089174   2.108042   5.034412
    19  H    3.192991   2.795621   1.924795   0.963329   7.335254
                   11         12         13         14         15
    11  H    0.000000
    12  H    1.778524   0.000000
    13  H    2.477416   3.067114   0.000000
    14  H    3.082677   2.655494   2.795410   0.000000
    15  H    6.663683   5.681946   5.058896   5.009925   0.000000
    16  H    7.584237   6.466929   6.329530   6.729243   2.459168
    17  H    6.132878   4.992454   5.298965   5.852586   3.110185
    18  H    6.077356   4.500207   5.648085   4.910965   3.074856
    19  H    8.439991   6.929288   7.633697   6.940114   3.372507
                   16         17         18         19
    16  H    0.000000
    17  H    1.836028   0.000000
    18  H    3.112343   2.525769   0.000000
    19  H    2.824684   3.594201   2.457225   0.000000
 Stoichiometry    C7H10O2
 Framework group  C1[X(C7H10O2)]
 Deg. of freedom    51
 Full point group                 C1      NOp   1
 Largest Abelian subgroup         C1      NOp   1
 Largest concise Abelian subgroup C1      NOp   1
                         Standard orientation:                         
 ---------------------------------------------------------------------
 Center     Atomic      Atomic             Coordinates (Angstroms)
 Number     Number       Type             X           Y           Z
 ---------------------------------------------------------------------
      1          6           0       -2.989585    1.036561    0.775670
      2          6           0       -2.563077    0.033247   -0.306618
      3          8           0       -3.099717   -1.265086   -0.052422
      4          6           0       -1.106156   -0.000178   -0.463502
      5          6           0        0.096327   -0.052298   -0.547076
      6          6           0        1.522369   -0.117840   -0.665649
      7          6           0        2.382920    1.129264   -0.444405
      8          6           0        2.409014    0.008741    0.551717
      9          8           0        3.499803   -0.859736    0.585776
     10          1           0       -2.660963    2.048644    0.521445
     11          1           0       -4.078530    1.026641    0.870856
     12          1           0       -2.549360    0.767028    1.741136
     13          1           0       -3.019341    0.332563   -1.258456
     14          1           0       -2.575538   -1.656162    0.655265
     15          1           0        1.907502   -0.805313   -1.413010
     16          1           0        3.243438    1.234761   -1.095393
     17          1           0        1.876283    2.050015   -0.180379
     18          1           0        1.904466    0.167898    1.503768
     19          1           0        4.240486   -0.392484    0.987107
 ---------------------------------------------------------------------
 Rotational constants (GHZ):      4.0452001      0.5974261      0.5722871
 Standard basis: 6-31G(2df,p) (6D, 7F)
 There are   329 symmetry adapted cartesian basis functions of A   symmetry.
 There are   302 symmetry adapted basis functions of A   symmetry.
   302 basis functions,   466 primitive gaussians,   329 cartesian basis functions
    34 alpha electrons       34 beta electrons
       nuclear repulsion energy       408.1969045645 Hartrees.
 NAtoms=   19 NActive=   19 NUniq=   19 SFac= 1.00D+00 NAtFMM=   60 NAOKFM=F Big=F
 Integral buffers will be    131072 words long.
 Raffenetti 2 integral format.
 Two-electron integral symmetry is turned on.
 One-electron integrals computed using PRISM.
 NBasis=   302 RedAO= T EigKep=  5.43D-05  NBF=   302
 NBsUse=   302 1.00D-06 EigRej= -1.00D+00 NBFU=   302
 ExpMin= 1.61D-01 ExpMax= 5.48D+03 ExpMxC= 8.25D+02 IAcc=1 IRadAn=         1 AccDes= 0.00D+00
 Harris functional with IExCor=  402 and IRadAn=       1 diagonalized for initial guess.
 HarFok:  IExCor=  402 AccDes= 0.00D+00 IRadAn=         1 IDoV= 1 UseB2=F ITyADJ=14
 ICtDFT=  3500011 ScaDFX=  1.000000  1.000000  1.000000  1.000000
 FoFCou: FMM=F IPFlag=           0 FMFlag=      100000 FMFlg1=           0
         NFxFlg=           0 DoJE=T BraDBF=F KetDBF=T FulRan=T
         wScrn=  0.000000 ICntrl=     500 IOpCl=  0 I1Cent=   200000004 NGrid=           0
         NMat0=    1 NMatS0=      1 NMatT0=    0 NMatD0=    1 NMtDS0=    0 NMtDT0=    0
 Petite list used in FoFCou.
 Requested convergence on RMS density matrix=1.00D-08 within 128 cycles.
 Requested convergence on MAX density matrix=1.00D-06.
 Requested convergence on             energy=1.00D-06.
 No special actions if energy rises.
 Integral accuracy reduced to 1.0D-05 until final iterations.
 Initial convergence to 1.0D-05 achieved.  Increase integral accuracy.
 SCF Done:  E(RB3LYP) =  -423.132087686     A.U. after   14 cycles
            NFock= 14  Conv=0.51D-08     -V/T= 2.0074

 **********************************************************************

            Population analysis using the SCF density.

 **********************************************************************

 Orbital symmetries:
       Occupied  (A) (A) (A) (A) (A) (A) (A) (A) (A) (A) (A) (A)
                 (A) (A) (A) (A) (A) (A) (A) (A) (A) (A) (A) (A)
                 (A) (A) (A) (A) (A) (A) (A) (A) (A) (A)
       Virtual   (A) (A) (A) (A) (A) (A) (A) (A) (A) (A) (A) (A)
                 (A) (A) (A) (A) (A) (A) (A) (A) (A) (A) (A) (A)
                 (A) (A) (A) (A) (A) (A) (A) (A) (A) (A) (A) (A)
                 (A) (A) (A) (A) (A) (A) (A) (A) (A) (A) (A) (A)
                 (A) (A) (A) (A) (A) (A) (A) (A) (A) (A) (A) (A)
                 (A) (A) (A) (A) (A) (A) (A) (A) (A) (A) (A) (A)
                 (A) (A) (A) (A) (A) (A) (A) (A) (A) (A) (A) (A)
                 (A) (A) (A) (A) (A) (A) (A) (A) (A) (A) (A) (A)
                 (A) (A) (A) (A) (A) (A) (A) (A) (A) (A) (A) (A)
                 (A) (A) (A) (A) (A) (A) (A) (A) (A) (A) (A) (A)
                 (A) (A) (A) (A) (A) (A) (A) (A) (A) (A) (A) (A)
                 (A) (A) (A) (A) (A) (A) (A) (A) (A) (A) (A) (A)
                 (A) (A) (A) (A) (A) (A) (A) (A) (A) (A) (A) (A)
                 (A) (A) (A) (A) (A) (A) (A) (A) (A) (A) (A) (A)
                 (A) (A) (A) (A) (A) (A) (A) (A) (A) (A) (A) (A)
                 (A) (A) (A) (A) (A) (A) (A) (A) (A) (A) (A) (A)
                 (A) (A) (A) (A) (A) (A) (A) (A) (A) (A) (A) (A)
                 (A) (A) (A) (A) (A) (A) (A) (A) (A) (A) (A) (A)
                 (A) (A) (A) (A) (A) (A) (A) (A) (A) (A) (A) (A)
                 (A) (A) (A) (A) (A) (A) (A) (A) (A) (A) (A) (A)
                 (A) (A) (A) (A) (A) (A) (A) (A) (A) (A) (A) (A)
                 (A) (A) (A) (A) (A) (A) (A) (A) (A) (A) (A) (A)
                 (A) (A) (A) (A)
 The electronic state is 1-A.
 Alpha  occ. eigenvalues --  -19.15109 -19.13316 -10.25098 -10.24695 -10.21385
 Alpha  occ. eigenvalues --  -10.19685 -10.17785 -10.17721 -10.16903  -1.03738
 Alpha  occ. eigenvalues --   -1.01620  -0.86272  -0.77492  -0.72654  -0.64869
 Alpha  occ. eigenvalues --   -0.61829  -0.61032  -0.54509  -0.52544  -0.50055
 Alpha  occ. eigenvalues --   -0.46076  -0.45020  -0.43081  -0.41365  -0.39411
 Alpha  occ. eigenvalues --   -0.38546  -0.37416  -0.35606  -0.34131  -0.31627
 Alpha  occ. eigenvalues --   -0.28331  -0.27611  -0.24816  -0.23828
 Alpha virt. eigenvalues --    0.03372   0.04841   0.07879   0.09763   0.11146
 Alpha virt. eigenvalues --    0.12248   0.13560   0.14289   0.15618   0.16537
 Alpha virt. eigenvalues --    0.17043   0.17853   0.18731   0.22785   0.23988
 Alpha virt. eigenvalues --    0.24809   0.24850   0.27470   0.28158   0.32396
 Alpha virt. eigenvalues --    0.38719   0.41992   0.44633   0.45714   0.47625
 Alpha virt. eigenvalues --    0.49154   0.50077   0.51098   0.51885   0.53023
 Alpha virt. eigenvalues --    0.54217   0.55548   0.57621   0.58163   0.61210
 Alpha virt. eigenvalues --    0.61953   0.65415   0.66512   0.68283   0.69859
 Alpha virt. eigenvalues --    0.71320   0.72131   0.72870   0.73674   0.73876
 Alpha virt. eigenvalues --    0.74608   0.75680   0.76728   0.77783   0.79934
 Alpha virt. eigenvalues --    0.81177   0.81470   0.82657   0.85135   0.88122
 Alpha virt. eigenvalues --    0.88908   0.90483   0.91628   0.92329   0.94233
 Alpha virt. eigenvalues --    0.95299   0.96428   0.98810   1.02423   1.03768
 Alpha virt. eigenvalues --    1.05611   1.07413   1.10014   1.10902   1.14831
 Alpha virt. eigenvalues --    1.17707   1.19107   1.20833   1.23640   1.24300
 Alpha virt. eigenvalues --    1.25795   1.26970   1.30570   1.34380   1.36150
 Alpha virt. eigenvalues --    1.39042   1.41851   1.43786   1.44924   1.46526
 Alpha virt. eigenvalues --    1.47886   1.50829   1.51617   1.53632   1.56787
 Alpha virt. eigenvalues --    1.57102   1.59000   1.61109   1.63038   1.66774
 Alpha virt. eigenvalues --    1.68062   1.69055   1.73435   1.73992   1.78312
 Alpha virt. eigenvalues --    1.79511   1.83828   1.88540   1.92028   1.95283
 Alpha virt. eigenvalues --    1.96589   1.97231   2.01043   2.11150   2.16801
 Alpha virt. eigenvalues --    2.18586   2.24816   2.25064   2.27379   2.29612
 Alpha virt. eigenvalues --    2.30883   2.32643   2.40490   2.43454   2.46237
 Alpha virt. eigenvalues --    2.47954   2.49211   2.53387   2.57686   2.61412
 Alpha virt. eigenvalues --    2.63515   2.66285   2.67007   2.67824   2.70124
 Alpha virt. eigenvalues --    2.72432   2.73799   2.76119   2.77698   2.80494
 Alpha virt. eigenvalues --    2.80996   2.82345   2.84737   2.87024   2.88990
 Alpha virt. eigenvalues --    2.91054   2.92311   2.93938   2.96449   2.97293
 Alpha virt. eigenvalues --    2.99039   3.00381   3.02817   3.05875   3.06321
 Alpha virt. eigenvalues --    3.08801   3.10508   3.12032   3.14358   3.15742
 Alpha virt. eigenvalues --    3.16745   3.17578   3.23668   3.26361   3.26904
 Alpha virt. eigenvalues --    3.29883   3.34323   3.36975   3.37803   3.40738
 Alpha virt. eigenvalues --    3.42260   3.46918   3.48571   3.51872   3.54486
 Alpha virt. eigenvalues --    3.55864   3.56441   3.57608   3.60227   3.66436
 Alpha virt. eigenvalues --    3.68676   3.72394   3.77799   3.80546   3.81482
 Alpha virt. eigenvalues --    3.87545   3.92081   3.95379   3.96910   4.03692
 Alpha virt. eigenvalues --    4.04615   4.09709   4.13755   4.15229   4.18729
 Alpha virt. eigenvalues --    4.19146   4.20063   4.23583   4.25455   4.28578
 Alpha virt. eigenvalues --    4.30140   4.32384   4.34618   4.35848   4.37733
 Alpha virt. eigenvalues --    4.40067   4.42085   4.43652   4.46054   4.46450
 Alpha virt. eigenvalues --    4.48589   4.52945   4.54980   4.56602   4.57951
 Alpha virt. eigenvalues --    4.61825   4.64162   4.64798   4.67917   4.71740
 Alpha virt. eigenvalues --    4.73587   4.75322   4.76386   4.77905   4.80749
 Alpha virt. eigenvalues --    4.81319   4.83067   4.85730   4.86781   4.88503
 Alpha virt. eigenvalues --    4.91202   4.99126   5.00179   5.07216   5.09305
 Alpha virt. eigenvalues --    5.12072   5.24958   5.30144   5.31717   5.32789
 Alpha virt. eigenvalues --    5.36523   5.39213   5.41765   5.43460   5.46030
 Alpha virt. eigenvalues --    5.47031   5.51365   5.54994   5.58032   5.62989
 Alpha virt. eigenvalues --    5.66683   5.72213   5.85558   5.90623   5.94864
 Alpha virt. eigenvalues --    5.98809   6.06399   6.09011   6.11638   6.37522
 Alpha virt. eigenvalues --    6.53668   6.99006   7.16005   7.25294   9.85631
 Alpha virt. eigenvalues --   10.67681  11.20196  11.68644  11.92919  12.12644
 Alpha virt. eigenvalues --   12.38906  13.24156  13.33847
          Condensed to atoms (all electrons):
               1          2          3          4          5          6
     1  C    5.092803   0.362917  -0.044998  -0.042682  -0.003899   0.000145
     2  C    0.362917   4.703703   0.401633   0.379917  -0.082862  -0.003160
     3  O   -0.044998   0.401633   7.852744  -0.056344  -0.022511  -0.000070
     4  C   -0.042682   0.379917  -0.056344   5.272339   0.532634  -0.169046
     5  C   -0.003899  -0.082862  -0.022511   0.532634   5.207052   0.375189
     6  C    0.000145  -0.003160  -0.000070  -0.169046   0.375189   5.187962
     7  C    0.000001   0.000009  -0.000001   0.005803   0.004864   0.270653
     8  C    0.000008   0.000152   0.000001   0.006621  -0.000429   0.262260
     9  O    0.000000   0.000000   0.000000  -0.000023   0.001803  -0.020425
    10  H    0.350434  -0.014684   0.002942   0.001680   0.001229  -0.000001
    11  H    0.363499  -0.018021   0.001202   0.003815   0.000024  -0.000001
    12  H    0.363524  -0.019260  -0.000938  -0.004846   0.000724  -0.000032
    13  H   -0.057636   0.366758  -0.024664  -0.038047  -0.002677  -0.000077
    14  H   -0.002719  -0.062303   0.306840   0.000997  -0.000214  -0.000045
    15  H   -0.000003  -0.000052   0.000002  -0.004740  -0.039094   0.393852
    16  H    0.000000   0.000001   0.000000   0.000148   0.003521  -0.019369
    17  H   -0.000001  -0.000004   0.000000  -0.000104  -0.007306  -0.008562
    18  H   -0.000005   0.000037  -0.000001   0.006160   0.014198  -0.072449
    19  H    0.000000   0.000000   0.000000  -0.000015  -0.000453   0.007452
               7          8          9         10         11         12
     1  C    0.000001   0.000008   0.000000   0.350434   0.363499   0.363524
     2  C    0.000009   0.000152   0.000000  -0.014684  -0.018021  -0.019260
     3  O   -0.000001   0.000001   0.000000   0.002942   0.001202  -0.000938
     4  C    0.005803   0.006621  -0.000023   0.001680   0.003815  -0.004846
     5  C    0.004864  -0.000429   0.001803   0.001229   0.000024   0.000724
     6  C    0.270653   0.262260  -0.020425  -0.000001  -0.000001  -0.000032
     7  C    5.159309   0.271165  -0.030191   0.000000   0.000000   0.000002
     8  C    0.271165   4.679679   0.394397   0.000000   0.000000  -0.000008
     9  O   -0.030191   0.394397   7.802254   0.000000   0.000000   0.000000
    10  H    0.000000   0.000000   0.000000   0.593524  -0.027672  -0.028185
    11  H    0.000000   0.000000   0.000000  -0.027672   0.585853  -0.029865
    12  H    0.000002  -0.000008   0.000000  -0.028185  -0.029865   0.595410
    13  H    0.000006  -0.000005   0.000000  -0.000310  -0.002551   0.005716
    14  H    0.000002  -0.000009   0.000000  -0.000196  -0.000343   0.003612
    15  H   -0.030903  -0.038167   0.002334   0.000000   0.000000   0.000001
    16  H    0.357472  -0.004379  -0.001565   0.000000   0.000000   0.000000
    17  H    0.362923  -0.012445   0.001685   0.000008   0.000000   0.000000
    18  H   -0.052184   0.391173  -0.038730   0.000000   0.000000   0.000024
    19  H   -0.004332  -0.061943   0.309546   0.000000   0.000000   0.000000
              13         14         15         16         17         18
     1  C   -0.057636  -0.002719  -0.000003   0.000000  -0.000001  -0.000005
     2  C    0.366758  -0.062303  -0.000052   0.000001  -0.000004   0.000037
     3  O   -0.024664   0.306840   0.000002   0.000000   0.000000  -0.000001
     4  C   -0.038047   0.000997  -0.004740   0.000148  -0.000104   0.006160
     5  C   -0.002677  -0.000214  -0.039094   0.003521  -0.007306   0.014198
     6  C   -0.000077  -0.000045   0.393852  -0.019369  -0.008562  -0.072449
     7  C    0.000006   0.000002  -0.030903   0.357472   0.362923  -0.052184
     8  C   -0.000005  -0.000009  -0.038167  -0.004379  -0.012445   0.391173
     9  O    0.000000   0.000000   0.002334  -0.001565   0.001685  -0.038730
    10  H   -0.000310  -0.000196   0.000000   0.000000   0.000008   0.000000
    11  H   -0.002551  -0.000343   0.000000   0.000000   0.000000   0.000000
    12  H    0.005716   0.003612   0.000001   0.000000   0.000000   0.000024
    13  H    0.630455   0.008026   0.000009   0.000000  -0.000001   0.000001
    14  H    0.008026   0.464982   0.000001   0.000000   0.000000   0.000005
    15  H    0.000009   0.000001   0.591548  -0.005597   0.002938   0.003143
    16  H    0.000000   0.000000  -0.005597   0.577575  -0.034568   0.003607
    17  H   -0.000001   0.000000   0.002938  -0.034568   0.574594  -0.004075
    18  H    0.000001   0.000005   0.003143   0.003607  -0.004075   0.651992
    19  H    0.000000   0.000000  -0.000131   0.001532   0.000276  -0.001861
              19
     1  C    0.000000
     2  C    0.000000
     3  O    0.000000
     4  C   -0.000015
     5  C   -0.000453
     6  C    0.007452
     7  C   -0.004332
     8  C   -0.061943
     9  O    0.309546
    10  H    0.000000
    11  H    0.000000
    12  H    0.000000
    13  H    0.000000
    14  H    0.000000
    15  H   -0.000131
    16  H    0.001532
    17  H    0.000276
    18  H   -0.001861
    19  H    0.459696
 Mulliken charges:
               1
     1  C   -0.381390
     2  C   -0.014780
     3  O   -0.415837
     4  C    0.105733
     5  C    0.018206
     6  C   -0.204276
     7  C   -0.314596
     8  C    0.111927
     9  O   -0.421083
    10  H    0.121230
    11  H    0.124061
    12  H    0.114121
    13  H    0.114995
    14  H    0.281363
    15  H    0.124859
    16  H    0.121623
    17  H    0.124644
    18  H    0.098966
    19  H    0.290233
 Sum of Mulliken charges =   0.00000
 Mulliken charges with hydrogens summed into heavy atoms:
               1
     1  C   -0.021978
     2  C    0.100216
     3  O   -0.134474
     4  C    0.105733
     5  C    0.018206
     6  C   -0.079417
     7  C   -0.068329
     8  C    0.210893
     9  O   -0.130850
 Electronic spatial extent (au):  <R**2>=           1971.5364
 Charge=              0.0000 electrons
 Dipole moment (field-independent basis, Debye):
    X=              2.0019    Y=              1.9990    Z=              1.3921  Tot=              3.1530
 Quadrupole moment (field-independent basis, Debye-Ang):
   XX=            -49.5845   YY=            -54.7171   ZZ=            -51.0210
   XY=              0.7884   XZ=             -0.1333   YZ=             -1.0850
 Traceless Quadrupole moment (field-independent basis, Debye-Ang):
   XX=              2.1897   YY=             -2.9429   ZZ=              0.7532
   XY=              0.7884   XZ=             -0.1333   YZ=             -1.0850
 Octapole moment (field-independent basis, Debye-Ang**2):
  XXX=             61.2260  YYY=             -7.1029  ZZZ=              6.4073  XYY=             -2.2261
  XXY=             26.3755  XXZ=             14.5554  XZZ=              4.9043  YZZ=             -5.3177
  YYZ=              3.2132  XYZ=              7.5244
 Hexadecapole moment (field-independent basis, Debye-Ang**3):
 XXXX=          -1880.4214 YYYY=           -253.7137 ZZZZ=           -177.4991 XXXY=            -12.0284
 XXXZ=             65.9533 YYYX=             14.5305 YYYZ=             -8.6638 ZZZX=             15.7970
 ZZZY=             -2.3406 XXYY=           -416.1879 XXZZ=           -332.5176 YYZZ=            -74.6078
 XXYZ=            -14.2960 YYXZ=            -11.6127 ZZXY=              4.1321
 N-N= 4.081969045645D+02 E-N=-1.803303613880D+03  KE= 4.200201132195D+02
 Calling FoFJK, ICntrl=      2127 FMM=F ISym2X=0 I1Cent= 0 IOpClX= 0 NMat=1 NMatS=1 NMatT=0.
 ***** Axes restored to original set *****
 -------------------------------------------------------------------
 Center     Atomic                   Forces (Hartrees/Bohr)
 Number     Number              X              Y              Z
 -------------------------------------------------------------------
      1        6          -0.000003494   -0.000000951    0.000003251
      2        6           0.000000329   -0.000005465    0.000000432
      3        8           0.000003288    0.000004215   -0.000005605
      4        6           0.000000445    0.000002229    0.000000137
      5        6           0.000002373    0.000001634   -0.000000896
      6        6           0.000002392    0.000004279    0.000001961
      7        6          -0.000002070    0.000001981   -0.000002169
      8        6           0.000000273   -0.000002125   -0.000000517
      9        8           0.000003086   -0.000001741   -0.000004242
     10        1          -0.000004467   -0.000001368    0.000006308
     11        1          -0.000003899   -0.000003378    0.000001864
     12        1          -0.000004730   -0.000005899    0.000000649
     13        1           0.000001760    0.000004225    0.000001523
     14        1           0.000001746   -0.000003471   -0.000006905
     15        1           0.000004993    0.000003864   -0.000002823
     16        1           0.000002171    0.000006496    0.000005231
     17        1          -0.000002204    0.000000908    0.000007508
     18        1          -0.000001294   -0.000003895   -0.000001978
     19        1          -0.000000697   -0.000001539   -0.000003729
 -------------------------------------------------------------------
 Cartesian Forces:  Max     0.000007508 RMS     0.000003406

 GradGradGradGradGradGradGradGradGradGradGradGradGradGradGradGradGradGrad
 Berny optimization.
 FormGI is forming the generalized inverse of G from B-inverse, IUseBI=4.
 Internal  Forces:  Max     0.000003872 RMS     0.000000768
 Search for a local minimum.
 Step number   1 out of a maximum of   98
 All quantities printed in internal units (Hartrees-Bohrs-Radians)
 Mixed Optimization -- En-DIIS/RFO-DIIS
 Second derivative matrix not updated -- first step.
 ITU=  0
     Eigenvalues ---    0.00230   0.00287   0.00921   0.01276   0.01326
     Eigenvalues ---    0.01762   0.01918   0.02443   0.02943   0.03094
     Eigenvalues ---    0.03231   0.03513   0.03985   0.04161   0.05081
     Eigenvalues ---    0.05401   0.05547   0.05672   0.07805   0.10497
     Eigenvalues ---    0.10631   0.11456   0.15900   0.16000   0.16000
     Eigenvalues ---    0.16000   0.16000   0.16001   0.17354   0.17750
     Eigenvalues ---    0.18658   0.20301   0.25915   0.27129   0.28859
     Eigenvalues ---    0.31157   0.33998   0.34264   0.34349   0.34452
     Eigenvalues ---    0.34908   0.35274   0.35496   0.35564   0.36257
     Eigenvalues ---    0.40637   0.41325   0.46508   0.54706   0.54764
     Eigenvalues ---    1.01618
 RFO step:  Lambda= 0.00000000D+00 EMin= 2.30000000D-03
 Linear search not attempted -- first point.
 Iteration  1 RMS(Cart)=  0.00007356 RMS(Int)=  0.00000000
 Iteration  2 RMS(Cart)=  0.00000000 RMS(Int)=  0.00000000
 Variable       Old X    -DE/DX   Delta X   Delta X   Delta X     New X
                                 (Linear)    (Quad)   (Total)
    R1        2.90299   0.00000   0.00000   0.00000   0.00000   2.90299
    R2        2.06745   0.00000   0.00000   0.00000   0.00000   2.06744
    R3        2.06574   0.00000   0.00000   0.00000   0.00000   2.06574
    R4        2.06886   0.00000   0.00000   0.00000   0.00000   2.06886
    R5        2.69792   0.00000   0.00000   0.00001   0.00001   2.69793
    R6        2.76982   0.00000   0.00000   0.00000   0.00000   2.76982
    R7        2.07333   0.00000   0.00000   0.00000   0.00000   2.07333
    R8        1.82094   0.00000   0.00000   0.00000   0.00000   1.82094
    R9        2.27998   0.00000   0.00000   0.00000   0.00000   2.27998
   R10        2.70696   0.00000   0.00000   0.00000   0.00000   2.70696
   R11        2.89367   0.00000   0.00000   0.00000   0.00000   2.89367
   R12        2.85601   0.00000   0.00000   0.00000   0.00000   2.85602
   R13        2.05233   0.00000   0.00000   0.00000   0.00000   2.05233
   R14        2.83365   0.00000   0.00000   0.00000   0.00000   2.83365
   R15        2.04877   0.00000   0.00000   0.00000   0.00000   2.04877
   R16        2.04769   0.00000   0.00000   0.00000   0.00000   2.04769
   R17        2.63563   0.00000   0.00000   0.00000   0.00000   2.63563
   R18        2.05824   0.00000   0.00000   0.00000   0.00000   2.05824
   R19        1.82043   0.00000   0.00000   0.00000   0.00000   1.82043
    A1        1.93594   0.00000   0.00000   0.00000   0.00000   1.93593
    A2        1.90921   0.00000   0.00000   0.00001   0.00001   1.90922
    A3        1.92716   0.00000   0.00000   0.00000   0.00000   1.92716
    A4        1.90482   0.00000   0.00000   0.00000   0.00000   1.90482
    A5        1.88798   0.00000   0.00000   0.00000   0.00000   1.88798
    A6        1.89815   0.00000   0.00000   0.00000   0.00000   1.89815
    A7        1.94351   0.00000   0.00000  -0.00001  -0.00001   1.94350
    A8        1.94580   0.00000   0.00000   0.00001   0.00001   1.94581
    A9        1.89396   0.00000   0.00000   0.00000   0.00000   1.89396
   A10        1.95190   0.00000   0.00000   0.00000   0.00000   1.95190
   A11        1.81960   0.00000   0.00000   0.00000   0.00000   1.81960
   A12        1.90363   0.00000   0.00000   0.00000   0.00000   1.90364
   A13        1.87064   0.00000   0.00000  -0.00001  -0.00001   1.87063
   A14        2.10627   0.00000   0.00000  -0.00001  -0.00001   2.10626
   A15        2.11008   0.00000   0.00000   0.00000   0.00000   2.11009
   A16        2.02523   0.00000   0.00000   0.00001   0.00001   2.02524
   A17        1.99948   0.00000   0.00000   0.00000   0.00000   1.99947
   A18        1.98152   0.00000   0.00000   0.00000   0.00000   1.98152
   A19        2.02478   0.00000   0.00000  -0.00002  -0.00002   2.02477
   A20        2.05385   0.00000   0.00000   0.00001   0.00001   2.05386
   A21        2.04630   0.00000   0.00000  -0.00001  -0.00001   2.04628
   A22        2.07286   0.00000   0.00000   0.00001   0.00001   2.07288
   A23        2.02053   0.00000   0.00000   0.00000   0.00000   2.02053
   A24        2.01124   0.00000   0.00000   0.00000   0.00000   2.01124
   A25        2.03147   0.00000   0.00000   0.00000   0.00000   2.03148
   A26        2.08880   0.00000   0.00000   0.00000   0.00000   2.08879
   A27        2.05264   0.00000   0.00000   0.00001   0.00001   2.05264
   A28        2.01744   0.00000   0.00000   0.00000   0.00000   2.01743
   A29        1.88544   0.00000   0.00000  -0.00001  -0.00001   1.88543
   A30        3.11245   0.00000   0.00000  -0.00001  -0.00001   3.11245
   A31        3.14713   0.00000   0.00000  -0.00004  -0.00004   3.14709
   A32        3.10192   0.00000   0.00000   0.00000   0.00000   3.10191
   A33        3.15730   0.00000   0.00000   0.00004   0.00004   3.15734
    D1       -3.04074   0.00000   0.00000   0.00000   0.00000  -3.04074
    D2        1.04912   0.00000   0.00000   0.00000   0.00000   1.04912
    D3       -1.04773   0.00000   0.00000  -0.00001  -0.00001  -1.04774
    D4       -0.93866   0.00000   0.00000   0.00000   0.00000  -0.93866
    D5       -3.13199   0.00000   0.00000   0.00000   0.00000  -3.13199
    D6        1.05435   0.00000   0.00000  -0.00001  -0.00001   1.05434
    D7        1.14968   0.00000   0.00000   0.00000   0.00000   1.14968
    D8       -1.04365   0.00000   0.00000   0.00001   0.00001  -1.04365
    D9       -3.14050   0.00000   0.00000   0.00000   0.00000  -3.14051
   D10       -1.33384   0.00000   0.00000   0.00001   0.00001  -1.33382
   D11        0.85610   0.00000   0.00000   0.00001   0.00001   0.85612
   D12        2.91049   0.00000   0.00000   0.00002   0.00002   2.91051
   D13       -0.58614   0.00000   0.00000   0.00010   0.00010  -0.58604
   D14        0.63748   0.00000   0.00000   0.00009   0.00009   0.63758
   D15       -3.14072   0.00000   0.00000   0.00014   0.00014  -3.14058
   D16       -2.75881   0.00000   0.00000   0.00010   0.00010  -2.75871
   D17       -1.53519   0.00000   0.00000   0.00009   0.00009  -1.53510
   D18        0.96980   0.00000   0.00000   0.00014   0.00014   0.96993
   D19        1.51713   0.00000   0.00000   0.00010   0.00010   1.51722
   D20        2.74075   0.00000   0.00000   0.00009   0.00009   2.74084
   D21       -1.03745   0.00000   0.00000   0.00013   0.00013  -1.03732
   D22       -2.48380   0.00000   0.00000   0.00000   0.00000  -2.48380
   D23        0.01791   0.00000   0.00000  -0.00001  -0.00001   0.01790
   D24        0.07028   0.00000   0.00000  -0.00001  -0.00001   0.07027
   D25        2.57199   0.00000   0.00000  -0.00002  -0.00002   2.57197
   D26        2.42664   0.00000   0.00000   0.00002   0.00002   2.42666
   D27       -0.01830   0.00000   0.00000   0.00002   0.00002  -0.01828
   D28       -0.10310   0.00000   0.00000   0.00000   0.00000  -0.10310
   D29       -2.54804   0.00000   0.00000   0.00000   0.00000  -2.54804
   D30       -0.02582   0.00000   0.00000   0.00002   0.00002  -0.02580
   D31        2.57844   0.00000   0.00000   0.00002   0.00002   2.57846
   D32       -2.59480   0.00000   0.00000   0.00001   0.00001  -2.59479
   D33        0.00946   0.00000   0.00000   0.00001   0.00001   0.00947
   D34        2.51218   0.00000   0.00000   0.00000   0.00000   2.51218
   D35        1.29427   0.00000   0.00000   0.00000   0.00000   1.29427
   D36       -1.32037   0.00000   0.00000   0.00000   0.00000  -1.32037
         Item               Value     Threshold  Converged?
 Maximum Force            0.000004     0.000450     YES
 RMS     Force            0.000001     0.000300     YES
 Maximum Displacement     0.000251     0.001800     YES
 RMS     Displacement     0.000074     0.001200     YES
 Predicted change in Energy=-3.022405D-10
 Optimization completed.
    -- Stationary point found.
                           ----------------------------
                           !   Optimized Parameters   !
                           ! (Angstroms and Degrees)  !
 --------------------------                            --------------------------
 ! Name  Definition              Value          Derivative Info.                !
 --------------------------------------------------------------------------------
 ! R1    R(1,2)                  1.5362         -DE/DX =    0.0                 !
 ! R2    R(1,10)                 1.094          -DE/DX =    0.0                 !
 ! R3    R(1,11)                 1.0931         -DE/DX =    0.0                 !
 ! R4    R(1,12)                 1.0948         -DE/DX =    0.0                 !
 ! R5    R(2,3)                  1.4277         -DE/DX =    0.0                 !
 ! R6    R(2,4)                  1.4657         -DE/DX =    0.0                 !
 ! R7    R(2,13)                 1.0972         -DE/DX =    0.0                 !
 ! R8    R(3,14)                 0.9636         -DE/DX =    0.0                 !
 ! R9    R(4,5)                  1.2065         -DE/DX =    0.0                 !
 ! R10   R(5,6)                  1.4325         -DE/DX =    0.0                 !
 ! R11   R(6,7)                  1.5313         -DE/DX =    0.0                 !
 ! R12   R(6,8)                  1.5113         -DE/DX =    0.0                 !
 ! R13   R(6,15)                 1.086          -DE/DX =    0.0                 !
 ! R14   R(7,8)                  1.4995         -DE/DX =    0.0                 !
 ! R15   R(7,16)                 1.0842         -DE/DX =    0.0                 !
 ! R16   R(7,17)                 1.0836         -DE/DX =    0.0                 !
 ! R17   R(8,9)                  1.3947         -DE/DX =    0.0                 !
 ! R18   R(8,18)                 1.0892         -DE/DX =    0.0                 !
 ! R19   R(9,19)                 0.9633         -DE/DX =    0.0                 !
 ! A1    A(2,1,10)             110.921          -DE/DX =    0.0                 !
 ! A2    A(2,1,11)             109.3898         -DE/DX =    0.0                 !
 ! A3    A(2,1,12)             110.4179         -DE/DX =    0.0                 !
 ! A4    A(10,1,11)            109.1383         -DE/DX =    0.0                 !
 ! A5    A(10,1,12)            108.1732         -DE/DX =    0.0                 !
 ! A6    A(11,1,12)            108.7562         -DE/DX =    0.0                 !
 ! A7    A(1,2,3)              111.355          -DE/DX =    0.0                 !
 ! A8    A(1,2,4)              111.4861         -DE/DX =    0.0                 !
 ! A9    A(1,2,13)             108.5162         -DE/DX =    0.0                 !
 ! A10   A(3,2,4)              111.8356         -DE/DX =    0.0                 !
 ! A11   A(3,2,13)             104.2554         -DE/DX =    0.0                 !
 ! A12   A(4,2,13)             109.0701         -DE/DX =    0.0                 !
 ! A13   A(2,3,14)             107.1797         -DE/DX =    0.0                 !
 ! A14   A(5,6,7)              120.6801         -DE/DX =    0.0                 !
 ! A15   A(5,6,8)              120.8989         -DE/DX =    0.0                 !
 ! A16   A(5,6,15)             116.0372         -DE/DX =    0.0                 !
 ! A17   A(7,6,15)             114.5617         -DE/DX =    0.0                 !
 ! A18   A(8,6,15)             113.5327         -DE/DX =    0.0                 !
 ! A19   A(6,7,16)             116.0116         -DE/DX =    0.0                 !
 ! A20   A(6,7,17)             117.6768         -DE/DX =    0.0                 !
 ! A21   A(8,7,16)             117.2442         -DE/DX =    0.0                 !
 ! A22   A(8,7,17)             118.7663         -DE/DX =    0.0                 !
 ! A23   A(16,7,17)            115.7679         -DE/DX =    0.0                 !
 ! A24   A(6,8,9)              115.2353         -DE/DX =    0.0                 !
 ! A25   A(6,8,18)             116.3948         -DE/DX =    0.0                 !
 ! A26   A(7,8,9)              119.6793         -DE/DX =    0.0                 !
 ! A27   A(7,8,18)             117.6075         -DE/DX =    0.0                 !
 ! A28   A(9,8,18)             115.5907         -DE/DX =    0.0                 !
 ! A29   A(8,9,19)             108.0275         -DE/DX =    0.0                 !
 ! A30   L(2,4,5,12,-1)        178.3305         -DE/DX =    0.0                 !
 ! A31   L(4,5,6,17,-1)        180.317          -DE/DX =    0.0                 !
 ! A32   L(2,4,5,12,-2)        177.7268         -DE/DX =    0.0                 !
 ! A33   L(4,5,6,17,-2)        180.9002         -DE/DX =    0.0                 !
 ! D1    D(10,1,2,3)          -174.2215         -DE/DX =    0.0                 !
 ! D2    D(10,1,2,4)            60.1101         -DE/DX =    0.0                 !
 ! D3    D(10,1,2,13)          -60.0306         -DE/DX =    0.0                 !
 ! D4    D(11,1,2,3)           -53.7812         -DE/DX =    0.0                 !
 ! D5    D(11,1,2,4)          -179.4497         -DE/DX =    0.0                 !
 ! D6    D(11,1,2,13)           60.4096         -DE/DX =    0.0                 !
 ! D7    D(12,1,2,3)            65.8715         -DE/DX =    0.0                 !
 ! D8    D(12,1,2,4)           -59.7969         -DE/DX =    0.0                 !
 ! D9    D(12,1,2,13)         -179.9376         -DE/DX =    0.0                 !
 ! D10   D(1,2,3,14)           -76.4232         -DE/DX =    0.0                 !
 ! D11   D(4,2,3,14)            49.0512         -DE/DX =    0.0                 !
 ! D12   D(13,2,3,14)          166.759          -DE/DX =    0.0                 !
 ! D13   D(1,2,6,7)            -33.5834         -DE/DX =    0.0                 !
 ! D14   D(1,2,6,8)             36.5251         -DE/DX =    0.0                 !
 ! D15   D(1,2,6,15)          -179.9498         -DE/DX =    0.0                 !
 ! D16   D(3,2,6,7)           -158.0684         -DE/DX =    0.0                 !
 ! D17   D(3,2,6,8)            -87.9599         -DE/DX =    0.0                 !
 ! D18   D(3,2,6,15)            55.5652         -DE/DX =    0.0                 !
 ! D19   D(13,2,6,7)            86.9249         -DE/DX =    0.0                 !
 ! D20   D(13,2,6,8)           157.0334         -DE/DX =    0.0                 !
 ! D21   D(13,2,6,15)          -59.4416         -DE/DX =    0.0                 !
 ! D22   D(5,6,7,16)          -142.3114         -DE/DX =    0.0                 !
 ! D23   D(5,6,7,17)             1.0262         -DE/DX =    0.0                 !
 ! D24   D(15,6,7,16)            4.0266         -DE/DX =    0.0                 !
 ! D25   D(15,6,7,17)          147.3642         -DE/DX =    0.0                 !
 ! D26   D(5,6,8,9)            139.0363         -DE/DX =    0.0                 !
 ! D27   D(5,6,8,18)            -1.0485         -DE/DX =    0.0                 !
 ! D28   D(15,6,8,9)            -5.9073         -DE/DX =    0.0                 !
 ! D29   D(15,6,8,18)         -145.9921         -DE/DX =    0.0                 !
 ! D30   D(16,7,8,9)            -1.4794         -DE/DX =    0.0                 !
 ! D31   D(16,7,8,18)          147.7338         -DE/DX =    0.0                 !
 ! D32   D(17,7,8,9)          -148.671          -DE/DX =    0.0                 !
 ! D33   D(17,7,8,18)            0.5422         -DE/DX =    0.0                 !
 ! D34   D(6,8,9,19)           143.9375         -DE/DX =    0.0                 !
 ! D35   D(7,8,9,19)            74.1564         -DE/DX =    0.0                 !
 ! D36   D(18,8,9,19)          -75.6516         -DE/DX =    0.0                 !
 --------------------------------------------------------------------------------
 GradGradGradGradGradGradGradGradGradGradGradGradGradGradGradGradGradGrad

                          Input orientation:                          
 ---------------------------------------------------------------------
 Center     Atomic      Atomic             Coordinates (Angstroms)
 Number     Number       Type             X           Y           Z
 ---------------------------------------------------------------------
      1          6           0       -6.018614    2.047196   -2.368851
      2          6           0       -5.813494    2.789057   -1.039391
      3          8           0       -5.493842    4.163679   -1.255046
      4          6           0       -4.813365    2.121806   -0.201020
      5          6           0       -3.953312    1.589309    0.456569
      6          6           0       -2.941694    0.962404    1.253796
      7          6           0       -2.757065   -0.557472    1.228231
      8          6           0       -1.724041    0.338024    0.612226
      9          8           0       -0.519560    0.563187    1.278378
     10          1           0       -6.362233    1.023040   -2.195749
     11          1           0       -6.761850    2.577858   -2.969647
     12          1           0       -5.079580    2.002069   -2.929877
     13          1           0       -6.770596    2.815074   -0.503629
     14          1           0       -4.571451    4.201458   -1.531255
     15          1           0       -2.736163    1.426040    2.214158
     16          1           0       -2.509431   -1.022354    2.175842
     17          1           0       -3.404413   -1.132228    0.576488
     18          1           0       -1.675068    0.378757   -0.475083
     19          1           0        0.019270   -0.231174    1.196790
 ---------------------------------------------------------------------
                    Distance matrix (angstroms):
                    1          2          3          4          5
     1  C    0.000000
     2  C    1.536196   0.000000
     3  O    2.448560   1.427679   0.000000
     4  C    2.481467   1.465724   2.396511   0.000000
     5  C    3.529607   2.671623   3.454018   1.206511   0.000000
     6  C    4.875221   4.103973   4.801656   2.638912   1.432463
     7  C    5.510081   5.067852   5.995488   3.667378   2.575876
     8  C    5.500131   5.045694   5.686276   3.658848   2.561170
     9  O    6.763443   6.192923   6.642685   4.801529   3.676813
    10  H    1.094045   2.181077   3.391554   2.754128   3.627444
    11  H    1.093142   2.160989   2.657542   3.416119   4.539171
    12  H    1.094792   2.175297   2.765724   2.744425   3.592613
    13  H    2.152712   1.097161   2.003363   2.098319   3.218939
    14  H    2.727030   1.944088   0.963600   2.480524   3.340189
    15  H    5.671357   4.681171   5.209111   3.260666   2.144115
    16  H    6.510817   5.981756   6.897292   4.565450   3.444049
    17  H    5.061403   4.877623   5.980540   3.630207   2.778926
    18  H    5.023588   4.822298   5.432956   3.600312   2.742956
    19  H    7.372978   6.938547   7.464626   5.553805   4.432098
                    6          7          8          9         10
     6  C    0.000000
     7  C    1.531263   0.000000
     8  C    1.511338   1.499505   0.000000
     9  O    2.454937   2.502963   1.394716   0.000000
    10  H    4.858304   5.217172   5.465052   6.813065   0.000000
    11  H    5.919523   6.594754   6.574663   7.814782   1.782154
    12  H    4.811921   5.406958   5.155113   6.369740   1.772749
    13  H    4.602327   5.521036   5.731372   6.879099   2.498283
    14  H    4.572099   5.792597   5.256270   6.127714   3.708206
    15  H    1.086046   2.215131   2.185029   2.556077   5.723466
    16  H    2.230759   1.084161   2.216385   2.697956   6.175639
    17  H    2.249520   1.083593   2.233062   3.418985   4.591205
    18  H    2.221263   2.224527   1.089174   2.108042   5.034412
    19  H    3.192991   2.795621   1.924795   0.963329   7.335254
                   11         12         13         14         15
    11  H    0.000000
    12  H    1.778524   0.000000
    13  H    2.477416   3.067114   0.000000
    14  H    3.082677   2.655494   2.795410   0.000000
    15  H    6.663683   5.681946   5.058896   5.009925   0.000000
    16  H    7.584237   6.466929   6.329530   6.729243   2.459168
    17  H    6.132878   4.992454   5.298965   5.852586   3.110185
    18  H    6.077356   4.500207   5.648085   4.910965   3.074856
    19  H    8.439991   6.929288   7.633697   6.940114   3.372507
                   16         17         18         19
    16  H    0.000000
    17  H    1.836028   0.000000
    18  H    3.112343   2.525769   0.000000
    19  H    2.824684   3.594201   2.457225   0.000000
 Stoichiometry    C7H10O2
 Framework group  C1[X(C7H10O2)]
 Deg. of freedom    51
 Full point group                 C1      NOp   1
 Largest Abelian subgroup         C1      NOp   1
 Largest concise Abelian subgroup C1      NOp   1
                         Standard orientation:                         
 ---------------------------------------------------------------------
 Center     Atomic      Atomic             Coordinates (Angstroms)
 Number     Number       Type             X           Y           Z
 ---------------------------------------------------------------------
      1          6           0       -2.989585    1.036561    0.775670
      2          6           0       -2.563077    0.033247   -0.306618
      3          8           0       -3.099717   -1.265086   -0.052422
      4          6           0       -1.106156   -0.000178   -0.463502
      5          6           0        0.096327   -0.052298   -0.547076
      6          6           0        1.522369   -0.117840   -0.665649
      7          6           0        2.382920    1.129264   -0.444405
      8          6           0        2.409014    0.008741    0.551717
      9          8           0        3.499803   -0.859736    0.585776
     10          1           0       -2.660963    2.048644    0.521445
     11          1           0       -4.078530    1.026641    0.870856
     12          1           0       -2.549360    0.767028    1.741136
     13          1           0       -3.019341    0.332563   -1.258456
     14          1           0       -2.575538   -1.656162    0.655265
     15          1           0        1.907502   -0.805313   -1.413010
     16          1           0        3.243438    1.234761   -1.095393
     17          1           0        1.876283    2.050015   -0.180379
     18          1           0        1.904466    0.167898    1.503768
     19          1           0        4.240486   -0.392484    0.987107
 ---------------------------------------------------------------------
 Rotational constants (GHZ):      4.0452001      0.5974261      0.5722871
 1\1\GINC-ALCHEMY-BE\FOpt\RB3LYP\6-31G(2df,p)\C7H10O2\PUCK\27-Jan-2020\
 0\\# b3lyp 6-31G(2df,p) opt Freq\\titel\\0,1\C,-6.0186137489,2.0471958
 286,-2.3688508752\C,-5.8134937728,2.7890572149,-1.0393905276\O,-5.4938
 423816,4.1636785859,-1.2550457636\C,-4.8133653433,2.1218059251,-0.2010
 200383\C,-3.9533118583,1.589308739,0.456568835\C,-2.9416944283,0.96240
 42822,1.2537961786\C,-2.7570653179,-0.5574720683,1.2282311172\C,-1.724
 04122,0.3380240908,0.6122263321\O,-0.5195595302,0.5631866648,1.2783784
 393\H,-6.3622326272,1.0230395854,-2.1957485781\H,-6.7618502495,2.57785
 79608,-2.9696467212\H,-5.0795803629,2.0020694113,-2.9298770088\H,-6.77
 05961199,2.8150737008,-0.5036287359\H,-4.5714510206,4.201458171,-1.531
 2549545\H,-2.736162788,1.4260395471,2.2141577468\H,-2.5094309826,-1.02
 23540549,2.1758421664\H,-3.4044131146,-1.1322277723,0.5764877191\H,-1.
 6750677386,0.3787566393,-0.4750831297\H,0.0192699852,-0.2311737714,1.1
 967902183\\Version=ES64L-G09RevD.01\State=1-A\HF=-423.1320877\RMSD=5.0
 82e-09\RMSF=3.406e-06\Dipole=0.5054122,-1.1054058,-0.2478651\Quadrupol
 e=0.4929018,-0.8832458,0.390344,-1.3320941,-0.2709966,-1.5633113\PG=C0
 1 [X(C7H10O2)]\\@


 I do not feel obliged to believe that the same God who
 has endowed us with sense, reason, and intellect has
 intended us to forgo their use.
                   --Galileo Galilei
 Job cpu time:       0 days  0 hours  4 minutes 49.5 seconds.
 File lengths (MBytes):  RWF=     52 Int=      0 D2E=      0 Chk=      7 Scr=      1
 Normal termination of Gaussian 09 at Mon Jan 27 14:26:59 2020.
 Link1:  Proceeding to internal job step number  2.
 ----------------------------------------------------------------------
 #N Geom=AllCheck Guess=TCheck SCRF=Check GenChk RB3LYP/6-31G(2df,p) Fr
 eq
 ----------------------------------------------------------------------
 1/10=4,29=7,30=1,38=1,40=1/1,3;
 2/12=2,40=1/2;
 3/5=1,6=6,7=104,11=2,14=-4,16=1,25=1,30=1,70=2,71=2,74=-5,116=1,140=1/1,2,3;
 4/5=101/1;
 5/5=2,98=1/2;
 8/6=4,10=90,11=11/1;
 11/6=1,8=1,9=11,15=111,16=1/1,2,10;
 10/6=1/2;
 6/7=2,8=2,9=2,10=2,18=1,28=1/1;
 7/8=1,10=1,25=1/1,2,3,16;
 1/10=4,30=1/3;
 99//99;
 Structure from the checkpoint file:  "/scratch/puck/g09_403aa5f7-cb86-4e97-bc4d-cf39ef51aee4/Gau-159427.chk"
 -----
 titel
 -----
 Charge =  0 Multiplicity = 1
 Redundant internal coordinates found in file.
 C,0,-6.0186137489,2.0471958286,-2.3688508752
 C,0,-5.8134937728,2.7890572149,-1.0393905276
 O,0,-5.4938423816,4.1636785859,-1.2550457636
 C,0,-4.8133653433,2.1218059251,-0.2010200383
 C,0,-3.9533118583,1.589308739,0.456568835
 C,0,-2.9416944283,0.9624042822,1.2537961786
 C,0,-2.7570653179,-0.5574720683,1.2282311172
 C,0,-1.72404122,0.3380240908,0.6122263321
 O,0,-0.5195595302,0.5631866648,1.2783784393
 H,0,-6.3622326272,1.0230395854,-2.1957485781
 H,0,-6.7618502495,2.5778579608,-2.9696467212
 H,0,-5.0795803629,2.0020694113,-2.9298770088
 H,0,-6.7705961199,2.8150737008,-0.5036287359
 H,0,-4.5714510206,4.201458171,-1.5312549545
 H,0,-2.736162788,1.4260395471,2.2141577468
 H,0,-2.5094309826,-1.0223540549,2.1758421664
 H,0,-3.4044131146,-1.1322277723,0.5764877191
 H,0,-1.6750677386,0.3787566393,-0.4750831297
 H,0,0.0192699852,-0.2311737714,1.1967902183
 Recover connectivity data from disk.

 GradGradGradGradGradGradGradGradGradGradGradGradGradGradGradGradGradGrad
 Berny optimization.
 Initialization pass.
                           ----------------------------
                           !    Initial Parameters    !
                           ! (Angstroms and Degrees)  !
 --------------------------                            --------------------------
 ! Name  Definition              Value          Derivative Info.                !
 --------------------------------------------------------------------------------
 ! R1    R(1,2)                  1.5362         calculate D2E/DX2 analytically  !
 ! R2    R(1,10)                 1.094          calculate D2E/DX2 analytically  !
 ! R3    R(1,11)                 1.0931         calculate D2E/DX2 analytically  !
 ! R4    R(1,12)                 1.0948         calculate D2E/DX2 analytically  !
 ! R5    R(2,3)                  1.4277         calculate D2E/DX2 analytically  !
 ! R6    R(2,4)                  1.4657         calculate D2E/DX2 analytically  !
 ! R7    R(2,13)                 1.0972         calculate D2E/DX2 analytically  !
 ! R8    R(3,14)                 0.9636         calculate D2E/DX2 analytically  !
 ! R9    R(4,5)                  1.2065         calculate D2E/DX2 analytically  !
 ! R10   R(5,6)                  1.4325         calculate D2E/DX2 analytically  !
 ! R11   R(6,7)                  1.5313         calculate D2E/DX2 analytically  !
 ! R12   R(6,8)                  1.5113         calculate D2E/DX2 analytically  !
 ! R13   R(6,15)                 1.086          calculate D2E/DX2 analytically  !
 ! R14   R(7,8)                  1.4995         calculate D2E/DX2 analytically  !
 ! R15   R(7,16)                 1.0842         calculate D2E/DX2 analytically  !
 ! R16   R(7,17)                 1.0836         calculate D2E/DX2 analytically  !
 ! R17   R(8,9)                  1.3947         calculate D2E/DX2 analytically  !
 ! R18   R(8,18)                 1.0892         calculate D2E/DX2 analytically  !
 ! R19   R(9,19)                 0.9633         calculate D2E/DX2 analytically  !
 ! A1    A(2,1,10)             110.921          calculate D2E/DX2 analytically  !
 ! A2    A(2,1,11)             109.3898         calculate D2E/DX2 analytically  !
 ! A3    A(2,1,12)             110.4179         calculate D2E/DX2 analytically  !
 ! A4    A(10,1,11)            109.1383         calculate D2E/DX2 analytically  !
 ! A5    A(10,1,12)            108.1732         calculate D2E/DX2 analytically  !
 ! A6    A(11,1,12)            108.7562         calculate D2E/DX2 analytically  !
 ! A7    A(1,2,3)              111.355          calculate D2E/DX2 analytically  !
 ! A8    A(1,2,4)              111.4861         calculate D2E/DX2 analytically  !
 ! A9    A(1,2,13)             108.5162         calculate D2E/DX2 analytically  !
 ! A10   A(3,2,4)              111.8356         calculate D2E/DX2 analytically  !
 ! A11   A(3,2,13)             104.2554         calculate D2E/DX2 analytically  !
 ! A12   A(4,2,13)             109.0701         calculate D2E/DX2 analytically  !
 ! A13   A(2,3,14)             107.1797         calculate D2E/DX2 analytically  !
 ! A14   A(5,6,7)              120.6801         calculate D2E/DX2 analytically  !
 ! A15   A(5,6,8)              120.8989         calculate D2E/DX2 analytically  !
 ! A16   A(5,6,15)             116.0372         calculate D2E/DX2 analytically  !
 ! A17   A(7,6,15)             114.5617         calculate D2E/DX2 analytically  !
 ! A18   A(8,6,15)             113.5327         calculate D2E/DX2 analytically  !
 ! A19   A(6,7,16)             116.0116         calculate D2E/DX2 analytically  !
 ! A20   A(6,7,17)             117.6768         calculate D2E/DX2 analytically  !
 ! A21   A(8,7,16)             117.2442         calculate D2E/DX2 analytically  !
 ! A22   A(8,7,17)             118.7663         calculate D2E/DX2 analytically  !
 ! A23   A(16,7,17)            115.7679         calculate D2E/DX2 analytically  !
 ! A24   A(6,8,9)              115.2353         calculate D2E/DX2 analytically  !
 ! A25   A(6,8,18)             116.3948         calculate D2E/DX2 analytically  !
 ! A26   A(7,8,9)              119.6793         calculate D2E/DX2 analytically  !
 ! A27   A(7,8,18)             117.6075         calculate D2E/DX2 analytically  !
 ! A28   A(9,8,18)             115.5907         calculate D2E/DX2 analytically  !
 ! A29   A(8,9,19)             108.0275         calculate D2E/DX2 analytically  !
 ! A30   L(2,4,5,12,-1)        178.3305         calculate D2E/DX2 analytically  !
 ! A31   L(4,5,6,17,-1)        180.317          calculate D2E/DX2 analytically  !
 ! A32   L(2,4,5,12,-2)        177.7268         calculate D2E/DX2 analytically  !
 ! A33   L(4,5,6,17,-2)        180.9002         calculate D2E/DX2 analytically  !
 ! D1    D(10,1,2,3)          -174.2215         calculate D2E/DX2 analytically  !
 ! D2    D(10,1,2,4)            60.1101         calculate D2E/DX2 analytically  !
 ! D3    D(10,1,2,13)          -60.0306         calculate D2E/DX2 analytically  !
 ! D4    D(11,1,2,3)           -53.7812         calculate D2E/DX2 analytically  !
 ! D5    D(11,1,2,4)          -179.4497         calculate D2E/DX2 analytically  !
 ! D6    D(11,1,2,13)           60.4096         calculate D2E/DX2 analytically  !
 ! D7    D(12,1,2,3)            65.8715         calculate D2E/DX2 analytically  !
 ! D8    D(12,1,2,4)           -59.7969         calculate D2E/DX2 analytically  !
 ! D9    D(12,1,2,13)         -179.9376         calculate D2E/DX2 analytically  !
 ! D10   D(1,2,3,14)           -76.4232         calculate D2E/DX2 analytically  !
 ! D11   D(4,2,3,14)            49.0512         calculate D2E/DX2 analytically  !
 ! D12   D(13,2,3,14)          166.759          calculate D2E/DX2 analytically  !
 ! D13   D(1,2,6,7)            -33.5834         calculate D2E/DX2 analytically  !
 ! D14   D(1,2,6,8)             36.5251         calculate D2E/DX2 analytically  !
 ! D15   D(1,2,6,15)          -179.9498         calculate D2E/DX2 analytically  !
 ! D16   D(3,2,6,7)           -158.0684         calculate D2E/DX2 analytically  !
 ! D17   D(3,2,6,8)            -87.9599         calculate D2E/DX2 analytically  !
 ! D18   D(3,2,6,15)            55.5652         calculate D2E/DX2 analytically  !
 ! D19   D(13,2,6,7)            86.9249         calculate D2E/DX2 analytically  !
 ! D20   D(13,2,6,8)           157.0334         calculate D2E/DX2 analytically  !
 ! D21   D(13,2,6,15)          -59.4416         calculate D2E/DX2 analytically  !
 ! D22   D(5,6,7,16)          -142.3114         calculate D2E/DX2 analytically  !
 ! D23   D(5,6,7,17)             1.0262         calculate D2E/DX2 analytically  !
 ! D24   D(15,6,7,16)            4.0266         calculate D2E/DX2 analytically  !
 ! D25   D(15,6,7,17)          147.3642         calculate D2E/DX2 analytically  !
 ! D26   D(5,6,8,9)            139.0363         calculate D2E/DX2 analytically  !
 ! D27   D(5,6,8,18)            -1.0485         calculate D2E/DX2 analytically  !
 ! D28   D(15,6,8,9)            -5.9073         calculate D2E/DX2 analytically  !
 ! D29   D(15,6,8,18)         -145.9921         calculate D2E/DX2 analytically  !
 ! D30   D(16,7,8,9)            -1.4794         calculate D2E/DX2 analytically  !
 ! D31   D(16,7,8,18)          147.7338         calculate D2E/DX2 analytically  !
 ! D32   D(17,7,8,9)          -148.671          calculate D2E/DX2 analytically  !
 ! D33   D(17,7,8,18)            0.5422         calculate D2E/DX2 analytically  !
 ! D34   D(6,8,9,19)           143.9375         calculate D2E/DX2 analytically  !
 ! D35   D(7,8,9,19)            74.1564         calculate D2E/DX2 analytically  !
 ! D36   D(18,8,9,19)          -75.6516         calculate D2E/DX2 analytically  !
 --------------------------------------------------------------------------------
 Trust Radius=3.00D-01 FncErr=1.00D-07 GrdErr=1.00D-07
 Number of steps in this run=      2 maximum allowed number of steps=      2.
 GradGradGradGradGradGradGradGradGradGradGradGradGradGradGradGradGradGrad

                          Input orientation:                          
 ---------------------------------------------------------------------
 Center     Atomic      Atomic             Coordinates (Angstroms)
 Number     Number       Type             X           Y           Z
 ---------------------------------------------------------------------
      1          6           0       -6.018614    2.047196   -2.368851
      2          6           0       -5.813494    2.789057   -1.039391
      3          8           0       -5.493842    4.163679   -1.255046
      4          6           0       -4.813365    2.121806   -0.201020
      5          6           0       -3.953312    1.589309    0.456569
      6          6           0       -2.941694    0.962404    1.253796
      7          6           0       -2.757065   -0.557472    1.228231
      8          6           0       -1.724041    0.338024    0.612226
      9          8           0       -0.519560    0.563187    1.278378
     10          1           0       -6.362233    1.023040   -2.195749
     11          1           0       -6.761850    2.577858   -2.969647
     12          1           0       -5.079580    2.002069   -2.929877
     13          1           0       -6.770596    2.815074   -0.503629
     14          1           0       -4.571451    4.201458   -1.531255
     15          1           0       -2.736163    1.426040    2.214158
     16          1           0       -2.509431   -1.022354    2.175842
     17          1           0       -3.404413   -1.132228    0.576488
     18          1           0       -1.675068    0.378757   -0.475083
     19          1           0        0.019270   -0.231174    1.196790
 ---------------------------------------------------------------------
                    Distance matrix (angstroms):
                    1          2          3          4          5
     1  C    0.000000
     2  C    1.536196   0.000000
     3  O    2.448560   1.427679   0.000000
     4  C    2.481467   1.465724   2.396511   0.000000
     5  C    3.529607   2.671623   3.454018   1.206511   0.000000
     6  C    4.875221   4.103973   4.801656   2.638912   1.432463
     7  C    5.510081   5.067852   5.995488   3.667378   2.575876
     8  C    5.500131   5.045694   5.686276   3.658848   2.561170
     9  O    6.763443   6.192923   6.642685   4.801529   3.676813
    10  H    1.094045   2.181077   3.391554   2.754128   3.627444
    11  H    1.093142   2.160989   2.657542   3.416119   4.539171
    12  H    1.094792   2.175297   2.765724   2.744425   3.592613
    13  H    2.152712   1.097161   2.003363   2.098319   3.218939
    14  H    2.727030   1.944088   0.963600   2.480524   3.340189
    15  H    5.671357   4.681171   5.209111   3.260666   2.144115
    16  H    6.510817   5.981756   6.897292   4.565450   3.444049
    17  H    5.061403   4.877623   5.980540   3.630207   2.778926
    18  H    5.023588   4.822298   5.432956   3.600312   2.742956
    19  H    7.372978   6.938547   7.464626   5.553805   4.432098
                    6          7          8          9         10
     6  C    0.000000
     7  C    1.531263   0.000000
     8  C    1.511338   1.499505   0.000000
     9  O    2.454937   2.502963   1.394716   0.000000
    10  H    4.858304   5.217172   5.465052   6.813065   0.000000
    11  H    5.919523   6.594754   6.574663   7.814782   1.782154
    12  H    4.811921   5.406958   5.155113   6.369740   1.772749
    13  H    4.602327   5.521036   5.731372   6.879099   2.498283
    14  H    4.572099   5.792597   5.256270   6.127714   3.708206
    15  H    1.086046   2.215131   2.185029   2.556077   5.723466
    16  H    2.230759   1.084161   2.216385   2.697956   6.175639
    17  H    2.249520   1.083593   2.233062   3.418985   4.591205
    18  H    2.221263   2.224527   1.089174   2.108042   5.034412
    19  H    3.192991   2.795621   1.924795   0.963329   7.335254
                   11         12         13         14         15
    11  H    0.000000
    12  H    1.778524   0.000000
    13  H    2.477416   3.067114   0.000000
    14  H    3.082677   2.655494   2.795410   0.000000
    15  H    6.663683   5.681946   5.058896   5.009925   0.000000
    16  H    7.584237   6.466929   6.329530   6.729243   2.459168
    17  H    6.132878   4.992454   5.298965   5.852586   3.110185
    18  H    6.077356   4.500207   5.648085   4.910965   3.074856
    19  H    8.439991   6.929288   7.633697   6.940114   3.372507
                   16         17         18         19
    16  H    0.000000
    17  H    1.836028   0.000000
    18  H    3.112343   2.525769   0.000000
    19  H    2.824684   3.594201   2.457225   0.000000
 Stoichiometry    C7H10O2
 Framework group  C1[X(C7H10O2)]
 Deg. of freedom    51
 Full point group                 C1      NOp   1
 Largest Abelian subgroup         C1      NOp   1
 Largest concise Abelian subgroup C1      NOp   1
                         Standard orientation:                         
 ---------------------------------------------------------------------
 Center     Atomic      Atomic             Coordinates (Angstroms)
 Number     Number       Type             X           Y           Z
 ---------------------------------------------------------------------
      1          6           0       -2.989585    1.036561    0.775670
      2          6           0       -2.563077    0.033247   -0.306618
      3          8           0       -3.099717   -1.265086   -0.052422
      4          6           0       -1.106156   -0.000178   -0.463502
      5          6           0        0.096327   -0.052298   -0.547076
      6          6           0        1.522369   -0.117840   -0.665649
      7          6           0        2.382920    1.129264   -0.444405
      8          6           0        2.409014    0.008741    0.551717
      9          8           0        3.499803   -0.859736    0.585776
     10          1           0       -2.660963    2.048644    0.521445
     11          1           0       -4.078530    1.026641    0.870856
     12          1           0       -2.549360    0.767028    1.741136
     13          1           0       -3.019341    0.332563   -1.258456
     14          1           0       -2.575538   -1.656162    0.655265
     15          1           0        1.907502   -0.805313   -1.413010
     16          1           0        3.243438    1.234761   -1.095393
     17          1           0        1.876283    2.050015   -0.180379
     18          1           0        1.904466    0.167898    1.503768
     19          1           0        4.240486   -0.392484    0.987107
 ---------------------------------------------------------------------
 Rotational constants (GHZ):      4.0452001      0.5974261      0.5722871
 Standard basis: 6-31G(2df,p) (6D, 7F)
 There are   329 symmetry adapted cartesian basis functions of A   symmetry.
 There are   302 symmetry adapted basis functions of A   symmetry.
   302 basis functions,   466 primitive gaussians,   329 cartesian basis functions
    34 alpha electrons       34 beta electrons
       nuclear repulsion energy       408.1969045645 Hartrees.
 NAtoms=   19 NActive=   19 NUniq=   19 SFac= 1.00D+00 NAtFMM=   60 NAOKFM=F Big=F
 Integral buffers will be    131072 words long.
 Raffenetti 2 integral format.
 Two-electron integral symmetry is turned on.
 One-electron integrals computed using PRISM.
 NBasis=   302 RedAO= T EigKep=  5.43D-05  NBF=   302
 NBsUse=   302 1.00D-06 EigRej= -1.00D+00 NBFU=   302
 Initial guess from the checkpoint file:  "/scratch/puck/g09_403aa5f7-cb86-4e97-bc4d-cf39ef51aee4/Gau-159427.chk"
 B after Tr=     0.000000    0.000000    0.000000
         Rot=    1.000000    0.000000    0.000000    0.000000 Ang=   0.00 deg.
 Requested convergence on RMS density matrix=1.00D-08 within 128 cycles.
 Requested convergence on MAX density matrix=1.00D-06.
[...]
 0.02738317,0.00933464,-0.02599743,-0.06966829,0.03896769,-0.12414538,-
 0.00558397,0.02035952,-0.00466099,0.50967453,-0.31589032,0.48916693,-0
 .00035208,0.00295232,0.00181698,-0.00372989,-0.00217160,-0.00041030,0.
 00251562,-0.00225927,0.00086851,-0.55382902,0.32562191,-0.40205035,0.7
 6419531,0.00065115,-0.00230309,-0.00139780,0.00256363,0.00160444,0.002
 22936,-0.00069193,0.00149087,-0.00029674,0.32219060,-0.23673633,0.2493
 4035,-0.41965003,0.35285409,-0.00038042,0.00088922,0.00122546,-0.00329
 172,0.00079505,0.00178762,0.00105877,-0.00119466,0.00119181,-0.4007416
 5,0.25126558,-0.34173699,0.52289708,-0.32165454,0.49215594,-0.00007583
 ,-0.00053780,-0.00008815,0.00478129,0.00092366,-0.00068651,-0.00080451
 ,0.00150313,-0.00066517,-0.00673639,0.00743509,-0.01023830,-0.17551852
 ,0.06990948,-0.09548064,0.41955977,0.00054127,0.00000645,0.00032710,-0
 .00007241,0.00525995,-0.00043302,0.00022182,-0.00040617,0.00002261,0.0
 1061412,-0.00069362,0.00792467,0.06609640,-0.09849984,0.04829505,-0.13
 695145,0.43353180,0.00080682,-0.00065379,0.00024182,-0.00286945,0.0022
 8187,0.00428976,0.00015794,-0.00028045,0.00004998,-0.00413449,0.001359
 43,0.00064958,-0.10338814,0.05841387,-0.14754359,0.12914889,0.09896193
 ,0.56072159,-0.00014753,0.00024412,-0.00018363,-0.00077719,-0.00035938
 ,-0.00077356,0.00026380,-0.00055484,0.00030695,0.00183513,-0.00166777,
 0.00187310,-0.00308536,0.02813513,-0.00841392,-0.02636328,-0.01293829,
 -0.01848112,0.37712675,0.00010109,-0.00002842,0.00005665,0.00031956,-0
 .00013906,0.00050285,-0.00004155,0.00037983,-0.00013742,-0.00374577,0.
 00198405,-0.00293502,0.00990388,-0.01783987,0.00756350,0.03982835,-0.1
 7828235,-0.02192932,0.14503153,0.51608772,-0.00009125,0.00011095,0.000
 02770,0.00057459,-0.00103390,0.00146424,-0.00053639,0.00063185,-0.0005
 7035,-0.00332231,0.00024002,-0.00122706,0.01117766,0.01614365,-0.00464
 183,-0.02514425,0.00662783,-0.05447296,0.16104795,-0.06863189,0.585342
 47,0.00023927,-0.00018580,0.00008088,-0.00112300,0.00120457,-0.0016043
 3,0.00040006,-0.00093487,0.00059941,0.00440889,-0.00207870,0.00404885,
 -0.02472017,0.00779176,-0.00019558,-0.13070045,0.08135591,0.05217231,-
 0.12005699,-0.10333435,0.04052156,0.56199225,0.00004418,-0.00013836,0.
 00021394,0.00118260,-0.00042412,0.00203974,-0.00068254,0.00089170,-0.0
 0070299,-0.00377477,0.00303808,-0.00430588,0.01933474,-0.01414312,0.00
 248366,0.02385221,-0.04863972,-0.03410989,-0.05667569,-0.08764589,0.05
 048213,0.03050387,0.28356326,-0.00026877,0.00004210,0.00012095,0.00101
 872,-0.00005657,0.00005730,-0.00022450,0.00040701,-0.00036802,-0.00105
 383,0.00204755,-0.00251447,-0.01894538,-0.00457702,0.01073182,0.046590
 95,-0.05083218,-0.09651123,0.03390234,0.06593877,-0.10332902,-0.024157
 53,-0.01527302,0.65084704,-0.00025519,0.00029923,0.00000401,0.00121380
 ,-0.00133992,0.00103866,-0.00036725,0.00125907,-0.00070109,-0.00132160
 ,0.00139799,-0.00159738,-0.00152010,-0.00336423,0.00394669,-0.03040059
 ,0.00111934,-0.01149401,-0.02498204,-0.01056199,-0.01356043,-0.2119797
 0,-0.04222772,-0.09203104,0.44584856,0.00002542,-0.00008485,-0.0000336
 8,-0.00034421,0.00008862,-0.00012431,0.00014250,-0.00014633,0.00014478
 ,0.00032313,-0.00065048,0.00061846,0.00467015,0.00183089,-0.00266908,0
 .02137747,0.00396048,0.01788630,-0.02683591,-0.00384947,-0.02189007,-0
 .00054609,-0.08427800,-0.01457662,-0.18489151,0.44368810,0.00002499,0.
 00007042,-0.00005750,0.00017067,-0.00033636,0.00006979,-0.00005187,0.0
 0023572,-0.00003812,-0.00011504,0.00001221,-0.00001478,0.00098180,0.00
 048034,0.00115667,0.00177384,0.00419818,0.00539056,0.00312325,-0.00105
 421,0.00461018,-0.07548007,-0.03365939,-0.11967052,0.10556439,0.078406
 31,0.13339919,-0.07271863,-0.07795201,0.01351764,-0.00339308,-0.002966
 29,0.00155680,0.00146885,-0.00095444,-0.00115599,0.00020483,0.00018873
 ,-0.00009483,-0.00004703,0.00015936,-0.00001144,-0.00011120,0.00005517
 ,0.00000424,0.00000486,-0.00004087,-0.00005625,-0.00006681,-0.00007391
 ,-0.00003953,0.00006438,0.00003887,0.00003355,0.07451537,-0.07811315,-
 0.27805393,0.04023676,-0.00405832,-0.01280501,0.00666047,-0.00136641,-
 0.00284015,-0.00417824,0.00085949,0.00037912,0.00033488,-0.00030320,0.
 00051536,-0.00019452,-0.00007543,-0.00001294,0.00005950,0.00001128,-0.
 00000252,-0.00002298,-0.00003560,-0.00005630,-0.00001744,0.00002242,0.
 00003611,0.00000241,0.08607783,0.30277167,0.01417413,0.04299128,-0.055
 51049,-0.00907438,-0.02431887,0.00841475,-0.00185573,-0.00671091,-0.00
 447848,0.00002616,0.00040446,0.00041704,-0.00001185,0.00013793,-0.0000
 9461,-0.00012933,0.00002798,-0.00001917,0.00003757,-0.00001606,-0.0000
 1780,-0.00005145,-0.00004960,-0.00001002,0.00004378,0.00001570,0.00000
 937,-0.01510715,-0.04393724,0.05651919,-0.17227593,0.08987592,-0.09800
 107,-0.00319683,0.00240376,-0.00154167,0.00035327,-0.00051266,0.001322
 83,0.00069085,0.00003691,-0.00164539,0.00046404,-0.00019913,0.00010939
 ,-0.00007761,-0.00013456,0.00008597,-0.00000827,-0.00000288,0.00002958
 ,0.00007921,-0.00001037,0.00003962,-0.00011286,0.00003184,-0.00006263,
 0.00789090,-0.00536514,0.00701771,0.18316786,0.09097531,-0.11166634,0.
 07316491,-0.01182760,0.00600809,-0.01084695,0.00049780,0.00196036,0.00
 093588,-0.00023453,-0.00148509,-0.00228542,-0.00059286,0.00074708,-0.0
 0034457,0.00003107,0.00002666,0.00016479,-0.00005318,0.00000123,-0.000
 02819,-0.00001773,0.00001127,-0.00004920,0.00000460,0.00002619,0.00001
 949,0.02114385,-0.01277705,0.01535007,-0.09905326,0.11747552,-0.097265
 47,0.07015575,-0.12420890,-0.02064112,0.01542914,-0.01821554,0.0019197
 9,0.00103147,0.00311482,-0.00099350,-0.00351383,-0.00492833,-0.0004570
 2,0.00031450,-0.00010248,0.00012743,0.00015954,0.00029988,-0.00007527,
 0.00001268,-0.00011298,0.00018509,-0.00002378,-0.00009572,-0.00022435,
 0.00003905,-0.00002572,-0.00249174,0.00156130,-0.00287635,0.10844488,-
 0.07690061,0.13655022,-0.24417937,0.00795521,0.11429119,0.00325426,-0.
 00115752,-0.00312047,0.00140560,0.00182582,-0.00060117,0.00146840,0.00
 000961,-0.00013475,0.00011410,-0.00016453,0.00016154,-0.00003732,-0.00
 000440,-0.00003004,0.00000067,0.00000957,0.00002286,-0.00003952,0.0000
 3652,0.00004982,0.00005851,-0.00001422,-0.00001243,-0.00842900,0.00127
 065,0.00398093,-0.01747216,-0.00073456,0.01135122,0.26264763,0.0082563
 8,-0.04696173,-0.00381385,0.01428283,-0.00184659,-0.00937560,0.0003193
 4,0.00176450,0.00153502,0.00013251,-0.00022729,0.00129820,-0.00023130,
 0.00009418,-0.00008875,0.00006965,-0.00004986,-0.00003976,-0.00000786,
 0.00000863,0.00001353,0.00002706,0.00003602,0.00007766,-0.00003397,-0.
 00001454,-0.00004108,-0.02642099,0.00236159,0.01551689,0.01330166,-0.0
 0082288,-0.00889720,-0.00865624,0.04685634,0.11259137,-0.00468299,-0.1
 1221012,0.02758825,0.00013953,-0.01818768,-0.00159668,0.00167173,0.002
 58288,0.00169273,-0.00069426,0.00210311,-0.00077221,0.00045072,0.00000
 485,0.00001958,0.00005079,-0.00005956,0.00000175,-0.00001444,-0.000010
 32,-0.00005093,-0.00000068,-0.00012535,0.00004256,-0.00000514,0.000077
 01,0.00359458,-0.00023430,-0.00284938,-0.01555176,-0.00011145,0.009621
 96,-0.12554809,0.00742096,0.12363283,0.00437383,0.00026992,-0.00180762
 ,-0.23748788,0.00867448,0.10774704,-0.00963294,-0.00875561,0.00553407,
 -0.02489149,0.00735065,0.00356334,0.00096296,-0.00053235,0.00053738,-0
 .00017923,0.00038245,-0.00048172,0.00011312,-0.00000147,-0.00032544,0.
 00039732,-0.00055232,-0.00003270,-0.00026566,0.00011580,-0.00008417,0.
 00018326,0.00051960,0.00057682,0.00066358,0.00001703,0.00036581,0.0013
 0887,-0.00053533,-0.00160208,0.26274222,0.01305752,-0.00002247,-0.0097
 8073,0.01952080,-0.04315256,-0.00926938,-0.03816385,-0.01339214,0.0179
 8586,0.01476517,-0.00066824,-0.00457364,-0.00010611,0.00049762,0.00025
 003,0.00021753,-0.00050721,0.00012832,-0.00019088,0.00005679,0.0003108
 5,-0.00022070,0.00056308,0.00007559,0.00026929,-0.00014900,0.00007500,
 0.00012161,0.00039432,0.00076471,-0.00058810,0.00051564,0.00055177,-0.
 00081056,-0.00087284,-0.00307335,-0.00567683,0.06341434,0.02530760,-0.
 00452637,-0.01730349,0.10462211,-0.00395809,-0.10690108,0.00646839,0.0
 0404442,-0.00019919,-0.01923549,0.00185499,0.00968053,-0.00074567,0.00
 063911,-0.00109593,0.00018198,0.00032745,-0.00037104,0.00010065,-0.000
 00672,-0.00028586,0.00020322,-0.00044317,-0.00007630,-0.00021590,0.000
 10774,-0.00003579,-0.00027110,-0.00009730,0.00106045,0.00000841,0.0010
 1099,0.00114898,-0.00109762,-0.00304242,-0.00463531,-0.11462980,0.0029
 9478,0.11915020,0.00028874,0.00104759,-0.00102208,-0.01144118,0.004008
 16,0.00370604,-0.47057822,-0.02897988,0.13922587,0.00381530,0.00076641
 ,0.00034903,-0.00085725,0.00039605,-0.00044844,0.00002274,-0.00018332,
 0.00003108,-0.00002737,0.00000847,0.00004257,0.00003368,0.00011550,-0.
 00007399,-0.00006775,-0.00005058,0.00003248,0.00041625,0.00053383,0.00
 034420,-0.00017361,-0.00011990,-0.00005405,-0.00014358,-0.00050279,-0.
 00038367,0.00184885,-0.00226433,-0.00058335,0.47696054,-0.00083521,0.0
 0043485,0.00059587,-0.04658329,-0.01066886,0.01555245,0.02257062,-0.04
 249541,-0.00272590,-0.00086444,0.00226853,-0.00038378,0.00120959,-0.00
 040292,0.00029700,-0.00013030,0.00024885,0.00026438,0.00008751,-0.0000
 1666,-0.00029346,0.00036544,-0.00035865,0.00000481,-0.00042978,0.00007
 138,-0.00013487,0.00058009,0.00006839,-0.00018923,0.00017273,-0.000068
 47,-0.00002609,0.00048688,-0.00032526,-0.00092067,-0.00166179,-0.00634
 983,0.00076909,0.02521265,0.05737780,-0.00222901,-0.00032766,0.0017241
 1,0.00814447,0.00134898,-0.00515786,0.13229866,0.01082995,-0.04172612,
 0.00171375,-0.00170174,0.00082648,-0.00063104,-0.00005719,-0.00038710,
 -0.00000879,-0.00017083,-0.00016633,-0.00005997,-0.00001620,0.00025476
 ,-0.00026052,0.00029534,0.00012886,0.00026383,-0.00006744,0.00000896,0
 .00050890,-0.00016982,-0.00060287,-0.00017623,-0.00004599,-0.00010202,
 0.00065510,-0.00054367,0.00000927,0.00074815,0.00346580,-0.00002796,-0
 .14115892,-0.01271449,0.04525969,-0.00009141,0.00026966,0.00004820,0.0
 0039340,-0.00001475,0.00080724,-0.00024466,0.00064238,-0.00040358,0.00
 015851,0.00037961,0.00011047,-0.00732199,-0.00753733,-0.02223849,-0.04
 935372,-0.01929899,-0.05292037,-0.00388981,-0.00288983,-0.00711274,0.0
 0350045,0.01413405,0.02602937,0.00255289,-0.00331356,-0.00123883,0.000
 03099,0.00002484,0.00004005,-0.00002252,-0.00001500,-0.00013592,0.0000
 2576,-0.00001304,-0.00000274,-0.00008281,0.00001551,-0.00006551,-0.000
 07293,-0.00012251,0.00011255,0.05481554,0.00003763,-0.00020767,-0.0000
 4440,0.00015409,0.00004057,-0.00061183,0.00001666,-0.00021170,0.000071
 20,0.00080522,-0.00061327,0.00020841,0.00294753,0.00745290,0.01582878,
 -0.01639215,-0.08999384,-0.10858480,-0.00252748,-0.01477441,-0.0252607
 9,-0.00143811,-0.00350820,0.00222733,0.00129913,0.00039055,0.00011169,
 -0.00000293,0.00000317,-0.00002307,0.00006663,0.00002368,0.00007455,-0
 .00003054,0.00000975,-0.00002513,0.00022577,-0.00015389,0.00017691,0.0
 0001273,0.00011157,0.00000081,0.01485973,0.10248587,-0.00001487,0.0002
 0005,0.00008694,-0.00035241,-0.00009055,0.00024721,0.00002897,0.000149
 84,-0.00000992,0.00150566,-0.00092588,0.00118058,-0.00747880,-0.001156
 16,-0.01506215,-0.04952511,-0.11213327,-0.26592132,0.00338254,0.004492
 87,0.00708637,-0.00187183,-0.00823506,-0.01553801,-0.00231033,0.002341
 59,0.00170586,0.00000897,-0.00000824,0.00001688,-0.00004794,-0.0000246
 1,-0.00005229,0.00002376,-0.00001748,0.00002083,-0.00015285,0.00014446
 ,-0.00014194,-0.00001486,-0.00010071,-0.00000740,0.05602593,0.11563762
 ,0.28484494,-0.00010023,0.00007513,-0.00001134,0.00030224,-0.00038689,
 0.00026159,-0.00013353,0.00025790,-0.00017695,-0.00044349,0.00022549,-
 0.00024996,0.00044658,0.00317663,-0.00025260,-0.00525498,0.00347864,-0
 .01304390,-0.05569983,0.02269361,-0.06681356,0.00742000,-0.01105576,0.
 02675280,0.00354855,0.00410417,-0.00179294,0.00002077,0.00000872,0.000
 01094,0.00000443,-0.00000186,-0.00006354,0.00000645,-0.00000408,-0.000
 00485,-0.00004286,0.00002626,-0.00002995,-0.00002751,-0.00007448,0.000
 07541,0.00056658,-0.00230496,0.00073256,0.05483943,0.00006329,-0.00007
 108,-0.00000467,-0.00027733,0.00038231,-0.00049656,0.00018199,-0.00024
 099,0.00021593,0.00105366,-0.00025091,0.00057007,-0.00332496,-0.002663
 66,0.00070565,0.00371226,-0.01277081,0.02232838,0.02159930,-0.09297077
 ,0.10700833,0.00311434,-0.00659589,0.00295882,-0.00036472,0.00144312,-
 0.00036796,0.00002042,0.00000745,0.00000219,-0.00000044,0.00001663,0.0
 0005785,-0.00001416,-0.00000818,0.00000589,0.00012098,-0.00010754,0.00
 010587,-0.00000950,0.00010449,-0.00009808,0.00190975,0.00218532,-0.000
 59140,-0.02547332,0.10267331,0.00002240,-0.00002019,-0.00000346,-0.000
 01802,0.00013736,-0.00013181,0.00003297,-0.00003441,0.00004146,0.00075
 852,-0.00016070,0.00047972,-0.00126893,-0.00156756,0.00031189,0.004078
 88,-0.00544150,0.00798251,-0.06545820,0.11100370,-0.27184326,-0.005979
 18,0.00386270,-0.01399433,-0.00088248,-0.00294378,0.00237144,0.0000170
 9,0.00000212,0.00000302,-0.00001053,0.00001232,0.00001585,-0.00000683,
 -0.00000991,0.00001492,0.00002370,-0.00002507,0.00002682,0.,0.00000988
 ,-0.00001985,0.00050459,0.00093509,0.00053979,0.06689568,-0.11675771,0
 .28481884,0.00004014,-0.00000731,0.00000179,-0.00007758,0.00010388,-0.
 00001898,0.00001741,-0.00005483,0.00004229,-0.00010154,-0.00008441,-0.
 00005044,0.00153450,-0.00228096,0.00110049,0.00767994,0.00763751,0.012
 60281,-0.14561796,-0.09771636,-0.11140268,-0.01010528,-0.00668060,-0.0
 1935541,-0.00514953,-0.00569969,0.00135930,-0.00000108,-0.00000164,-0.
 00001738,-0.00000370,0.00000043,0.00002263,-0.00001126,-0.00001306,0.0
 0001051,-0.00000581,0.00001783,-0.00000263,0.00000726,0.00001183,-0.00
 002016,0.00057560,0.00345925,-0.00069604,-0.00239521,-0.00245045,-0.00
 048918,0.15125717,-0.00002716,0.00000381,-0.00001782,-0.00009164,-0.00
 014054,-0.00006312,0.00005109,0.00002959,0.00003296,0.00077710,-0.0002
 3672,0.00082632,-0.00064570,0.00391962,-0.00248852,-0.01503771,-0.0140
 8720,-0.01427299,-0.09345978,-0.12249925,-0.08881194,-0.00164855,-0.00
 670543,-0.00129012,0.00160600,0.00068085,-0.00035872,0.00004301,0.0000
 2243,0.00002270,-0.00000173,0.00001935,-0.00001041,-0.00000452,-0.0000
 1402,0.00000798,0.00003571,-0.00005592,0.00003563,-0.00002977,-0.00000
 110,-0.00001422,-0.00182820,-0.00345133,0.00212177,0.00922390,0.009096
 86,0.00779855,0.10198020,0.13266555,-0.00003631,0.00003115,-0.00000693
 ,-0.00003821,-0.00011096,-0.00009598,0.00003773,-0.00003470,0.00002474
 ,0.00015894,0.00010586,-0.00002083,-0.00024001,0.00160571,0.00127383,-
 0.00271333,0.00028686,-0.00545606,-0.11261719,-0.09052337,-0.15819921,
 0.00888741,0.00696744,0.01059131,0.00282884,0.00353051,0.00071213,-0.0
 0002017,0.00000308,0.00001169,-0.00000075,-0.00001660,-0.00001811,0.00
 001287,0.00001734,-0.00001504,0.00000823,-0.00000900,-0.00000378,-0.00
 000020,0.00000519,-0.00000534,0.00007621,-0.00130773,0.00071734,-0.013
 16806,-0.01514550,-0.01083609,0.11719662,0.09610797,0.16079330,-0.0000
 6530,0.00001611,0.00001033,0.00018183,-0.00010673,0.00017053,-0.000076
 40,0.00008504,-0.00010208,-0.00077915,0.00026504,-0.00082121,0.0026846
 6,0.00016765,0.00092118,-0.00251696,-0.00097622,0.01750603,-0.00097050
 ,-0.00018989,0.01172505,-0.04932151,-0.00054414,0.02026511,-0.00942250
 ,-0.00160599,-0.03745456,-0.00001354,0.00000189,0.00000677,0.00002182,
 -0.00001212,-0.00003047,0.00002197,0.00001967,-0.00002028,-0.00000122,
 -0.00001390,0.00000087,-0.00000779,-0.00000983,0.00003864,-0.00244455,
 -0.00120222,0.00136883,-0.00205191,0.00082520,0.00112096,0.00131148,-0
 .00089150,-0.00000479,0.06236200,0.00000189,0.00004332,-0.00003258,-0.
 00001553,-0.00002567,-0.00012398,0.00001817,-0.00005805,0.00001882,0.0
 0021106,-0.00029240,0.00072931,-0.00325540,0.00177338,-0.00031014,0.00
 307608,-0.00102290,-0.02255379,-0.00032509,-0.00212621,0.02623435,-0.0
 0387480,-0.04079438,0.01474622,-0.00184482,0.00307283,-0.00692702,-0.0
 0001452,-0.00000748,0.00000953,-0.00001468,-0.00001015,-0.00001685,-0.
 00000049,0.00001281,0.00000653,0.00000702,-0.00001160,-0.00000029,0.00
 002771,-0.00000552,-0.00000008,0.00307069,0.00026698,-0.00201274,-0.00
 434738,-0.00031047,0.00270123,0.00199969,0.00060896,-0.00150518,0.0048
 7972,0.03934826,0.00002685,0.00003484,-0.00004274,-0.00001367,0.000027
 63,-0.00020582,0.00002881,-0.00005530,0.00006732,0.00039064,-0.0002511
 3,0.00067284,-0.00128256,0.00040679,0.00070331,0.00176887,0.00283944,-
 0.00713295,0.00204419,-0.00225325,-0.00521359,0.02205907,0.01249536,-0
 .31865255,-0.01210397,-0.00115086,-0.01211275,0.00001043,-0.00000005,0
 .00000469,-0.00001910,0.00000414,0.00000202,-0.00001037,-0.00001708,0.
 00003808,0.00002284,-0.00003665,0.00003901,0.00002047,-0.00000578,-0.0
 0002146,0.00044666,0.00063463,-0.00003988,0.00054959,-0.00057984,0.000
 30614,0.00002098,0.00022563,0.00072450,-0.01389686,-0.01151050,0.34130
 147,0.00001999,-0.00002148,0.00002371,0.00002251,0.00012124,-0.0000355
 6,-0.00001226,-0.00002839,0.00000945,0.00010440,0.00004295,-0.00010127
 ,-0.00193636,-0.00072097,0.00072238,-0.00391314,-0.00094302,-0.0056728
 5,0.00228181,0.00062890,0.00322347,-0.03035770,0.03307415,0.00153396,-
 0.16744192,0.19247243,0.00322826,-0.00002009,-0.00001166,-0.00001177,0
 .00000754,-0.00000747,0.00001562,0.,0.00000957,-0.00000806,-0.00000411
 ,0.00002373,-0.00001619,0.00000384,0.00001429,-0.00001481,0.00090469,0
 .00001402,-0.00061219,-0.00100550,-0.00068630,0.00065856,0.00104543,-0
 .00005075,-0.00036783,0.00108757,0.00040065,-0.00006287,0.19921329,0.0
 0000796,0.00001235,-0.00001264,0.00000343,0.00000025,-0.00005764,0.000
 00801,-0.00002679,0.00002721,-0.00007290,0.00015966,-0.00013845,-0.000
 19610,-0.00019161,0.00057127,-0.00281115,0.00193227,0.00057601,0.00048
 726,0.00165662,-0.00183027,-0.01004764,0.00518463,-0.00185369,0.237781
 58,-0.36611645,-0.04073216,-0.00000298,-0.00000424,0.00000153,-0.00000
 651,-0.00000174,0.00000116,-0.00000251,-0.00000063,0.00000830,-0.00000
 369,0.00000144,0.00000737,0.00001099,0.00000681,-0.00001348,-0.0002730
 0,-0.00005606,0.00020789,0.00037826,0.00008080,0.00049791,-0.00022132,
 0.00014448,-0.00000805,-0.00070778,-0.00046172,-0.00080802,-0.22433191
 ,0.35767994,-0.00003557,0.00002584,0.00001371,-0.00004471,-0.00006919,
 0.00001634,0.00001825,0.00000141,-0.00001597,-0.00000119,-0.00004421,0
 .00006945,-0.00005975,0.00054469,0.00012149,0.00098917,-0.00103863,-0.
 00197147,0.00024257,-0.00205312,0.00113854,-0.01910640,0.01796313,-0.0
 0159172,0.02138820,-0.05962945,-0.01755597,-0.00000397,-0.00000039,0.0
 0000210,-0.00000133,-0.00000898,-0.00001529,0.00001246,0.00000721,-0.0
 0001296,-0.00001098,0.00002066,-0.00002831,-0.00001219,-0.00000369,0.0
 0001218,-0.00008308,-0.00004928,0.00032617,0.00032909,0.00008275,-0.00
 008357,-0.00030452,0.00014834,-0.00019147,-0.00080404,0.00054716,-0.00
 043764,-0.00251201,0.04355575,0.02020438\\0.00000349,0.00000096,-0.000
 00325,-0.00000037,0.00000542,-0.00000043,-0.00000331,-0.00000419,0.000
 00561,-0.00000049,-0.00000218,-0.00000017,-0.00000233,-0.00000166,0.00
 000091,-0.00000238,-0.00000426,-0.00000189,0.00000206,-0.00000199,0.00
 000221,-0.00000026,0.00000212,0.00000048,-0.00000308,0.00000179,0.0000
 0426,0.00000447,0.00000137,-0.00000631,0.00000390,0.00000338,-0.000001
 86,0.00000474,0.00000590,-0.00000065,-0.00000174,-0.00000422,-0.000001
 53,-0.00000172,0.00000348,0.00000690,-0.00000500,-0.00000388,0.0000028
 0,-0.00000217,-0.00000650,-0.00000523,0.00000219,-0.00000092,-0.000007
 53,0.00000130,0.00000389,0.00000196,0.00000071,0.00000151,0.00000373\\
 \@


 IT IS THE GODS' CUSTOM TO BRING LOW ALL THINGS OF SURPASSING GREATNESS.
     -- HERODOTUS
 IT IS THE LOFTY PINE THAT BY THE STORM IS OFTENER TOSSED;
 TOWERS FALL WITH HEAVIER CRASH WHICH HIGHER SOAR.
     -- HORACE
 THE BIGGER THEY COME, THE HARDER THEY FALL.
     -- BOB FITZSIMONS HEAVYWEIGHT CHAMPION, 1897-1899
 Job cpu time:       0 days  0 hours 32 minutes  3.6 seconds.
 File lengths (MBytes):  RWF=    152 Int=      0 D2E=      0 Chk=      8 Scr=      1
 Normal termination of Gaussian 09 at Mon Jan 27 14:59:00 2020.
