 Entering Gaussian System, Link 0=/home/puck/opt/gaussian_09/g09
 Input=dsC7O2H10nsd_2619.com
 Output=dsC7O2H10nsd_2619.log
 Initial command:
 /home/puck/opt/gaussian_09/l1.exe "/scratch/puck/g09_71497f83-cb35-48a9-af9a-0a1d538d996c/Gau-74173.inp" -scrdir="/scratch/puck/g09_71497f83-cb35-48a9-af9a-0a1d538d996c/"
 Entering Link 1 = /home/puck/opt/gaussian_09/l1.exe PID=     74174.
  
 Copyright (c) 1988,1990,1992,1993,1995,1998,2003,2009,2013,
            Gaussian, Inc.  All Rights Reserved.
  
 This is part of the Gaussian(R) 09 program.  It is based on
 the Gaussian(R) 03 system (copyright 2003, Gaussian, Inc.),
 the Gaussian(R) 98 system (copyright 1998, Gaussian, Inc.),
 the Gaussian(R) 94 system (copyright 1995, Gaussian, Inc.),
 the Gaussian 92(TM) system (copyright 1992, Gaussian, Inc.),
 the Gaussian 90(TM) system (copyright 1990, Gaussian, Inc.),
 the Gaussian 88(TM) system (copyright 1988, Gaussian, Inc.),
 the Gaussian 86(TM) system (copyright 1986, Carnegie Mellon
 University), and the Gaussian 82(TM) system (copyright 1983,
 Carnegie Mellon University). Gaussian is a federally registered
 trademark of Gaussian, Inc.
  
 This software contains proprietary and confidential information,
 including trade secrets, belonging to Gaussian, Inc.
  
 This software is provided under written license and may be
 used, copied, transmitted, or stored only in accord with that
 written license.
  
 The following legend is applicable only to US Government
 contracts under FAR:
  
                    RESTRICTED RIGHTS LEGEND
  
 Use, reproduction and disclosure by the US Government is
 subject to restrictions as set forth in subparagraphs (a)
 and (c) of the Commercial Computer Software - Restricted
 Rights clause in FAR 52.227-19.
  
 Gaussian, Inc.
 340 Quinnipiac St., Bldg. 40, Wallingford CT 06492
  
  
 ---------------------------------------------------------------
 Warning -- This program may not be used in any manner that
 competes with the business of Gaussian, Inc. or will provide
 assistance to any competitor of Gaussian, Inc.  The licensee
 of this program is prohibited from giving any competitor of
 Gaussian, Inc. access to this program.  By using this program,
 the user acknowledges that Gaussian, Inc. is engaged in the
 business of creating and licensing software in the field of
 computational chemistry and represents and warrants to the
 licensee that it is not a competitor of Gaussian, Inc. and that
 it will not use this program in any manner prohibited above.
 ---------------------------------------------------------------
  

 Cite this work as:
 Gaussian 09, Revision D.01,
 M. J. Frisch, G. W. Trucks, H. B. Schlegel, G. E. Scuseria, 
 M. A. Robb, J. R. Cheeseman, G. Scalmani, V. Barone, B. Mennucci, 
 G. A. Petersson, H. Nakatsuji, M. Caricato, X. Li, H. P. Hratchian, 
 A. F. Izmaylov, J. Bloino, G. Zheng, J. L. Sonnenberg, M. Hada, 
 M. Ehara, K. Toyota, R. Fukuda, J. Hasegawa, M. Ishida, T. Nakajima, 
 Y. Honda, O. Kitao, H. Nakai, T. Vreven, J. A. Montgomery, Jr., 
 J. E. Peralta, F. Ogliaro, M. Bearpark, J. J. Heyd, E. Brothers, 
 K. N. Kudin, V. N. Staroverov, T. Keith, R. Kobayashi, J. Normand, 
 K. Raghavachari, A. Rendell, J. C. Burant, S. S. Iyengar, J. Tomasi, 
 M. Cossi, N. Rega, J. M. Millam, M. Klene, J. E. Knox, J. B. Cross, 
 V. Bakken, C. Adamo, J. Jaramillo, R. Gomperts, R. E. Stratmann, 
 O. Yazyev, A. J. Austin, R. Cammi, C. Pomelli, J. W. Ochterski, 
 R. L. Martin, K. Morokuma, V. G. Zakrzewski, G. A. Voth, 
 P. Salvador, J. J. Dannenberg, S. Dapprich, A. D. Daniels, 
 O. Farkas, J. B. Foresman, J. V. Ortiz, J. Cioslowski, 
 and D. J. Fox, Gaussian, Inc., Wallingford CT, 2013.
 
 ******************************************
 Gaussian 09:  ES64L-G09RevD.01 24-Apr-2013
                30-Jan-2020 
 ******************************************
 -----------------------------
 # b3lyp 6-31G(2df,p) opt Freq
 -----------------------------
 1/14=-1,18=20,19=15,26=3,38=1/1,3;
 2/9=110,12=2,17=6,18=5,40=1/2;
 3/5=1,6=6,7=104,11=2,16=1,25=1,30=1,71=1,74=-5/1,2,3;
 4//1;
 5/5=2,38=5/2;
 6/7=2,8=2,9=2,10=2,28=1/1;
 7//1,2,3,16;
 1/14=-1,18=20,19=15,26=3/3(2);
 2/9=110/2;
 99//99;
 2/9=110/2;
 3/5=1,6=6,7=104,11=2,16=1,25=1,30=1,71=1,74=-5/1,2,3;
 4/5=5,16=3,69=1/1;
 5/5=2,38=5/2;
 7//1,2,3,16;
 1/14=-1,18=20,19=15,26=3/3(-5);
 2/9=110/2;
 6/7=2,8=2,9=2,10=2,19=2,28=1/1;
 99/9=1/99;
 -----
 titel
 -----
 Symbolic Z-matrix:
 Charge =  0 Multiplicity = 1
 C                    -3.3631   -1.56824   0.49238 
 C                    -2.26757  -0.80387  -0.21 
 C                    -2.56532   0.00914  -1.44318 
 C                    -2.17213   0.72469  -0.17549 
 C                    -0.71955   1.1507   -0.01957 
 C                     0.0256   -0.15343   0.25816 
 O                     1.0738   -0.28513   0.83874 
 C                    -0.84026  -1.36214  -0.15625 
 O                    -0.67686  -2.40847   0.76935 
 H                    -3.1016   -1.75976   1.53604 
 H                    -4.30058  -1.00373   0.46576 
 H                    -3.53941  -2.53806   0.01475 
 H                    -1.85574  -0.00854  -2.26788 
 H                    -3.60203   0.07681  -1.75658 
 H                    -2.92908   1.3011    0.34436 
 H                    -0.30552   1.63811  -0.91148 
 H                    -0.55786   1.83363   0.81896 
 H                    -0.5152   -1.68737  -1.16126 
 H                     0.1989   -2.27479   1.16121 
 

 GradGradGradGradGradGradGradGradGradGradGradGradGradGradGradGradGradGrad
 Berny optimization.
 Initialization pass.
                           ----------------------------
                           !    Initial Parameters    !
                           ! (Angstroms and Degrees)  !
 --------------------------                            --------------------------
 ! Name  Definition              Value          Derivative Info.                !
 --------------------------------------------------------------------------------
 ! R1    R(1,2)                  1.5092         estimate D2E/DX2                !
 ! R2    R(1,10)                 1.0928         estimate D2E/DX2                !
 ! R3    R(1,11)                 1.0947         estimate D2E/DX2                !
 ! R4    R(1,12)                 1.0953         estimate D2E/DX2                !
 ! R5    R(2,3)                  1.5068         estimate D2E/DX2                !
 ! R6    R(2,4)                  1.5319         estimate D2E/DX2                !
 ! R7    R(2,8)                  1.5336         estimate D2E/DX2                !
 ! R8    R(3,4)                  1.5079         estimate D2E/DX2                !
 ! R9    R(3,13)                 1.0881         estimate D2E/DX2                !
 ! R10   R(3,14)                 1.0852         estimate D2E/DX2                !
 ! R11   R(4,5)                  1.5218         estimate D2E/DX2                !
 ! R12   R(4,15)                 1.0842         estimate D2E/DX2                !
 ! R13   R(5,6)                  1.5275         estimate D2E/DX2                !
 ! R14   R(5,16)                 1.0975         estimate D2E/DX2                !
 ! R15   R(5,17)                 1.0935         estimate D2E/DX2                !
 ! R16   R(6,7)                  1.2055         estimate D2E/DX2                !
 ! R17   R(6,8)                  1.5435         estimate D2E/DX2                !
 ! R18   R(8,9)                  1.4065         estimate D2E/DX2                !
 ! R19   R(8,18)                 1.1052         estimate D2E/DX2                !
 ! R20   R(9,19)                 0.9687         estimate D2E/DX2                !
 ! A1    A(2,1,10)             111.0703         estimate D2E/DX2                !
 ! A2    A(2,1,11)             110.4363         estimate D2E/DX2                !
 ! A3    A(2,1,12)             111.2441         estimate D2E/DX2                !
 ! A4    A(10,1,11)            108.5737         estimate D2E/DX2                !
 ! A5    A(10,1,12)            107.4444         estimate D2E/DX2                !
 ! A6    A(11,1,12)            107.9474         estimate D2E/DX2                !
 ! A7    A(1,2,3)              120.7117         estimate D2E/DX2                !
 ! A8    A(1,2,4)              122.6898         estimate D2E/DX2                !
 ! A9    A(1,2,8)              118.3535         estimate D2E/DX2                !
 ! A10   A(3,2,8)              114.1437         estimate D2E/DX2                !
 ! A11   A(4,2,8)              107.7261         estimate D2E/DX2                !
 ! A12   A(2,3,13)             118.8607         estimate D2E/DX2                !
 ! A13   A(2,3,14)             117.3094         estimate D2E/DX2                !
 ! A14   A(4,3,13)             118.351          estimate D2E/DX2                !
 ! A15   A(4,3,14)             117.5369         estimate D2E/DX2                !
 ! A16   A(13,3,14)            113.8998         estimate D2E/DX2                !
 ! A17   A(2,4,5)              109.9441         estimate D2E/DX2                !
 ! A18   A(2,4,15)             119.8538         estimate D2E/DX2                !
 ! A19   A(3,4,5)              117.8971         estimate D2E/DX2                !
 ! A20   A(3,4,15)             118.2524         estimate D2E/DX2                !
 ! A21   A(5,4,15)             117.9349         estimate D2E/DX2                !
 ! A22   A(4,5,6)              104.1979         estimate D2E/DX2                !
 ! A23   A(4,5,16)             113.6508         estimate D2E/DX2                !
 ! A24   A(4,5,17)             113.2386         estimate D2E/DX2                !
 ! A25   A(6,5,16)             110.0543         estimate D2E/DX2                !
 ! A26   A(6,5,17)             108.7638         estimate D2E/DX2                !
 ! A27   A(16,5,17)            106.8606         estimate D2E/DX2                !
 ! A28   A(5,6,7)              127.2318         estimate D2E/DX2                !
 ! A29   A(5,6,8)              110.2501         estimate D2E/DX2                !
 ! A30   A(7,6,8)              122.1095         estimate D2E/DX2                !
 ! A31   A(2,8,6)              104.2668         estimate D2E/DX2                !
 ! A32   A(2,8,9)              113.7037         estimate D2E/DX2                !
 ! A33   A(2,8,18)             110.4259         estimate D2E/DX2                !
 ! A34   A(6,8,9)              109.92           estimate D2E/DX2                !
 ! A35   A(6,8,18)             108.0351         estimate D2E/DX2                !
 ! A36   A(9,8,18)             110.2026         estimate D2E/DX2                !
 ! A37   A(8,9,19)             105.5792         estimate D2E/DX2                !
 ! D1    D(10,1,2,3)          -157.2467         estimate D2E/DX2                !
 ! D2    D(10,1,2,4)           -85.931          estimate D2E/DX2                !
 ! D3    D(10,1,2,8)            53.3044         estimate D2E/DX2                !
 ! D4    D(11,1,2,3)           -36.7272         estimate D2E/DX2                !
 ! D5    D(11,1,2,4)            34.5886         estimate D2E/DX2                !
 ! D6    D(11,1,2,8)           173.8239         estimate D2E/DX2                !
 ! D7    D(12,1,2,3)            83.119          estimate D2E/DX2                !
 ! D8    D(12,1,2,4)           154.4348         estimate D2E/DX2                !
 ! D9    D(12,1,2,8)           -66.3298         estimate D2E/DX2                !
 ! D10   D(1,2,3,13)          -139.3601         estimate D2E/DX2                !
 ! D11   D(1,2,3,14)             4.2694         estimate D2E/DX2                !
 ! D12   D(8,2,3,13)            11.2855         estimate D2E/DX2                !
 ! D13   D(8,2,3,14)           154.915          estimate D2E/DX2                !
 ! D14   D(1,2,4,5)            139.6306         estimate D2E/DX2                !
 ! D15   D(1,2,4,15)            -1.8939         estimate D2E/DX2                !
 ! D16   D(8,2,4,5)             -3.2655         estimate D2E/DX2                !
 ! D17   D(8,2,4,15)          -144.79           estimate D2E/DX2                !
 ! D18   D(1,2,8,6)           -131.2023         estimate D2E/DX2                !
 ! D19   D(1,2,8,9)            -11.4942         estimate D2E/DX2                !
 ! D20   D(1,2,8,18)           112.9754         estimate D2E/DX2                !
 ! D21   D(3,2,8,6)             77.4119         estimate D2E/DX2                !
 ! D22   D(3,2,8,9)           -162.88           estimate D2E/DX2                !
 ! D23   D(3,2,8,18)           -38.4104         estimate D2E/DX2                !
 ! D24   D(4,2,8,6)             13.5635         estimate D2E/DX2                !
 ! D25   D(4,2,8,9)            133.2715         estimate D2E/DX2                !
 ! D26   D(4,2,8,18)          -102.2588         estimate D2E/DX2                !
 ! D27   D(13,3,4,5)           -11.3914         estimate D2E/DX2                !
 ! D28   D(13,3,4,15)          141.0134         estimate D2E/DX2                !
 ! D29   D(14,3,4,5)          -154.57           estimate D2E/DX2                !
 ! D30   D(14,3,4,15)           -2.1652         estimate D2E/DX2                !
 ! D31   D(2,4,5,6)             -8.5903         estimate D2E/DX2                !
 ! D32   D(2,4,5,16)           111.2079         estimate D2E/DX2                !
 ! D33   D(2,4,5,17)          -126.6075         estimate D2E/DX2                !
 ! D34   D(3,4,5,6)            -73.7433         estimate D2E/DX2                !
 ! D35   D(3,4,5,16)            46.055          estimate D2E/DX2                !
 ! D36   D(3,4,5,17)           168.2395         estimate D2E/DX2                !
 ! D37   D(15,4,5,6)           133.7635         estimate D2E/DX2                !
 ! D38   D(15,4,5,16)         -106.4382         estimate D2E/DX2                !
 ! D39   D(15,4,5,17)           15.7463         estimate D2E/DX2                !
 ! D40   D(4,5,6,7)           -155.1434         estimate D2E/DX2                !
 ! D41   D(4,5,6,8)             17.574          estimate D2E/DX2                !
 ! D42   D(16,5,6,7)            82.6573         estimate D2E/DX2                !
 ! D43   D(16,5,6,8)          -104.6253         estimate D2E/DX2                !
 ! D44   D(17,5,6,7)           -34.0934         estimate D2E/DX2                !
 ! D45   D(17,5,6,8)           138.624          estimate D2E/DX2                !
 ! D46   D(5,6,8,2)            -19.6091         estimate D2E/DX2                !
 ! D47   D(5,6,8,9)           -141.8409         estimate D2E/DX2                !
 ! D48   D(5,6,8,18)            97.8749         estimate D2E/DX2                !
 ! D49   D(7,6,8,2)            153.5476         estimate D2E/DX2                !
 ! D50   D(7,6,8,9)             31.3158         estimate D2E/DX2                !
 ! D51   D(7,6,8,18)           -88.9684         estimate D2E/DX2                !
 ! D52   D(2,8,9,19)          -142.2515         estimate D2E/DX2                !
 ! D53   D(6,8,9,19)           -25.8041         estimate D2E/DX2                !
 ! D54   D(18,8,9,19)           93.1587         estimate D2E/DX2                !
 --------------------------------------------------------------------------------
 Trust Radius=3.00D-01 FncErr=1.00D-07 GrdErr=1.00D-06
 Number of steps in this run=    114 maximum allowed number of steps=    114.
 GradGradGradGradGradGradGradGradGradGradGradGradGradGradGradGradGradGrad

                          Input orientation:                          
 ---------------------------------------------------------------------
 Center     Atomic      Atomic             Coordinates (Angstroms)
 Number     Number       Type             X           Y           Z
 ---------------------------------------------------------------------
      1          6           0       -3.363097   -1.568242    0.492377
      2          6           0       -2.267570   -0.803866   -0.210003
      3          6           0       -2.565317    0.009137   -1.443184
      4          6           0       -2.172133    0.724691   -0.175491
      5          6           0       -0.719553    1.150701   -0.019572
      6          6           0        0.025596   -0.153430    0.258162
      7          8           0        1.073796   -0.285126    0.838742
      8          6           0       -0.840257   -1.362140   -0.156251
      9          8           0       -0.676865   -2.408471    0.769347
     10          1           0       -3.101596   -1.759763    1.536043
     11          1           0       -4.300584   -1.003730    0.465764
     12          1           0       -3.539414   -2.538060    0.014754
     13          1           0       -1.855740   -0.008536   -2.267883
     14          1           0       -3.602033    0.076812   -1.756580
     15          1           0       -2.929083    1.301100    0.344364
     16          1           0       -0.305522    1.638115   -0.911479
     17          1           0       -0.557860    1.833634    0.818958
     18          1           0       -0.515196   -1.687371   -1.161260
     19          1           0        0.198898   -2.274787    1.161209
 ---------------------------------------------------------------------
                    Distance matrix (angstroms):
                    1          2          3          4          5
     1  C    0.000000
     2  C    1.509234   0.000000
     3  C    2.621254   1.506772   0.000000
     4  C    2.668704   1.531922   1.507865   0.000000
     5  C    3.826626   2.500590   2.595512   1.521770   0.000000
     6  C    3.679645   2.429168   3.103842   2.406069   1.527463
     7  O    4.631670   3.540294   4.305452   3.547458   2.452429
     8  C    2.613028   1.533552   2.551946   2.475708   2.519448
     9  O    2.828169   2.462566   3.782377   3.597952   3.645809
    10  H    1.092841   2.158244   3.506051   3.156859   4.069996
    11  H    1.094653   2.151687   2.771487   2.815839   4.207245
    12  H    1.095335   2.162298   3.092356   3.542767   4.643248
    13  H    3.510533   2.244331   1.088090   2.239605   2.773022
    14  H    2.796622   2.224474   1.085163   2.228049   3.532581
    15  H    2.905752   2.275039   2.235357   1.084190   2.244346
    16  H    4.647612   3.210136   2.836010   2.204600   1.097494
    17  H    4.421399   3.307306   3.532132   2.196489   1.093469
    18  H    3.295337   2.180891   2.675933   3.087916   3.065921
    19  H    3.692472   3.182341   4.431711   4.050361   3.737883
                    6          7          8          9         10
     6  C    0.000000
     7  O    1.205462   0.000000
     8  C    1.543508   2.411134   0.000000
     9  O    2.416603   2.752857   1.406499   0.000000
    10  H    3.740671   4.482709   2.852301   2.624494   0.000000
    11  H    4.413836   5.435022   3.534010   3.898308   1.776134
    12  H    4.295929   5.199651   2.949149   2.963173   1.764015
    13  H    3.152986   4.278995   2.706000   4.046505   4.369073
    14  H    4.155947   5.360044   3.501292   4.594948   3.803262
    15  H    3.294422   4.334000   3.421499   4.360506   3.289185
    16  H    2.165025   2.943578   3.139719   4.397492   5.035273
    17  H    2.145540   2.674292   3.353170   4.244065   4.460640
    18  H    2.158747   2.913965   1.105207   2.067212   3.737666
    19  H    2.312073   2.197312   1.910097   0.968704   3.361400
                   11         12         13         14         15
    11  H    0.000000
    12  H    1.771146   0.000000
    13  H    3.800066   3.800484   0.000000
    14  H    2.567948   3.158971   1.821608   0.000000
    15  H    2.684771   3.901319   3.113044   2.523035   0.000000
    16  H    4.983640   5.362500   2.637132   3.744176   2.928104
    17  H    4.709922   5.352394   3.821867   4.357386   2.476193
    18  H    4.176570   3.354486   2.416642   3.604902   4.126101
    19  H    4.727004   3.919011   4.595226   5.337658   4.820629
                   16         17         18         19
    16  H    0.000000
    17  H    1.759636   0.000000
    18  H    3.341438   4.039872   0.000000
    19  H    4.456600   4.191533   2.499770   0.000000
 Stoichiometry    C7H10O2
 Framework group  C1[X(C7H10O2)]
 Deg. of freedom    51
 Full point group                 C1      NOp   1
 Largest Abelian subgroup         C1      NOp   1
 Largest concise Abelian subgroup C1      NOp   1
                         Standard orientation:                         
 ---------------------------------------------------------------------
 Center     Atomic      Atomic             Coordinates (Angstroms)
 Number     Number       Type             X           Y           Z
 ---------------------------------------------------------------------
      1          6           0       -1.941359    1.140626   -0.614793
      2          6           0       -1.011965    0.164928    0.064933
      3          6           0       -1.558533   -1.002532    0.845101
      4          6           0       -0.807605   -1.268586   -0.435126
      5          6           0        0.662119   -1.649583   -0.332487
      6          6           0        1.363378   -0.342551    0.032268
      7          8           0        2.513557   -0.048798   -0.177343
      8          6           0        0.340689    0.679928    0.571770
      9          8           0        0.663439    1.969119    0.111271
     10          1           0       -1.435991    1.659760   -1.432964
     11          1           0       -2.814197    0.618487   -1.019501
     12          1           0       -2.298878    1.902435    0.086340
     13          1           0       -1.085560   -1.272269    1.787161
     14          1           0       -2.633848   -1.148079    0.835512
     15          1           0       -1.366164   -1.625704   -1.292999
     16          1           0        0.867082   -2.412092    0.429789
     17          1           0        1.078126   -2.021396   -1.272895
     18          1           0        0.375969    0.649119    1.675984
     19          1           0        1.617143    1.953787   -0.057850
 ---------------------------------------------------------------------
 Rotational constants (GHZ):      2.4028605      1.7069118      1.1567091
 Standard basis: 6-31G(2df,p) (6D, 7F)
 There are   329 symmetry adapted cartesian basis functions of A   symmetry.
 There are   302 symmetry adapted basis functions of A   symmetry.
   302 basis functions,   466 primitive gaussians,   329 cartesian basis functions
    34 alpha electrons       34 beta electrons
       nuclear repulsion energy       467.2152128927 Hartrees.
 NAtoms=   19 NActive=   19 NUniq=   19 SFac= 1.00D+00 NAtFMM=   60 NAOKFM=F Big=F
 Integral buffers will be    131072 words long.
 Raffenetti 2 integral format.
 Two-electron integral symmetry is turned on.
 One-electron integrals computed using PRISM.
 NBasis=   302 RedAO= T EigKep=  4.42D-04  NBF=   302
 NBsUse=   302 1.00D-06 EigRej= -1.00D+00 NBFU=   302
 ExpMin= 1.61D-01 ExpMax= 5.48D+03 ExpMxC= 8.25D+02 IAcc=1 IRadAn=         1 AccDes= 0.00D+00
 Harris functional with IExCor=  402 and IRadAn=       1 diagonalized for initial guess.
 HarFok:  IExCor=  402 AccDes= 0.00D+00 IRadAn=         1 IDoV= 1 UseB2=F ITyADJ=14
 ICtDFT=  3500011 ScaDFX=  1.000000  1.000000  1.000000  1.000000
 FoFCou: FMM=F IPFlag=           0 FMFlag=      100000 FMFlg1=           0
         NFxFlg=           0 DoJE=T BraDBF=F KetDBF=T FulRan=T
         wScrn=  0.000000 ICntrl=     500 IOpCl=  0 I1Cent=   200000004 NGrid=           0
         NMat0=    1 NMatS0=      1 NMatT0=    0 NMatD0=    1 NMtDS0=    0 NMtDT0=    0
 Petite list used in FoFCou.
 Requested convergence on RMS density matrix=1.00D-08 within 128 cycles.
 Requested convergence on MAX density matrix=1.00D-06.
 Requested convergence on             energy=1.00D-06.
 No special actions if energy rises.
 Integral accuracy reduced to 1.0D-05 until final iterations.
 Initial convergence to 1.0D-05 achieved.  Increase integral accuracy.
 SCF Done:  E(RB3LYP) =  -423.203807887     A.U. after   14 cycles
            NFock= 14  Conv=0.36D-08     -V/T= 2.0075

 **********************************************************************

            Population analysis using the SCF density.

 **********************************************************************

 Orbital symmetries:
       Occupied  (A) (A) (A) (A) (A) (A) (A) (A) (A) (A) (A) (A)
                 (A) (A) (A) (A) (A) (A) (A) (A) (A) (A) (A) (A)
                 (A) (A) (A) (A) (A) (A) (A) (A) (A) (A)
       Virtual   (A) (A) (A) (A) (A) (A) (A) (A) (A) (A) (A) (A)
                 (A) (A) (A) (A) (A) (A) (A) (A) (A) (A) (A) (A)
                 (A) (A) (A) (A) (A) (A) (A) (A) (A) (A) (A) (A)
                 (A) (A) (A) (A) (A) (A) (A) (A) (A) (A) (A) (A)
                 (A) (A) (A) (A) (A) (A) (A) (A) (A) (A) (A) (A)
                 (A) (A) (A) (A) (A) (A) (A) (A) (A) (A) (A) (A)
                 (A) (A) (A) (A) (A) (A) (A) (A) (A) (A) (A) (A)
                 (A) (A) (A) (A) (A) (A) (A) (A) (A) (A) (A) (A)
                 (A) (A) (A) (A) (A) (A) (A) (A) (A) (A) (A) (A)
                 (A) (A) (A) (A) (A) (A) (A) (A) (A) (A) (A) (A)
                 (A) (A) (A) (A) (A) (A) (A) (A) (A) (A) (A) (A)
                 (A) (A) (A) (A) (A) (A) (A) (A) (A) (A) (A) (A)
                 (A) (A) (A) (A) (A) (A) (A) (A) (A) (A) (A) (A)
                 (A) (A) (A) (A) (A) (A) (A) (A) (A) (A) (A) (A)
                 (A) (A) (A) (A) (A) (A) (A) (A) (A) (A) (A) (A)
                 (A) (A) (A) (A) (A) (A) (A) (A) (A) (A) (A) (A)
                 (A) (A) (A) (A) (A) (A) (A) (A) (A) (A) (A) (A)
                 (A) (A) (A) (A) (A) (A) (A) (A) (A) (A) (A) (A)
                 (A) (A) (A) (A) (A) (A) (A) (A) (A) (A) (A) (A)
                 (A) (A) (A) (A) (A) (A) (A) (A) (A) (A) (A) (A)
                 (A) (A) (A) (A) (A) (A) (A) (A) (A) (A) (A) (A)
                 (A) (A) (A) (A) (A) (A) (A) (A) (A) (A) (A) (A)
                 (A) (A) (A) (A)
 The electronic state is 1-A.
 Alpha  occ. eigenvalues --  -19.14905 -19.13838 -10.27675 -10.23882 -10.20365
 Alpha  occ. eigenvalues --  -10.20139 -10.20034 -10.19200 -10.17729  -1.06307
 Alpha  occ. eigenvalues --   -1.01878  -0.88993  -0.75977  -0.72294  -0.69302
 Alpha  occ. eigenvalues --   -0.59631  -0.56248  -0.54856  -0.50561  -0.48516
 Alpha  occ. eigenvalues --   -0.47085  -0.45018  -0.44043  -0.43166  -0.40588
 Alpha  occ. eigenvalues --   -0.39230  -0.37338  -0.37059  -0.36776  -0.34245
 Alpha  occ. eigenvalues --   -0.29794  -0.28700  -0.26631  -0.25025
 Alpha virt. eigenvalues --   -0.02910   0.08877   0.09764   0.10205   0.11001
 Alpha virt. eigenvalues --    0.12913   0.14486   0.15160   0.16139   0.16960
 Alpha virt. eigenvalues --    0.17722   0.18921   0.19990   0.21155   0.23376
 Alpha virt. eigenvalues --    0.24324   0.27436   0.29472   0.30395   0.33258
 Alpha virt. eigenvalues --    0.35937   0.43742   0.44194   0.45461   0.47271
 Alpha virt. eigenvalues --    0.47480   0.49411   0.51203   0.51563   0.53662
 Alpha virt. eigenvalues --    0.54613   0.56665   0.57999   0.58933   0.60444
 Alpha virt. eigenvalues --    0.61326   0.62709   0.64685   0.65173   0.68422
 Alpha virt. eigenvalues --    0.69933   0.72055   0.72852   0.73589   0.74280
 Alpha virt. eigenvalues --    0.75047   0.75515   0.76737   0.77529   0.80010
 Alpha virt. eigenvalues --    0.80846   0.83362   0.83558   0.84717   0.88885
 Alpha virt. eigenvalues --    0.92113   0.92362   0.93955   0.96776   0.97658
 Alpha virt. eigenvalues --    1.00208   1.02266   1.04212   1.06335   1.07379
 Alpha virt. eigenvalues --    1.10279   1.12331   1.15056   1.16830   1.20892
 Alpha virt. eigenvalues --    1.23943   1.25703   1.27430   1.30219   1.30806
 Alpha virt. eigenvalues --    1.33998   1.35225   1.36235   1.36671   1.41016
 Alpha virt. eigenvalues --    1.41334   1.43931   1.46204   1.48866   1.50411
 Alpha virt. eigenvalues --    1.51536   1.52817   1.55424   1.56321   1.57423
 Alpha virt. eigenvalues --    1.58088   1.59697   1.63331   1.65546   1.67433
 Alpha virt. eigenvalues --    1.71388   1.72624   1.74969   1.78778   1.80032
 Alpha virt. eigenvalues --    1.82219   1.86283   1.87693   1.91641   1.92493
 Alpha virt. eigenvalues --    1.96646   1.98570   2.01447   2.02690   2.08234
 Alpha virt. eigenvalues --    2.10202   2.12552   2.20375   2.25845   2.27848
 Alpha virt. eigenvalues --    2.28624   2.35309   2.36407   2.40177   2.41607
 Alpha virt. eigenvalues --    2.46264   2.47853   2.50204   2.54000   2.55298
 Alpha virt. eigenvalues --    2.57725   2.64079   2.66439   2.69789   2.71015
 Alpha virt. eigenvalues --    2.75578   2.79814   2.80546   2.82856   2.83620
 Alpha virt. eigenvalues --    2.84491   2.86197   2.89593   2.93226   2.94751
 Alpha virt. eigenvalues --    2.95513   2.97166   2.98939   3.01900   3.02452
 Alpha virt. eigenvalues --    3.04030   3.06298   3.09292   3.12766   3.14907
 Alpha virt. eigenvalues --    3.16821   3.17622   3.18749   3.21766   3.22567
 Alpha virt. eigenvalues --    3.24677   3.29159   3.29573   3.32851   3.34480
 Alpha virt. eigenvalues --    3.39083   3.40970   3.44463   3.48065   3.48650
 Alpha virt. eigenvalues --    3.54534   3.56789   3.57837   3.60715   3.63191
 Alpha virt. eigenvalues --    3.66367   3.71048   3.75024   3.75870   3.81864
 Alpha virt. eigenvalues --    3.83455   3.87150   3.88532   3.92669   3.94964
 Alpha virt. eigenvalues --    3.97936   4.00894   4.02640   4.05450   4.05770
 Alpha virt. eigenvalues --    4.11967   4.17158   4.20201   4.21962   4.23767
 Alpha virt. eigenvalues --    4.25317   4.28386   4.31539   4.35998   4.38303
 Alpha virt. eigenvalues --    4.40145   4.43338   4.44546   4.47156   4.49051
 Alpha virt. eigenvalues --    4.51804   4.54279   4.57065   4.58051   4.59148
 Alpha virt. eigenvalues --    4.62023   4.63549   4.66478   4.67216   4.68669
 Alpha virt. eigenvalues --    4.70600   4.72692   4.73308   4.75705   4.77703
 Alpha virt. eigenvalues --    4.79543   4.81848   4.82459   4.83344   4.85733
 Alpha virt. eigenvalues --    4.86532   4.87085   4.88885   4.93558   4.94231
 Alpha virt. eigenvalues --    5.00678   5.05021   5.05116   5.08256   5.09453
 Alpha virt. eigenvalues --    5.10868   5.12732   5.19685   5.27253   5.32504
 Alpha virt. eigenvalues --    5.37046   5.43876   5.46244   5.46856   5.48760
 Alpha virt. eigenvalues --    5.51099   5.53470   5.55225   5.60081   5.65537
 Alpha virt. eigenvalues --    5.67927   5.70193   5.79324   5.84998   5.92732
 Alpha virt. eigenvalues --    6.01832   6.06459   6.15797   6.25185   6.37119
 Alpha virt. eigenvalues --    6.62179   6.74093   6.87798   7.22489  10.61390
 Alpha virt. eigenvalues --   11.16094  11.58040  11.93120  12.31768  12.39993
 Alpha virt. eigenvalues --   12.71178  13.12764  13.39922
          Condensed to atoms (all electrons):
               1          2          3          4          5          6
     1  C    5.117629   0.413308  -0.044255  -0.045565   0.004684   0.002428
     2  C    0.413308   4.550512   0.297893   0.343600  -0.025323  -0.015753
     3  C   -0.044255   0.297893   5.100427   0.298973   0.000294  -0.002205
     4  C   -0.045565   0.343600   0.298973   4.883424   0.357149  -0.048391
     5  C    0.004684  -0.025323   0.000294   0.357149   5.241598   0.322848
     6  C    0.002428  -0.015753  -0.002205  -0.048391   0.322848   4.353637
     7  O   -0.000025   0.001659  -0.000035   0.001260  -0.060299   0.774854
     8  C   -0.050881   0.339941  -0.008036  -0.013934  -0.141672   0.320969
     9  O   -0.004148  -0.043197   0.002156   0.000603   0.003645  -0.018189
    10  H    0.361392  -0.016158   0.005794  -0.002224   0.000036   0.000508
    11  H    0.357930  -0.013138  -0.004978  -0.005501   0.000084   0.000008
    12  H    0.363067  -0.017100  -0.003807   0.004968  -0.000163  -0.000027
    13  H    0.003354  -0.024516   0.368361  -0.019968  -0.007059  -0.001682
    14  H   -0.008396  -0.011192   0.366595  -0.015716   0.001383   0.000110
    15  H   -0.006198  -0.028897  -0.033414   0.382424  -0.043844   0.003023
    16  H   -0.000128  -0.000092  -0.010482  -0.017334   0.340408  -0.014866
    17  H    0.000092   0.002237   0.003208  -0.024422   0.348892  -0.009935
    18  H    0.003960  -0.070429  -0.009152   0.005407   0.008976  -0.040202
    19  H   -0.000312   0.008439  -0.000158  -0.000416   0.002608  -0.001693
               7          8          9         10         11         12
     1  C   -0.000025  -0.050881  -0.004148   0.361392   0.357930   0.363067
     2  C    0.001659   0.339941  -0.043197  -0.016158  -0.013138  -0.017100
     3  C   -0.000035  -0.008036   0.002156   0.005794  -0.004978  -0.003807
     4  C    0.001260  -0.013934   0.000603  -0.002224  -0.005501   0.004968
     5  C   -0.060299  -0.141672   0.003645   0.000036   0.000084  -0.000163
     6  C    0.774854   0.320969  -0.018189   0.000508   0.000008  -0.000027
     7  O    7.654300  -0.070196  -0.010960  -0.000005   0.000001   0.000001
     8  C   -0.070196   5.002024   0.383530  -0.004793   0.004366  -0.001775
     9  O   -0.010960   0.383530   7.836594   0.008904   0.000307   0.000609
    10  H   -0.000005  -0.004793   0.008904   0.577349  -0.030795  -0.032947
    11  H    0.000001   0.004366   0.000307  -0.030795   0.611316  -0.032750
    12  H    0.000001  -0.001775   0.000609  -0.032947  -0.032750   0.592501
    13  H   -0.000031  -0.007493   0.000064  -0.000119  -0.000117   0.000284
    14  H    0.000001   0.001374  -0.000031  -0.000023   0.003061   0.001056
    15  H   -0.000034   0.003573  -0.000005   0.000797   0.002354  -0.000052
    16  H    0.000561   0.003045  -0.000029  -0.000005  -0.000003   0.000007
    17  H   -0.000761   0.004739  -0.000090  -0.000019  -0.000002   0.000000
    18  H   -0.001349   0.342500  -0.030450   0.000116  -0.000100   0.000744
    19  H    0.030053  -0.089245   0.310817  -0.000102   0.000003  -0.000047
              13         14         15         16         17         18
     1  C    0.003354  -0.008396  -0.006198  -0.000128   0.000092   0.003960
     2  C   -0.024516  -0.011192  -0.028897  -0.000092   0.002237  -0.070429
     3  C    0.368361   0.366595  -0.033414  -0.010482   0.003208  -0.009152
     4  C   -0.019968  -0.015716   0.382424  -0.017334  -0.024422   0.005407
     5  C   -0.007059   0.001383  -0.043844   0.340408   0.348892   0.008976
     6  C   -0.001682   0.000110   0.003023  -0.014866  -0.009935  -0.040202
     7  O   -0.000031   0.000001  -0.000034   0.000561  -0.000761  -0.001349
     8  C   -0.007493   0.001374   0.003573   0.003045   0.004739   0.342500
     9  O    0.000064  -0.000031  -0.000005  -0.000029  -0.000090  -0.030450
    10  H   -0.000119  -0.000023   0.000797  -0.000005  -0.000019   0.000116
    11  H   -0.000117   0.003061   0.002354  -0.000003  -0.000002  -0.000100
    12  H    0.000284   0.001056  -0.000052   0.000007   0.000000   0.000744
    13  H    0.605721  -0.037015   0.002334   0.004702   0.000090   0.007883
    14  H   -0.037015   0.589874  -0.006262   0.000253  -0.000127   0.000280
    15  H    0.002334  -0.006262   0.634049   0.003128  -0.005321  -0.000277
    16  H    0.004702   0.000253   0.003128   0.589519  -0.031309   0.000049
    17  H    0.000090  -0.000127  -0.005321  -0.031309   0.574842  -0.000100
    18  H    0.007883   0.000280  -0.000277   0.000049  -0.000100   0.691698
    19  H   -0.000011   0.000002   0.000012  -0.000019  -0.000071   0.003785
              19
     1  C   -0.000312
     2  C    0.008439
     3  C   -0.000158
     4  C   -0.000416
     5  C    0.002608
     6  C   -0.001693
     7  O    0.030053
     8  C   -0.089245
     9  O    0.310817
    10  H   -0.000102
    11  H    0.000003
    12  H   -0.000047
    13  H   -0.000011
    14  H    0.000002
    15  H    0.000012
    16  H   -0.000019
    17  H   -0.000071
    18  H    0.003785
    19  H    0.443862
 Mulliken charges:
               1
     1  C   -0.467933
     2  C    0.308202
     3  C   -0.327179
     4  C   -0.084336
     5  C   -0.354244
     6  C    0.374558
     7  O   -0.318994
     8  C   -0.018037
     9  O   -0.440131
    10  H    0.132291
    11  H    0.107955
    12  H    0.125430
    13  H    0.105220
    14  H    0.114774
    15  H    0.092613
    16  H    0.132596
    17  H    0.138059
    18  H    0.086662
    19  H    0.292494
 Sum of Mulliken charges =   0.00000
 Mulliken charges with hydrogens summed into heavy atoms:
               1
     1  C   -0.102257
     2  C    0.308202
     3  C   -0.107185
     4  C    0.008276
     5  C   -0.083589
     6  C    0.374558
     7  O   -0.318994
     8  C    0.068625
     9  O   -0.147637
 Electronic spatial extent (au):  <R**2>=           1087.8076
 Charge=              0.0000 electrons
 Dipole moment (field-independent basis, Debye):
    X=             -1.6120    Y=             -1.7316    Z=              0.2053  Tot=              2.3747
 Quadrupole moment (field-independent basis, Debye-Ang):
   XX=            -57.2072   YY=            -54.5423   ZZ=            -51.3328
   XY=              0.7861   XZ=              1.0180   YZ=             -0.1570
 Traceless Quadrupole moment (field-independent basis, Debye-Ang):
   XX=             -2.8464   YY=             -0.1816   ZZ=              3.0280
   XY=              0.7861   XZ=              1.0180   YZ=             -0.1570
 Octapole moment (field-independent basis, Debye-Ang**2):
  XXX=            -10.9614  YYY=              0.7180  ZZZ=             -0.4333  XYY=             10.6416
  XXY=              7.0185  XXZ=              1.0041  XZZ=              5.6044  YZZ=              0.4032
  YYZ=             -2.3774  XYZ=             -1.3347
 Hexadecapole moment (field-independent basis, Debye-Ang**3):
 XXXX=           -757.0602 YYYY=           -526.3807 ZZZZ=           -158.6711 XXXY=             24.9582
 XXXZ=              4.8653 YYYX=              4.4689 YYYZ=             -1.0798 ZZZX=             -1.3418
 ZZZY=              1.9958 XXYY=           -188.1034 XXZZ=           -144.2601 YYZZ=           -106.9935
 XXYZ=              1.0174 YYXZ=             -2.8214 ZZXY=              2.0483
 N-N= 4.672152128927D+02 E-N=-1.921069325922D+03  KE= 4.200620959371D+02
 Calling FoFJK, ICntrl=      2127 FMM=F ISym2X=0 I1Cent= 0 IOpClX= 0 NMat=1 NMatS=1 NMatT=0.
 ***** Axes restored to original set *****
 -------------------------------------------------------------------
 Center     Atomic                   Forces (Hartrees/Bohr)
 Number     Number              X              Y              Z
 -------------------------------------------------------------------
      1        6           0.000011867    0.000052301   -0.000014481
      2        6           0.000089096   -0.000090574    0.000026778
      3        6          -0.000050117    0.000012196   -0.000010783
      4        6          -0.000011362   -0.000112294   -0.000034895
      5        6           0.000047858   -0.000006123    0.000008918
      6        6           0.000010378   -0.000009759    0.000041405
      7        8          -0.000002557   -0.000001351    0.000008998
      8        6          -0.000034505    0.000084940   -0.000057690
      9        8           0.000010148   -0.000023765    0.000017049
     10        1          -0.000008541   -0.000017532    0.000021156
     11        1           0.000005575    0.000021776   -0.000016180
     12        1          -0.000031405   -0.000005108   -0.000004046
     13        1          -0.000002935    0.000042776   -0.000014453
     14        1          -0.000011271   -0.000008004    0.000003225
     15        1          -0.000025223   -0.000015795    0.000021590
     16        1           0.000021329   -0.000001945    0.000008110
     17        1          -0.000000390    0.000030698   -0.000002954
     18        1          -0.000027942    0.000026754    0.000002566
     19        1           0.000009995    0.000020808   -0.000004313
 -------------------------------------------------------------------
 Cartesian Forces:  Max     0.000112294 RMS     0.000033387

 GradGradGradGradGradGradGradGradGradGradGradGradGradGradGradGradGradGrad
 Berny optimization.
 FormGI is forming the generalized inverse of G from B-inverse, IUseBI=4.
 Internal  Forces:  Max     0.000075990 RMS     0.000023931
 Search for a local minimum.
 Step number   1 out of a maximum of  114
 All quantities printed in internal units (Hartrees-Bohrs-Radians)
 Mixed Optimization -- En-DIIS/RFO-DIIS
 Second derivative matrix not updated -- first step.
 ITU=  0
     Eigenvalues ---    0.00335   0.00484   0.00644   0.01022   0.01606
     Eigenvalues ---    0.01769   0.01952   0.02897   0.03151   0.04170
     Eigenvalues ---    0.05004   0.05335   0.05693   0.05704   0.05745
     Eigenvalues ---    0.05941   0.07228   0.08410   0.08694   0.09971
     Eigenvalues ---    0.10137   0.11631   0.12781   0.15834   0.16000
     Eigenvalues ---    0.16000   0.16000   0.16000   0.19074   0.19786
     Eigenvalues ---    0.22014   0.23316   0.24630   0.27380   0.27745
     Eigenvalues ---    0.29168   0.29747   0.30861   0.31428   0.33113
     Eigenvalues ---    0.33961   0.34203   0.34280   0.34415   0.34486
     Eigenvalues ---    0.35034   0.35378   0.35493   0.44560   0.53643
     Eigenvalues ---    1.02126
 RFO step:  Lambda=-7.41902847D-07 EMin= 3.34558654D-03
 Linear search not attempted -- first point.
 Iteration  1 RMS(Cart)=  0.00089054 RMS(Int)=  0.00000048
 Iteration  2 RMS(Cart)=  0.00000062 RMS(Int)=  0.00000014
 Variable       Old X    -DE/DX   Delta X   Delta X   Delta X     New X
                                 (Linear)    (Quad)   (Total)
    R1        2.85204  -0.00001   0.00000  -0.00005  -0.00005   2.85199
    R2        2.06517   0.00002   0.00000   0.00007   0.00007   2.06524
    R3        2.06859   0.00001   0.00000   0.00003   0.00003   2.06862
    R4        2.06988   0.00001   0.00000   0.00002   0.00002   2.06991
    R5        2.84739   0.00001   0.00000   0.00020   0.00020   2.84759
    R6        2.89491  -0.00006   0.00000  -0.00017  -0.00017   2.89474
    R7        2.89799  -0.00005   0.00000  -0.00015  -0.00015   2.89784
    R8        2.84945   0.00002   0.00000  -0.00007  -0.00007   2.84938
    R9        2.05619   0.00001   0.00000   0.00003   0.00003   2.05622
   R10        2.05066   0.00001   0.00000   0.00003   0.00003   2.05069
   R11        2.87573   0.00007   0.00000   0.00025   0.00025   2.87598
   R12        2.04882   0.00002   0.00000   0.00005   0.00005   2.04887
   R13        2.88649  -0.00002   0.00000  -0.00013  -0.00013   2.88636
   R14        2.07396   0.00000   0.00000   0.00001   0.00001   2.07397
   R15        2.06636   0.00001   0.00000   0.00004   0.00004   2.06640
   R16        2.27799   0.00000   0.00000   0.00000   0.00000   2.27800
   R17        2.91681   0.00000   0.00000  -0.00006  -0.00006   2.91675
   R18        2.65790   0.00002   0.00000   0.00004   0.00004   2.65794
   R19        2.08854  -0.00002   0.00000  -0.00006  -0.00006   2.08848
   R20        1.83059   0.00001   0.00000   0.00002   0.00002   1.83061
    A1        1.93854   0.00003   0.00000   0.00025   0.00025   1.93879
    A2        1.92748  -0.00006   0.00000  -0.00044  -0.00044   1.92704
    A3        1.94158   0.00004   0.00000   0.00028   0.00028   1.94185
    A4        1.89497   0.00001   0.00000  -0.00001  -0.00001   1.89495
    A5        1.87526  -0.00002   0.00000   0.00005   0.00005   1.87531
    A6        1.88404   0.00000   0.00000  -0.00013  -0.00013   1.88391
    A7        2.10682  -0.00007   0.00000  -0.00027  -0.00027   2.10654
    A8        2.14134  -0.00005   0.00000  -0.00055  -0.00055   2.14079
    A9        2.06566   0.00008   0.00000   0.00047   0.00047   2.06613
   A10        1.99218   0.00001   0.00000   0.00021   0.00021   1.99240
   A11        1.88018  -0.00002   0.00000  -0.00022  -0.00022   1.87996
   A12        2.07451   0.00003   0.00000   0.00044   0.00044   2.07495
   A13        2.04743  -0.00001   0.00000  -0.00015  -0.00015   2.04728
   A14        2.06561   0.00001   0.00000  -0.00024  -0.00024   2.06537
   A15        2.05141   0.00000   0.00000   0.00005   0.00005   2.05146
   A16        1.98793  -0.00001   0.00000  -0.00002  -0.00002   1.98790
   A17        1.91889   0.00002   0.00000   0.00005   0.00005   1.91894
   A18        2.09184  -0.00003   0.00000  -0.00024  -0.00024   2.09160
   A19        2.05769   0.00004   0.00000   0.00026   0.00026   2.05795
   A20        2.06389  -0.00004   0.00000  -0.00012  -0.00012   2.06377
   A21        2.05835   0.00000   0.00000  -0.00003  -0.00003   2.05832
   A22        1.81860  -0.00002   0.00000  -0.00026  -0.00026   1.81833
   A23        1.98358   0.00001   0.00000   0.00026   0.00026   1.98384
   A24        1.97639   0.00001   0.00000  -0.00001  -0.00001   1.97638
   A25        1.92081   0.00000   0.00000  -0.00004  -0.00004   1.92077
   A26        1.89829   0.00001   0.00000   0.00015   0.00015   1.89844
   A27        1.86507  -0.00001   0.00000  -0.00010  -0.00010   1.86497
   A28        2.22061   0.00001   0.00000   0.00017   0.00017   2.22079
   A29        1.92423  -0.00002   0.00000  -0.00027  -0.00027   1.92396
   A30        2.13121   0.00001   0.00000   0.00017   0.00017   2.13138
   A31        1.81980   0.00004   0.00000   0.00001   0.00001   1.81980
   A32        1.98450   0.00001   0.00000   0.00013   0.00013   1.98463
   A33        1.92730  -0.00002   0.00000  -0.00016  -0.00016   1.92714
   A34        1.91847  -0.00005   0.00000  -0.00029  -0.00029   1.91818
   A35        1.88557   0.00001   0.00000   0.00010   0.00010   1.88567
   A36        1.92340   0.00002   0.00000   0.00019   0.00019   1.92359
   A37        1.84270  -0.00003   0.00000  -0.00022  -0.00022   1.84249
    D1       -2.74447   0.00003   0.00000  -0.00004  -0.00004  -2.74451
    D2       -1.49978   0.00000   0.00000  -0.00043  -0.00043  -1.50021
    D3        0.93034   0.00000   0.00000  -0.00096  -0.00096   0.92937
    D4       -0.64101   0.00002   0.00000  -0.00019  -0.00019  -0.64120
    D5        0.60368  -0.00001   0.00000  -0.00058  -0.00058   0.60310
    D6        3.03380  -0.00001   0.00000  -0.00111  -0.00111   3.03269
    D7        1.45070   0.00000   0.00000  -0.00045  -0.00045   1.45025
    D8        2.69540  -0.00003   0.00000  -0.00085  -0.00085   2.69455
    D9       -1.15767  -0.00003   0.00000  -0.00138  -0.00138  -1.15905
   D10       -2.43229  -0.00005   0.00000  -0.00109  -0.00109  -2.43338
   D11        0.07452  -0.00002   0.00000  -0.00067  -0.00067   0.07385
   D12        0.19697   0.00000   0.00000  -0.00011  -0.00011   0.19686
   D13        2.70378   0.00003   0.00000   0.00030   0.00030   2.70408
   D14        2.43701   0.00003   0.00000  -0.00016  -0.00016   2.43685
   D15       -0.03306   0.00003   0.00000   0.00015   0.00015  -0.03291
   D16       -0.05699  -0.00001   0.00000   0.00006   0.00006  -0.05693
   D17       -2.52706  -0.00001   0.00000   0.00037   0.00037  -2.52670
   D18       -2.28991   0.00003   0.00000   0.00168   0.00168  -2.28823
   D19       -0.20061   0.00000   0.00000   0.00141   0.00141  -0.19921
   D20        1.97179   0.00001   0.00000   0.00163   0.00163   1.97342
   D21        1.35109   0.00003   0.00000   0.00097   0.00097   1.35206
   D22       -2.84279  -0.00001   0.00000   0.00069   0.00069  -2.84210
   D23       -0.67039   0.00001   0.00000   0.00092   0.00092  -0.66947
   D24        0.23673   0.00001   0.00000   0.00105   0.00105   0.23778
   D25        2.32603  -0.00002   0.00000   0.00077   0.00077   2.32680
   D26       -1.78475  -0.00001   0.00000   0.00100   0.00100  -1.78376
   D27       -0.19882  -0.00001   0.00000  -0.00060  -0.00060  -0.19942
   D28        2.46115  -0.00001   0.00000  -0.00039  -0.00039   2.46076
   D29       -2.69775  -0.00001   0.00000  -0.00026  -0.00026  -2.69801
   D30       -0.03779  -0.00001   0.00000  -0.00004  -0.00004  -0.03783
   D31       -0.14993   0.00001   0.00000  -0.00114  -0.00114  -0.15107
   D32        1.94094   0.00000   0.00000  -0.00122  -0.00122   1.93973
   D33       -2.20972   0.00000   0.00000  -0.00115  -0.00115  -2.21087
   D34       -1.28706  -0.00002   0.00000  -0.00135  -0.00135  -1.28841
   D35        0.80381  -0.00003   0.00000  -0.00143  -0.00143   0.80239
   D36        2.93633  -0.00003   0.00000  -0.00136  -0.00136   2.93497
   D37        2.33461  -0.00001   0.00000  -0.00153  -0.00153   2.33308
   D38       -1.85770  -0.00002   0.00000  -0.00161  -0.00161  -1.85931
   D39        0.27483  -0.00001   0.00000  -0.00155  -0.00155   0.27328
   D40       -2.70776  -0.00001   0.00000   0.00117   0.00117  -2.70659
   D41        0.30672  -0.00001   0.00000   0.00180   0.00180   0.30852
   D42        1.44264  -0.00001   0.00000   0.00104   0.00104   1.44368
   D43       -1.82606  -0.00001   0.00000   0.00167   0.00167  -1.82439
   D44       -0.59504   0.00000   0.00000   0.00109   0.00109  -0.59395
   D45        2.41945   0.00000   0.00000   0.00172   0.00172   2.42117
   D46       -0.34224  -0.00001   0.00000  -0.00184  -0.00184  -0.34408
   D47       -2.47559  -0.00002   0.00000  -0.00184  -0.00184  -2.47743
   D48        1.70824  -0.00001   0.00000  -0.00197  -0.00197   1.70627
   D49        2.67991  -0.00001   0.00000  -0.00124  -0.00124   2.67867
   D50        0.54656  -0.00002   0.00000  -0.00125  -0.00125   0.54531
   D51       -1.55279  -0.00001   0.00000  -0.00137  -0.00137  -1.55416
   D52       -2.48276   0.00000   0.00000   0.00039   0.00039  -2.48236
   D53       -0.45037   0.00002   0.00000   0.00029   0.00029  -0.45008
   D54        1.62593   0.00000   0.00000   0.00035   0.00035   1.62628
         Item               Value     Threshold  Converged?
 Maximum Force            0.000076     0.000450     YES
 RMS     Force            0.000024     0.000300     YES
 Maximum Displacement     0.005020     0.001800     NO 
 RMS     Displacement     0.000891     0.001200     YES
 Predicted change in Energy=-3.708987D-07
 GradGradGradGradGradGradGradGradGradGradGradGradGradGradGradGradGradGrad

                          Input orientation:                          
 ---------------------------------------------------------------------
 Center     Atomic      Atomic             Coordinates (Angstroms)
 Number     Number       Type             X           Y           Z
 ---------------------------------------------------------------------
      1          6           0       -3.362951   -1.568047    0.492565
      2          6           0       -2.267354   -0.804240   -0.210273
      3          6           0       -2.565638    0.008893   -1.443366
      4          6           0       -2.172089    0.724234   -0.175712
      5          6           0       -0.719443    1.150507   -0.019844
      6          6           0        0.025308   -0.153442    0.259427
      7          8           0        1.072743   -0.285088    0.841399
      8          6           0       -0.839933   -1.362021   -0.156522
      9          8           0       -0.676261   -2.409008    0.768315
     10          1           0       -3.101300   -1.759896    1.536169
     11          1           0       -4.299900   -1.002599    0.466301
     12          1           0       -3.540523   -2.537639    0.014919
     13          1           0       -1.856385   -0.007960   -2.268380
     14          1           0       -3.602519    0.076317   -1.756319
     15          1           0       -2.929063    1.300315    0.344524
     16          1           0       -0.304916    1.636960   -0.912053
     17          1           0       -0.558011    1.834357    0.818017
     18          1           0       -0.514544   -1.686122   -1.161754
     19          1           0        0.199250   -2.274855    1.160605
 ---------------------------------------------------------------------
                    Distance matrix (angstroms):
                    1          2          3          4          5
     1  C    0.000000
     2  C    1.509210   0.000000
     3  C    2.621121   1.506877   0.000000
     4  C    2.668201   1.531830   1.507826   0.000000
     5  C    3.826386   2.500665   2.595792   1.521902   0.000000
     6  C    3.679098   2.429085   3.104652   2.405872   1.527394
     7  O    4.630664   3.540025   4.306321   3.547138   2.452469
     8  C    2.613308   1.533472   2.552142   2.475372   2.519126
     9  O    2.828702   2.462618   3.782529   3.598041   3.645985
    10  H    1.092876   2.158426   3.506163   3.156719   4.069996
    11  H    1.094667   2.151359   2.770850   2.814554   4.206171
    12  H    1.095348   2.162485   3.092219   3.542424   4.643503
    13  H    3.510901   2.244719   1.088104   2.239427   2.773192
    14  H    2.796213   2.224479   1.085176   2.228058   3.532896
    15  H    2.904768   2.274822   2.235263   1.084216   2.244466
    16  H    4.647214   3.209847   2.836153   2.204904   1.097500
    17  H    4.421533   3.307783   3.532243   2.196616   1.093491
    18  H    3.296079   2.180682   2.675700   3.086997   3.064703
    19  H    3.692578   3.182161   4.431791   4.050127   3.737721
                    6          7          8          9         10
     6  C    0.000000
     7  O    1.205463   0.000000
     8  C    1.543476   2.411216   0.000000
     9  O    2.416349   2.752343   1.406519   0.000000
    10  H    3.739845   4.481116   2.852593   2.625216   0.000000
    11  H    4.412629   5.433307   3.533902   3.898713   1.776165
    12  H    4.296432   5.199930   2.950365   2.964481   1.764087
    13  H    3.154638   4.281042   2.706769   4.047128   4.369632
    14  H    4.156580   5.360675   3.501435   4.594955   3.803075
    15  H    3.293777   4.332995   3.421044   4.360481   3.288552
    16  H    2.164937   2.943944   3.138623   4.396748   5.035095
    17  H    2.145607   2.674314   3.353511   4.245303   4.461246
    18  H    2.158773   2.914618   1.105175   2.067337   3.738387
    19  H    2.311443   2.196373   1.909971   0.968715   3.361527
                   11         12         13         14         15
    11  H    0.000000
    12  H    1.771086   0.000000
    13  H    3.799809   3.801190   0.000000
    14  H    2.567185   3.158148   1.821618   0.000000
    15  H    2.682804   3.900310   3.112794   2.522946   0.000000
    16  H    4.982673   5.362434   2.636748   3.744673   2.928902
    17  H    4.708902   5.353008   3.821747   4.357401   2.476143
    18  H    4.176923   3.356514   2.416896   3.604898   4.125237
    19  H    4.726844   3.920147   4.595910   5.337594   4.820184
                   16         17         18         19
    16  H    0.000000
    17  H    1.759592   0.000000
    18  H    3.339037   4.039202   0.000000
    19  H    4.455602   4.192425   2.499891   0.000000
 Stoichiometry    C7H10O2
 Framework group  C1[X(C7H10O2)]
 Deg. of freedom    51
 Full point group                 C1      NOp   1
 Largest Abelian subgroup         C1      NOp   1
 Largest concise Abelian subgroup C1      NOp   1
                         Standard orientation:                         
 ---------------------------------------------------------------------
 Center     Atomic      Atomic             Coordinates (Angstroms)
 Number     Number       Type             X           Y           Z
 ---------------------------------------------------------------------
      1          6           0       -1.940154    1.141493   -0.615882
      2          6           0       -1.011784    0.165670    0.065010
      3          6           0       -1.559946   -1.001422    0.844814
      4          6           0       -0.808278   -1.267942   -0.434835
      5          6           0        0.661223   -1.650136   -0.331500
      6          6           0        1.363177   -0.343166    0.031847
      7          8           0        2.513262   -0.049752   -0.178760
      8          6           0        0.341106    0.679397    0.572268
      9          8           0        0.664925    1.968683    0.112728
     10          1           0       -1.433972    1.660484   -1.433687
     11          1           0       -2.812472    0.619083   -1.021398
     12          1           0       -2.298703    1.903426    0.084608
     13          1           0       -1.087912   -1.272214    1.787060
     14          1           0       -2.635411   -1.145894    0.834389
     15          1           0       -1.366623   -1.624375   -1.293166
     16          1           0        0.865685   -2.411882    0.431681
     17          1           0        1.077058   -2.023416   -1.271428
     18          1           0        0.376199    0.647559    1.676426
     19          1           0        1.618594    1.952420   -0.056562
 ---------------------------------------------------------------------
 Rotational constants (GHZ):      2.4029485      1.7068184      1.1568031
 Standard basis: 6-31G(2df,p) (6D, 7F)
 There are   329 symmetry adapted cartesian basis functions of A   symmetry.
 There are   302 symmetry adapted basis functions of A   symmetry.
   302 basis functions,   466 primitive gaussians,   329 cartesian basis functions
    34 alpha electrons       34 beta electrons
       nuclear repulsion energy       467.2192386445 Hartrees.
 NAtoms=   19 NActive=   19 NUniq=   19 SFac= 1.00D+00 NAtFMM=   60 NAOKFM=F Big=F
 Integral buffers will be    131072 words long.
 Raffenetti 2 integral format.
 Two-electron integral symmetry is turned on.
 One-electron integrals computed using PRISM.
 NBasis=   302 RedAO= T EigKep=  4.42D-04  NBF=   302
 NBsUse=   302 1.00D-06 EigRej= -1.00D+00 NBFU=   302
 Initial guess from the checkpoint file:  "/scratch/puck/g09_71497f83-cb35-48a9-af9a-0a1d538d996c/Gau-74174.chk"
 B after Tr=     0.000000    0.000000    0.000000
         Rot=    1.000000   -0.000001    0.000079    0.000305 Ang=  -0.04 deg.
 Requested convergence on RMS density matrix=1.00D-08 within 128 cycles.
 Requested convergence on MAX density matrix=1.00D-06.
 Requested convergence on             energy=1.00D-06.
 No special actions if energy rises.
 SCF Done:  E(RB3LYP) =  -423.203808360     A.U. after    7 cycles
            NFock=  7  Conv=0.68D-08     -V/T= 2.0075
 Calling FoFJK, ICntrl=      2127 FMM=F ISym2X=0 I1Cent= 0 IOpClX= 0 NMat=1 NMatS=1 NMatT=0.
 ***** Axes restored to original set *****
 -------------------------------------------------------------------
 Center     Atomic                   Forces (Hartrees/Bohr)
 Number     Number              X              Y              Z
 -------------------------------------------------------------------
      1        6          -0.000015342    0.000029887   -0.000018396
      2        6           0.000088184   -0.000038992   -0.000003420
      3        6          -0.000031903    0.000008244   -0.000002725
      4        6          -0.000026865   -0.000001290   -0.000015299
      5        6           0.000001026    0.000011017    0.000075030
      6        6           0.000039228    0.000022716   -0.000069800
      7        8          -0.000029751   -0.000018017    0.000019573
      8        6           0.000005631    0.000006470    0.000031041
      9        8          -0.000010032   -0.000036005   -0.000027524
     10        1           0.000001832   -0.000006555   -0.000004632
     11        1          -0.000001539    0.000004380    0.000000526
     12        1          -0.000011417   -0.000000693   -0.000001964
     13        1          -0.000004656   -0.000006168    0.000002879
     14        1          -0.000001626    0.000001916    0.000006877
     15        1          -0.000000538   -0.000008262    0.000019918
     16        1          -0.000000534   -0.000015249   -0.000004774
     17        1          -0.000010783    0.000020270   -0.000014877
     18        1           0.000001345    0.000013349   -0.000003885
     19        1           0.000007741    0.000012982    0.000011450
 -------------------------------------------------------------------
 Cartesian Forces:  Max     0.000088184 RMS     0.000023937

 GradGradGradGradGradGradGradGradGradGradGradGradGradGradGradGradGradGrad
 Berny optimization.
 Using GEDIIS/GDIIS optimizer.
 FormGI is forming the generalized inverse of G from B-inverse, IUseBI=4.
 Internal  Forces:  Max     0.000044995 RMS     0.000011326
 Search for a local minimum.
 Step number   2 out of a maximum of  114
 All quantities printed in internal units (Hartrees-Bohrs-Radians)
 Mixed Optimization -- En-DIIS/RFO-DIIS
 Swapping is turned off.
 Update second derivatives using D2CorX and points    1    2
 DE= -4.73D-07 DEPred=-3.71D-07 R= 1.28D+00
 Trust test= 1.28D+00 RLast= 8.27D-03 DXMaxT set to 3.00D-01
 ITU=  0  0
     Eigenvalues ---    0.00199   0.00542   0.00626   0.01005   0.01563
     Eigenvalues ---    0.01797   0.01877   0.02878   0.03217   0.04367
     Eigenvalues ---    0.05032   0.05334   0.05693   0.05701   0.05785
     Eigenvalues ---    0.05941   0.07266   0.08419   0.08777   0.09420
     Eigenvalues ---    0.10152   0.11493   0.12890   0.15612   0.15985
     Eigenvalues ---    0.16000   0.16000   0.16871   0.18673   0.19400
     Eigenvalues ---    0.22204   0.23498   0.24923   0.27668   0.27732
     Eigenvalues ---    0.29427   0.29891   0.30892   0.31424   0.33136
     Eigenvalues ---    0.33962   0.34207   0.34274   0.34434   0.34582
     Eigenvalues ---    0.35076   0.35391   0.35500   0.44536   0.53637
     Eigenvalues ---    1.02188
 En-DIIS/RFO-DIIS IScMMF=        0 using points:     2    1
 RFO step:  Lambda=-6.25016831D-08.
 DidBck=F Rises=F RFO-DIIS coefs:    1.51539   -0.51539
 Iteration  1 RMS(Cart)=  0.00156872 RMS(Int)=  0.00000240
 Iteration  2 RMS(Cart)=  0.00000244 RMS(Int)=  0.00000037
 Iteration  3 RMS(Cart)=  0.00000000 RMS(Int)=  0.00000037
 Variable       Old X    -DE/DX   Delta X   Delta X   Delta X     New X
                                 (Linear)    (Quad)   (Total)
    R1        2.85199   0.00000  -0.00002  -0.00003  -0.00006   2.85194
    R2        2.06524   0.00000   0.00003   0.00001   0.00005   2.06528
    R3        2.06862   0.00001   0.00001   0.00003   0.00004   2.06866
    R4        2.06991   0.00000   0.00001   0.00001   0.00002   2.06993
    R5        2.84759  -0.00001   0.00010   0.00004   0.00015   2.84773
    R6        2.89474  -0.00001  -0.00009  -0.00008  -0.00017   2.89457
    R7        2.89784   0.00000  -0.00008  -0.00006  -0.00014   2.89770
    R8        2.84938   0.00001  -0.00004   0.00001  -0.00003   2.84935
    R9        2.05622   0.00000   0.00001  -0.00001   0.00001   2.05623
   R10        2.05069   0.00000   0.00001   0.00000   0.00002   2.05070
   R11        2.87598   0.00001   0.00013   0.00011   0.00023   2.87621
   R12        2.04887   0.00000   0.00003   0.00003   0.00005   2.04893
   R13        2.88636   0.00001  -0.00007   0.00001  -0.00006   2.88630
   R14        2.07397   0.00000   0.00001   0.00000   0.00001   2.07398
   R15        2.06640   0.00000   0.00002   0.00000   0.00002   2.06642
   R16        2.27800  -0.00001   0.00000  -0.00002  -0.00002   2.27798
   R17        2.91675   0.00001  -0.00003   0.00000  -0.00003   2.91672
   R18        2.65794   0.00001   0.00002   0.00004   0.00006   2.65800
   R19        2.08848   0.00000  -0.00003  -0.00002  -0.00006   2.08842
   R20        1.83061   0.00001   0.00001   0.00005   0.00006   1.83066
    A1        1.93879   0.00000   0.00013   0.00006   0.00019   1.93898
    A2        1.92704  -0.00001  -0.00023  -0.00023  -0.00046   1.92658
    A3        1.94185   0.00002   0.00014   0.00026   0.00041   1.94226
    A4        1.89495   0.00000  -0.00001  -0.00003  -0.00004   1.89492
    A5        1.87531   0.00000   0.00003   0.00002   0.00005   1.87536
    A6        1.88391   0.00000  -0.00006  -0.00008  -0.00015   1.88376
    A7        2.10654  -0.00004  -0.00014  -0.00042  -0.00056   2.10599
    A8        2.14079  -0.00004  -0.00028  -0.00061  -0.00090   2.13990
    A9        2.06613   0.00003   0.00024   0.00045   0.00070   2.06683
   A10        1.99240   0.00002   0.00011   0.00028   0.00039   1.99279
   A11        1.87996   0.00001  -0.00011  -0.00004  -0.00016   1.87980
   A12        2.07495   0.00000   0.00023  -0.00001   0.00022   2.07517
   A13        2.04728   0.00000  -0.00008  -0.00009  -0.00017   2.04711
   A14        2.06537   0.00001  -0.00012   0.00013   0.00001   2.06538
   A15        2.05146  -0.00001   0.00003  -0.00004  -0.00001   2.05145
   A16        1.98790   0.00000  -0.00001   0.00002   0.00001   1.98791
   A17        1.91894   0.00000   0.00003  -0.00004  -0.00001   1.91892
   A18        2.09160   0.00000  -0.00013  -0.00025  -0.00037   2.09123
   A19        2.05795   0.00002   0.00013   0.00030   0.00043   2.05838
   A20        2.06377  -0.00001  -0.00006   0.00006   0.00000   2.06376
   A21        2.05832   0.00000  -0.00002  -0.00011  -0.00013   2.05819
   A22        1.81833  -0.00001  -0.00014  -0.00007  -0.00021   1.81813
   A23        1.98384   0.00000   0.00014  -0.00005   0.00009   1.98393
   A24        1.97638   0.00000   0.00000  -0.00002  -0.00003   1.97635
   A25        1.92077  -0.00001  -0.00002  -0.00030  -0.00032   1.92045
   A26        1.89844   0.00002   0.00008   0.00051   0.00059   1.89903
   A27        1.86497   0.00000  -0.00005  -0.00005  -0.00010   1.86487
   A28        2.22079   0.00002   0.00009   0.00000   0.00009   2.22087
   A29        1.92396   0.00001  -0.00014  -0.00018  -0.00032   1.92363
   A30        2.13138  -0.00003   0.00009  -0.00025  -0.00017   2.13122
   A31        1.81980  -0.00001   0.00000  -0.00002  -0.00002   1.81979
   A32        1.98463   0.00000   0.00007   0.00005   0.00012   1.98475
   A33        1.92714   0.00000  -0.00008  -0.00004  -0.00012   1.92702
   A34        1.91818   0.00001  -0.00015   0.00014  -0.00001   1.91817
   A35        1.88567   0.00000   0.00005  -0.00018  -0.00013   1.88555
   A36        1.92359   0.00000   0.00010   0.00003   0.00013   1.92372
   A37        1.84249  -0.00001  -0.00011  -0.00012  -0.00023   1.84225
    D1       -2.74451   0.00001  -0.00002  -0.00035  -0.00037  -2.74488
    D2       -1.50021  -0.00001  -0.00022  -0.00079  -0.00101  -1.50122
    D3        0.92937   0.00000  -0.00050  -0.00111  -0.00161   0.92777
    D4       -0.64120   0.00001  -0.00010  -0.00051  -0.00060  -0.64180
    D5        0.60310  -0.00002  -0.00030  -0.00094  -0.00124   0.60186
    D6        3.03269  -0.00001  -0.00057  -0.00126  -0.00184   3.03085
    D7        1.45025   0.00001  -0.00023  -0.00059  -0.00083   1.44942
    D8        2.69455  -0.00002  -0.00044  -0.00103  -0.00147   2.69308
    D9       -1.15905  -0.00001  -0.00071  -0.00135  -0.00206  -1.16112
   D10       -2.43338  -0.00001  -0.00056  -0.00043  -0.00099  -2.43437
   D11        0.07385  -0.00001  -0.00035  -0.00056  -0.00091   0.07294
   D12        0.19686   0.00001  -0.00006   0.00035   0.00029   0.19715
   D13        2.70408   0.00001   0.00016   0.00022   0.00038   2.70446
   D14        2.43685   0.00002  -0.00008  -0.00010  -0.00018   2.43667
   D15       -0.03291   0.00002   0.00008   0.00047   0.00054  -0.03237
   D16       -0.05693   0.00000   0.00003  -0.00001   0.00002  -0.05692
   D17       -2.52670   0.00000   0.00019   0.00055   0.00074  -2.52596
   D18       -2.28823   0.00001   0.00087   0.00110   0.00197  -2.28626
   D19       -0.19921   0.00001   0.00073   0.00129   0.00201  -0.19719
   D20        1.97342   0.00001   0.00084   0.00134   0.00218   1.97560
   D21        1.35206   0.00001   0.00050   0.00060   0.00110   1.35316
   D22       -2.84210   0.00002   0.00036   0.00079   0.00115  -2.84096
   D23       -0.66947   0.00001   0.00047   0.00084   0.00131  -0.66816
   D24        0.23778   0.00000   0.00054   0.00057   0.00111   0.23888
   D25        2.32680   0.00000   0.00040   0.00076   0.00115   2.32795
   D26       -1.78376   0.00000   0.00051   0.00081   0.00132  -1.78244
   D27       -0.19942   0.00000  -0.00031  -0.00011  -0.00042  -0.19984
   D28        2.46076   0.00001  -0.00020   0.00039   0.00019   2.46095
   D29       -2.69801  -0.00001  -0.00013  -0.00030  -0.00043  -2.69844
   D30       -0.03783   0.00000  -0.00002   0.00020   0.00018  -0.03765
   D31       -0.15107   0.00001  -0.00059  -0.00055  -0.00113  -0.15220
   D32        1.93973  -0.00001  -0.00063  -0.00098  -0.00161   1.93812
   D33       -2.21087  -0.00001  -0.00059  -0.00110  -0.00169  -2.21257
   D34       -1.28841   0.00001  -0.00069  -0.00061  -0.00131  -1.28971
   D35        0.80239  -0.00001  -0.00073  -0.00105  -0.00178   0.80060
   D36        2.93497  -0.00001  -0.00070  -0.00117  -0.00187   2.93310
   D37        2.33308   0.00001  -0.00079  -0.00116  -0.00195   2.33114
   D38       -1.85931  -0.00001  -0.00083  -0.00159  -0.00242  -1.86173
   D39        0.27328  -0.00001  -0.00080  -0.00171  -0.00251   0.27077
   D40       -2.70659   0.00001   0.00060   0.00477   0.00537  -2.70122
   D41        0.30852  -0.00001   0.00093   0.00090   0.00183   0.31035
   D42        1.44368   0.00002   0.00053   0.00502   0.00556   1.44924
   D43       -1.82439   0.00000   0.00086   0.00116   0.00202  -1.82237
   D44       -0.59395   0.00001   0.00056   0.00496   0.00552  -0.58843
   D45        2.42117  -0.00001   0.00089   0.00109   0.00198   2.42314
   D46       -0.34408   0.00001  -0.00095  -0.00093  -0.00187  -0.34595
   D47       -2.47743   0.00001  -0.00095  -0.00105  -0.00200  -2.47943
   D48        1.70627   0.00001  -0.00101  -0.00106  -0.00208   1.70420
   D49        2.67867  -0.00001  -0.00064  -0.00454  -0.00518   2.67349
   D50        0.54531  -0.00001  -0.00064  -0.00466  -0.00531   0.54001
   D51       -1.55416  -0.00001  -0.00071  -0.00468  -0.00539  -1.55955
   D52       -2.48236   0.00001   0.00020   0.00100   0.00121  -2.48116
   D53       -0.45008   0.00001   0.00015   0.00111   0.00125  -0.44882
   D54        1.62628   0.00001   0.00018   0.00099   0.00118   1.62746
         Item               Value     Threshold  Converged?
 Maximum Force            0.000045     0.000450     YES
 RMS     Force            0.000011     0.000300     YES
 Maximum Displacement     0.010745     0.001800     NO 
 RMS     Displacement     0.001569     0.001200     NO 
 Predicted change in Energy=-3.540556D-07
 GradGradGradGradGradGradGradGradGradGradGradGradGradGradGradGradGradGrad

                          Input orientation:                          
 ---------------------------------------------------------------------
 Center     Atomic      Atomic             Coordinates (Angstroms)
 Number     Number       Type             X           Y           Z
 ---------------------------------------------------------------------
      1          6           0       -3.362576   -1.567637    0.492802
      2          6           0       -2.266871   -0.804690   -0.210737
      3          6           0       -2.566173    0.008564   -1.443599
      4          6           0       -2.171954    0.723715   -0.176066
      5          6           0       -0.719259    1.150319   -0.020346
      6          6           0        0.025281   -0.153414    0.260335
      7          8           0        1.070015   -0.285209    0.847085
      8          6           0       -0.839301   -1.361900   -0.157196
      9          8           0       -0.675303   -2.409916    0.766469
     10          1           0       -3.100369   -1.760178    1.536164
     11          1           0       -4.298727   -1.000780    0.467489
     12          1           0       -3.542149   -2.536802    0.015013
     13          1           0       -1.857543   -0.007791   -2.269161
     14          1           0       -3.603331    0.075656   -1.755736
     15          1           0       -2.928832    1.299219    0.345007
     16          1           0       -0.304387    1.635508   -0.913088
     17          1           0       -0.558165    1.835464    0.816533
     18          1           0       -0.513533   -1.684507   -1.162753
     19          1           0        0.199648   -2.274956    1.159803
 ---------------------------------------------------------------------
                    Distance matrix (angstroms):
                    1          2          3          4          5
     1  C    0.000000
     2  C    1.509180   0.000000
     3  C    2.620747   1.506955   0.000000
     4  C    2.667444   1.531741   1.507810   0.000000
     5  C    3.825928   2.500682   2.596217   1.522026   0.000000
     6  C    3.678537   2.428997   3.105682   2.405751   1.527364
     7  O    4.627959   3.538878   4.307598   3.546143   2.452484
     8  C    2.613760   1.533396   2.552468   2.475098   2.518806
     9  O    2.829446   2.462675   3.782702   3.598330   3.646407
    10  H    1.092899   2.158550   3.506109   3.156487   4.069816
    11  H    1.094690   2.151019   2.769978   2.812687   4.204498
    12  H    1.095359   2.162755   3.091758   3.541880   4.643794
    13  H    3.510938   2.244930   1.088107   2.239421   2.773820
    14  H    2.795406   2.224445   1.085185   2.228043   3.533319
    15  H    2.903246   2.274528   2.235268   1.084245   2.244519
    16  H    4.646416   3.209237   2.836206   2.205079   1.097504
    17  H    4.421608   3.308379   3.532401   2.196715   1.093500
    18  H    3.297205   2.180505   2.675573   3.086007   3.063275
    19  H    3.692510   3.181788   4.431922   4.049823   3.737599
                    6          7          8          9         10
     6  C    0.000000
     7  O    1.205453   0.000000
     8  C    1.543461   2.411086   0.000000
     9  O    2.416359   2.750821   1.406552   0.000000
    10  H    3.738866   4.476882   2.852809   2.625936   0.000000
    11  H    4.411121   5.429506   3.533874   3.899263   1.776179
    12  H    4.297357   5.199430   2.952192   2.966411   1.764147
    13  H    3.156672   4.284688   2.707550   4.047585   4.369895
    14  H    4.157383   5.361442   3.501680   4.594881   3.802612
    15  H    3.293037   4.330506   3.420513   4.360471   3.287581
    16  H    2.164681   2.945564   3.137190   4.395901   5.034584
    17  H    2.146020   2.673791   3.354150   4.247291   4.461985
    18  H    2.158644   2.916352   1.105145   2.067434   3.739197
    19  H    2.310928   2.194180   1.909862   0.968744   3.361065
                   11         12         13         14         15
    11  H    0.000000
    12  H    1.771019   0.000000
    13  H    3.799298   3.801480   0.000000
    14  H    2.566129   3.156617   1.821633   0.000000
    15  H    2.679853   3.898732   3.112847   2.522930   0.000000
    16  H    4.981040   5.362149   2.636600   3.745160   2.929779
    17  H    4.707220   5.353813   3.821974   4.357353   2.475876
    18  H    4.177662   3.359472   2.416998   3.605087   4.124273
    19  H    4.726331   3.921754   4.596724   5.337452   4.819337
                   16         17         18         19
    16  H    0.000000
    17  H    1.759538   0.000000
    18  H    3.335952   4.038534   0.000000
    19  H    4.454510   4.193765   2.500305   0.000000
 Stoichiometry    C7H10O2
 Framework group  C1[X(C7H10O2)]
 Deg. of freedom    51
 Full point group                 C1      NOp   1
 Largest Abelian subgroup         C1      NOp   1
 Largest concise Abelian subgroup C1      NOp   1
                         Standard orientation:                         
 ---------------------------------------------------------------------
 Center     Atomic      Atomic             Coordinates (Angstroms)
 Number     Number       Type             X           Y           Z
 ---------------------------------------------------------------------
      1          6           0       -1.937614    1.143306   -0.617941
      2          6           0       -1.011287    0.167023    0.065003
      3          6           0       -1.562613   -0.999135    0.844124
      4          6           0       -0.809547   -1.266889   -0.434426
      5          6           0        0.659382   -1.651368   -0.329620
      6          6           0        1.362917   -0.344965    0.032583
      7          8           0        2.512193   -0.051367   -0.182081
      8          6           0        0.341956    0.678485    0.573378
      9          8           0        0.667845    1.967789    0.115252
     10          1           0       -1.429581    1.661954   -1.434847
     11          1           0       -2.809153    0.620905   -1.025204
     12          1           0       -2.297719    1.905509    0.081475
     13          1           0       -1.092496   -1.270923    1.787044
     14          1           0       -2.638339   -1.141593    0.832064
     15          1           0       -1.367325   -1.622006   -1.293707
     16          1           0        0.862258   -2.412159    0.434941
     17          1           0        1.075074   -2.027003   -1.268684
     18          1           0        0.376394    0.645386    1.677490
     19          1           0        1.621425    1.949805   -0.054535
 ---------------------------------------------------------------------
 Rotational constants (GHZ):      2.4028441      1.7069410      1.1570904
 Standard basis: 6-31G(2df,p) (6D, 7F)
 There are   329 symmetry adapted cartesian basis functions of A   symmetry.
 There are   302 symmetry adapted basis functions of A   symmetry.
   302 basis functions,   466 primitive gaussians,   329 cartesian basis functions
    34 alpha electrons       34 beta electrons
       nuclear repulsion energy       467.2318835759 Hartrees.
 NAtoms=   19 NActive=   19 NUniq=   19 SFac= 1.00D+00 NAtFMM=   60 NAOKFM=F Big=F
 Integral buffers will be    131072 words long.
 Raffenetti 2 integral format.
 Two-electron integral symmetry is turned on.
 One-electron integrals computed using PRISM.
 NBasis=   302 RedAO= T EigKep=  4.42D-04  NBF=   302
 NBsUse=   302 1.00D-06 EigRej= -1.00D+00 NBFU=   302
 Initial guess from the checkpoint file:  "/scratch/puck/g09_71497f83-cb35-48a9-af9a-0a1d538d996c/Gau-74174.chk"
 B after Tr=     0.000000    0.000000    0.000000
         Rot=    1.000000    0.000025    0.000158    0.000615 Ang=   0.07 deg.
 Requested convergence on RMS density matrix=1.00D-08 within 128 cycles.
 Requested convergence on MAX density matrix=1.00D-06.
 Requested convergence on             energy=1.00D-06.
 No special actions if energy rises.
 SCF Done:  E(RB3LYP) =  -423.203808161     A.U. after    8 cycles
            NFock=  8  Conv=0.41D-08     -V/T= 2.0075
 Calling FoFJK, ICntrl=      2127 FMM=F ISym2X=0 I1Cent= 0 IOpClX= 0 NMat=1 NMatS=1 NMatT=0.
 ***** Axes restored to original set *****
 -------------------------------------------------------------------
 Center     Atomic                   Forces (Hartrees/Bohr)
 Number     Number              X              Y              Z
 -------------------------------------------------------------------
      1        6          -0.000026858   -0.000015222   -0.000001265
      2        6           0.000039074    0.000030271   -0.000020059
      3        6           0.000010195    0.000000197    0.000012893
      4        6          -0.000006003    0.000077368    0.000000334
      5        6           0.000038232    0.000071247   -0.000039921
      6        6          -0.000229234    0.000016242    0.000306559
      7        8           0.000078582   -0.000010950   -0.000116158
      8        6           0.000097212   -0.000137878   -0.000030912
      9        8          -0.000012913    0.000014783   -0.000102817
     10        1           0.000008309   -0.000000892   -0.000020210
     11        1          -0.000000913   -0.000014006    0.000013477
     12        1           0.000014269    0.000002107   -0.000003556
     13        1           0.000000562   -0.000020697    0.000016162
     14        1           0.000006692    0.000007772    0.000009116
     15        1           0.000024537    0.000004802    0.000004805
     16        1          -0.000041377    0.000009010   -0.000027537
     17        1           0.000006677   -0.000028911   -0.000014652
     18        1          -0.000004036   -0.000029150   -0.000022826
     19        1          -0.000003007    0.000023908    0.000036567
 -------------------------------------------------------------------
 Cartesian Forces:  Max     0.000306559 RMS     0.000064172

[...]
 ,-0.00747727,0.01502854,-0.07936131,-0.01177398,-0.02996713,0.57833426
 ,-0.00353247,-0.01437642,-0.00324575,0.00033983,-0.16501657,0.02177614
 ,-0.02410149,-0.06022616,-0.10973413,-0.05875085,0.46344377,0.00072750
 ,0.01386096,0.00393413,0.01170733,-0.02597606,-0.02553607,-0.02300667,
 -0.05756673,-0.16379749,-0.06699718,0.17659800,0.38201975,-0.00013295,
 0.00056808,0.00023308,-0.00378670,-0.01735838,-0.00469001,-0.00840612,
 -0.00590969,-0.00088412,-0.18321499,-0.02568037,-0.00752075,0.43332367
 ,-0.00035049,-0.00249382,-0.00285235,-0.02408930,-0.01371174,-0.004246
 34,-0.00428253,-0.00586725,-0.00207599,-0.02973449,-0.08081938,-0.0130
 9587,0.06584176,0.50503626,0.00027380,0.00300624,0.00165626,0.01044503
 ,0.00108722,-0.00202310,-0.02896329,-0.01104118,-0.00184036,-0.0025606
 7,-0.00890205,-0.07326521,-0.01093616,0.03923776,0.54867667,-0.0023086
 7,0.00092163,-0.00133430,-0.04120634,-0.00710471,-0.00565022,-0.001269
 52,0.00066103,-0.00136525,-0.04311090,0.01516097,-0.00454058,-0.077030
 48,0.00918241,-0.00093840,0.82044269,0.00383589,-0.00487401,-0.0002578
 7,-0.00606406,0.01143906,0.00185628,-0.00111114,0.00251498,-0.00004209
 ,0.01134976,0.00939957,-0.00276921,0.03152714,-0.15136454,-0.00202058,
 -0.06513165,0.45652145,0.00105603,-0.00148692,0.00025951,-0.00503037,0
 .00478624,0.00464092,0.00237207,0.00071486,0.00044322,-0.00789841,0.00
 022309,-0.00082873,0.00023191,0.00816552,-0.08524634,0.31539273,-0.038
 60651,0.41330925,-0.00045588,0.00115569,-0.00088552,0.00436042,-0.0070
 5171,-0.00023691,-0.00078540,-0.00015696,0.00103212,0.00352407,0.00539
 442,0.00045988,-0.02163584,0.02276832,-0.02333953,-0.59852254,0.059355
 12,-0.30013855,0.65600115,-0.00155035,0.00186667,0.00008362,-0.0021840
 2,-0.00487973,-0.00240366,0.00070055,-0.00117827,-0.00013660,0.0010498
 0,-0.00685925,0.00292706,0.03417310,0.00557967,0.01837992,0.06340414,-
 0.11125242,0.03467778,-0.06730953,0.09577127,-0.00101857,0.00137892,-0
 .00109830,0.00087780,-0.00589387,-0.00055472,-0.00172210,-0.00013081,0
 .00035088,0.00066926,0.00396226,0.00175478,-0.02260118,0.00590973,0.00
 546804,-0.30088621,0.03293047,-0.23656762,0.35573767,-0.03615815,0.226
 16685,-0.02354156,0.00787367,0.00192244,-0.16030556,0.02202819,0.00901
 635,-0.00691196,0.00704809,-0.00093284,0.00110874,0.01574682,-0.002274
 16,0.00144774,0.00956865,-0.00126409,-0.07289523,-0.02327681,-0.000325
 11,-0.03701642,-0.02567650,-0.03488447,0.46227485,-0.01246648,0.011495
 65,-0.00309613,0.02867959,-0.08254864,0.00169102,0.00531413,-0.0078835
 5,0.00281716,0.02152133,-0.02059201,0.00317506,-0.00710249,-0.02111570
 ,-0.00660173,-0.01793566,-0.12411756,-0.02400737,-0.01376276,0.0067186
 2,0.00236915,-0.04709527,0.47740926,0.01097227,-0.00781539,0.00200017,
 0.01308746,-0.00134026,-0.06739102,-0.02448635,0.01500084,-0.00349113,
 0.01283371,-0.00593947,-0.00037630,-0.00407410,0.00595084,0.02592145,0
 .00639650,-0.00252878,-0.08436936,-0.03368473,-0.00791842,-0.00102438,
 -0.00575388,-0.01038636,0.51367458,-0.00032875,0.00026478,0.00087076,0
 .00032304,0.02398064,-0.02516549,-0.00492017,0.00199656,0.00023475,-0.
 00128113,-0.00043265,-0.00051232,-0.00033210,-0.00135272,-0.00244847,-
 0.00295753,-0.01140273,0.00968079,0.00260203,-0.00773172,0.00365103,-0
 .09228198,0.02138245,-0.02719201,0.48489547,-0.00121037,-0.00005509,0.
 00039478,0.00443203,-0.01007672,0.00957568,0.00046920,0.00038481,-0.00
 145507,-0.00069858,-0.00017787,-0.00005339,-0.00324583,-0.00461039,-0.
 00552484,0.00004756,-0.04216817,0.02992870,0.00440972,0.00298669,-0.00
 027264,-0.01742885,-0.15632100,0.07862824,0.07012631,0.25255762,0.0019
 7103,0.00041795,-0.00127781,-0.00714643,0.01174305,-0.00620087,-0.0018
 3869,0.00019372,0.00122507,-0.00157949,-0.00010056,-0.00068356,0.00222
 796,-0.00042381,-0.00116687,-0.00511454,0.00870176,-0.00424981,-0.0008
 8119,-0.00759989,0.00531976,-0.00341109,0.09551475,-0.13454710,0.20377
 066,-0.12267537,0.26105630,-0.06347783,0.01112261,-0.06621674,0.006380
 97,-0.00525583,0.02519208,-0.00408208,-0.00090516,0.00230872,0.0012290
 7,0.00100075,-0.00105490,0.00004577,0.00029184,0.00004100,0.00027141,-
 0.00055843,0.00010718,-0.00004658,0.00034541,-0.00008798,0.00105683,-0
 .00029067,0.00085794,-0.00091263,0.00030692,-0.00080693,0.06740322,0.0
 1107031,-0.05438877,0.04253129,0.00401605,-0.00472772,0.01735718,-0.00
 304097,0.00002673,0.00232755,0.00111334,0.00113798,-0.00048308,-0.0000
 5425,0.00012877,-0.00008456,0.00001083,0.00003888,0.00036716,-0.000082
 12,-0.00007126,-0.00013062,0.00033804,0.00002928,-0.00010967,0.0004018
 6,-0.00022969,-0.00063282,-0.00935811,0.05734364,-0.06373771,0.0424441
 3,-0.28847700,-0.00181855,0.00363763,-0.01477981,0.00269854,-0.0002868
 2,0.00017414,-0.00022479,0.00051063,0.00072016,-0.00006829,-0.00005417
 ,-0.00006297,-0.00020106,0.00029128,-0.00030104,0.00019932,-0.00027957
 ,0.00026014,-0.00096798,0.00144795,-0.00129741,-0.00148317,-0.00040400
 ,0.00135021,0.06926768,-0.04967934,0.31414275,-0.23466745,0.11643486,-
 0.00574819,-0.02298056,0.01236484,-0.00058673,0.00056149,0.00092611,-0
 .00087921,0.00059882,0.00106776,-0.00074284,0.00006681,-0.00024259,-0.
 00038624,-0.00014240,0.00188973,0.00045712,-0.00053801,-0.00076137,-0.
 00050143,-0.00096586,-0.00324031,0.00200131,0.00029473,-0.00027198,0.0
 0027329,-0.00627618,0.00346418,0.00018177,0.25812349,0.11899079,-0.119
 12300,0.00354617,-0.01671268,0.00731999,0.00014958,-0.00019802,0.00084
 972,-0.00031456,-0.00048840,0.00137102,-0.00030793,0.00008337,-0.00007
 238,-0.00009991,-0.00042224,0.00065981,0.00021488,-0.00000434,-0.00016
 129,-0.00026145,-0.00196545,-0.00210060,0.00239966,0.00074637,0.000302
 55,-0.00023300,0.00307672,-0.00333941,-0.00069683,-0.12733542,0.128069
 22,-0.00656829,0.00395198,-0.04674649,0.01490067,-0.00802419,-0.001587
 70,0.00077388,-0.00098430,0.00079966,-0.00054390,-0.00023693,0.0007830
 9,-0.00002550,-0.00009036,0.00007631,0.00018783,-0.00093376,-0.0003362
 0,0.00038234,0.00027668,0.00037309,0.00110187,0.00317924,-0.00156077,-
 0.00122182,-0.00022108,0.00069526,-0.02609505,0.01638517,0.00124390,0.
 00455215,-0.00594592,0.04716183,-0.05236342,-0.03407012,-0.01761620,-0
 .00476845,-0.02443819,-0.01020310,0.00114488,0.00131287,-0.00021331,-0
 .00328931,-0.00020860,0.00100551,0.00026859,-0.00062183,0.00066255,0.0
 0020950,-0.00103224,0.00003898,-0.00005894,0.00053208,-0.00013801,0.00
 113818,-0.00027734,-0.00004416,-0.00009719,0.00065428,0.00004099,-0.00
 174529,-0.00755269,-0.00415004,0.00502292,0.02433573,0.01315043,0.0550
 8423,-0.03434244,-0.24789778,-0.10321709,-0.00361217,-0.01647534,-0.00
 540355,0.00086136,0.00079822,0.00017762,-0.00298203,0.00124902,0.00024
 365,0.00029383,-0.00049157,0.00096841,0.00005630,-0.00066463,0.0000795
 7,-0.00012989,0.00033342,-0.00016594,0.00048373,-0.00011208,0.00059666
 ,0.00007404,0.00045171,-0.00019459,0.00141057,0.00520698,0.00239836,-0
 .00285072,-0.01404997,-0.00749189,0.04163874,0.27158195,-0.01809015,-0
 .10356106,-0.09943788,0.00198820,0.01668953,0.00724749,-0.00105252,-0.
 00120743,0.00171751,0.00339489,0.00175913,-0.00021082,-0.00004249,0.00
 078153,-0.00054511,-0.00011243,0.00038072,-0.00014761,0.00000868,-0.00
 008328,0.00005387,-0.00031477,-0.00073484,0.00037338,0.00026001,0.0003
 5231,0.00030380,-0.00374496,-0.02802589,-0.01360175,0.00029496,0.00205
 189,-0.00028615,0.01715286,0.11173497,0.10468323,-0.00019913,-0.000045
 87,0.00016620,0.00185386,0.00037700,-0.00444004,-0.17437440,0.00394244
 ,0.13869368,0.00385267,-0.00079596,-0.00720573,0.00160505,-0.00009665,
 -0.00086598,0.00014166,-0.00002652,-0.00031450,0.00003135,-0.00001360,
 0.00014690,0.00074346,0.00104310,-0.00167740,-0.00020155,-0.00031112,0
 .00025427,0.00020325,-0.00008045,-0.00006035,0.00033246,0.00003127,-0.
 00031790,-0.00001460,0.00002678,0.00007798,0.17938712,0.00236029,0.000
 12724,0.00503425,-0.01941356,0.00041892,0.01476466,0.00390153,-0.03638
 377,-0.00204034,0.01912374,-0.00208130,-0.01622005,0.00196029,0.001381
 12,0.00220278,0.00013010,0.00048421,0.00017536,-0.00004372,-0.00014141
 ,-0.00007633,-0.00219022,0.00089168,-0.00029007,-0.00047792,0.00037092
 ,-0.00100539,-0.00125158,-0.00118961,0.00089725,0.00011378,0.00005725,
 -0.00010488,-0.00001008,0.00000512,-0.00022196,-0.00417523,0.03660732,
 -0.00146768,-0.00109176,-0.00172928,0.00730998,-0.00293799,-0.01310959
 ,0.13679012,-0.00248671,-0.20073314,0.00887124,0.00175381,-0.01504119,
 0.00175903,-0.00024035,0.00192927,-0.00012457,-0.00001642,-0.00033348,
 -0.00004800,0.00003722,-0.00009201,0.00214358,-0.00006823,0.00048222,-
 0.00010053,-0.00011603,0.00063173,0.00071521,0.00035348,-0.00007113,0.
 00015236,-0.00006275,-0.00003918,0.00011140,0.00010731,0.00020450,-0.1
 4611571,0.00295351,0.21975856,0.00042478,-0.00042822,0.00119207,-0.001
 47823,-0.00064078,-0.00018680,-0.31427799,0.01785357,-0.07408124,-0.00
 319614,0.00163561,0.00020410,0.00049873,-0.00037287,-0.00060805,0.0000
 8835,0.00002822,0.00014187,-0.00018179,-0.00000690,-0.00000309,0.00027
 266,-0.00016963,0.00015444,-0.00005799,-0.00006757,-0.00024984,0.00004
 315,-0.00014502,0.00006347,0.00062702,0.00013431,-0.00018709,0.0002265
 5,0.00004275,-0.00026985,-0.01420280,0.00104998,-0.00693173,0.32991400
 ,-0.00018499,0.00109063,-0.00332045,0.02665042,-0.00160286,0.00395548,
 0.01810704,-0.03529226,0.00536678,-0.02560111,0.00186179,-0.00272535,-
 0.00055914,-0.00036543,-0.00492065,-0.00007322,-0.00215301,-0.00050050
 ,0.00002606,0.00104278,0.00018437,-0.00042705,-0.00014028,0.00381626,0
 .00181033,-0.00025479,0.00091967,0.00016864,0.00036881,-0.00043728,-0.
 00055377,0.00011946,0.00026455,-0.00007258,-0.00037642,0.00005077,0.00
 023820,-0.00053351,0.00015497,-0.01913038,0.03681024,-0.00124566,0.000
 84611,0.00223277,-0.01545386,-0.00047658,-0.00705120,-0.07098492,0.005
 19205,-0.06863263,-0.01625014,0.00244970,-0.00726820,0.00087929,0.0012
 4180,-0.00231848,-0.00074911,-0.00006255,0.00034093,-0.00005445,0.0001
 1659,-0.00041985,0.00102408,-0.00154855,-0.00222516,-0.00044879,0.0002
 0630,0.00007897,0.00011200,-0.00026766,0.00013965,0.00061883,-0.000077
 12,-0.00060832,0.00042477,0.00041120,-0.00019969,0.02186012,-0.0015002
 5,0.00875769,0.08105933,-0.00556461,0.07451966,0.00091569,-0.00066049,
 0.00008411,-0.00011193,-0.00145996,-0.00214070,0.00653728,-0.00613021,
 -0.00603357,-0.19155810,0.10606285,0.09979014,-0.01395545,0.01481782,0
 .01135481,-0.00324744,-0.00370666,0.00090777,-0.00061879,0.00193238,-0
 .00119590,0.00008572,0.00007751,0.00024240,0.00025925,0.00025904,-0.00
 001001,0.00004036,0.00000837,0.00015405,0.00021957,0.00016161,-0.00025
 482,-0.00010137,-0.00002196,-0.00000379,-0.00003697,-0.00162977,-0.000
 75858,0.00103997,0.00093970,-0.00013872,0.20115495,0.00186235,0.003062
 47,0.00155536,0.01792770,-0.01047136,-0.01499535,-0.00224262,-0.004881
 04,-0.00047788,0.10508918,-0.12183856,-0.07705423,-0.00949861,0.007584
 18,0.00576012,-0.00067775,-0.00367219,0.00097813,-0.00017445,0.0014706
 5,-0.00041653,-0.00150061,-0.00199386,-0.00369691,0.00044533,-0.000228
 87,0.00074957,-0.00043753,-0.00036318,0.00042625,-0.00098315,-0.000054
 92,0.00003845,-0.00006778,0.00052230,-0.00016366,-0.00013123,0.0003526
 0,0.00156519,0.00004389,0.00052121,-0.00113578,-0.11054430,0.13041303,
 0.00019200,-0.00171432,0.00029060,-0.01206526,0.00381827,0.00287274,0.
 02078871,-0.01400539,-0.01254806,0.10000628,-0.07894249,-0.10500492,-0
 .00378593,0.00301296,0.00163401,-0.00222379,0.00028884,0.00020798,-0.0
 0021447,0.00039428,-0.00068241,0.00066165,0.00247374,0.00113756,-0.000
 20377,0.00009021,-0.00013311,-0.00029540,-0.00003996,0.00001738,0.0000
 5485,-0.00022124,-0.00006718,-0.00011778,-0.00019676,0.00001552,-0.001
 02392,-0.00466198,-0.00180987,0.00029349,0.00276122,0.00184646,-0.1017
 4197,0.08609414,0.11118405,0.00005547,-0.00151242,-0.00121893,-0.00446
 776,0.00068382,0.00226358,0.00320441,0.00275973,0.00090196,-0.01397345
 ,-0.01642330,0.02230913,-0.07345745,-0.03653687,0.07447100,0.00715739,
 0.00258740,-0.01704121,-0.00297331,0.00143982,0.00216318,-0.00111438,0
 .00126256,0.00298289,0.00003293,-0.00015304,-0.00010520,0.00001148,0.0
 0006322,0.00003306,0.00015200,0.00006183,-0.00001866,-0.00041170,-0.00
 043584,0.00031531,0.00042715,-0.00075933,-0.00118128,0.00014029,0.0004
 7224,0.00001984,-0.00189130,-0.00136122,0.00039103,0.08494729,-0.00008
 348,-0.00042447,-0.00053947,-0.00033649,-0.00141605,0.00051440,-0.0004
 6615,0.00114794,0.00097404,-0.00326299,-0.00301180,0.00293858,-0.04096
 567,-0.09153946,0.09689888,-0.00925728,-0.00977178,0.02514938,0.001472
 04,-0.00023838,-0.00247975,-0.00038347,-0.00141655,-0.00380372,0.00040
 360,-0.00007539,0.00032851,0.00003587,0.00004972,-0.00000481,-0.000023
 95,0.00002017,0.00001925,-0.00017395,-0.00010433,0.00011934,0.00011628
 ,-0.00021251,-0.00052688,0.00018436,-0.00009582,-0.00030745,0.00010653
 ,-0.00022530,0.00015095,0.04616578,0.09854253,-0.00007345,-0.00030863,
 -0.00014222,-0.00138944,-0.00223318,-0.00032919,-0.00071347,-0.0001202
 0,0.00231360,-0.00156352,-0.00293706,0.00473914,0.07828569,0.09187661,
 -0.21778686,0.00066397,0.00190553,-0.00549118,-0.00066138,0.00077302,0
 .00127791,0.00020774,0.00023170,-0.00070983,-0.00004736,0.00026761,0.0
 0009990,0.00002603,-0.00001965,0.00000062,0.00002920,0.00000435,-0.000
 01911,-0.00004446,-0.00007856,0.00006134,0.00075911,0.00069593,0.00021
 407,-0.00015332,-0.00000474,0.00026778,-0.00013619,0.00051728,-0.00008
 906,-0.08377011,-0.10164475,0.23611358,0.00016836,-0.00022178,-0.00030
 431,-0.00068559,-0.00034956,-0.00032744,-0.00464399,-0.00096781,0.0006
 8636,-0.00184129,-0.01796517,-0.02440553,-0.05244938,-0.02289109,-0.02
 721210,0.00318672,0.00965658,0.01581810,0.00015048,-0.00140389,-0.0015
 0575,-0.00170215,0.00068847,-0.00228078,0.00100581,0.00094802,0.000019
 52,-0.00004647,-0.00003159,0.00009752,0.00001429,-0.00000517,-0.000035
 96,-0.00015245,-0.00006262,0.00009157,-0.00006692,0.00059852,0.0000514
 1,-0.00017191,-0.00152742,-0.00055014,0.00133492,0.00076716,0.00014938
 ,0.00153169,0.00710155,0.00867037,0.05443725,-0.00006163,0.00001288,-0
 .00021243,0.00005099,-0.00075225,0.00001654,0.00000491,0.00076054,0.00
 079926,0.00083837,-0.00292629,-0.00305826,-0.02325703,-0.14680217,-0.1
 3245849,-0.00477717,-0.02228331,-0.02339485,-0.00167218,0.00423773,0.0
 0222890,0.00172281,-0.00223414,0.00432631,-0.00052887,-0.00207254,0.00
 004304,0.00002115,-0.00005144,0.00000252,-0.00006206,-0.00000430,0.000
 00635,-0.00002214,-0.00001926,0.00006100,0.00005923,-0.00004966,-0.000
 05003,0.00012472,-0.00004711,-0.00006178,-0.00011753,0.00053568,0.0003
 2958,0.00132597,0.00974564,0.01115544,0.02636759,0.16143112,0.00006542
 ,0.00006512,0.00009967,0.00030553,0.00044252,-0.00040371,-0.00106138,0
 .00004968,0.00006250,0.00028545,0.00021618,-0.00130850,-0.02891885,-0.
 13156509,-0.20069978,0.00012529,0.00612542,0.00508097,0.00099408,-0.00
 018831,0.00052628,-0.00021174,0.00105572,-0.00110411,0.00025633,0.0005
 5357,0.00006385,-0.00001971,-0.00000273,0.00004887,0.00002116,-0.00000
 146,-0.00001379,0.00000268,0.00000007,-0.00001874,-0.00009813,0.000373
 21,0.00038952,-0.00010599,-0.00042301,0.00008196,-0.00016602,0.0001491
 1,0.00084510,-0.00240299,-0.01758703,-0.02063617,0.03093052,0.14087418
 ,0.21685217,-0.00098040,0.00201729,-0.00007063,-0.01403201,0.01650891,
 0.02391634,0.00174389,-0.00316342,0.00182609,-0.00430360,0.00074627,0.
 00225360,-0.00114878,-0.00178495,0.00285013,0.00672610,-0.00419954,-0.
 01834336,-0.00266878,-0.00033610,0.00210023,-0.06452234,0.01805796,0.0
 5500155,0.00729983,-0.00057376,-0.00348277,0.00012613,-0.00006200,0.00
 001003,-0.00057258,-0.00051218,0.00022991,-0.00010477,-0.00039707,-0.0
 0005424,0.00049052,0.00073397,-0.00114560,0.00021676,-0.00028411,-0.00
 013340,0.00008784,0.00155612,-0.00076211,0.00068277,-0.00059851,-0.000
 09485,-0.00017203,0.00023910,-0.00003842,0.07191462,0.00003805,-0.0005
 2290,-0.00017829,0.00485189,-0.00171389,-0.00362834,0.00236331,0.00140
 779,-0.00100312,-0.00000998,-0.00095055,-0.00051059,0.00019411,-0.0015
 1162,0.00337500,0.00769033,-0.00278437,-0.02391740,-0.00311731,-0.0003
 8615,0.00175939,0.02082782,-0.07414166,-0.08237863,-0.00434936,0.00189
 182,0.03741076,0.00024980,-0.00006065,-0.00017579,0.00006938,0.0000908
 4,-0.00013076,0.00002564,0.00000044,-0.00002375,-0.00014054,-0.0002934
 4,0.00065129,-0.00013666,-0.00039868,0.00044334,0.00013746,-0.00041356
 ,0.00034151,0.00050053,-0.00088488,-0.00004299,-0.00033068,0.00036022,
 -0.00005290,-0.02738668,0.08099776,-0.00015027,-0.00017492,-0.00019086
 ,-0.00130505,-0.00128291,-0.00079429,-0.00195492,0.00036034,0.00215888
 ,-0.00011536,0.00080609,-0.00042468,0.00030003,-0.00130296,-0.00044792
 ,0.00266220,-0.00645486,-0.00879613,-0.00040776,-0.00029834,0.00119875
 ,0.06242224,-0.07200240,-0.22536264,-0.00031268,0.01421425,-0.03027572
 ,-0.00024255,0.00005190,0.00021444,0.00007857,-0.00007729,0.00004407,0
 .00004609,0.00002519,-0.00009204,0.00035719,-0.00093029,0.00052138,-0.
 00031420,0.00031509,0.00040890,0.00003668,0.00026384,0.00028246,-0.000
 07772,-0.00021722,0.00011761,0.00002933,-0.00046651,0.00009362,-0.0634
 3938,0.06658244,0.26313983,0.00028613,0.00006657,-0.00026529,-0.000285
 64,-0.00002934,-0.00168927,-0.00030502,0.00037199,0.00021043,-0.000044
 25,0.00073559,-0.00019653,-0.00170611,-0.00011442,-0.00057534,0.004467
 21,-0.00372004,0.00288695,-0.00116723,0.00339671,-0.00080138,-0.006870
 74,0.00431352,-0.00533708,-0.39334206,-0.05769198,-0.18393154,-0.00022
 458,-0.00007901,0.00000650,0.00012944,0.00002190,-0.00001009,0.0000126
 3,-0.00005336,0.00010074,0.00002782,-0.00002079,-0.00003066,0.00007460
 ,0.00000113,0.00001094,-0.00015421,-0.00007245,-0.00010299,-0.00005355
 ,-0.00003407,0.00000545,0.00010264,-0.00025625,0.00003677,-0.00078318,
 -0.00147709,0.00238757,0.39983609,-0.00056876,-0.00020405,-0.00009619,
 0.00024231,-0.00458821,0.00516062,0.00117176,-0.00034357,-0.00017389,0
 .00078770,0.00041303,0.00007744,-0.00101022,0.00105545,0.00073765,0.00
 811437,-0.00595196,0.00645286,-0.00107638,0.00516063,-0.00473711,0.034
 30642,-0.00182685,0.01548888,-0.09535630,-0.04267560,-0.02315738,0.000
 02703,0.00009093,-0.00003740,-0.00000533,0.00004585,0.00004240,0.00004
 820,0.00004219,0.00004069,-0.00001715,0.00018882,0.00002040,0.00000063
 ,-0.00055475,0.00009523,-0.00023240,-0.00031927,0.00002642,-0.00014087
 ,-0.00008927,-0.00003771,-0.00037109,0.00015868,-0.00008426,-0.0005613
 0,-0.00068652,0.00058855,0.05464140,0.05008447,0.00036260,-0.00037758,
 -0.00001243,0.00207629,-0.00036107,-0.00142624,-0.00040372,0.00047737,
 -0.00018781,0.00006391,-0.00001658,-0.00020540,-0.00036959,-0.00022947
 ,0.00004098,-0.00218808,0.00121232,0.00238470,0.00173840,-0.00259995,-
 0.00231105,-0.02815983,0.00449014,-0.02013015,-0.15958793,-0.00348922,
 -0.09229002,-0.00006362,0.00010223,0.00027882,0.00012904,-0.00006708,0
 .00008768,-0.00010917,0.00000539,-0.00012085,-0.00019580,-0.00004539,0
 .00006996,-0.00001757,0.00010743,0.00004875,0.00001032,-0.00015711,0.0
 0000074,-0.00003489,0.00001774,-0.00000194,0.00007792,-0.00014077,0.00
 004030,-0.00062311,0.00147881,-0.00179567,0.18729482,-0.00040721,0.115
 52964\\-0.00000106,-0.00000052,0.00000606,0.00000444,0.00000713,0.,-0.
 00000058,-0.00000525,-0.00000146,-0.00001019,0.00000343,-0.00000273,0.
 00000430,-0.00000383,-0.00000309,0.00000314,-0.00000008,0.00000179,-0.
 00000188,0.00000047,-0.00000152,-0.00000224,-0.00000775,0.00000431,-0.
 00000072,0.00000479,0.00000327,0.00000070,0.00000313,0.00000135,-0.000
 00056,0.00000312,0.00000209,-0.00000250,0.00000241,0.00000175,0.000002
 14,-0.00000234,-0.00000025,0.00000040,-0.00000443,-0.00000327,0.000003
 06,0.00000314,-0.00000319,0.00000049,-0.00000387,-0.00000496,0.0000034
 1,0.00000231,-0.00000504,-0.00000113,-0.00000340,0.00000148,-0.0000012
 2,0.00000155,0.00000341\\\@


 ... IT IS NO ONE DREAME THAT
     CAN PLEASE THESE ALL ...

                -- BEN JONSON
 Job cpu time:       0 days  0 hours 35 minutes 33.6 seconds.
 File lengths (MBytes):  RWF=    152 Int=      0 D2E=      0 Chk=      8 Scr=      1
 Normal termination of Gaussian 09 at Thu Jan 30 16:42:38 2020.
