 Entering Gaussian System, Link 0=/home/puck/opt/gaussian_09/g09
 Input=dsC7O2H10nsd_2243.com
 Output=dsC7O2H10nsd_2243.log
 Initial command:
 /home/puck/opt/gaussian_09/l1.exe "/scratch/puck/g09_2075cdf9-6ea7-4164-ac4c-d8d6f4a3f95f/Gau-4335.inp" -scrdir="/scratch/puck/g09_2075cdf9-6ea7-4164-ac4c-d8d6f4a3f95f/"
 Entering Link 1 = /home/puck/opt/gaussian_09/l1.exe PID=      4336.
  
 Copyright (c) 1988,1990,1992,1993,1995,1998,2003,2009,2013,
            Gaussian, Inc.  All Rights Reserved.
  
 This is part of the Gaussian(R) 09 program.  It is based on
 the Gaussian(R) 03 system (copyright 2003, Gaussian, Inc.),
 the Gaussian(R) 98 system (copyright 1998, Gaussian, Inc.),
 the Gaussian(R) 94 system (copyright 1995, Gaussian, Inc.),
 the Gaussian 92(TM) system (copyright 1992, Gaussian, Inc.),
 the Gaussian 90(TM) system (copyright 1990, Gaussian, Inc.),
 the Gaussian 88(TM) system (copyright 1988, Gaussian, Inc.),
 the Gaussian 86(TM) system (copyright 1986, Carnegie Mellon
 University), and the Gaussian 82(TM) system (copyright 1983,
 Carnegie Mellon University). Gaussian is a federally registered
 trademark of Gaussian, Inc.
  
 This software contains proprietary and confidential information,
 including trade secrets, belonging to Gaussian, Inc.
  
 This software is provided under written license and may be
 used, copied, transmitted, or stored only in accord with that
 written license.
  
 The following legend is applicable only to US Government
 contracts under FAR:
  
                    RESTRICTED RIGHTS LEGEND
  
 Use, reproduction and disclosure by the US Government is
 subject to restrictions as set forth in subparagraphs (a)
 and (c) of the Commercial Computer Software - Restricted
 Rights clause in FAR 52.227-19.
  
 Gaussian, Inc.
 340 Quinnipiac St., Bldg. 40, Wallingford CT 06492
  
  
 ---------------------------------------------------------------
 Warning -- This program may not be used in any manner that
 competes with the business of Gaussian, Inc. or will provide
 assistance to any competitor of Gaussian, Inc.  The licensee
 of this program is prohibited from giving any competitor of
 Gaussian, Inc. access to this program.  By using this program,
 the user acknowledges that Gaussian, Inc. is engaged in the
 business of creating and licensing software in the field of
 computational chemistry and represents and warrants to the
 licensee that it is not a competitor of Gaussian, Inc. and that
 it will not use this program in any manner prohibited above.
 ---------------------------------------------------------------
  

 Cite this work as:
 Gaussian 09, Revision D.01,
 M. J. Frisch, G. W. Trucks, H. B. Schlegel, G. E. Scuseria, 
 M. A. Robb, J. R. Cheeseman, G. Scalmani, V. Barone, B. Mennucci, 
 G. A. Petersson, H. Nakatsuji, M. Caricato, X. Li, H. P. Hratchian, 
 A. F. Izmaylov, J. Bloino, G. Zheng, J. L. Sonnenberg, M. Hada, 
 M. Ehara, K. Toyota, R. Fukuda, J. Hasegawa, M. Ishida, T. Nakajima, 
 Y. Honda, O. Kitao, H. Nakai, T. Vreven, J. A. Montgomery, Jr., 
 J. E. Peralta, F. Ogliaro, M. Bearpark, J. J. Heyd, E. Brothers, 
 K. N. Kudin, V. N. Staroverov, T. Keith, R. Kobayashi, J. Normand, 
 K. Raghavachari, A. Rendell, J. C. Burant, S. S. Iyengar, J. Tomasi, 
 M. Cossi, N. Rega, J. M. Millam, M. Klene, J. E. Knox, J. B. Cross, 
 V. Bakken, C. Adamo, J. Jaramillo, R. Gomperts, R. E. Stratmann, 
 O. Yazyev, A. J. Austin, R. Cammi, C. Pomelli, J. W. Ochterski, 
 R. L. Martin, K. Morokuma, V. G. Zakrzewski, G. A. Voth, 
 P. Salvador, J. J. Dannenberg, S. Dapprich, A. D. Daniels, 
 O. Farkas, J. B. Foresman, J. V. Ortiz, J. Cioslowski, 
 and D. J. Fox, Gaussian, Inc., Wallingford CT, 2013.
 
 ******************************************
 Gaussian 09:  ES64L-G09RevD.01 24-Apr-2013
                27-Jan-2020 
 ******************************************
 -----------------------------
 # b3lyp 6-31G(2df,p) opt Freq
 -----------------------------
 1/14=-1,18=20,19=15,26=3,38=1/1,3;
 2/9=110,12=2,17=6,18=5,40=1/2;
 3/5=1,6=6,7=104,11=2,16=1,25=1,30=1,71=1,74=-5/1,2,3;
 4//1;
 5/5=2,38=5/2;
 6/7=2,8=2,9=2,10=2,28=1/1;
 7//1,2,3,16;
 1/14=-1,18=20,19=15,26=3/3(2);
 2/9=110/2;
 99//99;
 2/9=110/2;
 3/5=1,6=6,7=104,11=2,16=1,25=1,30=1,71=1,74=-5/1,2,3;
 4/5=5,16=3,69=1/1;
 5/5=2,38=5/2;
 7//1,2,3,16;
 1/14=-1,18=20,19=15,26=3/3(-5);
 2/9=110/2;
 6/7=2,8=2,9=2,10=2,19=2,28=1/1;
 99/9=1/99;
 -----
 titel
 -----
 Symbolic Z-matrix:
 Charge =  0 Multiplicity = 1
 O                    -1.46498  -1.14459   1.81487 
 C                    -1.90979   0.04596   1.25547 
 C                    -3.32217   0.37217   0.80284 
 C                    -2.91744   1.88887   0.87133 
 C                    -2.43137   2.39537  -0.50056 
 C                    -1.21518   1.49057  -0.83043 
 C                    -0.86482   0.85168   0.50927 
 O                     0.44712   0.43463   0.69006 
 C                    -1.63225   1.49953   1.64914 
 H                    -1.80553  -1.21655   2.71312 
 H                    -3.66854  -0.02155  -0.15984 
 H                    -4.05584   0.12271   1.57659 
 H                    -3.63707   2.53933   1.36732 
 H                    -3.21664   2.34764  -1.26135 
 H                    -2.1177    3.44138  -0.41712 
 H                    -1.44698   0.73815  -1.59175 
 H                    -0.35677   2.06239  -1.19415 
 H                     0.40605  -0.42531   1.13027 
 H                    -1.18849   1.94658   2.5287 
 

 GradGradGradGradGradGradGradGradGradGradGradGradGradGradGradGradGradGrad
 Berny optimization.
 Initialization pass.
                           ----------------------------
                           !    Initial Parameters    !
                           ! (Angstroms and Degrees)  !
 --------------------------                            --------------------------
 ! Name  Definition              Value          Derivative Info.                !
 --------------------------------------------------------------------------------
 ! R1    R(1,2)                  1.3886         estimate D2E/DX2                !
 ! R2    R(1,10)                 0.9633         estimate D2E/DX2                !
 ! R3    R(2,3)                  1.5186         estimate D2E/DX2                !
 ! R4    R(2,7)                  1.5159         estimate D2E/DX2                !
 ! R5    R(2,9)                  1.5313         estimate D2E/DX2                !
 ! R6    R(3,4)                  1.5713         estimate D2E/DX2                !
 ! R7    R(3,11)                 1.0962         estimate D2E/DX2                !
 ! R8    R(3,12)                 1.0951         estimate D2E/DX2                !
 ! R9    R(4,5)                  1.5411         estimate D2E/DX2                !
 ! R10   R(4,9)                  1.5519         estimate D2E/DX2                !
 ! R11   R(4,13)                 1.0895         estimate D2E/DX2                !
 ! R12   R(5,6)                  1.5513         estimate D2E/DX2                !
 ! R13   R(5,14)                 1.0944         estimate D2E/DX2                !
 ! R14   R(5,15)                 1.0952         estimate D2E/DX2                !
 ! R15   R(6,7)                  1.525          estimate D2E/DX2                !
 ! R16   R(6,16)                 1.0952         estimate D2E/DX2                !
 ! R17   R(6,17)                 1.0937         estimate D2E/DX2                !
 ! R18   R(7,8)                  1.3885         estimate D2E/DX2                !
 ! R19   R(7,9)                  1.5192         estimate D2E/DX2                !
 ! R20   R(8,18)                 0.9669         estimate D2E/DX2                !
 ! R21   R(9,19)                 1.0819         estimate D2E/DX2                !
 ! A1    A(2,1,10)             109.0525         estimate D2E/DX2                !
 ! A2    A(1,2,3)              127.0258         estimate D2E/DX2                !
 ! A3    A(1,2,7)              115.6703         estimate D2E/DX2                !
 ! A4    A(1,2,9)              130.7105         estimate D2E/DX2                !
 ! A5    A(3,2,7)              112.3481         estimate D2E/DX2                !
 ! A6    A(3,2,9)               92.3664         estimate D2E/DX2                !
 ! A7    A(2,3,4)               87.4087         estimate D2E/DX2                !
 ! A8    A(2,3,11)             118.585          estimate D2E/DX2                !
 ! A9    A(2,3,12)             111.3201         estimate D2E/DX2                !
 ! A10   A(4,3,11)             117.7975         estimate D2E/DX2                !
 ! A11   A(4,3,12)             111.2024         estimate D2E/DX2                !
 ! A12   A(11,3,12)            109.086          estimate D2E/DX2                !
 ! A13   A(3,4,5)              111.0813         estimate D2E/DX2                !
 ! A14   A(3,4,9)               89.5983         estimate D2E/DX2                !
 ! A15   A(3,4,13)             115.2141         estimate D2E/DX2                !
 ! A16   A(5,4,9)              105.5118         estimate D2E/DX2                !
 ! A17   A(5,4,13)             114.6696         estimate D2E/DX2                !
 ! A18   A(9,4,13)             117.946          estimate D2E/DX2                !
 ! A19   A(4,5,6)              104.1743         estimate D2E/DX2                !
 ! A20   A(4,5,14)             112.2217         estimate D2E/DX2                !
 ! A21   A(4,5,15)             109.6584         estimate D2E/DX2                !
 ! A22   A(6,5,14)             112.9091         estimate D2E/DX2                !
 ! A23   A(6,5,15)             110.4087         estimate D2E/DX2                !
 ! A24   A(14,5,15)            107.4648         estimate D2E/DX2                !
 ! A25   A(5,6,7)              103.7483         estimate D2E/DX2                !
 ! A26   A(5,6,16)             112.4939         estimate D2E/DX2                !
 ! A27   A(5,6,17)             112.4016         estimate D2E/DX2                !
 ! A28   A(7,6,16)             111.806          estimate D2E/DX2                !
 ! A29   A(7,6,17)             109.321          estimate D2E/DX2                !
 ! A30   A(16,6,17)            107.1063         estimate D2E/DX2                !
 ! A31   A(2,7,6)              119.7839         estimate D2E/DX2                !
 ! A32   A(2,7,8)              115.3156         estimate D2E/DX2                !
 ! A33   A(6,7,8)              117.2132         estimate D2E/DX2                !
 ! A34   A(6,7,9)              111.3719         estimate D2E/DX2                !
 ! A35   A(8,7,9)              120.5111         estimate D2E/DX2                !
 ! A36   A(7,8,18)             106.6354         estimate D2E/DX2                !
 ! A37   A(2,9,4)               87.662          estimate D2E/DX2                !
 ! A38   A(2,9,19)             132.5012         estimate D2E/DX2                !
 ! A39   A(4,9,7)               98.5849         estimate D2E/DX2                !
 ! A40   A(4,9,19)             130.0544         estimate D2E/DX2                !
 ! A41   A(7,9,19)             125.3818         estimate D2E/DX2                !
 ! D1    D(10,1,2,3)           -72.1444         estimate D2E/DX2                !
 ! D2    D(10,1,2,7)           134.8643         estimate D2E/DX2                !
 ! D3    D(10,1,2,9)            63.6824         estimate D2E/DX2                !
 ! D4    D(1,2,3,4)            161.1467         estimate D2E/DX2                !
 ! D5    D(1,2,3,11)           -78.3913         estimate D2E/DX2                !
 ! D6    D(1,2,3,12)            49.3714         estimate D2E/DX2                !
 ! D7    D(7,2,3,4)            -45.1195         estimate D2E/DX2                !
 ! D8    D(7,2,3,11)            75.3425         estimate D2E/DX2                !
 ! D9    D(7,2,3,12)          -156.8948         estimate D2E/DX2                !
 ! D10   D(9,2,3,4)             13.0615         estimate D2E/DX2                !
 ! D11   D(9,2,3,11)           133.5235         estimate D2E/DX2                !
 ! D12   D(9,2,3,12)           -98.7138         estimate D2E/DX2                !
 ! D13   D(1,2,7,6)            136.9352         estimate D2E/DX2                !
 ! D14   D(1,2,7,8)            -11.6717         estimate D2E/DX2                !
 ! D15   D(3,2,7,6)            -19.9858         estimate D2E/DX2                !
 ! D16   D(3,2,7,8)           -168.5927         estimate D2E/DX2                !
 ! D17   D(1,2,9,4)           -159.3906         estimate D2E/DX2                !
 ! D18   D(1,2,9,19)           -12.6543         estimate D2E/DX2                !
 ! D19   D(3,2,9,4)            -13.2253         estimate D2E/DX2                !
 ! D20   D(3,2,9,19)           133.511          estimate D2E/DX2                !
 ! D21   D(2,3,4,5)             93.6201         estimate D2E/DX2                !
 ! D22   D(2,3,4,9)            -12.8745         estimate D2E/DX2                !
 ! D23   D(2,3,4,13)          -133.8522         estimate D2E/DX2                !
 ! D24   D(11,3,4,5)           -27.5496         estimate D2E/DX2                !
 ! D25   D(11,3,4,9)          -134.0442         estimate D2E/DX2                !
 ! D26   D(11,3,4,13)          104.9782         estimate D2E/DX2                !
 ! D27   D(12,3,4,5)          -154.4903         estimate D2E/DX2                !
 ! D28   D(12,3,4,9)            99.0151         estimate D2E/DX2                !
 ! D29   D(12,3,4,13)          -21.9625         estimate D2E/DX2                !
 ! D30   D(3,4,5,6)            -59.555          estimate D2E/DX2                !
 ! D31   D(3,4,5,14)            62.9169         estimate D2E/DX2                !
 ! D32   D(3,4,5,15)          -177.7289         estimate D2E/DX2                !
 ! D33   D(9,4,5,6)             36.1377         estimate D2E/DX2                !
 ! D34   D(9,4,5,14)           158.6097         estimate D2E/DX2                !
 ! D35   D(9,4,5,15)           -82.0361         estimate D2E/DX2                !
 ! D36   D(13,4,5,6)           167.6424         estimate D2E/DX2                !
 ! D37   D(13,4,5,14)          -69.8856         estimate D2E/DX2                !
 ! D38   D(13,4,5,15)           49.4686         estimate D2E/DX2                !
 ! D39   D(3,4,9,2)             12.7634         estimate D2E/DX2                !
 ! D40   D(3,4,9,7)             71.5347         estimate D2E/DX2                !
 ! D41   D(3,4,9,19)          -135.3454         estimate D2E/DX2                !
 ! D42   D(5,4,9,2)            -99.0356         estimate D2E/DX2                !
 ! D43   D(5,4,9,7)            -40.2643         estimate D2E/DX2                !
 ! D44   D(5,4,9,19)           112.8555         estimate D2E/DX2                !
 ! D45   D(13,4,9,2)           131.3527         estimate D2E/DX2                !
 ! D46   D(13,4,9,7)          -169.876          estimate D2E/DX2                !
 ! D47   D(13,4,9,19)          -16.7561         estimate D2E/DX2                !
 ! D48   D(4,5,6,7)            -15.9636         estimate D2E/DX2                !
 ! D49   D(4,5,6,16)           105.049          estimate D2E/DX2                !
 ! D50   D(4,5,6,17)          -133.9508         estimate D2E/DX2                !
 ! D51   D(14,5,6,7)          -137.9828         estimate D2E/DX2                !
 ! D52   D(14,5,6,16)          -16.9702         estimate D2E/DX2                !
 ! D53   D(14,5,6,17)          104.03           estimate D2E/DX2                !
 ! D54   D(15,5,6,7)           101.6938         estimate D2E/DX2                !
 ! D55   D(15,5,6,16)         -137.2936         estimate D2E/DX2                !
 ! D56   D(15,5,6,17)          -16.2934         estimate D2E/DX2                !
 ! D57   D(5,6,7,2)             57.4857         estimate D2E/DX2                !
 ! D58   D(5,6,7,8)           -154.4854         estimate D2E/DX2                !
 ! D59   D(5,6,7,9)             -9.9687         estimate D2E/DX2                !
 ! D60   D(16,6,7,2)           -63.9884         estimate D2E/DX2                !
 ! D61   D(16,6,7,8)            84.0405         estimate D2E/DX2                !
 ! D62   D(16,6,7,9)          -131.4428         estimate D2E/DX2                !
 ! D63   D(17,6,7,2)           177.5872         estimate D2E/DX2                !
 ! D64   D(17,6,7,8)           -34.3839         estimate D2E/DX2                !
 ! D65   D(17,6,7,9)           110.1328         estimate D2E/DX2                !
 ! D66   D(2,7,8,18)            11.5835         estimate D2E/DX2                !
 ! D67   D(6,7,8,18)          -137.8613         estimate D2E/DX2                !
 ! D68   D(9,7,8,18)            80.9995         estimate D2E/DX2                !
 ! D69   D(6,7,9,4)             30.9053         estimate D2E/DX2                !
 ! D70   D(6,7,9,19)          -123.9778         estimate D2E/DX2                !
 ! D71   D(8,7,9,4)            174.0939         estimate D2E/DX2                !
 ! D72   D(8,7,9,19)            19.2108         estimate D2E/DX2                !
 --------------------------------------------------------------------------------
 Trust Radius=3.00D-01 FncErr=1.00D-07 GrdErr=1.00D-06
 Number of steps in this run=    114 maximum allowed number of steps=    114.
 GradGradGradGradGradGradGradGradGradGradGradGradGradGradGradGradGradGrad

                          Input orientation:                          
 ---------------------------------------------------------------------
 Center     Atomic      Atomic             Coordinates (Angstroms)
 Number     Number       Type             X           Y           Z
 ---------------------------------------------------------------------
      1          8           0       -1.464982   -1.144591    1.814866
      2          6           0       -1.909791    0.045961    1.255473
      3          6           0       -3.322171    0.372167    0.802841
      4          6           0       -2.917437    1.888875    0.871333
      5          6           0       -2.431369    2.395373   -0.500564
      6          6           0       -1.215184    1.490571   -0.830433
      7          6           0       -0.864823    0.851675    0.509266
      8          8           0        0.447121    0.434627    0.690062
      9          6           0       -1.632251    1.499527    1.649138
     10          1           0       -1.805529   -1.216545    2.713123
     11          1           0       -3.668543   -0.021555   -0.159843
     12          1           0       -4.055840    0.122708    1.576593
     13          1           0       -3.637068    2.539328    1.367316
     14          1           0       -3.216643    2.347642   -1.261345
     15          1           0       -2.117698    3.441380   -0.417123
     16          1           0       -1.446984    0.738154   -1.591747
     17          1           0       -0.356766    2.062393   -1.194148
     18          1           0        0.406055   -0.425306    1.130275
     19          1           0       -1.188485    1.946577    2.528701
 ---------------------------------------------------------------------
                    Distance matrix (angstroms):
                    1          2          3          4          5
     1  O    0.000000
     2  C    1.388593   0.000000
     3  C    2.602671   1.518585   0.000000
     4  C    3.493106   2.135238   1.571274   0.000000
     5  C    4.338947   2.979168   2.566272   1.541072   0.000000
     6  C    3.742203   2.630662   2.890987   2.439737   1.551318
     7  C    2.459646   1.515902   2.520847   2.328110   2.420088
     8  O    2.723096   2.454748   3.771496   3.669870   3.680736
     9  C    2.654581   1.531291   2.200678   1.551862   2.462183
    10  H    0.963336   1.931201   2.910908   3.777851   4.874978
    11  H    3.164864   2.258514   1.096244   2.297221   2.736463
    12  H    2.894022   2.171297   1.095076   2.216461   3.481162
    13  H    4.299943   3.035271   2.261498   1.089476   2.227870
    14  H    4.972633   3.652392   2.859109   2.201887   1.094404
    15  H    5.141881   3.790735   3.515556   2.170247   1.095209
    16  H    3.892308   2.966476   3.063384   3.090817   2.214965
    17  H    4.535091   3.532496   3.954549   3.294443   2.212671
    18  H    2.118210   2.366624   3.826596   4.058088   4.320513
    19  H    3.184545   2.398694   3.163854   2.395719   3.304939
                    6          7          8          9         10
     6  C    0.000000
     7  C    1.525036   0.000000
     8  O    2.488008   1.388457   0.000000
     9  C    2.514418   1.519198   2.525396   0.000000
    10  H    4.498197   3.165351   3.448707   2.922180   0.000000
    11  H    2.958916   3.011824   4.227189   3.119709   3.626673
    12  H    3.966629   3.442843   4.599988   2.788311   2.854680
    13  H    3.434459   3.357046   4.644248   2.275940   4.390024
    14  H    2.219480   3.302126   4.570643   3.420601   5.521872
    15  H    2.188838   3.022327   4.104232   2.876784   5.620690
    16  H    1.095199   2.183129   2.981009   3.334268   4.741446
    17  H    1.093687   2.150716   2.616506   3.166695   5.302557
    18  H    3.184867   1.905640   0.966932   2.851121   2.832414
    19  H    3.390050   2.319846   2.888217   1.081857   3.228017
                   11         12         13         14         15
    11  H    0.000000
    12  H    1.784943   0.000000
    13  H    2.981832   2.461548   0.000000
    14  H    2.651530   3.702496   2.668962   0.000000
    15  H    3.803055   4.329536   2.511255   1.765404   0.000000
    16  H    2.750060   4.150094   4.098383   2.414810   3.022752
    17  H    4.047282   5.012238   4.189146   2.874853   2.367753
    18  H    4.292990   4.517524   5.019171   5.151021   4.869807
    19  H    4.153613   3.529126   2.774117   4.317259   3.431581
                   16         17         18         19
    16  H    0.000000
    17  H    1.760758   0.000000
    18  H    3.492391   3.489051   0.000000
    19  H    4.301767   3.816383   3.181821   0.000000
 Stoichiometry    C7H10O2
 Framework group  C1[X(C7H10O2)]
 Deg. of freedom    51
 Full point group                 C1      NOp   1
 Largest Abelian subgroup         C1      NOp   1
 Largest concise Abelian subgroup C1      NOp   1
                         Standard orientation:                         
 ---------------------------------------------------------------------
 Center     Atomic      Atomic             Coordinates (Angstroms)
 Number     Number       Type             X           Y           Z
 ---------------------------------------------------------------------
      1          8           0        2.126728   -0.769914   -0.357213
      2          6           0        0.765718   -0.625168   -0.122925
      3          6           0       -0.341744   -1.571595   -0.551767
      4          6           0       -1.248402   -0.889121    0.535019
      5          6           0       -2.079935    0.255460   -0.076038
      6          6           0       -1.018877    1.237644   -0.638227
      7          6           0        0.275267    0.799971    0.039541
      8          8           0        1.270259    1.757162    0.186480
      9          6           0        0.008511   -0.210781    1.141896
     10          1           0        2.468515   -1.476651    0.201105
     11          1           0       -0.682425   -1.542602   -1.593327
     12          1           0       -0.108558   -2.606458   -0.279970
     13          1           0       -1.813114   -1.574973    1.165625
     14          1           0       -2.777073   -0.101759   -0.840311
     15          1           0       -2.671642    0.740142    0.707830
     16          1           0       -0.942143    1.191764   -1.729771
     17          1           0       -1.231985    2.277350   -0.374129
     18          1           0        2.106392    1.322919   -0.030941
     19          1           0        0.312919   -0.106180    2.174760
 ---------------------------------------------------------------------
 Rotational constants (GHZ):      2.5714159      1.9001153      1.3466707
 Standard basis: 6-31G(2df,p) (6D, 7F)
 There are   329 symmetry adapted cartesian basis functions of A   symmetry.
 There are   302 symmetry adapted basis functions of A   symmetry.
   302 basis functions,   466 primitive gaussians,   329 cartesian basis functions
    34 alpha electrons       34 beta electrons
       nuclear repulsion energy       483.2662793434 Hartrees.
 NAtoms=   19 NActive=   19 NUniq=   19 SFac= 1.00D+00 NAtFMM=   60 NAOKFM=F Big=F
 Integral buffers will be    131072 words long.
 Raffenetti 2 integral format.
 Two-electron integral symmetry is turned on.
 One-electron integrals computed using PRISM.
 NBasis=   302 RedAO= T EigKep=  3.52D-04  NBF=   302
 NBsUse=   302 1.00D-06 EigRej= -1.00D+00 NBFU=   302
 ExpMin= 1.61D-01 ExpMax= 5.48D+03 ExpMxC= 8.25D+02 IAcc=1 IRadAn=         1 AccDes= 0.00D+00
 Harris functional with IExCor=  402 and IRadAn=       1 diagonalized for initial guess.
 HarFok:  IExCor=  402 AccDes= 0.00D+00 IRadAn=         1 IDoV= 1 UseB2=F ITyADJ=14
 ICtDFT=  3500011 ScaDFX=  1.000000  1.000000  1.000000  1.000000
 FoFCou: FMM=F IPFlag=           0 FMFlag=      100000 FMFlg1=           0
         NFxFlg=           0 DoJE=T BraDBF=F KetDBF=T FulRan=T
         wScrn=  0.000000 ICntrl=     500 IOpCl=  0 I1Cent=   200000004 NGrid=           0
         NMat0=    1 NMatS0=      1 NMatT0=    0 NMatD0=    1 NMtDS0=    0 NMtDT0=    0
 Petite list used in FoFCou.
 Requested convergence on RMS density matrix=1.00D-08 within 128 cycles.
 Requested convergence on MAX density matrix=1.00D-06.
 Requested convergence on             energy=1.00D-06.
 No special actions if energy rises.
 Integral accuracy reduced to 1.0D-05 until final iterations.
 Initial convergence to 1.0D-05 achieved.  Increase integral accuracy.
 SCF Done:  E(RB3LYP) =  -423.163187829     A.U. after   13 cycles
            NFock= 13  Conv=0.43D-08     -V/T= 2.0074

 **********************************************************************

            Population analysis using the SCF density.

 **********************************************************************

 Orbital symmetries:
       Occupied  (A) (A) (A) (A) (A) (A) (A) (A) (A) (A) (A) (A)
                 (A) (A) (A) (A) (A) (A) (A) (A) (A) (A) (A) (A)
                 (A) (A) (A) (A) (A) (A) (A) (A) (A) (A)
       Virtual   (A) (A) (A) (A) (A) (A) (A) (A) (A) (A) (A) (A)
                 (A) (A) (A) (A) (A) (A) (A) (A) (A) (A) (A) (A)
                 (A) (A) (A) (A) (A) (A) (A) (A) (A) (A) (A) (A)
                 (A) (A) (A) (A) (A) (A) (A) (A) (A) (A) (A) (A)
                 (A) (A) (A) (A) (A) (A) (A) (A) (A) (A) (A) (A)
                 (A) (A) (A) (A) (A) (A) (A) (A) (A) (A) (A) (A)
                 (A) (A) (A) (A) (A) (A) (A) (A) (A) (A) (A) (A)
                 (A) (A) (A) (A) (A) (A) (A) (A) (A) (A) (A) (A)
                 (A) (A) (A) (A) (A) (A) (A) (A) (A) (A) (A) (A)
                 (A) (A) (A) (A) (A) (A) (A) (A) (A) (A) (A) (A)
                 (A) (A) (A) (A) (A) (A) (A) (A) (A) (A) (A) (A)
                 (A) (A) (A) (A) (A) (A) (A) (A) (A) (A) (A) (A)
                 (A) (A) (A) (A) (A) (A) (A) (A) (A) (A) (A) (A)
                 (A) (A) (A) (A) (A) (A) (A) (A) (A) (A) (A) (A)
                 (A) (A) (A) (A) (A) (A) (A) (A) (A) (A) (A) (A)
                 (A) (A) (A) (A) (A) (A) (A) (A) (A) (A) (A) (A)
                 (A) (A) (A) (A) (A) (A) (A) (A) (A) (A) (A) (A)
                 (A) (A) (A) (A) (A) (A) (A) (A) (A) (A) (A) (A)
                 (A) (A) (A) (A) (A) (A) (A) (A) (A) (A) (A) (A)
                 (A) (A) (A) (A) (A) (A) (A) (A) (A) (A) (A) (A)
                 (A) (A) (A) (A) (A) (A) (A) (A) (A) (A) (A) (A)
                 (A) (A) (A) (A) (A) (A) (A) (A) (A) (A) (A) (A)
                 (A) (A) (A) (A)
 The electronic state is 1-A.
 Alpha  occ. eigenvalues --  -19.16277 -19.13186 -10.23731 -10.23044 -10.19254
 Alpha  occ. eigenvalues --  -10.18392 -10.17768 -10.17654 -10.17354  -1.05161
 Alpha  occ. eigenvalues --   -1.01481  -0.89614  -0.75428  -0.72416  -0.66111
 Alpha  occ. eigenvalues --   -0.60840  -0.55326  -0.54514  -0.53257  -0.48585
 Alpha  occ. eigenvalues --   -0.47026  -0.44464  -0.41274  -0.40901  -0.39522
 Alpha  occ. eigenvalues --   -0.37395  -0.36132  -0.35227  -0.33211  -0.32256
 Alpha  occ. eigenvalues --   -0.30318  -0.29820  -0.24790  -0.22402
 Alpha virt. eigenvalues --    0.06106   0.09178   0.10975   0.12624   0.13283
 Alpha virt. eigenvalues --    0.14222   0.15141   0.16206   0.16407   0.17616
 Alpha virt. eigenvalues --    0.18525   0.19445   0.20762   0.22407   0.23738
 Alpha virt. eigenvalues --    0.24893   0.27223   0.28853   0.31245   0.34013
 Alpha virt. eigenvalues --    0.36101   0.44144   0.45738   0.48271   0.48794
 Alpha virt. eigenvalues --    0.49783   0.50534   0.51871   0.52607   0.54535
 Alpha virt. eigenvalues --    0.54835   0.57217   0.57412   0.59671   0.61800
 Alpha virt. eigenvalues --    0.62931   0.63747   0.64082   0.67374   0.68373
 Alpha virt. eigenvalues --    0.70246   0.71734   0.72459   0.73643   0.75469
 Alpha virt. eigenvalues --    0.76877   0.77643   0.78262   0.78956   0.82717
 Alpha virt. eigenvalues --    0.84703   0.85333   0.87374   0.88085   0.90813
 Alpha virt. eigenvalues --    0.92136   0.93531   0.94612   0.97475   0.98526
 Alpha virt. eigenvalues --    1.02051   1.05179   1.09329   1.10468   1.11514
 Alpha virt. eigenvalues --    1.15139   1.17386   1.19375   1.21603   1.26475
 Alpha virt. eigenvalues --    1.26824   1.30529   1.32380   1.33288   1.34891
 Alpha virt. eigenvalues --    1.37129   1.38228   1.40328   1.43075   1.45163
 Alpha virt. eigenvalues --    1.47716   1.48278   1.49405   1.50971   1.53930
 Alpha virt. eigenvalues --    1.54368   1.55940   1.57064   1.58073   1.59995
 Alpha virt. eigenvalues --    1.62451   1.64489   1.66415   1.67589   1.70841
 Alpha virt. eigenvalues --    1.72560   1.77254   1.80252   1.81272   1.82942
 Alpha virt. eigenvalues --    1.85513   1.90086   1.92308   1.96135   1.99954
 Alpha virt. eigenvalues --    2.04976   2.08996   2.10082   2.12691   2.17322
 Alpha virt. eigenvalues --    2.18559   2.22478   2.23119   2.29137   2.33898
 Alpha virt. eigenvalues --    2.34922   2.36993   2.39569   2.40895   2.47844
 Alpha virt. eigenvalues --    2.48018   2.51418   2.53199   2.56091   2.60641
 Alpha virt. eigenvalues --    2.62991   2.66802   2.68073   2.70831   2.75010
 Alpha virt. eigenvalues --    2.75821   2.80413   2.82240   2.83898   2.85697
 Alpha virt. eigenvalues --    2.87204   2.89343   2.91837   2.93012   2.94636
 Alpha virt. eigenvalues --    2.96126   2.98530   3.01343   3.03927   3.05037
 Alpha virt. eigenvalues --    3.06227   3.07419   3.09464   3.14470   3.16976
 Alpha virt. eigenvalues --    3.20063   3.21112   3.25542   3.26889   3.27780
 Alpha virt. eigenvalues --    3.30250   3.34997   3.35548   3.37946   3.39040
 Alpha virt. eigenvalues --    3.42343   3.42592   3.47820   3.51157   3.51438
 Alpha virt. eigenvalues --    3.54820   3.61594   3.63648   3.67566   3.70899
 Alpha virt. eigenvalues --    3.76075   3.78681   3.83456   3.84902   3.89192
 Alpha virt. eigenvalues --    3.91451   3.94188   3.96900   3.97845   4.01844
 Alpha virt. eigenvalues --    4.06190   4.07945   4.10473   4.14584   4.16962
 Alpha virt. eigenvalues --    4.18020   4.23740   4.26623   4.28869   4.31475
 Alpha virt. eigenvalues --    4.35221   4.36615   4.41197   4.42492   4.46486
 Alpha virt. eigenvalues --    4.49500   4.50354   4.52523   4.53055   4.53614
 Alpha virt. eigenvalues --    4.56474   4.59640   4.61390   4.62391   4.64380
 Alpha virt. eigenvalues --    4.66553   4.67344   4.70357   4.71796   4.73608
 Alpha virt. eigenvalues --    4.76342   4.76576   4.79808   4.80491   4.81736
 Alpha virt. eigenvalues --    4.82717   4.85270   4.88574   4.89077   4.90842
 Alpha virt. eigenvalues --    4.94180   4.95074   4.97986   4.99627   5.03065
 Alpha virt. eigenvalues --    5.08239   5.09964   5.13608   5.17664   5.24958
 Alpha virt. eigenvalues --    5.27379   5.30535   5.35762   5.36377   5.39391
 Alpha virt. eigenvalues --    5.43097   5.46689   5.47310   5.49705   5.51437
 Alpha virt. eigenvalues --    5.53113   5.56325   5.60894   5.62028   5.66758
 Alpha virt. eigenvalues --    5.73411   5.77303   5.84980   5.90012   6.02118
 Alpha virt. eigenvalues --    6.04375   6.07685   6.21774   6.32576   6.55155
 Alpha virt. eigenvalues --    6.92586   7.13319   7.24526   7.26863  10.87922
 Alpha virt. eigenvalues --   11.70585  11.79306  12.05346  12.49489  12.80811
 Alpha virt. eigenvalues --   12.93756  13.45822  13.69784
          Condensed to atoms (all electrons):
               1          2          3          4          5          6
     1  O    7.804449   0.450406  -0.042978   0.002144   0.000090  -0.000371
     2  C    0.450406   4.541163   0.389780  -0.024437  -0.012875  -0.032099
     3  C   -0.042978   0.389780   5.161807   0.324553  -0.018152  -0.011435
     4  C    0.002144  -0.024437   0.324553   4.814923   0.399178  -0.030470
     5  C    0.000090  -0.012875  -0.018152   0.399178   4.907288   0.365658
     6  C   -0.000371  -0.032099  -0.011435  -0.030470   0.365658   5.050357
     7  C   -0.042767   0.307638  -0.069424   0.004091  -0.041664   0.409210
     8  O   -0.009228  -0.025240   0.002859   0.000851   0.001178  -0.032933
     9  C   -0.037146   0.235689  -0.095699   0.310464  -0.023393  -0.107053
    10  H    0.317806  -0.071902   0.000532  -0.000243   0.000007  -0.000070
    11  H    0.000371  -0.024152   0.348778  -0.023448  -0.005649   0.003632
    12  H    0.000075  -0.014137   0.337044  -0.013590   0.003362  -0.000073
    13  H   -0.000083   0.004050  -0.033965   0.369254  -0.043947   0.005075
    14  H    0.000003   0.000827  -0.008274  -0.022219   0.362787  -0.027055
    15  H    0.000002   0.000578   0.004238  -0.029190   0.362357  -0.024569
    16  H    0.000104  -0.006994   0.003866  -0.000140  -0.031797   0.354215
    17  H   -0.000007   0.004875  -0.000327   0.003452  -0.021674   0.357444
    18  H    0.031590  -0.001788   0.001490  -0.000280  -0.000363   0.005562
    19  H   -0.000894  -0.023971   0.007534  -0.038772   0.002941   0.002411
               7          8          9         10         11         12
     1  O   -0.042767  -0.009228  -0.037146   0.317806   0.000371   0.000075
     2  C    0.307638  -0.025240   0.235689  -0.071902  -0.024152  -0.014137
     3  C   -0.069424   0.002859  -0.095699   0.000532   0.348778   0.337044
     4  C    0.004091   0.000851   0.310464  -0.000243  -0.023448  -0.013590
     5  C   -0.041664   0.001178  -0.023393   0.000007  -0.005649   0.003362
     6  C    0.409210  -0.032933  -0.107053  -0.000070   0.003632  -0.000073
     7  C    4.460145   0.431544   0.261502   0.009135  -0.002244   0.004310
     8  O    0.431544   7.832687  -0.024919   0.000045   0.000100  -0.000055
     9  C    0.261502  -0.024919   5.379951  -0.006636   0.006721  -0.002297
    10  H    0.009135   0.000045  -0.006636   0.458785  -0.000354   0.002775
    11  H   -0.002244   0.000100   0.006721  -0.000354   0.642639  -0.044623
    12  H    0.004310  -0.000055  -0.002297   0.002775  -0.044623   0.643110
    13  H    0.002132  -0.000008  -0.031512   0.000000   0.003177  -0.008013
    14  H    0.003204  -0.000025   0.002735   0.000000   0.002346   0.000032
    15  H   -0.000579   0.000026   0.000431  -0.000001   0.000011  -0.000172
    16  H   -0.019830   0.002427   0.007476  -0.000027   0.000110  -0.000109
    17  H   -0.020270  -0.002176  -0.000356   0.000007  -0.000176   0.000011
    18  H   -0.101687   0.324864   0.009306  -0.002601   0.000005  -0.000060
    19  H   -0.026996  -0.001905   0.364777   0.001482  -0.000426   0.000345
              13         14         15         16         17         18
     1  O   -0.000083   0.000003   0.000002   0.000104  -0.000007   0.031590
     2  C    0.004050   0.000827   0.000578  -0.006994   0.004875  -0.001788
     3  C   -0.033965  -0.008274   0.004238   0.003866  -0.000327   0.001490
     4  C    0.369254  -0.022219  -0.029190  -0.000140   0.003452  -0.000280
     5  C   -0.043947   0.362787   0.362357  -0.031797  -0.021674  -0.000363
     6  C    0.005075  -0.027055  -0.024569   0.354215   0.357444   0.005562
     7  C    0.002132   0.003204  -0.000579  -0.019830  -0.020270  -0.101687
     8  O   -0.000008  -0.000025   0.000026   0.002427  -0.002176   0.324864
     9  C   -0.031512   0.002735   0.000431   0.007476  -0.000356   0.009306
    10  H    0.000000   0.000000  -0.000001  -0.000027   0.000007  -0.002601
    11  H    0.003177   0.002346   0.000011   0.000110  -0.000176   0.000005
    12  H   -0.008013   0.000032  -0.000172  -0.000109   0.000011  -0.000060
    13  H    0.667730   0.001116  -0.002889  -0.000068  -0.000196   0.000011
    14  H    0.001116   0.634812  -0.041491  -0.007198   0.003351   0.000005
    15  H   -0.002889  -0.041491   0.637142   0.005127  -0.010544   0.000006
    16  H   -0.000068  -0.007198   0.005127   0.636629  -0.043781   0.000142
    17  H   -0.000196   0.003351  -0.010544  -0.043781   0.620503  -0.000459
    18  H    0.000011   0.000005   0.000006   0.000142  -0.000459   0.446149
    19  H   -0.002806  -0.000137   0.000087  -0.000127   0.000320  -0.000492
              19
     1  O   -0.000894
     2  C   -0.023971
     3  C    0.007534
     4  C   -0.038772
     5  C    0.002941
     6  C    0.002411
     7  C   -0.026996
     8  O   -0.001905
     9  C    0.364777
    10  H    0.001482
    11  H   -0.000426
    12  H    0.000345
    13  H   -0.002806
    14  H   -0.000137
    15  H    0.000087
    16  H   -0.000127
    17  H    0.000320
    18  H   -0.000492
    19  H    0.627594
 Mulliken charges:
               1
     1  O   -0.473566
     2  C    0.302590
     3  C   -0.302227
     4  C   -0.046123
     5  C   -0.205330
     6  C   -0.287437
     7  C    0.432547
     8  O   -0.500091
     9  C   -0.250042
    10  H    0.291260
    11  H    0.093182
    12  H    0.092066
    13  H    0.070942
    14  H    0.095182
    15  H    0.099431
    16  H    0.099977
    17  H    0.110003
    18  H    0.288600
    19  H    0.089036
 Sum of Mulliken charges =   0.00000
 Mulliken charges with hydrogens summed into heavy atoms:
               1
     1  O   -0.182306
     2  C    0.302590
     3  C   -0.116980
     4  C    0.024819
     5  C   -0.010718
     6  C   -0.077457
     7  C    0.432547
     8  O   -0.211491
     9  C   -0.161006
 Electronic spatial extent (au):  <R**2>=            984.7374
 Charge=              0.0000 electrons
 Dipole moment (field-independent basis, Debye):
    X=             -0.0685    Y=             -2.2738    Z=              0.6455  Tot=              2.3647
 Quadrupole moment (field-independent basis, Debye-Ang):
   XX=            -49.8524   YY=            -54.1798   ZZ=            -52.9008
   XY=             -3.4987   XZ=              2.0050   YZ=             -2.0562
 Traceless Quadrupole moment (field-independent basis, Debye-Ang):
   XX=              2.4586   YY=             -1.8688   ZZ=             -0.5898
   XY=             -3.4987   XZ=              2.0050   YZ=             -2.0562
 Octapole moment (field-independent basis, Debye-Ang**2):
  XXX=             28.5411  YYY=            -10.5959  ZZZ=              0.7021  XYY=              6.9729
  XXY=             -3.6265  XXZ=              5.8931  XZZ=              3.5797  YZZ=              0.9862
  YYZ=              0.3148  XYZ=             -4.2339
 Hexadecapole moment (field-independent basis, Debye-Ang**3):
 XXXX=           -574.4992 YYYY=           -453.5188 ZZZZ=           -177.1229 XXXY=             -7.0917
 XXXZ=             10.1948 YYYX=            -24.7575 YYYZ=             -4.1737 ZZZX=              1.4649
 ZZZY=              1.2308 XXYY=           -158.4948 XXZZ=           -133.7600 YYZZ=           -108.8438
 XXYZ=             -7.8531 YYXZ=             -1.1571 ZZXY=              1.6649
 N-N= 4.832662793434D+02 E-N=-1.953726359518D+03  KE= 4.200604617289D+02
 Calling FoFJK, ICntrl=      2127 FMM=F ISym2X=0 I1Cent= 0 IOpClX= 0 NMat=1 NMatS=1 NMatT=0.
 ***** Axes restored to original set *****
 -------------------------------------------------------------------
 Center     Atomic                   Forces (Hartrees/Bohr)
 Number     Number              X              Y              Z
 -------------------------------------------------------------------
      1        8           0.000001104   -0.000010314    0.000001234
      2        6          -0.000030649    0.000046352   -0.000037446
      3        6           0.000005952   -0.000061511   -0.000002989
      4        6          -0.000018138    0.000055504   -0.000029258
      5        6          -0.000009995   -0.000019761    0.000018570
      6        6           0.000026419    0.000000201    0.000040006
      7        6           0.000066910   -0.000009309   -0.000003509
      8        8          -0.000039062    0.000017030   -0.000003889
      9        6          -0.000020657   -0.000005279    0.000030297
     10        1          -0.000007125    0.000004984    0.000010273
     11        1           0.000006992    0.000005847   -0.000007577
     12        1          -0.000001636   -0.000002195   -0.000012225
     13        1          -0.000004763   -0.000007717   -0.000013518
     14        1           0.000013638    0.000004272   -0.000015219
     15        1           0.000007307    0.000009091    0.000002857
     16        1           0.000003701    0.000000882   -0.000003379
     17        1           0.000004187    0.000006236    0.000000653
     18        1           0.000002376   -0.000005037    0.000025290
     19        1          -0.000006561   -0.000029277   -0.000000170
 -------------------------------------------------------------------
 Cartesian Forces:  Max     0.000066910 RMS     0.000021596

 GradGradGradGradGradGradGradGradGradGradGradGradGradGradGradGradGradGrad
 Berny optimization.
 FormGI is forming the generalized inverse of G from B-inverse, IUseBI=4.
 Internal  Forces:  Max     0.000035987 RMS     0.000007368
 Search for a local minimum.
 Step number   1 out of a maximum of  114
 All quantities printed in internal units (Hartrees-Bohrs-Radians)
 Mixed Optimization -- En-DIIS/RFO-DIIS
 Second derivative matrix not updated -- first step.
 ITU=  0
     Eigenvalues ---    0.00459   0.01082   0.01644   0.01843   0.01844
     Eigenvalues ---    0.02010   0.02062   0.02435   0.02952   0.03682
     Eigenvalues ---    0.03978   0.04373   0.04711   0.05155   0.05502
     Eigenvalues ---    0.05702   0.06003   0.06485   0.06884   0.06940
     Eigenvalues ---    0.07090   0.08569   0.09974   0.10752   0.11616
     Eigenvalues ---    0.12394   0.14647   0.16000   0.16000   0.17993
     Eigenvalues ---    0.19769   0.20926   0.24245   0.25480   0.26181
     Eigenvalues ---    0.26499   0.28581   0.29305   0.29569   0.34101
     Eigenvalues ---    0.34218   0.34219   0.34233   0.34309   0.34390
     Eigenvalues ---    0.34873   0.35771   0.47564   0.47588   0.54009
     Eigenvalues ---    0.54762
 RFO step:  Lambda=-6.53601584D-08 EMin= 4.59490278D-03
 Linear search not attempted -- first point.
 Iteration  1 RMS(Cart)=  0.00012957 RMS(Int)=  0.00000001
 Iteration  2 RMS(Cart)=  0.00000001 RMS(Int)=  0.00000000
 Variable       Old X    -DE/DX   Delta X   Delta X   Delta X     New X
                                 (Linear)    (Quad)   (Total)
    R1        2.62406   0.00001   0.00000   0.00002   0.00002   2.62408
    R2        1.82044   0.00001   0.00000   0.00002   0.00002   1.82046
    R3        2.86971  -0.00002   0.00000  -0.00005  -0.00005   2.86966
    R4        2.86464   0.00000   0.00000  -0.00001  -0.00001   2.86463
    R5        2.89372  -0.00001   0.00000  -0.00009  -0.00009   2.89363
    R6        2.96928   0.00003   0.00000   0.00014   0.00014   2.96941
    R7        2.07160  -0.00001   0.00000  -0.00002  -0.00002   2.07158
    R8        2.06939   0.00000   0.00000   0.00000   0.00000   2.06939
    R9        2.91220  -0.00001   0.00000  -0.00005  -0.00005   2.91215
   R10        2.93259   0.00002   0.00000   0.00008   0.00008   2.93267
   R11        2.05881  -0.00001   0.00000  -0.00002  -0.00002   2.05879
   R12        2.93157   0.00001   0.00000   0.00000   0.00000   2.93157
   R13        2.06812   0.00000   0.00000   0.00001   0.00001   2.06813
   R14        2.06964   0.00001   0.00000   0.00003   0.00003   2.06967
   R15        2.88190  -0.00001   0.00000  -0.00006  -0.00006   2.88184
   R16        2.06963   0.00001   0.00000   0.00002   0.00002   2.06965
   R17        2.06677   0.00000   0.00000   0.00000   0.00000   2.06677
   R18        2.62380  -0.00004   0.00000  -0.00008  -0.00008   2.62373
   R19        2.87087   0.00000   0.00000   0.00008   0.00008   2.87095
   R20        1.82724   0.00001   0.00000   0.00002   0.00002   1.82726
   R21        2.04441  -0.00001   0.00000  -0.00004  -0.00004   2.04438
    A1        1.90333  -0.00001   0.00000  -0.00005  -0.00005   1.90328
    A2        2.21702   0.00000   0.00000  -0.00001  -0.00001   2.21701
    A3        2.01883  -0.00001   0.00000  -0.00001  -0.00001   2.01881
    A4        2.28133  -0.00001   0.00000  -0.00016  -0.00016   2.28117
    A5        1.96084   0.00001   0.00000   0.00010   0.00010   1.96094
    A6        1.61210   0.00001   0.00000   0.00003   0.00003   1.61213
    A7        1.52557   0.00000   0.00000   0.00000   0.00000   1.52557
    A8        2.06970   0.00000   0.00000   0.00004   0.00004   2.06974
    A9        1.94290   0.00000   0.00000  -0.00002  -0.00002   1.94288
   A10        2.05595   0.00000   0.00000  -0.00003  -0.00003   2.05592
   A11        1.94085   0.00000   0.00000  -0.00002  -0.00002   1.94083
   A12        1.90391   0.00000   0.00000   0.00002   0.00002   1.90393
   A13        1.93873   0.00000   0.00000   0.00005   0.00005   1.93878
   A14        1.56379  -0.00001   0.00000  -0.00010  -0.00010   1.56369
   A15        2.01087   0.00000   0.00000   0.00001   0.00001   2.01087
   A16        1.84153   0.00000   0.00000  -0.00003  -0.00003   1.84150
   A17        2.00136   0.00000   0.00000   0.00002   0.00002   2.00138
   A18        2.05855   0.00000   0.00000   0.00004   0.00004   2.05858
   A19        1.81818   0.00000   0.00000   0.00003   0.00003   1.81821
   A20        1.95864   0.00000   0.00000   0.00009   0.00009   1.95873
   A21        1.91390   0.00000   0.00000  -0.00001  -0.00001   1.91389
   A22        1.97064   0.00000   0.00000  -0.00004  -0.00004   1.97060
   A23        1.92700   0.00000   0.00000  -0.00004  -0.00004   1.92696
   A24        1.87562   0.00000   0.00000  -0.00002  -0.00002   1.87559
   A25        1.81075   0.00000   0.00000   0.00001   0.00001   1.81076
   A26        1.96339  -0.00001   0.00000  -0.00010  -0.00010   1.96328
   A27        1.96178   0.00000   0.00000  -0.00001  -0.00001   1.96177
   A28        1.95138   0.00000   0.00000   0.00000   0.00000   1.95139
   A29        1.90801   0.00000   0.00000   0.00013   0.00013   1.90814
   A30        1.86936   0.00000   0.00000  -0.00001  -0.00001   1.86934
   A31        2.09062   0.00000   0.00000  -0.00009  -0.00009   2.09053
   A32        2.01264   0.00000   0.00000   0.00002   0.00002   2.01265
   A33        2.04576   0.00001   0.00000   0.00004   0.00004   2.04580
   A34        1.94381   0.00000   0.00000   0.00001   0.00001   1.94382
   A35        2.10332   0.00000   0.00000   0.00003   0.00003   2.10334
   A36        1.86114   0.00001   0.00000   0.00005   0.00005   1.86119
   A37        1.52999   0.00000   0.00000   0.00003   0.00003   1.53002
   A38        2.31258  -0.00001   0.00000  -0.00018  -0.00018   2.31240
   A39        1.72063   0.00000   0.00000   0.00001   0.00001   1.72064
   A40        2.26988   0.00001   0.00000   0.00012   0.00012   2.27000
   A41        2.18832  -0.00001   0.00000  -0.00006  -0.00006   2.18827
    D1       -1.25916   0.00000   0.00000  -0.00017  -0.00017  -1.25932
    D2        2.35383  -0.00001   0.00000  -0.00039  -0.00039   2.35343
    D3        1.11147   0.00000   0.00000  -0.00042  -0.00042   1.11105
    D4        2.81254   0.00000   0.00000  -0.00016  -0.00016   2.81238
    D5       -1.36819  -0.00001   0.00000  -0.00019  -0.00019  -1.36837
    D6        0.86169   0.00000   0.00000  -0.00013  -0.00013   0.86156
    D7       -0.78748   0.00000   0.00000   0.00004   0.00004  -0.78745
    D8        1.31497  -0.00001   0.00000   0.00001   0.00001   1.31498
    D9       -2.73833   0.00000   0.00000   0.00006   0.00006  -2.73827
   D10        0.22797   0.00001   0.00000   0.00009   0.00009   0.22805
   D11        2.33043   0.00000   0.00000   0.00006   0.00006   2.33049
   D12       -1.72288   0.00001   0.00000   0.00011   0.00011  -1.72277
   D13        2.38997   0.00001   0.00000   0.00013   0.00013   2.39010
   D14       -0.20371   0.00001   0.00000   0.00018   0.00018  -0.20353
   D15       -0.34882   0.00001   0.00000  -0.00004  -0.00004  -0.34886
   D16       -2.94250   0.00000   0.00000   0.00001   0.00001  -2.94249
   D17       -2.78189  -0.00001   0.00000   0.00009   0.00009  -2.78180
   D18       -0.22086   0.00001   0.00000   0.00013   0.00013  -0.22073
   D19       -0.23082  -0.00001   0.00000  -0.00009  -0.00009  -0.23092
   D20        2.33021   0.00000   0.00000  -0.00005  -0.00005   2.33015
   D21        1.63398  -0.00001   0.00000  -0.00014  -0.00014   1.63384
   D22       -0.22470   0.00000   0.00000  -0.00007  -0.00007  -0.22477
   D23       -2.33616   0.00000   0.00000  -0.00006  -0.00006  -2.33622
   D24       -0.48083  -0.00001   0.00000  -0.00018  -0.00018  -0.48101
   D25       -2.33951   0.00000   0.00000  -0.00011  -0.00011  -2.33962
   D26        1.83222   0.00000   0.00000  -0.00010  -0.00010   1.83211
   D27       -2.69636  -0.00001   0.00000  -0.00016  -0.00016  -2.69653
   D28        1.72814   0.00000   0.00000  -0.00010  -0.00010   1.72804
   D29       -0.38332   0.00000   0.00000  -0.00009  -0.00009  -0.38341
   D30       -1.03943   0.00001   0.00000   0.00017   0.00017  -1.03926
   D31        1.09811   0.00000   0.00000   0.00019   0.00019   1.09829
   D32       -3.10195   0.00001   0.00000   0.00020   0.00020  -3.10175
   D33        0.63072  -0.00001   0.00000   0.00006   0.00006   0.63078
   D34        2.76826  -0.00001   0.00000   0.00008   0.00008   2.76834
   D35       -1.43180   0.00000   0.00000   0.00010   0.00010  -1.43170
   D36        2.92591   0.00000   0.00000   0.00010   0.00010   2.92601
   D37       -1.21973   0.00000   0.00000   0.00012   0.00012  -1.21962
   D38        0.86339   0.00000   0.00000   0.00013   0.00013   0.86352
   D39        0.22276   0.00000   0.00000   0.00007   0.00007   0.22284
   D40        1.24852   0.00000   0.00000   0.00008   0.00008   1.24859
   D41       -2.36222   0.00000   0.00000   0.00020   0.00020  -2.36202
   D42       -1.72850   0.00000   0.00000   0.00006   0.00006  -1.72844
   D43       -0.70275   0.00001   0.00000   0.00006   0.00006  -0.70269
   D44        1.96970   0.00000   0.00000   0.00019   0.00019   1.96989
   D45        2.29254   0.00000   0.00000   0.00003   0.00003   2.29257
   D46       -2.96490   0.00000   0.00000   0.00004   0.00004  -2.96486
   D47       -0.29245   0.00000   0.00000   0.00016   0.00016  -0.29229
   D48       -0.27862   0.00000   0.00000  -0.00016  -0.00016  -0.27877
   D49        1.83345   0.00000   0.00000  -0.00020  -0.00020   1.83325
   D50       -2.33788  -0.00001   0.00000  -0.00031  -0.00031  -2.33819
   D51       -2.40825   0.00000   0.00000  -0.00026  -0.00026  -2.40851
   D52       -0.29619   0.00000   0.00000  -0.00030  -0.00030  -0.29649
   D53        1.81567  -0.00001   0.00000  -0.00041  -0.00041   1.81526
   D54        1.77489   0.00000   0.00000  -0.00017  -0.00017   1.77472
   D55       -2.39623   0.00000   0.00000  -0.00022  -0.00022  -2.39645
   D56       -0.28437   0.00000   0.00000  -0.00032  -0.00032  -0.28470
   D57        1.00331  -0.00001   0.00000   0.00012   0.00012   1.00343
   D58       -2.69628   0.00000   0.00000   0.00006   0.00006  -2.69622
   D59       -0.17399   0.00000   0.00000   0.00019   0.00019  -0.17380
   D60       -1.11681   0.00000   0.00000   0.00023   0.00023  -1.11657
   D61        1.46678   0.00000   0.00000   0.00018   0.00018   1.46696
   D62       -2.29411   0.00001   0.00000   0.00030   0.00030  -2.29381
   D63        3.09948   0.00000   0.00000   0.00017   0.00017   3.09965
   D64       -0.60011   0.00000   0.00000   0.00011   0.00011  -0.60000
   D65        1.92218   0.00000   0.00000   0.00024   0.00024   1.92242
   D66        0.20217   0.00000   0.00000  -0.00027  -0.00027   0.20190
   D67       -2.40613   0.00000   0.00000  -0.00018  -0.00018  -2.40631
   D68        1.41371  -0.00001   0.00000  -0.00031  -0.00031   1.41339
   D69        0.53940  -0.00001   0.00000  -0.00015  -0.00015   0.53925
   D70       -2.16382  -0.00001   0.00000  -0.00033  -0.00033  -2.16415
   D71        3.03851   0.00000   0.00000  -0.00001  -0.00001   3.03850
   D72        0.33529  -0.00001   0.00000  -0.00020  -0.00020   0.33510
         Item               Value     Threshold  Converged?
 Maximum Force            0.000036     0.000450     YES
 RMS     Force            0.000007     0.000300     YES
 Maximum Displacement     0.000619     0.001800     YES
 RMS     Displacement     0.000130     0.001200     YES
 Predicted change in Energy=-3.268027D-08
 Optimization completed.
    -- Stationary point found.
                           ----------------------------
                           !   Optimized Parameters   !
                           ! (Angstroms and Degrees)  !
 --------------------------                            --------------------------
 ! Name  Definition              Value          Derivative Info.                !
 --------------------------------------------------------------------------------
 ! R1    R(1,2)                  1.3886         -DE/DX =    0.0                 !
 ! R2    R(1,10)                 0.9633         -DE/DX =    0.0                 !
 ! R3    R(2,3)                  1.5186         -DE/DX =    0.0                 !
 ! R4    R(2,7)                  1.5159         -DE/DX =    0.0                 !
 ! R5    R(2,9)                  1.5313         -DE/DX =    0.0                 !
 ! R6    R(3,4)                  1.5713         -DE/DX =    0.0                 !
 ! R7    R(3,11)                 1.0962         -DE/DX =    0.0                 !
 ! R8    R(3,12)                 1.0951         -DE/DX =    0.0                 !
 ! R9    R(4,5)                  1.5411         -DE/DX =    0.0                 !
 ! R10   R(4,9)                  1.5519         -DE/DX =    0.0                 !
 ! R11   R(4,13)                 1.0895         -DE/DX =    0.0                 !
 ! R12   R(5,6)                  1.5513         -DE/DX =    0.0                 !
 ! R13   R(5,14)                 1.0944         -DE/DX =    0.0                 !
 ! R14   R(5,15)                 1.0952         -DE/DX =    0.0                 !
 ! R15   R(6,7)                  1.525          -DE/DX =    0.0                 !
 ! R16   R(6,16)                 1.0952         -DE/DX =    0.0                 !
 ! R17   R(6,17)                 1.0937         -DE/DX =    0.0                 !
 ! R18   R(7,8)                  1.3885         -DE/DX =    0.0                 !
 ! R19   R(7,9)                  1.5192         -DE/DX =    0.0                 !
 ! R20   R(8,18)                 0.9669         -DE/DX =    0.0                 !
 ! R21   R(9,19)                 1.0819         -DE/DX =    0.0                 !
 ! A1    A(2,1,10)             109.0525         -DE/DX =    0.0                 !
 ! A2    A(1,2,3)              127.0258         -DE/DX =    0.0                 !
 ! A3    A(1,2,7)              115.6703         -DE/DX =    0.0                 !
 ! A4    A(1,2,9)              130.7105         -DE/DX =    0.0                 !
 ! A5    A(3,2,7)              112.3481         -DE/DX =    0.0                 !
 ! A6    A(3,2,9)               92.3664         -DE/DX =    0.0                 !
 ! A7    A(2,3,4)               87.4087         -DE/DX =    0.0                 !
 ! A8    A(2,3,11)             118.585          -DE/DX =    0.0                 !
 ! A9    A(2,3,12)             111.3201         -DE/DX =    0.0                 !
 ! A10   A(4,3,11)             117.7975         -DE/DX =    0.0                 !
 ! A11   A(4,3,12)             111.2024         -DE/DX =    0.0                 !
 ! A12   A(11,3,12)            109.086          -DE/DX =    0.0                 !
 ! A13   A(3,4,5)              111.0813         -DE/DX =    0.0                 !
 ! A14   A(3,4,9)               89.5983         -DE/DX =    0.0                 !
 ! A15   A(3,4,13)             115.2141         -DE/DX =    0.0                 !
 ! A16   A(5,4,9)              105.5118         -DE/DX =    0.0                 !
 ! A17   A(5,4,13)             114.6696         -DE/DX =    0.0                 !
 ! A18   A(9,4,13)             117.946          -DE/DX =    0.0                 !
 ! A19   A(4,5,6)              104.1743         -DE/DX =    0.0                 !
 ! A20   A(4,5,14)             112.2217         -DE/DX =    0.0                 !
 ! A21   A(4,5,15)             109.6584         -DE/DX =    0.0                 !
 ! A22   A(6,5,14)             112.9091         -DE/DX =    0.0                 !
 ! A23   A(6,5,15)             110.4087         -DE/DX =    0.0                 !
 ! A24   A(14,5,15)            107.4648         -DE/DX =    0.0                 !
 ! A25   A(5,6,7)              103.7483         -DE/DX =    0.0                 !
 ! A26   A(5,6,16)             112.4939         -DE/DX =    0.0                 !
 ! A27   A(5,6,17)             112.4016         -DE/DX =    0.0                 !
 ! A28   A(7,6,16)             111.806          -DE/DX =    0.0                 !
 ! A29   A(7,6,17)             109.321          -DE/DX =    0.0                 !
 ! A30   A(16,6,17)            107.1063         -DE/DX =    0.0                 !
 ! A31   A(2,7,6)              119.7839         -DE/DX =    0.0                 !
 ! A32   A(2,7,8)              115.3156         -DE/DX =    0.0                 !
 ! A33   A(6,7,8)              117.2132         -DE/DX =    0.0                 !
 ! A34   A(6,7,9)              111.3719         -DE/DX =    0.0                 !
 ! A35   A(8,7,9)              120.5111         -DE/DX =    0.0                 !
 ! A36   A(7,8,18)             106.6354         -DE/DX =    0.0                 !
 ! A37   A(2,9,4)               87.662          -DE/DX =    0.0                 !
 ! A38   A(2,9,19)             132.5012         -DE/DX =    0.0                 !
 ! A39   A(4,9,7)               98.5849         -DE/DX =    0.0                 !
 ! A40   A(4,9,19)             130.0544         -DE/DX =    0.0                 !
 ! A41   A(7,9,19)             125.3818         -DE/DX =    0.0                 !
 ! D1    D(10,1,2,3)           -72.1444         -DE/DX =    0.0                 !
 ! D2    D(10,1,2,7)           134.8643         -DE/DX =    0.0                 !
 ! D3    D(10,1,2,9)            63.6824         -DE/DX =    0.0                 !
 ! D4    D(1,2,3,4)            161.1467         -DE/DX =    0.0                 !
 ! D5    D(1,2,3,11)           -78.3913         -DE/DX =    0.0                 !
 ! D6    D(1,2,3,12)            49.3714         -DE/DX =    0.0                 !
 ! D7    D(7,2,3,4)            -45.1195         -DE/DX =    0.0                 !
 ! D8    D(7,2,3,11)            75.3425         -DE/DX =    0.0                 !
 ! D9    D(7,2,3,12)          -156.8948         -DE/DX =    0.0                 !
 ! D10   D(9,2,3,4)             13.0615         -DE/DX =    0.0                 !
 ! D11   D(9,2,3,11)           133.5235         -DE/DX =    0.0                 !
 ! D12   D(9,2,3,12)           -98.7138         -DE/DX =    0.0                 !
 ! D13   D(1,2,7,6)            136.9352         -DE/DX =    0.0                 !
 ! D14   D(1,2,7,8)            -11.6717         -DE/DX =    0.0                 !
 ! D15   D(3,2,7,6)            -19.9858         -DE/DX =    0.0                 !
 ! D16   D(3,2,7,8)           -168.5927         -DE/DX =    0.0                 !
 ! D17   D(1,2,9,4)           -159.3906         -DE/DX =    0.0                 !
 ! D18   D(1,2,9,19)           -12.6543         -DE/DX =    0.0                 !
 ! D19   D(3,2,9,4)            -13.2253         -DE/DX =    0.0                 !
 ! D20   D(3,2,9,19)           133.511          -DE/DX =    0.0                 !
 ! D21   D(2,3,4,5)             93.6201         -DE/DX =    0.0                 !
 ! D22   D(2,3,4,9)            -12.8745         -DE/DX =    0.0                 !
 ! D23   D(2,3,4,13)          -133.8522         -DE/DX =    0.0                 !
 ! D24   D(11,3,4,5)           -27.5496         -DE/DX =    0.0                 !
 ! D25   D(11,3,4,9)          -134.0442         -DE/DX =    0.0                 !
 ! D26   D(11,3,4,13)          104.9782         -DE/DX =    0.0                 !
 ! D27   D(12,3,4,5)          -154.4903         -DE/DX =    0.0                 !
 ! D28   D(12,3,4,9)            99.0151         -DE/DX =    0.0                 !
 ! D29   D(12,3,4,13)          -21.9625         -DE/DX =    0.0                 !
 ! D30   D(3,4,5,6)            -59.555          -DE/DX =    0.0                 !
 ! D31   D(3,4,5,14)            62.9169         -DE/DX =    0.0                 !
 ! D32   D(3,4,5,15)          -177.7289         -DE/DX =    0.0                 !
 ! D33   D(9,4,5,6)             36.1377         -DE/DX =    0.0                 !
 ! D34   D(9,4,5,14)           158.6097         -DE/DX =    0.0                 !
 ! D35   D(9,4,5,15)           -82.0361         -DE/DX =    0.0                 !
 ! D36   D(13,4,5,6)           167.6424         -DE/DX =    0.0                 !
 ! D37   D(13,4,5,14)          -69.8856         -DE/DX =    0.0                 !
 ! D38   D(13,4,5,15)           49.4686         -DE/DX =    0.0                 !
 ! D39   D(3,4,9,2)             12.7634         -DE/DX =    0.0                 !
 ! D40   D(3,4,9,7)             71.5347         -DE/DX =    0.0                 !
 ! D41   D(3,4,9,19)          -135.3454         -DE/DX =    0.0                 !
 ! D42   D(5,4,9,2)            -99.0356         -DE/DX =    0.0                 !
 ! D43   D(5,4,9,7)            -40.2643         -DE/DX =    0.0                 !
 ! D44   D(5,4,9,19)           112.8555         -DE/DX =    0.0                 !
 ! D45   D(13,4,9,2)           131.3527         -DE/DX =    0.0                 !
 ! D46   D(13,4,9,7)          -169.876          -DE/DX =    0.0                 !
 ! D47   D(13,4,9,19)          -16.7561         -DE/DX =    0.0                 !
 ! D48   D(4,5,6,7)            -15.9636         -DE/DX =    0.0                 !
 ! D49   D(4,5,6,16)           105.049          -DE/DX =    0.0                 !
 ! D50   D(4,5,6,17)          -133.9508         -DE/DX =    0.0                 !
 ! D51   D(14,5,6,7)          -137.9828         -DE/DX =    0.0                 !
 ! D52   D(14,5,6,16)          -16.9702         -DE/DX =    0.0                 !
 ! D53   D(14,5,6,17)          104.03           -DE/DX =    0.0                 !
 ! D54   D(15,5,6,7)           101.6938         -DE/DX =    0.0                 !
 ! D55   D(15,5,6,16)         -137.2936         -DE/DX =    0.0                 !
 ! D56   D(15,5,6,17)          -16.2934         -DE/DX =    0.0                 !
 ! D57   D(5,6,7,2)             57.4857         -DE/DX =    0.0                 !
 ! D58   D(5,6,7,8)           -154.4854         -DE/DX =    0.0                 !
 ! D59   D(5,6,7,9)             -9.9687         -DE/DX =    0.0                 !
 ! D60   D(16,6,7,2)           -63.9884         -DE/DX =    0.0                 !
 ! D61   D(16,6,7,8)            84.0405         -DE/DX =    0.0                 !
 ! D62   D(16,6,7,9)          -131.4428         -DE/DX =    0.0                 !
 ! D63   D(17,6,7,2)           177.5872         -DE/DX =    0.0                 !
 ! D64   D(17,6,7,8)           -34.3839         -DE/DX =    0.0                 !
 ! D65   D(17,6,7,9)           110.1328         -DE/DX =    0.0                 !
 ! D66   D(2,7,8,18)            11.5835         -DE/DX =    0.0                 !
 ! D67   D(6,7,8,18)          -137.8613         -DE/DX =    0.0                 !
 ! D68   D(9,7,8,18)            80.9995         -DE/DX =    0.0                 !
 ! D69   D(6,7,9,4)             30.9053         -DE/DX =    0.0                 !
 ! D70   D(6,7,9,19)          -123.9778         -DE/DX =    0.0                 !
 ! D71   D(8,7,9,4)            174.0939         -DE/DX =    0.0                 !
 ! D72   D(8,7,9,19)            19.2108         -DE/DX =    0.0                 !
 --------------------------------------------------------------------------------
 GradGradGradGradGradGradGradGradGradGradGradGradGradGradGradGradGradGrad

                          Input orientation:                          
 ---------------------------------------------------------------------
 Center     Atomic      Atomic             Coordinates (Angstroms)
 Number     Number       Type             X           Y           Z
 ---------------------------------------------------------------------
      1          8           0       -1.464982   -1.144591    1.814866
      2          6           0       -1.909791    0.045961    1.255473
      3          6           0       -3.322171    0.372167    0.802841
      4          6           0       -2.917437    1.888875    0.871333
      5          6           0       -2.431369    2.395373   -0.500564
      6          6           0       -1.215184    1.490571   -0.830433
      7          6           0       -0.864823    0.851675    0.509266
      8          8           0        0.447121    0.434627    0.690062
      9          6           0       -1.632251    1.499527    1.649138
     10          1           0       -1.805529   -1.216545    2.713123
     11          1           0       -3.668543   -0.021555   -0.159843
     12          1           0       -4.055840    0.122708    1.576593
     13          1           0       -3.637068    2.539328    1.367316
     14          1           0       -3.216643    2.347642   -1.261345
     15          1           0       -2.117698    3.441380   -0.417123
     16          1           0       -1.446984    0.738154   -1.591747
     17          1           0       -0.356766    2.062393   -1.194148
     18          1           0        0.406055   -0.425306    1.130275
     19          1           0       -1.188485    1.946577    2.528701
 ---------------------------------------------------------------------
                    Distance matrix (angstroms):
                    1          2          3          4          5
     1  O    0.000000
     2  C    1.388593   0.000000
     3  C    2.602671   1.518585   0.000000
     4  C    3.493106   2.135238   1.571274   0.000000
     5  C    4.338947   2.979168   2.566272   1.541072   0.000000
     6  C    3.742203   2.630662   2.890987   2.439737   1.551318
     7  C    2.459646   1.515902   2.520847   2.328110   2.420088
     8  O    2.723096   2.454748   3.771496   3.669870   3.680736
     9  C    2.654581   1.531291   2.200678   1.551862   2.462183
    10  H    0.963336   1.931201   2.910908   3.777851   4.874978
    11  H    3.164864   2.258514   1.096244   2.297221   2.736463
    12  H    2.894022   2.171297   1.095076   2.216461   3.481162
    13  H    4.299943   3.035271   2.261498   1.089476   2.227870
    14  H    4.972633   3.652392   2.859109   2.201887   1.094404
    15  H    5.141881   3.790735   3.515556   2.170247   1.095209
    16  H    3.892308   2.966476   3.063384   3.090817   2.214965
    17  H    4.535091   3.532496   3.954549   3.294443   2.212671
    18  H    2.118210   2.366624   3.826596   4.058088   4.320513
    19  H    3.184545   2.398694   3.163854   2.395719   3.304939
                    6          7          8          9         10
     6  C    0.000000
     7  C    1.525036   0.000000
     8  O    2.488008   1.388457   0.000000
     9  C    2.514418   1.519198   2.525396   0.000000
    10  H    4.498197   3.165351   3.448707   2.922180   0.000000
    11  H    2.958916   3.011824   4.227189   3.119709   3.626673
    12  H    3.966629   3.442843   4.599988   2.788311   2.854680
    13  H    3.434459   3.357046   4.644248   2.275940   4.390024
    14  H    2.219480   3.302126   4.570643   3.420601   5.521872
    15  H    2.188838   3.022327   4.104232   2.876784   5.620690
    16  H    1.095199   2.183129   2.981009   3.334268   4.741446
    17  H    1.093687   2.150716   2.616506   3.166695   5.302557
    18  H    3.184867   1.905640   0.966932   2.851121   2.832414
    19  H    3.390050   2.319846   2.888217   1.081857   3.228017
                   11         12         13         14         15
    11  H    0.000000
    12  H    1.784943   0.000000
    13  H    2.981832   2.461548   0.000000
    14  H    2.651530   3.702496   2.668962   0.000000
    15  H    3.803055   4.329536   2.511255   1.765404   0.000000
    16  H    2.750060   4.150094   4.098383   2.414810   3.022752
    17  H    4.047282   5.012238   4.189146   2.874853   2.367753
    18  H    4.292990   4.517524   5.019171   5.151021   4.869807
    19  H    4.153613   3.529126   2.774117   4.317259   3.431581
                   16         17         18         19
    16  H    0.000000
    17  H    1.760758   0.000000
    18  H    3.492391   3.489051   0.000000
    19  H    4.301767   3.816383   3.181821   0.000000
 Stoichiometry    C7H10O2
 Framework group  C1[X(C7H10O2)]
 Deg. of freedom    51
 Full point group                 C1      NOp   1
 Largest Abelian subgroup         C1      NOp   1
 Largest concise Abelian subgroup C1      NOp   1
                         Standard orientation:                         
 ---------------------------------------------------------------------
 Center     Atomic      Atomic             Coordinates (Angstroms)
 Number     Number       Type             X           Y           Z
 ---------------------------------------------------------------------
      1          8           0        2.126728   -0.769914   -0.357213
      2          6           0        0.765718   -0.625168   -0.122925
      3          6           0       -0.341744   -1.571595   -0.551767
      4          6           0       -1.248402   -0.889121    0.535019
      5          6           0       -2.079935    0.255460   -0.076038
      6          6           0       -1.018877    1.237644   -0.638227
      7          6           0        0.275267    0.799971    0.039541
      8          8           0        1.270259    1.757162    0.186480
      9          6           0        0.008511   -0.210781    1.141896
     10          1           0        2.468515   -1.476651    0.201105
     11          1           0       -0.682425   -1.542602   -1.593327
     12          1           0       -0.108558   -2.606458   -0.279970
     13          1           0       -1.813114   -1.574973    1.165625
     14          1           0       -2.777073   -0.101759   -0.840311
     15          1           0       -2.671642    0.740142    0.707830
     16          1           0       -0.942143    1.191764   -1.729771
     17          1           0       -1.231985    2.277350   -0.374129
     18          1           0        2.106392    1.322919   -0.030941
     19          1           0        0.312919   -0.106180    2.174760
 ---------------------------------------------------------------------
 Rotational constants (GHZ):      2.5714159      1.9001153      1.3466707
 1\1\GINC-ALCHEMY-SE\FOpt\RB3LYP\6-31G(2df,p)\C7H10O2\PUCK\27-Jan-2020\
 0\\# b3lyp 6-31G(2df,p) opt Freq\\titel\\0,1\O,-1.464982391,-1.1445908
 036,1.8148660605\C,-1.909791402,0.0459610751,1.2554732377\C,-3.3221707
 058,0.3721673193,0.8028413938\C,-2.9174365418,1.8888746222,0.871332919
 5\C,-2.4313692269,2.3953729045,-0.5005635529\C,-1.2151843999,1.4905709
 776,-0.8304333593\C,-0.8648231825,0.851675212,0.5092662689\O,0.4471210
 166,0.4346265764,0.6900615976\C,-1.6322508349,1.4995265198,1.649137865
 2\H,-1.8055288721,-1.216545017,2.7131233264\H,-3.6685429049,-0.0215546
 025,-0.1598430209\H,-4.0558399274,0.1227076944,1.5765928327\H,-3.63706
 7672,2.5393276874,1.3673155855\H,-3.2166426,2.3476419966,-1.2613450864
 \H,-2.1176978221,3.4413797095,-0.4171228951\H,-1.4469843509,0.73815377
 64,-1.5917467219\H,-0.3567657298,2.0623926775,-1.1941479189\H,0.406054
 528,-0.4253061066,1.1302745084\H,-1.1884854405,1.946576941,2.528701369
 2\\Version=ES64L-G09RevD.01\State=1-A\HF=-423.1631878\RMSD=4.253e-09\R
 MSF=2.160e-05\Dipole=-0.7341965,-0.0343091,0.5703529\Quadrupole=-3.000
 4495,-0.1701323,3.1705818,-0.2836961,0.0859757,-2.1041423\PG=C01 [X(C7
 H10O2)]\\@


 I FIND THAT THE THREE TRULY GREAT TIMES FOR THINKING THOUGHTS
 ARE WHEN I AM STANDING IN THE SHOWER, SITTING ON THE JOHN, OR WALKING.

                                    -- COLIN FLETCHER
 Job cpu time:       0 days  0 hours  7 minutes 55.6 seconds.
 File lengths (MBytes):  RWF=     52 Int=      0 D2E=      0 Chk=      7 Scr=      1
 Normal termination of Gaussian 09 at Mon Jan 27 18:19:47 2020.
 Link1:  Proceeding to internal job step number  2.
 ----------------------------------------------------------------------
 #N Geom=AllCheck Guess=TCheck SCRF=Check GenChk RB3LYP/6-31G(2df,p) Fr
 eq
 ----------------------------------------------------------------------
 1/10=4,29=7,30=1,38=1,40=1/1,3;
 2/12=2,40=1/2;
 3/5=1,6=6,7=104,11=2,14=-4,16=1,25=1,30=1,70=2,71=2,74=-5,116=1,140=1/1,2,3;
 4/5=101/1;
 5/5=2,98=1/2;
 8/6=4,10=90,11=11/1;
 11/6=1,8=1,9=11,15=111,16=1/1,2,10;
 10/6=1/2;
 6/7=2,8=2,9=2,10=2,18=1,28=1/1;
 7/8=1,10=1,25=1/1,2,3,16;
 1/10=4,30=1/3;
 99//99;
 Structure from the checkpoint file:  "/scratch/puck/g09_2075cdf9-6ea7-4164-ac4c-d8d6f4a3f95f/Gau-4336.chk"
 -----
 titel
 -----
 Charge =  0 Multiplicity = 1
 Redundant internal coordinates found in file.
 O,0,-1.464982391,-1.1445908036,1.8148660605
 C,0,-1.909791402,0.0459610751,1.2554732377
 C,0,-3.3221707058,0.3721673193,0.8028413938
 C,0,-2.9174365418,1.8888746222,0.8713329195
 C,0,-2.4313692269,2.3953729045,-0.5005635529
 C,0,-1.2151843999,1.4905709776,-0.8304333593
 C,0,-0.8648231825,0.851675212,0.5092662689
 O,0,0.4471210166,0.4346265764,0.6900615976
 C,0,-1.6322508349,1.4995265198,1.6491378652
 H,0,-1.8055288721,-1.216545017,2.7131233264
 H,0,-3.6685429049,-0.0215546025,-0.1598430209
 H,0,-4.0558399274,0.1227076944,1.5765928327
 H,0,-3.637067672,2.5393276874,1.3673155855
 H,0,-3.2166426,2.3476419966,-1.2613450864
 H,0,-2.1176978221,3.4413797095,-0.4171228951
 H,0,-1.4469843509,0.7381537764,-1.5917467219
 H,0,-0.3567657298,2.0623926775,-1.1941479189
 H,0,0.406054528,-0.4253061066,1.1302745084
 H,0,-1.1884854405,1.946576941,2.5287013692
 Recover connectivity data from disk.

 GradGradGradGradGradGradGradGradGradGradGradGradGradGradGradGradGradGrad
 Berny optimization.
 Initialization pass.
                           ----------------------------
                           !    Initial Parameters    !
                           ! (Angstroms and Degrees)  !
 --------------------------                            --------------------------
 ! Name  Definition              Value          Derivative Info.                !
 --------------------------------------------------------------------------------
 ! R1    R(1,2)                  1.3886         calculate D2E/DX2 analytically  !
 ! R2    R(1,10)                 0.9633         calculate D2E/DX2 analytically  !
 ! R3    R(2,3)                  1.5186         calculate D2E/DX2 analytically  !
 ! R4    R(2,7)                  1.5159         calculate D2E/DX2 analytically  !
 ! R5    R(2,9)                  1.5313         calculate D2E/DX2 analytically  !
 ! R6    R(3,4)                  1.5713         calculate D2E/DX2 analytically  !
 ! R7    R(3,11)                 1.0962         calculate D2E/DX2 analytically  !
 ! R8    R(3,12)                 1.0951         calculate D2E/DX2 analytically  !
 ! R9    R(4,5)                  1.5411         calculate D2E/DX2 analytically  !
 ! R10   R(4,9)                  1.5519         calculate D2E/DX2 analytically  !
 ! R11   R(4,13)                 1.0895         calculate D2E/DX2 analytically  !
 ! R12   R(5,6)                  1.5513         calculate D2E/DX2 analytically  !
 ! R13   R(5,14)                 1.0944         calculate D2E/DX2 analytically  !
 ! R14   R(5,15)                 1.0952         calculate D2E/DX2 analytically  !
 ! R15   R(6,7)                  1.525          calculate D2E/DX2 analytically  !
 ! R16   R(6,16)                 1.0952         calculate D2E/DX2 analytically  !
 ! R17   R(6,17)                 1.0937         calculate D2E/DX2 analytically  !
 ! R18   R(7,8)                  1.3885         calculate D2E/DX2 analytically  !
 ! R19   R(7,9)                  1.5192         calculate D2E/DX2 analytically  !
 ! R20   R(8,18)                 0.9669         calculate D2E/DX2 analytically  !
 ! R21   R(9,19)                 1.0819         calculate D2E/DX2 analytically  !
 ! A1    A(2,1,10)             109.0525         calculate D2E/DX2 analytically  !
 ! A2    A(1,2,3)              127.0258         calculate D2E/DX2 analytically  !
 ! A3    A(1,2,7)              115.6703         calculate D2E/DX2 analytically  !
 ! A4    A(1,2,9)              130.7105         calculate D2E/DX2 analytically  !
 ! A5    A(3,2,7)              112.3481         calculate D2E/DX2 analytically  !
 ! A6    A(3,2,9)               92.3664         calculate D2E/DX2 analytically  !
 ! A7    A(2,3,4)               87.4087         calculate D2E/DX2 analytically  !
 ! A8    A(2,3,11)             118.585          calculate D2E/DX2 analytically  !
 ! A9    A(2,3,12)             111.3201         calculate D2E/DX2 analytically  !
 ! A10   A(4,3,11)             117.7975         calculate D2E/DX2 analytically  !
 ! A11   A(4,3,12)             111.2024         calculate D2E/DX2 analytically  !
 ! A12   A(11,3,12)            109.086          calculate D2E/DX2 analytically  !
 ! A13   A(3,4,5)              111.0813         calculate D2E/DX2 analytically  !
 ! A14   A(3,4,9)               89.5983         calculate D2E/DX2 analytically  !
 ! A15   A(3,4,13)             115.2141         calculate D2E/DX2 analytically  !
 ! A16   A(5,4,9)              105.5118         calculate D2E/DX2 analytically  !
 ! A17   A(5,4,13)             114.6696         calculate D2E/DX2 analytically  !
 ! A18   A(9,4,13)             117.946          calculate D2E/DX2 analytically  !
 ! A19   A(4,5,6)              104.1743         calculate D2E/DX2 analytically  !
 ! A20   A(4,5,14)             112.2217         calculate D2E/DX2 analytically  !
 ! A21   A(4,5,15)             109.6584         calculate D2E/DX2 analytically  !
 ! A22   A(6,5,14)             112.9091         calculate D2E/DX2 analytically  !
 ! A23   A(6,5,15)             110.4087         calculate D2E/DX2 analytically  !
 ! A24   A(14,5,15)            107.4648         calculate D2E/DX2 analytically  !
 ! A25   A(5,6,7)              103.7483         calculate D2E/DX2 analytically  !
 ! A26   A(5,6,16)             112.4939         calculate D2E/DX2 analytically  !
 ! A27   A(5,6,17)             112.4016         calculate D2E/DX2 analytically  !
 ! A28   A(7,6,16)             111.806          calculate D2E/DX2 analytically  !
 ! A29   A(7,6,17)             109.321          calculate D2E/DX2 analytically  !
 ! A30   A(16,6,17)            107.1063         calculate D2E/DX2 analytically  !
 ! A31   A(2,7,6)              119.7839         calculate D2E/DX2 analytically  !
 ! A32   A(2,7,8)              115.3156         calculate D2E/DX2 analytically  !
 ! A33   A(6,7,8)              117.2132         calculate D2E/DX2 analytically  !
 ! A34   A(6,7,9)              111.3719         calculate D2E/DX2 analytically  !
[...]
 109,-0.00403261,-0.00218678,0.02784564,-0.06123632,0.01571754,-0.01606
 007,-0.13699647,-0.00543771,-0.13606536,0.50519233,-0.00159825,0.00362
 866,0.00291695,-0.01799969,0.01733889,-0.00117908,0.01045658,-0.013555
 59,-0.07146692,-0.09770438,0.03558702,0.43732452,0.00015536,0.00249464
 ,0.00106757,-0.00221326,0.00004771,-0.00244083,-0.00470221,-0.00722385
 ,0.01155467,-0.08084925,-0.01033993,0.02999862,0.49770116,0.00144268,-
 0.00031916,-0.00079682,-0.00126163,0.00058482,0.00065810,-0.01082822,-
 0.01448180,0.02913320,-0.01126340,-0.08889673,0.02393243,0.03511312,0.
 55524716,0.00113158,0.00081263,0.00038784,-0.00277691,-0.00054871,-0.0
 0322052,-0.00022041,0.00468998,0.00201449,0.02889169,0.02593422,-0.142
 22355,0.10215233,-0.00085041,0.48038813,-0.00085034,-0.00034115,0.0036
 6909,0.00561685,-0.00463007,0.01406106,0.00092746,-0.00077090,0.000422
 49,-0.01877625,0.00895639,0.01812372,-0.12647119,0.04103606,0.01541307
 ,0.51276447,-0.00120154,-0.00021493,0.00282825,0.00406147,-0.00493768,
 0.01932299,0.00077534,0.00130370,0.00059886,-0.00543046,0.00683631,-0.
 00566610,0.03572932,-0.10862031,-0.01073883,0.08384411,0.50164712,-0.0
 0098205,-0.00069987,0.00104989,0.00536542,-0.00015585,-0.01118750,0.00
 077752,0.00099305,0.00264151,0.02160754,-0.01543458,-0.01425038,0.0134
 3972,-0.01381853,-0.07657423,-0.03984182,0.04960484,0.52398033,0.00051
 755,-0.00025362,-0.00855935,-0.11901910,-0.06390852,0.04504117,-0.0202
 6546,-0.00323977,0.01787178,-0.03093207,0.01256358,0.01011793,-0.01879
 252,0.01811839,-0.01671343,-0.07350248,0.00383841,-0.01910488,0.589393
 64,-0.01235014,-0.02015250,0.02810015,-0.01809531,-0.08061893,0.034847
 23,-0.00242712,0.00307905,-0.00832478,0.02115162,0.00014307,0.00092267
 ,0.01215611,-0.01296251,0.01040249,-0.00084218,-0.08800950,0.03893899,
 -0.08412981,0.35728661,0.00333653,0.00674477,-0.01598243,0.05553159,0.
 07772062,-0.07619414,-0.00805714,-0.00148596,0.00712290,-0.00315179,-0
 .00244237,0.01081096,-0.01448662,0.00427541,0.00637336,-0.01188846,0.0
 3610189,-0.15807102,-0.02923220,-0.10343735,0.50090434,0.00205335,-0.0
 0019805,-0.00310160,-0.03936100,0.01047311,-0.00510394,-0.00074167,-0.
 00143656,0.00673591,0.00018927,-0.00237093,0.00552046,0.00167393,-0.00
 082085,-0.00228382,-0.01481479,0.00681170,-0.00333555,-0.25141390,0.02
 913774,-0.00765253,0.36845035,-0.00512593,0.00080960,0.00116261,-0.018
 09697,0.00472992,-0.00114455,-0.00231413,-0.00085862,0.00355280,0.0031
 1137,-0.00207232,-0.00439018,0.00254475,-0.00012951,0.00334305,0.01984
 482,-0.00556535,0.00153763,0.07345547,-0.09247276,0.02540026,-0.048930
 10,0.49030700,0.00699234,0.00221790,0.00043242,0.00030109,-0.00296123,
 -0.00412786,-0.00021189,-0.00130597,-0.00005756,0.00269546,0.00017645,
 -0.00455285,-0.00026003,0.00100086,-0.00481986,-0.02794270,0.00984832,
 0.00400701,-0.03211263,0.02540900,-0.07209106,0.00761625,-0.23306946,0
 .15828823,-0.00256176,0.00963622,0.00781401,-0.02049956,-0.01797885,-0
 .02540645,-0.03228687,-0.02513474,-0.04383959,-0.12738723,0.02224049,-
 0.03439127,0.00162271,0.00333669,-0.00988917,-0.00070864,-0.00130740,0
 .00635586,-0.07737718,0.00082800,0.03012793,-0.02106265,0.02847842,0.0
 1970051,0.38604756,0.00202500,-0.01564755,-0.00084793,-0.05431626,-0.1
 5997001,-0.02614255,-0.02790931,-0.02129545,-0.02614225,0.02825918,-0.
 05914539,0.00204996,0.01210925,-0.00168544,0.01687722,0.00084752,0.004
 71096,0.00536045,0.03729715,-0.04228376,-0.07102647,0.01123022,-0.0059
 8073,0.00222153,0.02416240,0.39655913,0.00086998,0.01443975,0.01165064
 ,-0.03512058,-0.05556623,-0.05716629,-0.01673241,-0.01572617,-0.013354
 06,-0.03143722,-0.00219369,-0.09295172,-0.01857443,0.00361777,-0.02780
 747,-0.00146197,-0.01662107,-0.03032515,0.03538147,-0.02555280,-0.1463
 9148,0.00135863,0.00719991,0.01289728,0.16438296,0.18907771,0.57300808
 ,-0.08061271,-0.00029454,0.17917116,0.00377665,0.00321233,-0.01704192,
 0.00177629,0.00085421,-0.00189741,0.00027966,0.00040727,0.00055070,-0.
 00024180,-0.00026398,-0.00021946,0.00004085,0.00014072,-0.00011350,-0.
 00252051,-0.00131370,0.00098043,0.00077923,-0.00220048,0.00032716,-0.0
 0084881,0.00129315,0.00164698,0.07599268,0.01516260,-0.02968069,0.0032
 2144,-0.01280124,-0.01358889,0.04184281,0.00020730,0.00037220,0.000058
 26,0.00033436,0.00065506,-0.00040889,-0.00041474,0.00022482,-0.0001330
 2,-0.00123856,-0.00110701,-0.00038300,0.00305753,-0.00419346,0.0046205
 9,0.00112932,0.00035366,-0.00031112,-0.00164881,0.00172393,-0.00113116
 ,-0.00390678,0.04572512,0.16036021,0.04379278,-0.44106848,0.00673973,0
 .00438486,-0.01784843,-0.00035380,-0.00160229,-0.00040747,0.00048245,-
 0.00062929,0.00086088,0.00014084,-0.00031027,-0.00005147,0.00031686,0.
 00012576,-0.00008484,-0.00455029,-0.00058297,0.00104831,-0.00079399,-0
 .00117650,0.00086393,0.00214233,0.00164822,0.00391141,-0.16422453,-0.0
 4662692,0.45383871,-0.00031928,0.00201850,-0.00057740,-0.00333014,-0.0
 1428098,-0.02203393,-0.07169801,-0.02352958,-0.06530678,-0.00348806,-0
 .00011817,-0.00245957,0.00060305,-0.00048858,-0.00029946,-0.00025521,-
 0.00008827,-0.00004831,0.00256518,0.00044410,-0.00007876,0.00010497,0.
 00017642,0.00008784,-0.00512275,-0.00261957,-0.00512792,-0.00049491,-0
 .00004717,0.00000871,0.07582091,0.00043435,0.00049929,0.00010960,-0.00
 212419,0.00223680,0.00854721,-0.02379563,-0.08416162,-0.07756375,-0.00
 349318,-0.00314721,-0.02214357,0.00059519,0.00223913,-0.00146467,-0.00
 023972,0.00005701,0.00006157,-0.00110612,-0.00073281,-0.00094373,-0.00
 027867,0.00011079,0.00037757,-0.00199248,0.00083218,-0.00175840,-0.000
 24961,-0.00008841,-0.00000864,0.03221708,0.08087145,-0.00042889,0.0009
 2122,-0.00056122,-0.00150553,-0.00460857,-0.00356482,-0.06512287,-0.07
 851480,-0.24889602,0.00117029,0.00203511,0.00171290,0.00032717,0.00026
 177,0.00012852,-0.00059012,-0.00007035,-0.00023395,0.00031542,0.000445
 88,0.00063571,-0.00053816,0.00003137,0.00019711,-0.00151855,0.00076892
 ,0.00011022,0.00007374,-0.00018619,-0.00014107,0.07478140,0.08794598,0
 .26799424,0.00325086,0.00049573,-0.00079755,-0.02547714,-0.01108079,0.
 02407800,-0.16030505,-0.03951106,0.12263340,-0.00043969,-0.00056900,-0
 .00069350,0.00009284,0.00040546,-0.00042799,0.00008793,0.00009588,-0.0
 0072964,-0.00209991,0.00559715,-0.00278560,-0.00242450,-0.00137629,-0.
 00016781,0.00341755,0.00106075,-0.00098199,-0.00075285,0.00057202,-0.0
 0051047,0.00700327,0.00218682,-0.00687641,0.17607361,-0.00167809,0.001
 19328,-0.00100754,0.01065692,0.00317391,-0.00871908,-0.03997398,-0.052
 54131,0.03864385,-0.02266102,-0.00771423,0.02153101,-0.00209158,-0.005
 37145,-0.00243097,0.00050727,-0.00017665,-0.00029531,0.00225832,-0.000
 35047,0.00054098,0.00098053,0.00048572,-0.00006425,0.00103790,-0.00321
 698,0.00071071,-0.00008671,0.00011373,0.00037937,0.00759311,0.00273182
 ,-0.00836627,0.04311807,0.05926687,0.00102635,-0.00149842,0.00134824,-
 0.00746034,-0.00298196,0.00717039,0.12239553,0.03971718,-0.18354367,-0
 .00038537,-0.00133822,-0.00129910,-0.00004549,0.00100559,0.00024362,-0
 .00047854,-0.00021189,0.00014654,-0.00241991,0.00109026,-0.00009396,-0
 .00041517,-0.00049437,0.00050300,0.00181140,0.00135154,0.00053920,0.00
 066604,-0.00003234,-0.00024159,0.01895259,0.00637649,-0.01912746,-0.13
 359975,-0.04297254,0.19265864,0.00064819,0.00009398,0.00091154,-0.0003
 9276,-0.00174111,-0.00096379,0.00968219,-0.00671719,-0.00686947,-0.167
 84024,0.10833093,0.08202535,-0.00428280,0.00446473,0.00178752,-0.00058
 351,-0.00045683,0.00085440,-0.00263639,-0.00072001,-0.00231351,-0.0008
 8044,0.00187962,0.00067193,-0.01143063,0.01114652,0.01455739,0.0000241
 6,-0.00008704,0.00005300,0.00006688,-0.00123650,-0.00023752,0.00122263
 ,0.00117990,-0.00032190,0.17583091,0.00210198,-0.00075494,0.00077510,-
 0.00383657,-0.00435388,-0.00065737,0.01773760,-0.01532177,-0.01015485,
 0.10975822,-0.14186377,-0.07526101,-0.00888349,0.00789825,0.00511900,-
 0.00081478,0.00003041,0.00248875,-0.00106737,0.00043637,0.00153646,-0.
 00016894,0.00021768,-0.00023407,0.00079300,-0.00100423,-0.00028074,0.0
 0011416,0.00004632,-0.00026307,0.00053470,-0.00208118,0.00011864,-0.00
 055998,0.00220510,-0.00015513,-0.11542097,0.15272205,-0.00042402,0.000
 82211,0.00027897,0.00061537,-0.00044272,-0.00047078,0.00165902,0.00224
 875,-0.00205024,0.08162928,-0.07532356,-0.10473665,0.01799540,-0.01778
 972,-0.00911619,0.00132880,0.00303099,-0.00430670,-0.00153536,0.000198
 67,-0.00374506,-0.00100659,0.00100134,0.00100288,-0.01065778,0.0106768
 5,0.01119025,-0.00004489,-0.00008156,0.00009780,-0.00004276,-0.0005591
 6,-0.00000650,0.00009523,0.00051219,0.00130042,-0.09104296,0.07784369,
 0.10889698,0.00012584,-0.00018270,-0.00021617,0.00030243,0.00040738,0.
 00051500,0.00050938,0.00061522,-0.00051043,0.00920939,0.00067850,0.008
 26972,-0.18237740,-0.01119342,-0.13015345,-0.01427126,-0.00248371,-0.0
 1589333,-0.00243568,0.00068637,0.00221326,-0.00034762,0.00117708,-0.00
 113458,-0.00003889,-0.00146333,0.00236274,0.00004657,0.00006450,-0.000
 01722,0.00009688,0.00038154,-0.00010981,0.00008180,0.00020851,0.000135
 69,0.00010195,0.00031924,-0.00071892,0.19569788,-0.00026023,-0.0002182
 6,-0.00002306,0.00077686,0.00037909,0.00016949,0.00100197,0.00130423,0
 .00044159,0.00694108,-0.00056167,0.00684390,-0.01324561,-0.04903323,-0
 .01278906,0.01181616,0.00017518,0.01300387,0.00289950,-0.00091637,-0.0
 0016073,0.00043208,-0.00105633,0.00087368,0.00058919,-0.00038402,0.002
 37503,0.00004029,0.00001911,0.00002210,-0.00021128,-0.00021232,-0.0004
 2137,-0.00004814,0.00011326,-0.00016474,-0.00015021,0.00012780,-0.0002
 3234,0.01057383,0.05139441,0.00009856,0.00119088,0.00025098,-0.0005625
 6,-0.00061352,-0.00109249,-0.00052248,-0.00126098,0.00118758,-0.021283
 69,-0.00185243,-0.01810680,-0.13014238,-0.00993569,-0.17051656,0.00777
 029,-0.00066604,0.00665757,0.00178350,-0.00158956,-0.00195219,-0.00006
 354,-0.00007046,0.00053339,0.00172736,0.00244125,-0.00369890,-0.000123
 71,-0.00019022,0.00006278,0.00033333,0.00083533,0.00051715,0.00011057,
 -0.00010963,0.00022521,0.00041617,-0.00034839,0.00003443,0.14187645,0.
 01132742,0.18669370,0.00048627,-0.00031621,0.00009186,-0.00045463,-0.0
 0033252,0.00015529,-0.00005087,-0.00011955,0.00253737,-0.00440264,-0.0
 1150644,-0.00127028,-0.06928047,-0.07389313,-0.00969177,0.00432201,0.0
 2585682,0.00306207,-0.00070530,0.00031842,0.00266090,-0.00020279,0.000
 14642,-0.00080469,0.00053864,0.00022974,-0.00024689,-0.00004028,0.0000
 3606,-0.00009151,0.00006075,0.00042038,0.00008455,0.00016103,-0.000626
 02,0.00027772,0.00006839,0.00021980,-0.00041777,-0.00690846,-0.0220812
 7,-0.00144466,0.07685140,0.00022649,-0.00005968,0.00008898,-0.00020617
 ,0.00057087,-0.00060546,-0.00122214,0.00151344,0.00206760,-0.00366691,
 -0.00997978,-0.00054171,-0.07267738,-0.28139467,-0.02029182,-0.0043604
 1,-0.01548845,-0.00277715,0.00077920,-0.00042346,-0.00124321,0.0002527
 0,-0.00025864,0.00047434,0.00044692,0.00090960,0.00049399,-0.00007339,
 0.00002626,-0.00005803,0.00017273,0.00025795,-0.00002886,0.00013283,-0
 .00074417,0.00016734,-0.00016635,0.00077370,0.00038167,-0.00065941,-0.
 00145608,-0.00032148,0.07854790,0.30526242,-0.00067782,-0.00001777,-0.
 00012747,0.00125132,-0.00043734,0.00076411,0.00179699,0.00078122,-0.00
 555496,0.01002484,0.03067722,0.00181604,-0.01036968,-0.02027814,-0.049
 48905,-0.00115957,-0.00881249,-0.00185977,-0.00031190,0.00001137,-0.00
 084657,-0.00011071,-0.00008590,0.00025197,0.00008998,-0.00127099,0.001
 14443,0.00010351,-0.00002276,0.00011906,0.00011867,-0.00002585,0.00020
 571,-0.00006270,0.00172099,-0.00010533,-0.00017909,-0.00086594,0.00143
 698,-0.00679825,-0.02203442,-0.00138612,0.00470506,0.02154911,0.052517
 38,0.00006217,0.00018492,-0.00014393,0.00009901,0.00050183,0.00110683,
 0.00035630,-0.00012225,0.00003995,-0.00055542,0.00122245,0.00047138,0.
 00577670,0.01822292,0.01652350,-0.06107137,-0.04202584,-0.03999469,-0.
 00111659,-0.00583175,-0.00562741,0.00003913,0.00066135,0.00058504,-0.0
 0113708,0.00088365,0.00013160,0.00006351,0.00002357,-0.00003149,-0.000
 35264,-0.00026091,0.00015542,0.00012262,-0.00016070,-0.00019570,-0.000
 16706,-0.00038440,0.00047352,0.00174370,-0.00040326,-0.00037125,-0.002
 64835,0.00246744,0.00183921,0.06435330,0.00013178,0.00012986,-0.000349
 58,-0.00009483,0.00098856,-0.00116702,-0.00044382,-0.00023426,-0.00063
 050,0.00028956,-0.00062177,0.00024120,-0.00454808,-0.01378205,-0.00997
 642,-0.04054738,-0.17111307,-0.12315314,0.00341828,0.01275914,0.012279
 01,-0.00053360,-0.00026160,-0.00080291,0.00127359,0.00004923,0.0032040
 0,0.00002264,0.00010727,-0.00000981,-0.00017971,0.00017581,0.00032967,
 0.00011093,0.00007548,-0.00002852,0.00002395,0.00019383,-0.00026957,-0
 .00012334,0.00121870,0.00048497,0.00326849,-0.00126305,-0.00122123,0.0
 4289578,0.18398863,0.00011781,0.00079001,-0.00007534,-0.00047852,-0.00
 039315,0.00253779,0.00014696,-0.00032086,-0.00046770,-0.00075722,-0.00
 019390,-0.00038989,-0.00213457,-0.00107904,-0.00187952,-0.03869227,-0.
 12302320,-0.16599998,-0.00306944,-0.01944499,-0.02273800,-0.00107133,0
 .00124857,0.00085895,-0.00223651,0.00107165,-0.00416945,-0.00001792,-0
 .00013328,-0.00001424,0.00076356,0.00021570,0.00028969,0.00011603,0.00
 011174,0.00023003,0.00023511,0.00007964,-0.00000929,0.00035014,0.00025
 954,0.00094422,0.00007998,0.00038277,0.00040835,0.04332530,0.13325680,
 0.18410672,0.00044214,0.00002830,-0.00054895,-0.00068242,0.00119217,-0
 .00161793,0.00003980,0.00031820,-0.00042780,-0.00285658,0.00245849,-0.
 00005351,-0.01617864,-0.01190007,0.00745843,-0.20766738,-0.11183959,0.
 06614240,0.00652955,0.00547210,-0.00213697,0.00168411,-0.00037258,0.00
 073742,0.00014313,-0.00008093,0.00032469,0.00007969,0.00025246,-0.0001
 3047,0.00015271,0.00001279,-0.00000238,0.00000034,-0.00002358,-0.00000
 198,-0.00023060,-0.00047619,0.00105631,-0.00152348,0.00091030,0.000781
 16,0.00204927,-0.00011576,-0.00024539,-0.00577765,-0.00436433,0.002383
 46,0.22371504,-0.00006517,-0.00019542,0.00093331,0.00166002,0.00006107
 ,0.00149038,0.00062838,-0.00028801,0.00000092,0.00323520,-0.00216890,-
 0.00005305,0.01683555,0.01002087,-0.00890652,-0.11192437,-0.12022693,0
 .04521380,-0.01224578,-0.00986703,0.00528521,0.00016128,0.00111061,-0.
 00126636,-0.00055163,0.00038918,0.00071321,0.00002071,-0.00025823,0.00
 006299,0.00015288,0.00009862,-0.00014525,-0.00001222,0.00009355,0.0000
 6289,0.00028385,0.00037209,-0.00107448,0.00130171,-0.00038653,-0.00015
 428,-0.00002272,0.00186680,0.00022932,-0.01777840,-0.01236116,0.006917
 01,0.11861486,0.13159490,0.00030449,0.00034061,-0.00157330,-0.00294603
 ,0.00082025,-0.00181701,-0.00082967,-0.00014860,-0.00010476,0.00097889
 ,-0.00101187,-0.00173733,0.00278883,0.00146339,-0.00181996,0.06433497,
 0.04408462,-0.07467286,0.02466065,0.01909813,-0.01066125,0.00029482,-0
 .00235405,0.00232987,0.00075294,-0.00128374,0.00063681,0.00000516,0.00
 043605,-0.00006523,0.00021007,0.00009418,0.00026638,0.00016960,0.00005
 187,0.00013170,0.00041950,0.00008654,-0.00032079,0.00001737,0.00003341
 ,-0.00011565,0.00036234,0.00001564,0.00085450,-0.01804351,-0.01261582,
 0.00767728,-0.07381888,-0.04914681,0.08081260,0.00121533,-0.00098977,-
 0.00111201,-0.00467860,0.00552039,-0.00283731,0.00022564,-0.00058247,-
 0.00042164,-0.00046967,0.00052859,0.00022742,-0.00057622,0.00027996,-0
 .00098036,-0.00450816,0.00134164,0.00123054,-0.00823260,0.04137692,-0.
 02203009,-0.04462797,-0.05026474,0.02637780,-0.00197347,0.00153539,-0.
 00076623,0.00238206,-0.00046759,0.00090033,0.00011293,0.00002027,0.000
 13201,0.00019321,-0.00000935,0.00004025,-0.00026710,-0.00018295,-0.000
 05170,-0.00029947,0.00028347,0.00014288,-0.00015285,0.00006194,0.00006
 425,0.00005509,0.00005787,-0.00015084,0.00008558,-0.00017185,0.0002636
 8,0.06136858,-0.00149787,-0.00132226,-0.00267847,-0.00278212,0.0040783
 0,0.00106392,-0.00032445,-0.00071256,0.00049734,0.00040772,-0.00050571
 ,0.00033664,0.00019155,0.00001969,-0.00028257,-0.00139037,0.00039151,-
 0.00180839,0.00842161,-0.01388998,0.00697763,-0.00643236,-0.38992709,0
 .19723915,0.00033024,-0.00154703,0.00083459,0.00205930,0.00009521,0.00
 010191,-0.00003752,-0.00003376,-0.00010617,-0.00036989,0.00018855,-0.0
 0018248,-0.00010000,-0.00011935,0.00000148,-0.00008789,0.00002837,-0.0
 0003378,-0.00007189,0.00003720,0.00004148,-0.00004177,-0.00001152,-0.0
 0022007,-0.00007625,-0.00008772,0.00003827,0.00194424,0.40342333,-0.00
 238123,0.00030368,-0.00216881,0.00397597,-0.00177115,0.00438798,0.0000
 5546,0.00093097,-0.00062781,0.00039887,0.00026548,-0.00068310,-0.00044
 911,0.00012695,-0.00100083,-0.00284477,0.00203347,0.00015238,-0.003170
 80,0.00664314,-0.00754340,0.00311957,0.19589953,-0.09987373,0.00166393
 ,-0.00198427,-0.00038344,0.00027759,-0.00009334,-0.00056682,-0.0000649
 4,0.00000304,-0.00001374,0.00039281,-0.00017291,-0.00002913,0.00020688
 ,0.00003840,0.00013233,-0.00019914,0.00016554,0.00014983,0.00000725,0.
 00001521,-0.00002466,-0.00021456,-0.00007513,-0.00037742,0.00002769,-0
 .00024119,0.00030189,-0.00093806,-0.20170133,0.10839129,0.00108313,0.0
 0006486,0.00090341,-0.00777275,0.00460235,-0.00154442,-0.00344745,-0.0
 0185326,-0.00467724,-0.00011775,-0.01257353,-0.00959143,-0.00165998,-0
 .00050675,0.00029812,-0.00027899,0.00233825,0.00120828,0.01204376,0.00
 854149,0.01459043,0.00090298,-0.00279451,-0.00345853,-0.08933407,-0.04
 569054,-0.11056681,0.00027052,-0.00022778,-0.00044071,-0.00152654,-0.0
 0149139,-0.00010976,-0.00020857,-0.00022951,0.00001857,0.00106623,0.00
 021693,0.00108981,0.00028644,0.00013528,-0.00052600,0.00030886,0.00005
 977,-0.00007870,0.00015462,-0.00065780,0.00109026,-0.00000461,-0.00012
 228,0.00007479,0.00014769,-0.00014230,0.00013657,0.08808647,0.00061041
 ,0.00149578,0.00285690,-0.00483042,0.00328140,-0.02157945,0.00139467,-
 0.00204273,-0.00235197,-0.00224504,0.00611612,0.00960772,0.00160745,0.
 00044210,0.00123441,0.00024756,0.00030767,0.00132286,-0.00015644,-0.00
 683068,-0.00074300,0.00056138,0.00045798,0.00017658,-0.04453914,-0.093
 01362,-0.10383642,0.00022440,-0.00054601,0.00074979,-0.00170868,0.0003
 4645,-0.00041073,-0.00024829,0.00047400,0.00028934,-0.00060726,0.00047
 552,-0.00094460,-0.00022009,-0.00053533,0.00086660,-0.00007428,-0.0001
 5024,0.00006212,-0.00005460,-0.00003803,0.00047506,-0.00001039,0.00023
 226,-0.00000207,-0.00028195,-0.00010517,-0.00038608,0.05033071,0.08963
 252,-0.00058531,-0.00106057,0.00079105,0.00740578,0.00100352,0.0023902
 1,0.00011701,0.00126294,0.00055864,0.00437327,-0.00234865,-0.00186487,
 -0.00056202,-0.00061685,-0.00101675,-0.00054014,-0.00177002,-0.0010688
 4,-0.01439173,-0.00717553,-0.01058500,0.00083130,0.00240841,0.00335688
 ,-0.10862990,-0.10484712,-0.23884036,-0.00011914,-0.00044533,-0.000313
 23,0.00078365,-0.00009888,0.00048715,0.00003778,-0.00006421,-0.0000567
 7,-0.00021057,0.00013434,0.00039116,0.00001093,0.00031016,-0.00038813,
 -0.00005683,0.00023107,-0.00012460,-0.00002922,0.00050401,-0.00093221,
 0.00007271,0.00007891,-0.00012290,-0.00009094,-0.00011916,-0.00022281,
 0.11158336,0.11261296,0.24756138\\-0.00000112,0.00001035,-0.00000124,0
 .00003070,-0.00004637,0.00003745,-0.00000596,0.00006151,0.00000299,0.0
 0001812,-0.00005552,0.00002925,0.00001000,0.00001975,-0.00001860,-0.00
 002641,-0.00000023,-0.00003999,-0.00006697,0.00000932,0.00000349,0.000
 03906,-0.00001703,0.00000389,0.00002070,0.00000526,-0.00003027,0.00000
 713,-0.00000498,-0.00001028,-0.00000699,-0.00000584,0.00000758,0.00000
 164,0.00000220,0.00001222,0.00000475,0.00000773,0.00001353,-0.00001364
 ,-0.00000427,0.00001522,-0.00000730,-0.00000907,-0.00000285,-0.0000037
 0,-0.00000087,0.00000339,-0.00000419,-0.00000623,-0.00000066,-0.000002
 37,0.00000503,-0.00002528,0.00000655,0.00002928,0.00000016\\\@


 AS FAR AS THE LAWS OF MATHEMATICS REFER TO REALITY,
 THEY ARE NOT CERTAIN; AND AS FAR AS THEY ARE CERTAIN,
 THEY DO NOT REFER TO REALITY.

                                         -- ALBERT EINSTEIN
 Job cpu time:       0 days  0 hours 50 minutes 14.1 seconds.
 File lengths (MBytes):  RWF=    152 Int=      0 D2E=      0 Chk=      8 Scr=      1
 Normal termination of Gaussian 09 at Mon Jan 27 19:09:59 2020.
