 Entering Gaussian System, Link 0=/home/puck/opt/gaussian_09/g09
 Input=dsC7O2H10nsd_0328.com
 Output=dsC7O2H10nsd_0328.log
 Initial command:
 /home/puck/opt/gaussian_09/l1.exe "/scratch/puck/g09_191eda4a-fefa-4d96-9bb8-c0148ad18c68/Gau-61403.inp" -scrdir="/scratch/puck/g09_191eda4a-fefa-4d96-9bb8-c0148ad18c68/"
 Entering Link 1 = /home/puck/opt/gaussian_09/l1.exe PID=     61429.
  
 Copyright (c) 1988,1990,1992,1993,1995,1998,2003,2009,2013,
            Gaussian, Inc.  All Rights Reserved.
  
 This is part of the Gaussian(R) 09 program.  It is based on
 the Gaussian(R) 03 system (copyright 2003, Gaussian, Inc.),
 the Gaussian(R) 98 system (copyright 1998, Gaussian, Inc.),
 the Gaussian(R) 94 system (copyright 1995, Gaussian, Inc.),
 the Gaussian 92(TM) system (copyright 1992, Gaussian, Inc.),
 the Gaussian 90(TM) system (copyright 1990, Gaussian, Inc.),
 the Gaussian 88(TM) system (copyright 1988, Gaussian, Inc.),
 the Gaussian 86(TM) system (copyright 1986, Carnegie Mellon
 University), and the Gaussian 82(TM) system (copyright 1983,
 Carnegie Mellon University). Gaussian is a federally registered
 trademark of Gaussian, Inc.
  
 This software contains proprietary and confidential information,
 including trade secrets, belonging to Gaussian, Inc.
  
 This software is provided under written license and may be
 used, copied, transmitted, or stored only in accord with that
 written license.
  
 The following legend is applicable only to US Government
 contracts under FAR:
  
                    RESTRICTED RIGHTS LEGEND
  
 Use, reproduction and disclosure by the US Government is
 subject to restrictions as set forth in subparagraphs (a)
 and (c) of the Commercial Computer Software - Restricted
 Rights clause in FAR 52.227-19.
  
 Gaussian, Inc.
 340 Quinnipiac St., Bldg. 40, Wallingford CT 06492
  
  
 ---------------------------------------------------------------
 Warning -- This program may not be used in any manner that
 competes with the business of Gaussian, Inc. or will provide
 assistance to any competitor of Gaussian, Inc.  The licensee
 of this program is prohibited from giving any competitor of
 Gaussian, Inc. access to this program.  By using this program,
 the user acknowledges that Gaussian, Inc. is engaged in the
 business of creating and licensing software in the field of
 computational chemistry and represents and warrants to the
 licensee that it is not a competitor of Gaussian, Inc. and that
 it will not use this program in any manner prohibited above.
 ---------------------------------------------------------------
  

 Cite this work as:
 Gaussian 09, Revision D.01,
 M. J. Frisch, G. W. Trucks, H. B. Schlegel, G. E. Scuseria, 
 M. A. Robb, J. R. Cheeseman, G. Scalmani, V. Barone, B. Mennucci, 
 G. A. Petersson, H. Nakatsuji, M. Caricato, X. Li, H. P. Hratchian, 
 A. F. Izmaylov, J. Bloino, G. Zheng, J. L. Sonnenberg, M. Hada, 
 M. Ehara, K. Toyota, R. Fukuda, J. Hasegawa, M. Ishida, T. Nakajima, 
 Y. Honda, O. Kitao, H. Nakai, T. Vreven, J. A. Montgomery, Jr., 
 J. E. Peralta, F. Ogliaro, M. Bearpark, J. J. Heyd, E. Brothers, 
 K. N. Kudin, V. N. Staroverov, T. Keith, R. Kobayashi, J. Normand, 
 K. Raghavachari, A. Rendell, J. C. Burant, S. S. Iyengar, J. Tomasi, 
 M. Cossi, N. Rega, J. M. Millam, M. Klene, J. E. Knox, J. B. Cross, 
 V. Bakken, C. Adamo, J. Jaramillo, R. Gomperts, R. E. Stratmann, 
 O. Yazyev, A. J. Austin, R. Cammi, C. Pomelli, J. W. Ochterski, 
 R. L. Martin, K. Morokuma, V. G. Zakrzewski, G. A. Voth, 
 P. Salvador, J. J. Dannenberg, S. Dapprich, A. D. Daniels, 
 O. Farkas, J. B. Foresman, J. V. Ortiz, J. Cioslowski, 
 and D. J. Fox, Gaussian, Inc., Wallingford CT, 2013.
 
 ******************************************
 Gaussian 09:  ES64L-G09RevD.01 24-Apr-2013
                27-Jan-2020 
 ******************************************
 -----------------------------
 # b3lyp 6-31G(2df,p) opt Freq
 -----------------------------
 1/14=-1,18=20,19=15,26=3,38=1/1,3;
 2/9=110,12=2,17=6,18=5,40=1/2;
 3/5=1,6=6,7=104,11=2,16=1,25=1,30=1,71=1,74=-5/1,2,3;
 4//1;
 5/5=2,38=5/2;
 6/7=2,8=2,9=2,10=2,28=1/1;
 7//1,2,3,16;
 1/14=-1,18=20,19=15,26=3/3(2);
 2/9=110/2;
 99//99;
 2/9=110/2;
 3/5=1,6=6,7=104,11=2,16=1,25=1,30=1,71=1,74=-5/1,2,3;
 4/5=5,16=3,69=1/1;
 5/5=2,38=5/2;
 7//1,2,3,16;
 1/14=-1,18=20,19=15,26=3/3(-5);
 2/9=110/2;
 6/7=2,8=2,9=2,10=2,19=2,28=1/1;
 99/9=1/99;
 -----
 titel
 -----
 Symbolic Z-matrix:
 Charge =  0 Multiplicity = 1
 C                    -0.20135   2.30753   1.38638 
 C                     1.32602   1.99512   1.49146 
 O                     1.69644   1.01401   2.43739 
 C                     1.09657  -0.27452   2.39451 
 O                    -0.08197  -0.39165   1.65048 
 C                    -0.02742  -0.02248   0.27565 
 C                     1.39636   0.10185  -0.3402 
 C                     1.33665   1.60575  -0.04213 
 C                    -0.22365   1.52851   0.06734 
 H                    -0.83143   1.95799   2.20544 
 H                    -0.3705    3.37641   1.2247 
 H                     1.95841   2.8507    1.73537 
 H                     1.85163  -0.9911    2.03965 
 H                     0.81829  -0.53311   3.42136 
 H                    -0.73599  -0.67451  -0.23861 
 H                     2.21378  -0.50077   0.05928 
 H                     1.33719  -0.07361  -1.41864 
 H                     1.86829   2.30862  -0.68531 
 H                    -0.89864   1.80921  -0.74214 
 

 GradGradGradGradGradGradGradGradGradGradGradGradGradGradGradGradGradGrad
 Berny optimization.
 Initialization pass.
                           ----------------------------
                           !    Initial Parameters    !
                           ! (Angstroms and Degrees)  !
 --------------------------                            --------------------------
 ! Name  Definition              Value          Derivative Info.                !
 --------------------------------------------------------------------------------
 ! R1    R(1,2)                  1.5625         estimate D2E/DX2                !
 ! R2    R(1,9)                  1.5321         estimate D2E/DX2                !
 ! R3    R(1,10)                 1.0909         estimate D2E/DX2                !
 ! R4    R(1,11)                 1.0942         estimate D2E/DX2                !
 ! R5    R(2,3)                  1.4123         estimate D2E/DX2                !
 ! R6    R(2,8)                  1.5823         estimate D2E/DX2                !
 ! R7    R(2,12)                 1.0915         estimate D2E/DX2                !
 ! R8    R(3,4)                  1.422          estimate D2E/DX2                !
 ! R9    R(4,5)                  1.3987         estimate D2E/DX2                !
 ! R10   R(4,13)                 1.0998         estimate D2E/DX2                !
 ! R11   R(4,14)                 1.0949         estimate D2E/DX2                !
 ! R12   R(5,6)                  1.4246         estimate D2E/DX2                !
 ! R13   R(6,7)                  1.5562         estimate D2E/DX2                !
 ! R14   R(6,9)                  1.5772         estimate D2E/DX2                !
 ! R15   R(6,15)                 1.0916         estimate D2E/DX2                !
 ! R16   R(7,8)                  1.5343         estimate D2E/DX2                !
 ! R17   R(7,16)                 1.0913         estimate D2E/DX2                !
 ! R18   R(7,17)                 1.0942         estimate D2E/DX2                !
 ! R19   R(8,9)                  1.566          estimate D2E/DX2                !
 ! R20   R(8,18)                 1.091          estimate D2E/DX2                !
 ! R21   R(9,19)                 1.0907         estimate D2E/DX2                !
 ! A1    A(2,1,9)               88.3073         estimate D2E/DX2                !
 ! A2    A(2,1,10)             116.7457         estimate D2E/DX2                !
 ! A3    A(2,1,11)             110.8764         estimate D2E/DX2                !
 ! A4    A(9,1,10)             118.365          estimate D2E/DX2                !
 ! A5    A(9,1,11)             111.5456         estimate D2E/DX2                !
 ! A6    A(10,1,11)            109.5526         estimate D2E/DX2                !
 ! A7    A(1,2,3)              116.1242         estimate D2E/DX2                !
 ! A8    A(1,2,8)               89.4608         estimate D2E/DX2                !
 ! A9    A(1,2,12)             115.1276         estimate D2E/DX2                !
 ! A10   A(3,2,8)              118.4547         estimate D2E/DX2                !
 ! A11   A(3,2,12)             104.0578         estimate D2E/DX2                !
 ! A12   A(8,2,12)             113.9271         estimate D2E/DX2                !
 ! A13   A(2,3,4)              119.911          estimate D2E/DX2                !
 ! A14   A(3,4,5)              116.5769         estimate D2E/DX2                !
 ! A15   A(3,4,13)             108.0906         estimate D2E/DX2                !
 ! A16   A(3,4,14)             107.0353         estimate D2E/DX2                !
 ! A17   A(5,4,13)             110.6274         estimate D2E/DX2                !
 ! A18   A(5,4,14)             105.3648         estimate D2E/DX2                !
 ! A19   A(13,4,14)            108.8585         estimate D2E/DX2                !
 ! A20   A(4,5,6)              117.3492         estimate D2E/DX2                !
 ! A21   A(5,6,7)              115.954          estimate D2E/DX2                !
 ! A22   A(5,6,9)              112.1815         estimate D2E/DX2                !
 ! A23   A(5,6,15)             105.9621         estimate D2E/DX2                !
 ! A24   A(7,6,9)               89.0258         estimate D2E/DX2                !
 ! A25   A(7,6,15)             117.0738         estimate D2E/DX2                !
 ! A26   A(9,6,15)             116.3844         estimate D2E/DX2                !
 ! A27   A(6,7,8)               88.0418         estimate D2E/DX2                !
 ! A28   A(6,7,16)             119.7558         estimate D2E/DX2                !
 ! A29   A(6,7,17)             109.1314         estimate D2E/DX2                !
 ! A30   A(8,7,16)             119.9534         estimate D2E/DX2                !
 ! A31   A(8,7,17)             110.2755         estimate D2E/DX2                !
 ! A32   A(16,7,17)            108.2247         estimate D2E/DX2                !
 ! A33   A(2,8,7)              115.4517         estimate D2E/DX2                !
 ! A34   A(2,8,9)               86.4277         estimate D2E/DX2                !
 ! A35   A(2,8,18)             114.5896         estimate D2E/DX2                !
 ! A36   A(7,8,9)               90.2296         estimate D2E/DX2                !
 ! A37   A(7,8,18)             119.8656         estimate D2E/DX2                !
 ! A38   A(9,8,18)             123.9511         estimate D2E/DX2                !
 ! A39   A(1,9,6)              112.6134         estimate D2E/DX2                !
 ! A40   A(1,9,8)               91.1805         estimate D2E/DX2                !
 ! A41   A(1,9,19)             121.1386         estimate D2E/DX2                !
 ! A42   A(6,9,8)               86.2026         estimate D2E/DX2                !
 ! A43   A(6,9,19)             115.3474         estimate D2E/DX2                !
 ! A44   A(8,9,19)             123.5045         estimate D2E/DX2                !
 ! D1    D(9,1,2,3)           -105.5273         estimate D2E/DX2                !
 ! D2    D(9,1,2,8)             16.2139         estimate D2E/DX2                !
 ! D3    D(9,1,2,12)           132.546          estimate D2E/DX2                !
 ! D4    D(10,1,2,3)            15.627          estimate D2E/DX2                !
 ! D5    D(10,1,2,8)           137.3682         estimate D2E/DX2                !
 ! D6    D(10,1,2,12)         -106.2997         estimate D2E/DX2                !
 ! D7    D(11,1,2,3)           142.0185         estimate D2E/DX2                !
 ! D8    D(11,1,2,8)           -96.2402         estimate D2E/DX2                !
 ! D9    D(11,1,2,12)           20.0919         estimate D2E/DX2                !
 ! D10   D(2,1,9,6)             69.9882         estimate D2E/DX2                !
 ! D11   D(2,1,9,8)            -16.3896         estimate D2E/DX2                !
 ! D12   D(2,1,9,19)          -147.4999         estimate D2E/DX2                !
 ! D13   D(10,1,9,6)           -49.728          estimate D2E/DX2                !
 ! D14   D(10,1,9,8)          -136.1058         estimate D2E/DX2                !
 ! D15   D(10,1,9,19)           92.7839         estimate D2E/DX2                !
 ! D16   D(11,1,9,6)          -178.1961         estimate D2E/DX2                !
 ! D17   D(11,1,9,8)            95.4261         estimate D2E/DX2                !
 ! D18   D(11,1,9,19)          -35.6842         estimate D2E/DX2                !
 ! D19   D(1,2,3,4)             54.4228         estimate D2E/DX2                !
 ! D20   D(8,2,3,4)            -50.2827         estimate D2E/DX2                !
 ! D21   D(12,2,3,4)          -177.9621         estimate D2E/DX2                !
 ! D22   D(1,2,8,7)           -104.4297         estimate D2E/DX2                !
 ! D23   D(1,2,8,9)            -15.8774         estimate D2E/DX2                !
 ! D24   D(1,2,8,18)           110.0536         estimate D2E/DX2                !
 ! D25   D(3,2,8,7)             15.289          estimate D2E/DX2                !
 ! D26   D(3,2,8,9)            103.8412         estimate D2E/DX2                !
 ! D27   D(3,2,8,18)          -130.2278         estimate D2E/DX2                !
 ! D28   D(12,2,8,7)           138.1572         estimate D2E/DX2                !
 ! D29   D(12,2,8,9)          -133.2906         estimate D2E/DX2                !
 ! D30   D(12,2,8,18)           -7.3596         estimate D2E/DX2                !
 ! D31   D(2,3,4,5)            -16.7749         estimate D2E/DX2                !
 ! D32   D(2,3,4,13)           108.5222         estimate D2E/DX2                !
 ! D33   D(2,3,4,14)          -134.3653         estimate D2E/DX2                !
 ! D34   D(3,4,5,6)             57.4484         estimate D2E/DX2                !
 ! D35   D(13,4,5,6)           -66.5591         estimate D2E/DX2                !
 ! D36   D(14,4,5,6)           175.9498         estimate D2E/DX2                !
 ! D37   D(4,5,6,7)             15.8862         estimate D2E/DX2                !
 ! D38   D(4,5,6,9)            -84.3689         estimate D2E/DX2                !
 ! D39   D(4,5,6,15)           147.623          estimate D2E/DX2                !
 ! D40   D(5,6,7,8)            -95.1068         estimate D2E/DX2                !
 ! D41   D(5,6,7,16)            28.6671         estimate D2E/DX2                !
 ! D42   D(5,6,7,17)           154.0907         estimate D2E/DX2                !
 ! D43   D(9,6,7,8)             19.2032         estimate D2E/DX2                !
 ! D44   D(9,6,7,16)           142.9772         estimate D2E/DX2                !
 ! D45   D(9,6,7,17)           -91.5993         estimate D2E/DX2                !
 ! D46   D(15,6,7,8)           138.5741         estimate D2E/DX2                !
 ! D47   D(15,6,7,16)          -97.652          estimate D2E/DX2                !
 ! D48   D(15,6,7,17)           27.7716         estimate D2E/DX2                !
 ! D49   D(5,6,9,1)              9.2313         estimate D2E/DX2                !
 ! D50   D(5,6,9,8)             98.9287         estimate D2E/DX2                !
 ! D51   D(5,6,9,19)          -135.5709         estimate D2E/DX2                !
 ! D52   D(7,6,9,1)           -108.5284         estimate D2E/DX2                !
 ! D53   D(7,6,9,8)            -18.8309         estimate D2E/DX2                !
 ! D54   D(7,6,9,19)           106.6694         estimate D2E/DX2                !
 ! D55   D(15,6,9,1)           131.4916         estimate D2E/DX2                !
 ! D56   D(15,6,9,8)          -138.811          estimate D2E/DX2                !
 ! D57   D(15,6,9,19)          -13.3106         estimate D2E/DX2                !
 ! D58   D(6,7,8,2)             66.8103         estimate D2E/DX2                !
 ! D59   D(6,7,8,9)            -19.3423         estimate D2E/DX2                !
 ! D60   D(6,7,8,18)          -149.607          estimate D2E/DX2                !
 ! D61   D(16,7,8,2)           -56.7935         estimate D2E/DX2                !
 ! D62   D(16,7,8,9)          -142.9462         estimate D2E/DX2                !
 ! D63   D(16,7,8,18)           86.7892         estimate D2E/DX2                !
 ! D64   D(17,7,8,2)           176.502          estimate D2E/DX2                !
 ! D65   D(17,7,8,9)            90.3493         estimate D2E/DX2                !
 ! D66   D(17,7,8,18)          -39.9153         estimate D2E/DX2                !
 ! D67   D(2,8,9,1)             16.2045         estimate D2E/DX2                !
 ! D68   D(2,8,9,6)            -96.3816         estimate D2E/DX2                !
 ! D69   D(2,8,9,19)           145.5449         estimate D2E/DX2                !
 ! D70   D(7,8,9,1)            131.6937         estimate D2E/DX2                !
 ! D71   D(7,8,9,6)             19.1075         estimate D2E/DX2                !
 ! D72   D(7,8,9,19)           -98.966          estimate D2E/DX2                !
 ! D73   D(18,8,9,1)          -101.2202         estimate D2E/DX2                !
 ! D74   D(18,8,9,6)           146.1937         estimate D2E/DX2                !
 ! D75   D(18,8,9,19)           28.1202         estimate D2E/DX2                !
 --------------------------------------------------------------------------------
 Trust Radius=3.00D-01 FncErr=1.00D-07 GrdErr=1.00D-06
 Number of steps in this run=    114 maximum allowed number of steps=    114.
 GradGradGradGradGradGradGradGradGradGradGradGradGradGradGradGradGradGrad

                          Input orientation:                          
 ---------------------------------------------------------------------
 Center     Atomic      Atomic             Coordinates (Angstroms)
 Number     Number       Type             X           Y           Z
 ---------------------------------------------------------------------
      1          6           0       -0.201355    2.307531    1.386384
      2          6           0        1.326020    1.995121    1.491459
      3          8           0        1.696441    1.014014    2.437394
      4          6           0        1.096569   -0.274518    2.394511
      5          8           0       -0.081970   -0.391655    1.650478
      6          6           0       -0.027417   -0.022484    0.275648
      7          6           0        1.396359    0.101852   -0.340201
      8          6           0        1.336648    1.605752   -0.042134
      9          6           0       -0.223655    1.528508    0.067340
     10          1           0       -0.831428    1.957992    2.205436
     11          1           0       -0.370496    3.376406    1.224697
     12          1           0        1.958413    2.850703    1.735367
     13          1           0        1.851635   -0.991101    2.039648
     14          1           0        0.818287   -0.533108    3.421360
     15          1           0       -0.735987   -0.674508   -0.238614
     16          1           0        2.213781   -0.500765    0.059284
     17          1           0        1.337186   -0.073612   -1.418644
     18          1           0        1.868289    2.308619   -0.685310
     19          1           0       -0.898641    1.809212   -0.742143
 ---------------------------------------------------------------------
                    Distance matrix (angstroms):
                    1          2          3          4          5
     1  C    0.000000
     2  C    1.562534   0.000000
     3  O    2.525755   1.412294   0.000000
     4  C    3.060703   2.453449   1.421970   0.000000
     5  O    2.714701   2.775684   2.399560   1.398664   0.000000
     6  C    2.587075   2.716747   2.952822   2.411731   1.424577
     7  C    3.224717   2.635221   2.938898   2.776721   2.528202
     8  C    2.213280   1.582286   2.574426   3.087118   2.977759
     9  C    1.532074   2.155768   3.093320   3.226395   2.492675
    10  H    1.090879   2.272823   2.708325   2.955846   2.527945
    11  H    1.094187   2.203923   3.365079   4.104874   3.803001
    12  H    2.254201   1.091528   1.983658   3.308209   3.831873
    13  H    3.939859   3.081282   2.050066   1.099792   2.061460
    14  H    3.640058   3.220908   2.032961   1.094864   1.991606
    15  H    3.437878   3.791034   3.991094   3.232894   2.019013
    16  H    3.934539   3.011427   2.866637   2.598584   2.795403
    17  H    3.988124   3.570502   4.022565   3.826018   3.396273
    18  H    2.928369   2.265097   3.384792   4.093098   4.068280
    19  H    2.294593   3.157951   4.180460   4.261619   3.351926
                    6          7          8          9         10
     6  C    0.000000
     7  C    1.556235   0.000000
     8  C    2.147746   1.534316   0.000000
     9  C    1.577174   2.196789   1.566045   0.000000
    10  H    2.879722   3.858569   3.142642   2.263913   0.000000
    11  H    3.545539   4.036506   2.766661   2.185352   1.784995
    12  H    3.785433   3.489995   2.257433   3.048267   2.966667
    13  H    2.753316   2.658101   3.367889   3.813824   3.990421
    14  H    3.297189   3.858326   4.103561   4.072512   3.225772
    15  H    1.091638   2.271553   3.087719   2.282405   3.593403
    16  H    2.301854   1.091290   2.284089   3.171609   4.463715
    17  H    2.176093   1.094226   2.171415   2.685360   4.686604
    18  H    3.154550   2.282902   1.091027   2.356117   3.970873
    19  H    2.269371   2.888540   2.351154   1.090717   2.952097
                   11         12         13         14         15
    11  H    0.000000
    12  H    2.441508   0.000000
    13  H    4.967608   3.855314   0.000000
    14  H    4.639270   3.948751   1.785131   0.000000
    15  H    4.322588   4.856285   3.462152   3.978840   0.000000
    16  H    4.803033   3.755903   2.072057   3.640330   2.969858
    17  H    4.669695   4.345725   3.614724   4.889380   2.459999
    18  H    3.130568   2.482268   4.279466   5.103201   3.985077
    19  H    2.569726   3.922437   4.810835   5.076324   2.539462
                   16         17         18         19
    16  H    0.000000
    17  H    1.770635   0.000000
    18  H    2.926846   2.548504   0.000000
    19  H    3.957960   3.000267   2.812212   0.000000
 Stoichiometry    C7H10O2
 Framework group  C1[X(C7H10O2)]
 Deg. of freedom    51
 Full point group                 C1      NOp   1
 Largest Abelian subgroup         C1      NOp   1
 Largest concise Abelian subgroup C1      NOp   1
                         Standard orientation:                         
 ---------------------------------------------------------------------
 Center     Atomic      Atomic             Coordinates (Angstroms)
 Number     Number       Type             X           Y           Z
 ---------------------------------------------------------------------
      1          6           0        0.756976    1.250063   -0.961468
      2          6           0        0.178042    1.266350    0.489767
      3          8           0       -1.210452    1.036824    0.607988
      4          6           0       -1.787894   -0.128807    0.033650
      5          8           0       -1.019311   -0.802444   -0.921210
      6          6           0        0.272029   -1.252972   -0.522605
      7          6           0        0.536577   -1.291910    1.010485
      8          6           0        1.171300    0.099139    0.883070
      9          6           0        1.364117   -0.122812   -0.655129
     10          1           0        0.037671    1.328147   -1.777875
     11          1           0        1.531029    2.014119   -1.081074
     12          1           0        0.341791    2.192486    1.043746
     13          1           0       -2.072131   -0.807401    0.851123
     14          1           0       -2.693287    0.188392   -0.493961
     15          1           0        0.455062   -2.172414   -1.081888
     16          1           0       -0.294556   -1.450540    1.699664
     17          1           0        1.305058   -2.041349    1.222873
     18          1           0        1.973190    0.394619    1.561305
     19          1           0        2.307399   -0.435408   -1.104759
 ---------------------------------------------------------------------
 Rotational constants (GHZ):      2.4436734      2.1684546      1.7904409
 Standard basis: 6-31G(2df,p) (6D, 7F)
 There are   329 symmetry adapted cartesian basis functions of A   symmetry.
 There are   302 symmetry adapted basis functions of A   symmetry.
   302 basis functions,   466 primitive gaussians,   329 cartesian basis functions
    34 alpha electrons       34 beta electrons
       nuclear repulsion energy       498.9960733248 Hartrees.
 NAtoms=   19 NActive=   19 NUniq=   19 SFac= 1.00D+00 NAtFMM=   60 NAOKFM=F Big=F
 Integral buffers will be    131072 words long.
 Raffenetti 2 integral format.
 Two-electron integral symmetry is turned on.
 One-electron integrals computed using PRISM.
 NBasis=   302 RedAO= T EigKep=  2.85D-04  NBF=   302
 NBsUse=   302 1.00D-06 EigRej= -1.00D+00 NBFU=   302
 ExpMin= 1.61D-01 ExpMax= 5.48D+03 ExpMxC= 8.25D+02 IAcc=1 IRadAn=         1 AccDes= 0.00D+00
 Harris functional with IExCor=  402 and IRadAn=       1 diagonalized for initial guess.
 HarFok:  IExCor=  402 AccDes= 0.00D+00 IRadAn=         1 IDoV= 1 UseB2=F ITyADJ=14
 ICtDFT=  3500011 ScaDFX=  1.000000  1.000000  1.000000  1.000000
 FoFCou: FMM=F IPFlag=           0 FMFlag=      100000 FMFlg1=           0
         NFxFlg=           0 DoJE=T BraDBF=F KetDBF=T FulRan=T
         wScrn=  0.000000 ICntrl=     500 IOpCl=  0 I1Cent=   200000004 NGrid=           0
         NMat0=    1 NMatS0=      1 NMatT0=    0 NMatD0=    1 NMtDS0=    0 NMtDT0=    0
 Petite list used in FoFCou.
 Requested convergence on RMS density matrix=1.00D-08 within 128 cycles.
 Requested convergence on MAX density matrix=1.00D-06.
 Requested convergence on             energy=1.00D-06.
 No special actions if energy rises.
 Integral accuracy reduced to 1.0D-05 until final iterations.
 Initial convergence to 1.0D-05 achieved.  Increase integral accuracy.
 SCF Done:  E(RB3LYP) =  -423.145049403     A.U. after   13 cycles
            NFock= 13  Conv=0.35D-08     -V/T= 2.0074

 **********************************************************************

            Population analysis using the SCF density.

 **********************************************************************

 Orbital symmetries:
       Occupied  (A) (A) (A) (A) (A) (A) (A) (A) (A) (A) (A) (A)
                 (A) (A) (A) (A) (A) (A) (A) (A) (A) (A) (A) (A)
                 (A) (A) (A) (A) (A) (A) (A) (A) (A) (A)
       Virtual   (A) (A) (A) (A) (A) (A) (A) (A) (A) (A) (A) (A)
                 (A) (A) (A) (A) (A) (A) (A) (A) (A) (A) (A) (A)
                 (A) (A) (A) (A) (A) (A) (A) (A) (A) (A) (A) (A)
                 (A) (A) (A) (A) (A) (A) (A) (A) (A) (A) (A) (A)
                 (A) (A) (A) (A) (A) (A) (A) (A) (A) (A) (A) (A)
                 (A) (A) (A) (A) (A) (A) (A) (A) (A) (A) (A) (A)
                 (A) (A) (A) (A) (A) (A) (A) (A) (A) (A) (A) (A)
                 (A) (A) (A) (A) (A) (A) (A) (A) (A) (A) (A) (A)
                 (A) (A) (A) (A) (A) (A) (A) (A) (A) (A) (A) (A)
                 (A) (A) (A) (A) (A) (A) (A) (A) (A) (A) (A) (A)
                 (A) (A) (A) (A) (A) (A) (A) (A) (A) (A) (A) (A)
                 (A) (A) (A) (A) (A) (A) (A) (A) (A) (A) (A) (A)
                 (A) (A) (A) (A) (A) (A) (A) (A) (A) (A) (A) (A)
                 (A) (A) (A) (A) (A) (A) (A) (A) (A) (A) (A) (A)
                 (A) (A) (A) (A) (A) (A) (A) (A) (A) (A) (A) (A)
                 (A) (A) (A) (A) (A) (A) (A) (A) (A) (A) (A) (A)
                 (A) (A) (A) (A) (A) (A) (A) (A) (A) (A) (A) (A)
                 (A) (A) (A) (A) (A) (A) (A) (A) (A) (A) (A) (A)
                 (A) (A) (A) (A) (A) (A) (A) (A) (A) (A) (A) (A)
                 (A) (A) (A) (A) (A) (A) (A) (A) (A) (A) (A) (A)
                 (A) (A) (A) (A) (A) (A) (A) (A) (A) (A) (A) (A)
                 (A) (A) (A) (A) (A) (A) (A) (A) (A) (A) (A) (A)
                 (A) (A) (A) (A)
 The electronic state is 1-A.
 Alpha  occ. eigenvalues --  -19.14811 -19.13664 -10.27140 -10.23714 -10.23407
 Alpha  occ. eigenvalues --  -10.18628 -10.18581 -10.18382 -10.17453  -1.06553
 Alpha  occ. eigenvalues --   -1.00235  -0.87009  -0.75057  -0.70367  -0.67267
 Alpha  occ. eigenvalues --   -0.61363  -0.55501  -0.54887  -0.52911  -0.49685
 Alpha  occ. eigenvalues --   -0.46523  -0.44426  -0.43604  -0.42733  -0.40285
 Alpha  occ. eigenvalues --   -0.38696  -0.36993  -0.35541  -0.33927  -0.31044
 Alpha  occ. eigenvalues --   -0.28569  -0.27448  -0.25857  -0.23944
 Alpha virt. eigenvalues --    0.07669   0.08849   0.11230   0.12168   0.12770
 Alpha virt. eigenvalues --    0.13230   0.15294   0.16706   0.17241   0.17948
 Alpha virt. eigenvalues --    0.18783   0.19001   0.19069   0.20838   0.22506
 Alpha virt. eigenvalues --    0.22624   0.23499   0.25238   0.30564   0.34102
 Alpha virt. eigenvalues --    0.34562   0.41453   0.43256   0.45716   0.46212
 Alpha virt. eigenvalues --    0.46992   0.48324   0.49178   0.49433   0.50524
 Alpha virt. eigenvalues --    0.51899   0.53804   0.56049   0.58824   0.59810
 Alpha virt. eigenvalues --    0.61241   0.63608   0.64833   0.66895   0.67487
 Alpha virt. eigenvalues --    0.69479   0.72754   0.73304   0.75164   0.75538
 Alpha virt. eigenvalues --    0.76736   0.78044   0.78498   0.79291   0.81553
 Alpha virt. eigenvalues --    0.82705   0.84396   0.85444   0.88138   0.89950
 Alpha virt. eigenvalues --    0.94649   0.95434   0.97500   1.00196   1.02777
 Alpha virt. eigenvalues --    1.05428   1.08386   1.11406   1.13197   1.14736
 Alpha virt. eigenvalues --    1.16120   1.19214   1.21586   1.24861   1.29178
 Alpha virt. eigenvalues --    1.29957   1.30706   1.31225   1.33444   1.33968
 Alpha virt. eigenvalues --    1.37504   1.40582   1.42439   1.45374   1.46834
 Alpha virt. eigenvalues --    1.47268   1.49388   1.49633   1.51320   1.52882
 Alpha virt. eigenvalues --    1.53675   1.55303   1.56793   1.57096   1.58953
 Alpha virt. eigenvalues --    1.62300   1.63879   1.65993   1.67083   1.70069
 Alpha virt. eigenvalues --    1.72467   1.75990   1.78257   1.79818   1.83579
 Alpha virt. eigenvalues --    1.86202   1.86757   1.88428   1.91880   1.92883
 Alpha virt. eigenvalues --    2.00435   2.00895   2.06621   2.10937   2.12830
 Alpha virt. eigenvalues --    2.16728   2.20130   2.24311   2.25271   2.30132
 Alpha virt. eigenvalues --    2.33013   2.37761   2.40579   2.41384   2.44218
 Alpha virt. eigenvalues --    2.49193   2.51303   2.54426   2.56009   2.60079
 Alpha virt. eigenvalues --    2.60603   2.64685   2.66363   2.68682   2.71495
 Alpha virt. eigenvalues --    2.74443   2.75116   2.78475   2.79796   2.83159
 Alpha virt. eigenvalues --    2.84345   2.87776   2.91713   2.93446   2.96230
 Alpha virt. eigenvalues --    2.97841   3.00894   3.02561   3.04606   3.06829
 Alpha virt. eigenvalues --    3.09986   3.11556   3.12112   3.12543   3.18235
 Alpha virt. eigenvalues --    3.19740   3.20774   3.23380   3.26927   3.27909
 Alpha virt. eigenvalues --    3.29480   3.35485   3.36088   3.39293   3.39542
 Alpha virt. eigenvalues --    3.41337   3.44195   3.47909   3.48881   3.53334
 Alpha virt. eigenvalues --    3.55813   3.56470   3.60246   3.61352   3.63489
 Alpha virt. eigenvalues --    3.65402   3.69506   3.74463   3.77903   3.80089
 Alpha virt. eigenvalues --    3.88153   3.90387   3.94253   3.96510   3.99815
 Alpha virt. eigenvalues --    4.03868   4.09452   4.12577   4.16025   4.19713
 Alpha virt. eigenvalues --    4.24230   4.26305   4.26800   4.31402   4.35570
 Alpha virt. eigenvalues --    4.37702   4.38654   4.39341   4.42294   4.43679
 Alpha virt. eigenvalues --    4.44308   4.47284   4.48390   4.51078   4.52473
 Alpha virt. eigenvalues --    4.54889   4.56319   4.58680   4.60790   4.63503
 Alpha virt. eigenvalues --    4.65167   4.67050   4.69363   4.71731   4.73300
 Alpha virt. eigenvalues --    4.73938   4.75497   4.77084   4.77349   4.79016
 Alpha virt. eigenvalues --    4.79721   4.81984   4.84019   4.84478   4.89343
 Alpha virt. eigenvalues --    4.91963   4.93148   4.96578   4.97939   4.99921
 Alpha virt. eigenvalues --    5.04701   5.07159   5.08222   5.10674   5.15408
 Alpha virt. eigenvalues --    5.18933   5.23610   5.28064   5.32367   5.37954
 Alpha virt. eigenvalues --    5.39504   5.43660   5.48111   5.51217   5.52085
 Alpha virt. eigenvalues --    5.56593   5.60859   5.64338   5.70113   5.75942
 Alpha virt. eigenvalues --    5.77828   5.87704   5.93253   5.95928   6.01553
 Alpha virt. eigenvalues --    6.09556   6.12155   6.19990   6.27562   6.36005
 Alpha virt. eigenvalues --    6.51232   7.10148   7.33169   7.74286  10.82979
 Alpha virt. eigenvalues --   11.26920  11.58307  11.97569  12.25285  12.53798
 Alpha virt. eigenvalues --   13.13143  13.60267  13.70150
          Condensed to atoms (all electrons):
               1          2          3          4          5          6
     1  C    5.102090   0.326963  -0.040001  -0.002530   0.004097  -0.003743
     2  C    0.326963   4.685197   0.400730  -0.091762  -0.001955  -0.010749
     3  O   -0.040001   0.400730   7.731881   0.361000  -0.049154   0.004658
     4  C   -0.002530  -0.091762   0.361000   4.680380   0.382865  -0.089254
     5  O    0.004097  -0.001955  -0.049154   0.382865   7.688753   0.381045
     6  C   -0.003743  -0.010749   0.004658  -0.089254   0.381045   4.717510
     7  C    0.003271  -0.003898  -0.003846   0.007557  -0.027372   0.329963
     8  C   -0.105770   0.306919  -0.039967  -0.000057  -0.000864  -0.030954
     9  C    0.349125  -0.031559   0.002887   0.001172  -0.052555   0.310439
    10  H    0.346924  -0.014060  -0.003237   0.002020   0.009561  -0.011478
    11  H    0.343167  -0.017775   0.002409  -0.000150   0.000451   0.003928
    12  H   -0.046827   0.371035  -0.025639   0.004751  -0.000175  -0.000480
    13  H   -0.000311  -0.000189  -0.042458   0.358195  -0.033443  -0.007670
    14  H    0.001112   0.003974  -0.022349   0.358403  -0.013747   0.005593
    15  H    0.002563  -0.000450  -0.000199   0.003825  -0.027913   0.369426
    16  H   -0.000269  -0.007634   0.002438   0.002472  -0.004766  -0.020368
    17  H   -0.000363   0.003586   0.000129  -0.000818   0.002298  -0.017336
    18  H    0.011136  -0.034572   0.002327   0.000043  -0.000137   0.009029
    19  H   -0.040212   0.008407  -0.000176  -0.000035   0.002188  -0.036070
               7          8          9         10         11         12
     1  C    0.003271  -0.105770   0.349125   0.346924   0.343167  -0.046827
     2  C   -0.003898   0.306919  -0.031559  -0.014060  -0.017775   0.371035
     3  O   -0.003846  -0.039967   0.002887  -0.003237   0.002409  -0.025639
     4  C    0.007557  -0.000057   0.001172   0.002020  -0.000150   0.004751
     5  O   -0.027372  -0.000864  -0.052555   0.009561   0.000451  -0.000175
     6  C    0.329963  -0.030954   0.310439  -0.011478   0.003928  -0.000480
     7  C    5.057487   0.359927  -0.090182   0.000437  -0.000204   0.002568
     8  C    0.359927   4.979442   0.328806   0.006778   0.006829  -0.045275
     9  C   -0.090182   0.328806   4.980671  -0.017905  -0.024123   0.008803
    10  H    0.000437   0.006778  -0.017905   0.601373  -0.035589   0.002496
    11  H   -0.000204   0.006829  -0.024123  -0.035589   0.635317  -0.006757
    12  H    0.002568  -0.045275   0.008803   0.002496  -0.006757   0.655159
    13  H    0.004370   0.003738  -0.002128   0.000285   0.000017  -0.000289
    14  H    0.000105  -0.000563  -0.000015  -0.000516  -0.000008  -0.000191
    15  H   -0.041113   0.008189  -0.052366   0.000372  -0.000094   0.000008
    16  H    0.355321  -0.021449   0.007724   0.000053   0.000016   0.000156
    17  H    0.351961  -0.023007   0.002383   0.000011   0.000022  -0.000102
    18  H   -0.044445   0.353308  -0.035896  -0.000496   0.000206  -0.006213
    19  H    0.008554  -0.036671   0.354913   0.002179  -0.003886  -0.000718
              13         14         15         16         17         18
     1  C   -0.000311   0.001112   0.002563  -0.000269  -0.000363   0.011136
     2  C   -0.000189   0.003974  -0.000450  -0.007634   0.003586  -0.034572
     3  O   -0.042458  -0.022349  -0.000199   0.002438   0.000129   0.002327
     4  C    0.358195   0.358403   0.003825   0.002472  -0.000818   0.000043
     5  O   -0.033443  -0.013747  -0.027913  -0.004766   0.002298  -0.000137
     6  C   -0.007670   0.005593   0.369426  -0.020368  -0.017336   0.009029
     7  C    0.004370   0.000105  -0.041113   0.355321   0.351961  -0.044445
     8  C    0.003738  -0.000563   0.008189  -0.021449  -0.023007   0.353308
     9  C   -0.002128  -0.000015  -0.052366   0.007724   0.002383  -0.035896
    10  H    0.000285  -0.000516   0.000372   0.000053   0.000011  -0.000496
    11  H    0.000017  -0.000008  -0.000094   0.000016   0.000022   0.000206
    12  H   -0.000289  -0.000191   0.000008   0.000156  -0.000102  -0.006213
    13  H    0.684954  -0.058155   0.000463  -0.000587   0.000018  -0.000035
    14  H   -0.058155   0.613529  -0.000258   0.000175  -0.000012   0.000008
    15  H    0.000463  -0.000258   0.660850   0.001944  -0.004846  -0.000703
    16  H   -0.000587   0.000175   0.001944   0.610445  -0.037052   0.001709
    17  H    0.000018  -0.000012  -0.004846  -0.037052   0.622273  -0.004836
    18  H   -0.000035   0.000008  -0.000703   0.001709  -0.004836   0.690354
    19  H    0.000004   0.000007  -0.004153  -0.000481   0.000672  -0.002893
              19
     1  C   -0.040212
     2  C    0.008407
     3  O   -0.000176
     4  C   -0.000035
     5  O    0.002188
     6  C   -0.036070
     7  C    0.008554
     8  C   -0.036671
     9  C    0.354913
    10  H    0.002179
    11  H   -0.003886
    12  H   -0.000718
    13  H    0.000004
    14  H    0.000007
    15  H   -0.004153
    16  H   -0.000481
    17  H    0.000672
    18  H   -0.002893
    19  H    0.686115
 Mulliken charges:
               1
     1  C   -0.250424
     2  C    0.107793
     3  O   -0.281433
     4  C    0.021922
     5  O   -0.259177
     6  C    0.096512
     7  C   -0.270462
     8  C   -0.049359
     9  C   -0.040193
    10  H    0.110792
    11  H    0.096224
    12  H    0.087690
    13  H    0.093222
    14  H    0.112908
    15  H    0.084456
    16  H    0.110153
    17  H    0.105018
    18  H    0.062105
    19  H    0.062254
 Sum of Mulliken charges =   0.00000
 Mulliken charges with hydrogens summed into heavy atoms:
               1
     1  C   -0.043408
     2  C    0.195483
     3  O   -0.281433
     4  C    0.228052
     5  O   -0.259177
     6  C    0.180968
     7  C   -0.055291
     8  C    0.012746
     9  C    0.022061
 Electronic spatial extent (au):  <R**2>=            875.2450
 Charge=              0.0000 electrons
 Dipole moment (field-independent basis, Debye):
    X=              1.3018    Y=             -0.6447    Z=              0.4497  Tot=              1.5207
 Quadrupole moment (field-independent basis, Debye-Ang):
   XX=            -51.6331   YY=            -52.4422   ZZ=            -54.5208
   XY=              0.9341   XZ=             -0.0387   YZ=             -1.4907
 Traceless Quadrupole moment (field-independent basis, Debye-Ang):
   XX=              1.2323   YY=              0.4232   ZZ=             -1.6554
   XY=              0.9341   XZ=             -0.0387   YZ=             -1.4907
 Octapole moment (field-independent basis, Debye-Ang**2):
  XXX=            -14.3787  YYY=             -0.3332  ZZZ=             -0.1060  XYY=              3.2719
  XXY=             -1.5301  XXZ=             -1.1586  XZZ=             -0.6899  YZZ=              0.4743
  YYZ=             -0.1179  XYZ=              4.4078
 Hexadecapole moment (field-independent basis, Debye-Ang**3):
 XXXX=           -444.3950 YYYY=           -392.7988 ZZZZ=           -274.4043 XXXY=             -0.8256
 XXXZ=              4.5574 YYYX=              0.0473 YYYZ=              9.9812 ZZZX=              0.7779
 ZZZY=              4.5243 XXYY=           -146.9013 XXZZ=           -122.9453 YYZZ=           -109.5009
 XXYZ=             -3.9277 YYXZ=              0.6799 ZZXY=             -1.0219
 N-N= 4.989960733248D+02 E-N=-1.984902654054D+03  KE= 4.200405111329D+02
 Calling FoFJK, ICntrl=      2127 FMM=F ISym2X=0 I1Cent= 0 IOpClX= 0 NMat=1 NMatS=1 NMatT=0.
 ***** Axes restored to original set *****
 -------------------------------------------------------------------
 Center     Atomic                   Forces (Hartrees/Bohr)
 Number     Number              X              Y              Z
 -------------------------------------------------------------------
      1        6          -0.000003024    0.000059606   -0.000006600
      2        6           0.000033979    0.000018565    0.000030902
      3        8          -0.000025422    0.000092784   -0.000009926
      4        6           0.000052857    0.000010645   -0.000017212
      5        8          -0.000087806   -0.000041561   -0.000027270
      6        6           0.000159217    0.000120929    0.000133688
      7        6          -0.000043212    0.000019576   -0.000006330
      8        6          -0.000024939   -0.000112323   -0.000125033
      9        6          -0.000074116   -0.000146511    0.000034234
     10        1          -0.000018990   -0.000024836    0.000000667
     11        1           0.000009957   -0.000000103   -0.000013922
     12        1           0.000012350   -0.000000072    0.000003116
     13        1           0.000009726   -0.000023688   -0.000015765
     14        1           0.000001088    0.000016161   -0.000005993
     15        1          -0.000000281   -0.000006710    0.000009956
     16        1          -0.000005490    0.000037546    0.000008469
     17        1           0.000019392   -0.000018210   -0.000008783
     18        1           0.000003161   -0.000009291    0.000006075
     19        1          -0.000018446    0.000007493    0.000009726
 -------------------------------------------------------------------
 Cartesian Forces:  Max     0.000159217 RMS     0.000051578

 GradGradGradGradGradGradGradGradGradGradGradGradGradGradGradGradGradGrad
 Berny optimization.
 FormGI is forming the generalized inverse of G from B-inverse, IUseBI=4.
 Internal  Forces:  Max     0.000078724 RMS     0.000018014
 Search for a local minimum.
 Step number   1 out of a maximum of  114
 All quantities printed in internal units (Hartrees-Bohrs-Radians)
 Mixed Optimization -- En-DIIS/RFO-DIIS
 Second derivative matrix not updated -- first step.
 ITU=  0
     Eigenvalues ---    0.01198   0.01480   0.01746   0.02210   0.02490
     Eigenvalues ---    0.02609   0.03238   0.03340   0.03798   0.04145
     Eigenvalues ---    0.04702   0.04717   0.04888   0.05063   0.05693
     Eigenvalues ---    0.05830   0.05958   0.06135   0.06473   0.06482
     Eigenvalues ---    0.07069   0.08537   0.09008   0.09684   0.10357
     Eigenvalues ---    0.10963   0.12296   0.12814   0.13346   0.16016
     Eigenvalues ---    0.19996   0.22185   0.22624   0.24561   0.25732
     Eigenvalues ---    0.26944   0.27266   0.33705   0.34257   0.34329
     Eigenvalues ---    0.34333   0.34624   0.34637   0.34664   0.34694
     Eigenvalues ---    0.34711   0.34730   0.38576   0.38888   0.42257
     Eigenvalues ---    0.44222
 RFO step:  Lambda=-4.81394427D-07 EMin= 1.19810121D-02
 Linear search not attempted -- first point.
 Iteration  1 RMS(Cart)=  0.00033643 RMS(Int)=  0.00000009
 Iteration  2 RMS(Cart)=  0.00000009 RMS(Int)=  0.00000004
 Variable       Old X    -DE/DX   Delta X   Delta X   Delta X     New X
                                 (Linear)    (Quad)   (Total)
    R1        2.95276   0.00002   0.00000   0.00001   0.00001   2.95278
    R2        2.89520   0.00001   0.00000   0.00007   0.00007   2.89527
    R3        2.06146   0.00002   0.00000   0.00006   0.00006   2.06152
    R4        2.06771   0.00000   0.00000   0.00000   0.00000   2.06771
    R5        2.66885  -0.00005   0.00000  -0.00005  -0.00005   2.66880
    R6        2.99009   0.00004   0.00000   0.00021   0.00021   2.99030
    R7        2.06269   0.00001   0.00000   0.00002   0.00002   2.06271
    R8        2.68713   0.00004   0.00000   0.00013   0.00013   2.68727
    R9        2.64309  -0.00001   0.00000  -0.00003  -0.00003   2.64306
   R10        2.07831   0.00003   0.00000   0.00008   0.00008   2.07839
   R11        2.06899  -0.00001   0.00000  -0.00003  -0.00003   2.06897
   R12        2.69206  -0.00006   0.00000  -0.00021  -0.00021   2.69185
   R13        2.94086  -0.00001   0.00000  -0.00007  -0.00007   2.94079
   R14        2.98043  -0.00007   0.00000  -0.00029  -0.00029   2.98014
   R15        2.06290   0.00000   0.00000   0.00000   0.00000   2.06290
   R16        2.89944  -0.00008   0.00000  -0.00034  -0.00034   2.89910
   R17        2.06224  -0.00002   0.00000  -0.00007  -0.00007   2.06217
   R18        2.06779   0.00001   0.00000   0.00003   0.00003   2.06782
   R19        2.95940   0.00001   0.00000   0.00010   0.00010   2.95950
   R20        2.06174  -0.00001   0.00000  -0.00002  -0.00002   2.06172
   R21        2.06116   0.00000   0.00000   0.00001   0.00001   2.06117
    A1        1.54125   0.00000   0.00000   0.00001   0.00001   1.54126
    A2        2.03760   0.00000   0.00000   0.00008   0.00008   2.03768
    A3        1.93516   0.00000   0.00000  -0.00010  -0.00010   1.93505
    A4        2.06586  -0.00002   0.00000  -0.00024  -0.00024   2.06562
    A5        1.94684   0.00001   0.00000   0.00008   0.00008   1.94692
    A6        1.91205   0.00001   0.00000   0.00014   0.00014   1.91220
    A7        2.02675   0.00000   0.00000  -0.00007  -0.00007   2.02668
    A8        1.56139   0.00000   0.00000  -0.00008  -0.00008   1.56131
    A9        2.00936   0.00001   0.00000   0.00013   0.00013   2.00949
   A10        2.06742  -0.00002   0.00000   0.00003   0.00003   2.06746
   A11        1.81615  -0.00001   0.00000  -0.00014  -0.00014   1.81601
   A12        1.98840   0.00001   0.00000   0.00016   0.00016   1.98857
   A13        2.09284  -0.00001   0.00000   0.00016   0.00016   2.09300
   A14        2.03465   0.00001   0.00000   0.00003   0.00003   2.03469
   A15        1.88654   0.00003   0.00000   0.00025   0.00025   1.88679
   A16        1.86812   0.00000   0.00000   0.00004   0.00004   1.86816
   A17        1.93081  -0.00002   0.00000  -0.00017  -0.00017   1.93065
   A18        1.83896  -0.00003   0.00000  -0.00022  -0.00022   1.83874
   A19        1.89994   0.00001   0.00000   0.00006   0.00006   1.90000
   A20        2.04813  -0.00004   0.00000  -0.00053  -0.00053   2.04760
   A21        2.02378   0.00003   0.00000   0.00029   0.00029   2.02407
   A22        1.95794   0.00002   0.00000   0.00017   0.00017   1.95811
   A23        1.84939  -0.00003   0.00000  -0.00020  -0.00020   1.84918
   A24        1.55379   0.00001   0.00000   0.00026   0.00026   1.55406
   A25        2.04332  -0.00001   0.00000  -0.00019  -0.00019   2.04313
   A26        2.03129  -0.00001   0.00000  -0.00024  -0.00024   2.03105
   A27        1.53662   0.00000   0.00000  -0.00012  -0.00012   1.53650
   A28        2.09013   0.00000   0.00000   0.00002   0.00002   2.09015
   A29        1.90470   0.00002   0.00000   0.00033   0.00033   1.90504
   A30        2.09358  -0.00001   0.00000  -0.00032  -0.00032   2.09326
   A31        1.92467   0.00000   0.00000   0.00010   0.00010   1.92477
   A32        1.88888   0.00000   0.00000   0.00003   0.00003   1.88890
   A33        2.01501   0.00001   0.00000  -0.00026  -0.00026   2.01475
   A34        1.50845  -0.00001   0.00000  -0.00006  -0.00006   1.50838
   A35        1.99997  -0.00001   0.00000  -0.00011  -0.00011   1.99985
   A36        1.57480   0.00000   0.00000   0.00022   0.00022   1.57503
   A37        2.09205  -0.00001   0.00000   0.00004   0.00004   2.09209
   A38        2.16335   0.00001   0.00000   0.00027   0.00027   2.16363
   A39        1.96548   0.00000   0.00000   0.00029   0.00029   1.96577
   A40        1.59140   0.00001   0.00000  -0.00006  -0.00006   1.59134
   A41        2.11427  -0.00001   0.00000  -0.00020  -0.00020   2.11406
   A42        1.50452  -0.00001   0.00000  -0.00019  -0.00019   1.50433
   A43        2.01319   0.00001   0.00000   0.00015   0.00015   2.01334
   A44        2.15556  -0.00001   0.00000  -0.00003  -0.00003   2.15554
    D1       -1.84180   0.00002   0.00000   0.00037   0.00037  -1.84143
    D2        0.28299   0.00000   0.00000   0.00034   0.00034   0.28333
    D3        2.31336   0.00002   0.00000   0.00051   0.00051   2.31388
    D4        0.27274   0.00000   0.00000   0.00012   0.00012   0.27286
    D5        2.39753  -0.00002   0.00000   0.00009   0.00009   2.39762
    D6       -1.85528   0.00000   0.00000   0.00026   0.00026  -1.85502
    D7        2.47869   0.00001   0.00000   0.00030   0.00030   2.47899
    D8       -1.67971  -0.00001   0.00000   0.00027   0.00027  -1.67944
    D9        0.35067   0.00001   0.00000   0.00044   0.00044   0.35111
   D10        1.22152  -0.00001   0.00000  -0.00059  -0.00059   1.22094
   D11       -0.28605   0.00000   0.00000  -0.00036  -0.00036  -0.28641
   D12       -2.57436   0.00000   0.00000  -0.00016  -0.00016  -2.57452
   D13       -0.86792  -0.00001   0.00000  -0.00062  -0.00062  -0.86854
   D14       -2.37549   0.00000   0.00000  -0.00039  -0.00039  -2.37589
   D15        1.61939   0.00001   0.00000  -0.00019  -0.00019   1.61919
   D16       -3.11011  -0.00002   0.00000  -0.00069  -0.00069  -3.11079
   D17        1.66550  -0.00001   0.00000  -0.00045  -0.00045   1.66504
   D18       -0.62281   0.00000   0.00000  -0.00026  -0.00026  -0.62306
   D19        0.94986   0.00000   0.00000   0.00040   0.00040   0.95026
   D20       -0.87760   0.00001   0.00000   0.00053   0.00053  -0.87707
   D21       -3.10603   0.00001   0.00000   0.00041   0.00041  -3.10562
   D22       -1.82264   0.00000   0.00000  -0.00057  -0.00057  -1.82321
   D23       -0.27711   0.00000   0.00000  -0.00033  -0.00033  -0.27745
   D24        1.92080   0.00001   0.00000  -0.00008  -0.00008   1.92071
   D25        0.26684   0.00000   0.00000  -0.00070  -0.00070   0.26615
   D26        1.81237   0.00000   0.00000  -0.00046  -0.00046   1.81191
   D27       -2.27290   0.00000   0.00000  -0.00021  -0.00021  -2.27311
   D28        2.41130  -0.00001   0.00000  -0.00071  -0.00071   2.41058
   D29       -2.32636  -0.00001   0.00000  -0.00048  -0.00048  -2.32684
   D30       -0.12845   0.00000   0.00000  -0.00023  -0.00023  -0.12868
   D31       -0.29278  -0.00002   0.00000  -0.00047  -0.00047  -0.29324
   D32        1.89407  -0.00002   0.00000  -0.00045  -0.00045   1.89362
   D33       -2.34512   0.00001   0.00000  -0.00023  -0.00023  -2.34535
   D34        1.00266   0.00001   0.00000   0.00006   0.00006   1.00272
   D35       -1.16168  -0.00002   0.00000  -0.00017  -0.00017  -1.16185
   D36        3.07090   0.00000   0.00000  -0.00003  -0.00003   3.07087
   D37        0.27727   0.00001   0.00000   0.00016   0.00016   0.27743
   D38       -1.47252  -0.00003   0.00000  -0.00040  -0.00040  -1.47292
   D39        2.57651   0.00000   0.00000  -0.00006  -0.00006   2.57645
   D40       -1.65993  -0.00002   0.00000  -0.00062  -0.00062  -1.66055
   D41        0.50034  -0.00003   0.00000  -0.00108  -0.00108   0.49925
   D42        2.68939  -0.00002   0.00000  -0.00071  -0.00071   2.68868
   D43        0.33516   0.00001   0.00000  -0.00023  -0.00023   0.33493
   D44        2.49542   0.00000   0.00000  -0.00069  -0.00069   2.49473
   D45       -1.59871   0.00001   0.00000  -0.00032  -0.00032  -1.59903
   D46        2.41857  -0.00001   0.00000  -0.00041  -0.00041   2.41816
   D47       -1.70435  -0.00001   0.00000  -0.00087  -0.00087  -1.70522
   D48        0.48471   0.00000   0.00000  -0.00050  -0.00050   0.48420
   D49        0.16112   0.00004   0.00000   0.00091   0.00091   0.16202
   D50        1.72663   0.00005   0.00000   0.00074   0.00074   1.72737
   D51       -2.36616   0.00003   0.00000   0.00065   0.00065  -2.36551
   D52       -1.89418   0.00000   0.00000   0.00044   0.00044  -1.89374
   D53       -0.32866   0.00000   0.00000   0.00027   0.00027  -0.32839
   D54        1.86173  -0.00001   0.00000   0.00018   0.00018   1.86191
   D55        2.29496   0.00000   0.00000   0.00058   0.00058   2.29554
   D56       -2.42271   0.00001   0.00000   0.00041   0.00041  -2.42230
   D57       -0.23231   0.00000   0.00000   0.00032   0.00032  -0.23199
   D58        1.16606  -0.00001   0.00000   0.00032   0.00032   1.16638
   D59       -0.33759   0.00000   0.00000   0.00027   0.00027  -0.33731
   D60       -2.61113  -0.00001   0.00000  -0.00026  -0.00026  -2.61139
   D61       -0.99123   0.00000   0.00000   0.00049   0.00049  -0.99075
   D62       -2.49488   0.00001   0.00000   0.00044   0.00044  -2.49444
   D63        1.51476  -0.00001   0.00000  -0.00009  -0.00009   1.51467
   D64        3.08054   0.00001   0.00000   0.00064   0.00064   3.08118
   D65        1.57689   0.00002   0.00000   0.00059   0.00059   1.57749
   D66       -0.69665   0.00000   0.00000   0.00006   0.00006  -0.69659
   D67        0.28282   0.00000   0.00000   0.00033   0.00033   0.28316
   D68       -1.68218   0.00000   0.00000   0.00003   0.00003  -1.68214
   D69        2.54024  -0.00001   0.00000  -0.00001  -0.00001   2.54023
   D70        2.29849   0.00001   0.00000   0.00006   0.00006   2.29855
   D71        0.33349   0.00000   0.00000  -0.00024  -0.00024   0.33325
   D72       -1.72728   0.00000   0.00000  -0.00028  -0.00028  -1.72756
   D73       -1.76663   0.00001   0.00000   0.00044   0.00044  -1.76618
   D74        2.55156   0.00001   0.00000   0.00014   0.00014   2.55170
   D75        0.49079   0.00000   0.00000   0.00010   0.00010   0.49089
         Item               Value     Threshold  Converged?
 Maximum Force            0.000079     0.000450     YES
 RMS     Force            0.000018     0.000300     YES
 Maximum Displacement     0.001329     0.001800     YES
 RMS     Displacement     0.000336     0.001200     YES
 Predicted change in Energy=-2.407428D-07
 Optimization completed.
    -- Stationary point found.
                           ----------------------------
                           !   Optimized Parameters   !
                           ! (Angstroms and Degrees)  !
 --------------------------                            --------------------------
 ! Name  Definition              Value          Derivative Info.                !
 --------------------------------------------------------------------------------
 ! R1    R(1,2)                  1.5625         -DE/DX =    0.0                 !
 ! R2    R(1,9)                  1.5321         -DE/DX =    0.0                 !
 ! R3    R(1,10)                 1.0909         -DE/DX =    0.0                 !
 ! R4    R(1,11)                 1.0942         -DE/DX =    0.0                 !
 ! R5    R(2,3)                  1.4123         -DE/DX =   -0.0001              !
 ! R6    R(2,8)                  1.5823         -DE/DX =    0.0                 !
 ! R7    R(2,12)                 1.0915         -DE/DX =    0.0                 !
 ! R8    R(3,4)                  1.422          -DE/DX =    0.0                 !
 ! R9    R(4,5)                  1.3987         -DE/DX =    0.0                 !
 ! R10   R(4,13)                 1.0998         -DE/DX =    0.0                 !
 ! R11   R(4,14)                 1.0949         -DE/DX =    0.0                 !
 ! R12   R(5,6)                  1.4246         -DE/DX =   -0.0001              !
 ! R13   R(6,7)                  1.5562         -DE/DX =    0.0                 !
 ! R14   R(6,9)                  1.5772         -DE/DX =   -0.0001              !
 ! R15   R(6,15)                 1.0916         -DE/DX =    0.0                 !
 ! R16   R(7,8)                  1.5343         -DE/DX =   -0.0001              !
 ! R17   R(7,16)                 1.0913         -DE/DX =    0.0                 !
 ! R18   R(7,17)                 1.0942         -DE/DX =    0.0                 !
 ! R19   R(8,9)                  1.566          -DE/DX =    0.0                 !
 ! R20   R(8,18)                 1.091          -DE/DX =    0.0                 !
 ! R21   R(9,19)                 1.0907         -DE/DX =    0.0                 !
 ! A1    A(2,1,9)               88.3073         -DE/DX =    0.0                 !
 ! A2    A(2,1,10)             116.7457         -DE/DX =    0.0                 !
 ! A3    A(2,1,11)             110.8764         -DE/DX =    0.0                 !
 ! A4    A(9,1,10)             118.365          -DE/DX =    0.0                 !
 ! A5    A(9,1,11)             111.5456         -DE/DX =    0.0                 !
 ! A6    A(10,1,11)            109.5526         -DE/DX =    0.0                 !
 ! A7    A(1,2,3)              116.1242         -DE/DX =    0.0                 !
 ! A8    A(1,2,8)               89.4608         -DE/DX =    0.0                 !
 ! A9    A(1,2,12)             115.1276         -DE/DX =    0.0                 !
 ! A10   A(3,2,8)              118.4547         -DE/DX =    0.0                 !
 ! A11   A(3,2,12)             104.0578         -DE/DX =    0.0                 !
 ! A12   A(8,2,12)             113.9271         -DE/DX =    0.0                 !
 ! A13   A(2,3,4)              119.911          -DE/DX =    0.0                 !
 ! A14   A(3,4,5)              116.5769         -DE/DX =    0.0                 !
 ! A15   A(3,4,13)             108.0906         -DE/DX =    0.0                 !
 ! A16   A(3,4,14)             107.0353         -DE/DX =    0.0                 !
 ! A17   A(5,4,13)             110.6274         -DE/DX =    0.0                 !
 ! A18   A(5,4,14)             105.3648         -DE/DX =    0.0                 !
 ! A19   A(13,4,14)            108.8585         -DE/DX =    0.0                 !
 ! A20   A(4,5,6)              117.3492         -DE/DX =    0.0                 !
 ! A21   A(5,6,7)              115.954          -DE/DX =    0.0                 !
 ! A22   A(5,6,9)              112.1815         -DE/DX =    0.0                 !
 ! A23   A(5,6,15)             105.9621         -DE/DX =    0.0                 !
 ! A24   A(7,6,9)               89.0258         -DE/DX =    0.0                 !
 ! A25   A(7,6,15)             117.0738         -DE/DX =    0.0                 !
 ! A26   A(9,6,15)             116.3844         -DE/DX =    0.0                 !
 ! A27   A(6,7,8)               88.0418         -DE/DX =    0.0                 !
 ! A28   A(6,7,16)             119.7558         -DE/DX =    0.0                 !
 ! A29   A(6,7,17)             109.1314         -DE/DX =    0.0                 !
 ! A30   A(8,7,16)             119.9534         -DE/DX =    0.0                 !
 ! A31   A(8,7,17)             110.2755         -DE/DX =    0.0                 !
 ! A32   A(16,7,17)            108.2247         -DE/DX =    0.0                 !
 ! A33   A(2,8,7)              115.4517         -DE/DX =    0.0                 !
 ! A34   A(2,8,9)               86.4277         -DE/DX =    0.0                 !
 ! A35   A(2,8,18)             114.5896         -DE/DX =    0.0                 !
 ! A36   A(7,8,9)               90.2296         -DE/DX =    0.0                 !
 ! A37   A(7,8,18)             119.8656         -DE/DX =    0.0                 !
 ! A38   A(9,8,18)             123.9511         -DE/DX =    0.0                 !
 ! A39   A(1,9,6)              112.6134         -DE/DX =    0.0                 !
 ! A40   A(1,9,8)               91.1805         -DE/DX =    0.0                 !
 ! A41   A(1,9,19)             121.1386         -DE/DX =    0.0                 !
 ! A42   A(6,9,8)               86.2026         -DE/DX =    0.0                 !
 ! A43   A(6,9,19)             115.3474         -DE/DX =    0.0                 !
 ! A44   A(8,9,19)             123.5045         -DE/DX =    0.0                 !
 ! D1    D(9,1,2,3)           -105.5273         -DE/DX =    0.0                 !
 ! D2    D(9,1,2,8)             16.2139         -DE/DX =    0.0                 !
 ! D3    D(9,1,2,12)           132.546          -DE/DX =    0.0                 !
 ! D4    D(10,1,2,3)            15.627          -DE/DX =    0.0                 !
 ! D5    D(10,1,2,8)           137.3682         -DE/DX =    0.0                 !
 ! D6    D(10,1,2,12)         -106.2997         -DE/DX =    0.0                 !
 ! D7    D(11,1,2,3)           142.0185         -DE/DX =    0.0                 !
 ! D8    D(11,1,2,8)           -96.2402         -DE/DX =    0.0                 !
 ! D9    D(11,1,2,12)           20.0919         -DE/DX =    0.0                 !
 ! D10   D(2,1,9,6)             69.9882         -DE/DX =    0.0                 !
 ! D11   D(2,1,9,8)            -16.3896         -DE/DX =    0.0                 !
 ! D12   D(2,1,9,19)          -147.4999         -DE/DX =    0.0                 !
 ! D13   D(10,1,9,6)           -49.728          -DE/DX =    0.0                 !
 ! D14   D(10,1,9,8)          -136.1058         -DE/DX =    0.0                 !
 ! D15   D(10,1,9,19)           92.7839         -DE/DX =    0.0                 !
 ! D16   D(11,1,9,6)          -178.1961         -DE/DX =    0.0                 !
 ! D17   D(11,1,9,8)            95.4261         -DE/DX =    0.0                 !
 ! D18   D(11,1,9,19)          -35.6842         -DE/DX =    0.0                 !
 ! D19   D(1,2,3,4)             54.4228         -DE/DX =    0.0                 !
 ! D20   D(8,2,3,4)            -50.2827         -DE/DX =    0.0                 !
 ! D21   D(12,2,3,4)          -177.9621         -DE/DX =    0.0                 !
 ! D22   D(1,2,8,7)           -104.4297         -DE/DX =    0.0                 !
 ! D23   D(1,2,8,9)            -15.8774         -DE/DX =    0.0                 !
 ! D24   D(1,2,8,18)           110.0536         -DE/DX =    0.0                 !
 ! D25   D(3,2,8,7)             15.289          -DE/DX =    0.0                 !
 ! D26   D(3,2,8,9)            103.8412         -DE/DX =    0.0                 !
 ! D27   D(3,2,8,18)          -130.2278         -DE/DX =    0.0                 !
 ! D28   D(12,2,8,7)           138.1572         -DE/DX =    0.0                 !
 ! D29   D(12,2,8,9)          -133.2906         -DE/DX =    0.0                 !
 ! D30   D(12,2,8,18)           -7.3596         -DE/DX =    0.0                 !
 ! D31   D(2,3,4,5)            -16.7749         -DE/DX =    0.0                 !
 ! D32   D(2,3,4,13)           108.5222         -DE/DX =    0.0                 !
 ! D33   D(2,3,4,14)          -134.3653         -DE/DX =    0.0                 !
 ! D34   D(3,4,5,6)             57.4484         -DE/DX =    0.0                 !
 ! D35   D(13,4,5,6)           -66.5591         -DE/DX =    0.0                 !
 ! D36   D(14,4,5,6)           175.9498         -DE/DX =    0.0                 !
 ! D37   D(4,5,6,7)             15.8862         -DE/DX =    0.0                 !
 ! D38   D(4,5,6,9)            -84.3689         -DE/DX =    0.0                 !
 ! D39   D(4,5,6,15)           147.623          -DE/DX =    0.0                 !
 ! D40   D(5,6,7,8)            -95.1068         -DE/DX =    0.0                 !
 ! D41   D(5,6,7,16)            28.6671         -DE/DX =    0.0                 !
 ! D42   D(5,6,7,17)           154.0907         -DE/DX =    0.0                 !
 ! D43   D(9,6,7,8)             19.2032         -DE/DX =    0.0                 !
 ! D44   D(9,6,7,16)           142.9772         -DE/DX =    0.0                 !
 ! D45   D(9,6,7,17)           -91.5993         -DE/DX =    0.0                 !
 ! D46   D(15,6,7,8)           138.5741         -DE/DX =    0.0                 !
 ! D47   D(15,6,7,16)          -97.652          -DE/DX =    0.0                 !
 ! D48   D(15,6,7,17)           27.7716         -DE/DX =    0.0                 !
 ! D49   D(5,6,9,1)              9.2313         -DE/DX =    0.0                 !
 ! D50   D(5,6,9,8)             98.9287         -DE/DX =    0.0                 !
 ! D51   D(5,6,9,19)          -135.5709         -DE/DX =    0.0                 !
 ! D52   D(7,6,9,1)           -108.5284         -DE/DX =    0.0                 !
 ! D53   D(7,6,9,8)            -18.8309         -DE/DX =    0.0                 !
 ! D54   D(7,6,9,19)           106.6694         -DE/DX =    0.0                 !
 ! D55   D(15,6,9,1)           131.4916         -DE/DX =    0.0                 !
 ! D56   D(15,6,9,8)          -138.811          -DE/DX =    0.0                 !
 ! D57   D(15,6,9,19)          -13.3106         -DE/DX =    0.0                 !
 ! D58   D(6,7,8,2)             66.8103         -DE/DX =    0.0                 !
 ! D59   D(6,7,8,9)            -19.3423         -DE/DX =    0.0                 !
 ! D60   D(6,7,8,18)          -149.607          -DE/DX =    0.0                 !
 ! D61   D(16,7,8,2)           -56.7935         -DE/DX =    0.0                 !
 ! D62   D(16,7,8,9)          -142.9462         -DE/DX =    0.0                 !
 ! D63   D(16,7,8,18)           86.7892         -DE/DX =    0.0                 !
 ! D64   D(17,7,8,2)           176.502          -DE/DX =    0.0                 !
 ! D65   D(17,7,8,9)            90.3493         -DE/DX =    0.0                 !
 ! D66   D(17,7,8,18)          -39.9153         -DE/DX =    0.0                 !
 ! D67   D(2,8,9,1)             16.2045         -DE/DX =    0.0                 !
 ! D68   D(2,8,9,6)            -96.3816         -DE/DX =    0.0                 !
 ! D69   D(2,8,9,19)           145.5449         -DE/DX =    0.0                 !
 ! D70   D(7,8,9,1)            131.6937         -DE/DX =    0.0                 !
 ! D71   D(7,8,9,6)             19.1075         -DE/DX =    0.0                 !
 ! D72   D(7,8,9,19)           -98.966          -DE/DX =    0.0                 !
 ! D73   D(18,8,9,1)          -101.2202         -DE/DX =    0.0                 !
 ! D74   D(18,8,9,6)           146.1937         -DE/DX =    0.0                 !
 ! D75   D(18,8,9,19)           28.1202         -DE/DX =    0.0                 !
 --------------------------------------------------------------------------------
 GradGradGradGradGradGradGradGradGradGradGradGradGradGradGradGradGradGrad

                          Input orientation:                          
 ---------------------------------------------------------------------
 Center     Atomic      Atomic             Coordinates (Angstroms)
 Number     Number       Type             X           Y           Z
 ---------------------------------------------------------------------
      1          6           0       -0.201355    2.307531    1.386384
      2          6           0        1.326020    1.995121    1.491459
      3          8           0        1.696441    1.014014    2.437394
      4          6           0        1.096569   -0.274518    2.394511
      5          8           0       -0.081970   -0.391655    1.650478
      6          6           0       -0.027417   -0.022484    0.275648
      7          6           0        1.396359    0.101852   -0.340201
      8          6           0        1.336648    1.605752   -0.042134
      9          6           0       -0.223655    1.528508    0.067340
     10          1           0       -0.831428    1.957992    2.205436
     11          1           0       -0.370496    3.376406    1.224697
     12          1           0        1.958413    2.850703    1.735367
     13          1           0        1.851635   -0.991101    2.039648
     14          1           0        0.818287   -0.533108    3.421360
     15          1           0       -0.735987   -0.674508   -0.238614
     16          1           0        2.213781   -0.500765    0.059284
     17          1           0        1.337186   -0.073612   -1.418644
     18          1           0        1.868289    2.308619   -0.685310
     19          1           0       -0.898641    1.809212   -0.742143
 ---------------------------------------------------------------------
                    Distance matrix (angstroms):
                    1          2          3          4          5
     1  C    0.000000
     2  C    1.562534   0.000000
     3  O    2.525755   1.412294   0.000000
     4  C    3.060703   2.453449   1.421970   0.000000
     5  O    2.714701   2.775684   2.399560   1.398664   0.000000
     6  C    2.587075   2.716747   2.952822   2.411731   1.424577
     7  C    3.224717   2.635221   2.938898   2.776721   2.528202
     8  C    2.213280   1.582286   2.574426   3.087118   2.977759
     9  C    1.532074   2.155768   3.093320   3.226395   2.492675
    10  H    1.090879   2.272823   2.708325   2.955846   2.527945
    11  H    1.094187   2.203923   3.365079   4.104874   3.803001
    12  H    2.254201   1.091528   1.983658   3.308209   3.831873
    13  H    3.939859   3.081282   2.050066   1.099792   2.061460
    14  H    3.640058   3.220908   2.032961   1.094864   1.991606
    15  H    3.437878   3.791034   3.991094   3.232894   2.019013
    16  H    3.934539   3.011427   2.866637   2.598584   2.795403
    17  H    3.988124   3.570502   4.022565   3.826018   3.396273
    18  H    2.928369   2.265097   3.384792   4.093098   4.068280
    19  H    2.294593   3.157951   4.180460   4.261619   3.351926
                    6          7          8          9         10
     6  C    0.000000
     7  C    1.556235   0.000000
     8  C    2.147746   1.534316   0.000000
     9  C    1.577174   2.196789   1.566045   0.000000
    10  H    2.879722   3.858569   3.142642   2.263913   0.000000
    11  H    3.545539   4.036506   2.766661   2.185352   1.784995
    12  H    3.785433   3.489995   2.257433   3.048267   2.966667
    13  H    2.753316   2.658101   3.367889   3.813824   3.990421
    14  H    3.297189   3.858326   4.103561   4.072512   3.225772
    15  H    1.091638   2.271553   3.087719   2.282405   3.593403
    16  H    2.301854   1.091290   2.284089   3.171609   4.463715
    17  H    2.176093   1.094226   2.171415   2.685360   4.686604
    18  H    3.154550   2.282902   1.091027   2.356117   3.970873
    19  H    2.269371   2.888540   2.351154   1.090717   2.952097
                   11         12         13         14         15
    11  H    0.000000
    12  H    2.441508   0.000000
    13  H    4.967608   3.855314   0.000000
    14  H    4.639270   3.948751   1.785131   0.000000
    15  H    4.322588   4.856285   3.462152   3.978840   0.000000
    16  H    4.803033   3.755903   2.072057   3.640330   2.969858
    17  H    4.669695   4.345725   3.614724   4.889380   2.459999
    18  H    3.130568   2.482268   4.279466   5.103201   3.985077
    19  H    2.569726   3.922437   4.810835   5.076324   2.539462
                   16         17         18         19
    16  H    0.000000
    17  H    1.770635   0.000000
    18  H    2.926846   2.548504   0.000000
    19  H    3.957960   3.000267   2.812212   0.000000
 Stoichiometry    C7H10O2
 Framework group  C1[X(C7H10O2)]
 Deg. of freedom    51
 Full point group                 C1      NOp   1
 Largest Abelian subgroup         C1      NOp   1
 Largest concise Abelian subgroup C1      NOp   1
                         Standard orientation:                         
 ---------------------------------------------------------------------
 Center     Atomic      Atomic             Coordinates (Angstroms)
 Number     Number       Type             X           Y           Z
 ---------------------------------------------------------------------
      1          6           0        0.756976    1.250063   -0.961468
      2          6           0        0.178042    1.266350    0.489767
      3          8           0       -1.210452    1.036824    0.607988
      4          6           0       -1.787894   -0.128807    0.033650
      5          8           0       -1.019311   -0.802444   -0.921210
      6          6           0        0.272029   -1.252972   -0.522605
      7          6           0        0.536577   -1.291910    1.010485
      8          6           0        1.171300    0.099139    0.883070
      9          6           0        1.364117   -0.122812   -0.655129
     10          1           0        0.037671    1.328147   -1.777875
     11          1           0        1.531029    2.014119   -1.081074
     12          1           0        0.341791    2.192486    1.043746
     13          1           0       -2.072131   -0.807401    0.851123
     14          1           0       -2.693287    0.188392   -0.493961
     15          1           0        0.455062   -2.172414   -1.081888
     16          1           0       -0.294556   -1.450540    1.699664
     17          1           0        1.305058   -2.041349    1.222873
     18          1           0        1.973190    0.394619    1.561305
     19          1           0        2.307399   -0.435408   -1.104759
 ---------------------------------------------------------------------
 Rotational constants (GHZ):      2.4436734      2.1684546      1.7904409
 1\1\GINC-ALCHEMY-KR\FOpt\RB3LYP\6-31G(2df,p)\C7H10O2\PUCK\27-Jan-2020\
 0\\# b3lyp 6-31G(2df,p) opt Freq\\titel\\0,1\C,-0.2013548822,2.3075308
 217,1.3863836785\C,1.3260196518,1.9951206219,1.4914594469\O,1.69644101
 14,1.0140138151,2.4373941879\C,1.0965693028,-0.2745180605,2.3945114313
 \O,-0.0819701865,-0.3916547628,1.6504779946\C,-0.0274167603,-0.0224839
 731,0.2756480205\C,1.3963591516,0.1018519367,-0.3402005199\C,1.3366480
 539,1.6057524991,-0.0421343921\C,-0.2236546586,1.5285079996,0.06733965
 79\H,-0.8314284048,1.9579916562,2.2054361353\H,-0.3704957892,3.3764058
 98,1.2246966791\H,1.9584127402,2.8507026642,1.735367007\H,1.8516348273
 ,-0.9911008724,2.0396481208\H,0.8182866561,-0.5331078613,3.4213596269\
 H,-0.7359870476,-0.6745079211,-0.2386140216\H,2.2137805661,-0.50076518
 44,0.0592836787\H,1.337186298,-0.0736116492,-1.4186443592\H,1.86828929
 79,2.3086193539,-0.6853103792\H,-0.898640678,1.8092124987,-0.742143483
 6\\Version=ES64L-G09RevD.01\State=1-A\HF=-423.1450494\RMSD=3.514e-09\R
 MSF=5.158e-05\Dipole=0.0293387,0.0849675,-0.5914986\Quadrupole=-1.4381
 304,1.1558392,0.2822912,-1.0361062,-0.2176192,-0.2745015\PG=C01 [X(C7H
 10O2)]\\@


 LIFE CAN ONLY BE UNDERSTOOD BACKWARD, BUT MUST
 BE LIVED FORWARD. -- KIRKEGAARD
 Job cpu time:       0 days  0 hours 23 minutes 12.2 seconds.
 File lengths (MBytes):  RWF=     52 Int=      0 D2E=      0 Chk=      7 Scr=      1
 Normal termination of Gaussian 09 at Mon Jan 27 11:31:58 2020.
 Link1:  Proceeding to internal job step number  2.
 ----------------------------------------------------------------------
 #N Geom=AllCheck Guess=TCheck SCRF=Check GenChk RB3LYP/6-31G(2df,p) Fr
 eq
 ----------------------------------------------------------------------
 1/10=4,29=7,30=1,38=1,40=1/1,3;
 2/12=2,40=1/2;
 3/5=1,6=6,7=104,11=2,14=-4,16=1,25=1,30=1,70=2,71=2,74=-5,116=1,140=1/1,2,3;
 4/5=101/1;
 5/5=2,98=1/2;
 8/6=4,10=90,11=11/1;
 11/6=1,8=1,9=11,15=111,16=1/1,2,10;
 10/6=1/2;
 6/7=2,8=2,9=2,10=2,18=1,28=1/1;
 7/8=1,10=1,25=1/1,2,3,16;
 1/10=4,30=1/3;
 99//99;
 Structure from the checkpoint file:  "/scratch/puck/g09_191eda4a-fefa-4d96-9bb8-c0148ad18c68/Gau-61429.chk"
 -----
 titel
 -----
 Charge =  0 Multiplicity = 1
 Redundant internal coordinates found in file.
 C,0,-0.2013548822,2.3075308217,1.3863836785
 C,0,1.3260196518,1.9951206219,1.4914594469
 O,0,1.6964410114,1.0140138151,2.4373941879
 C,0,1.0965693028,-0.2745180605,2.3945114313
 O,0,-0.0819701865,-0.3916547628,1.6504779946
 C,0,-0.0274167603,-0.0224839731,0.2756480205
 C,0,1.3963591516,0.1018519367,-0.3402005199
 C,0,1.3366480539,1.6057524991,-0.0421343921
 C,0,-0.2236546586,1.5285079996,0.0673396579
 H,0,-0.8314284048,1.9579916562,2.2054361353
 H,0,-0.3704957892,3.376405898,1.2246966791
 H,0,1.9584127402,2.8507026642,1.735367007
 H,0,1.8516348273,-0.9911008724,2.0396481208
 H,0,0.8182866561,-0.5331078613,3.4213596269
 H,0,-0.7359870476,-0.6745079211,-0.2386140216
 H,0,2.2137805661,-0.5007651844,0.0592836787
 H,0,1.337186298,-0.0736116492,-1.4186443592
 H,0,1.8682892979,2.3086193539,-0.6853103792
 H,0,-0.898640678,1.8092124987,-0.7421434836
 Recover connectivity data from disk.

 GradGradGradGradGradGradGradGradGradGradGradGradGradGradGradGradGradGrad
 Berny optimization.
 Initialization pass.
                           ----------------------------
                           !    Initial Parameters    !
                           ! (Angstroms and Degrees)  !
 --------------------------                            --------------------------
 ! Name  Definition              Value          Derivative Info.                !
 --------------------------------------------------------------------------------
 ! R1    R(1,2)                  1.5625         calculate D2E/DX2 analytically  !
 ! R2    R(1,9)                  1.5321         calculate D2E/DX2 analytically  !
 ! R3    R(1,10)                 1.0909         calculate D2E/DX2 analytically  !
 ! R4    R(1,11)                 1.0942         calculate D2E/DX2 analytically  !
 ! R5    R(2,3)                  1.4123         calculate D2E/DX2 analytically  !
 ! R6    R(2,8)                  1.5823         calculate D2E/DX2 analytically  !
 ! R7    R(2,12)                 1.0915         calculate D2E/DX2 analytically  !
 ! R8    R(3,4)                  1.422          calculate D2E/DX2 analytically  !
 ! R9    R(4,5)                  1.3987         calculate D2E/DX2 analytically  !
 ! R10   R(4,13)                 1.0998         calculate D2E/DX2 analytically  !
 ! R11   R(4,14)                 1.0949         calculate D2E/DX2 analytically  !
 ! R12   R(5,6)                  1.4246         calculate D2E/DX2 analytically  !
 ! R13   R(6,7)                  1.5562         calculate D2E/DX2 analytically  !
 ! R14   R(6,9)                  1.5772         calculate D2E/DX2 analytically  !
 ! R15   R(6,15)                 1.0916         calculate D2E/DX2 analytically  !
 ! R16   R(7,8)                  1.5343         calculate D2E/DX2 analytically  !
 ! R17   R(7,16)                 1.0913         calculate D2E/DX2 analytically  !
 ! R18   R(7,17)                 1.0942         calculate D2E/DX2 analytically  !
 ! R19   R(8,9)                  1.566          calculate D2E/DX2 analytically  !
 ! R20   R(8,18)                 1.091          calculate D2E/DX2 analytically  !
 ! R21   R(9,19)                 1.0907         calculate D2E/DX2 analytically  !
 ! A1    A(2,1,9)               88.3073         calculate D2E/DX2 analytically  !
 ! A2    A(2,1,10)             116.7457         calculate D2E/DX2 analytically  !
 ! A3    A(2,1,11)             110.8764         calculate D2E/DX2 analytically  !
 ! A4    A(9,1,10)             118.365          calculate D2E/DX2 analytically  !
 ! A5    A(9,1,11)             111.5456         calculate D2E/DX2 analytically  !
 ! A6    A(10,1,11)            109.5526         calculate D2E/DX2 analytically  !
 ! A7    A(1,2,3)              116.1242         calculate D2E/DX2 analytically  !
 ! A8    A(1,2,8)               89.4608         calculate D2E/DX2 analytically  !
 ! A9    A(1,2,12)             115.1276         calculate D2E/DX2 analytically  !
 ! A10   A(3,2,8)              118.4547         calculate D2E/DX2 analytically  !
 ! A11   A(3,2,12)             104.0578         calculate D2E/DX2 analytically  !
 ! A12   A(8,2,12)             113.9271         calculate D2E/DX2 analytically  !
 ! A13   A(2,3,4)              119.911          calculate D2E/DX2 analytically  !
 ! A14   A(3,4,5)              116.5769         calculate D2E/DX2 analytically  !
 ! A15   A(3,4,13)             108.0906         calculate D2E/DX2 analytically  !
 ! A16   A(3,4,14)             107.0353         calculate D2E/DX2 analytically  !
 ! A17   A(5,4,13)             110.6274         calculate D2E/DX2 analytically  !
 ! A18   A(5,4,14)             105.3648         calculate D2E/DX2 analytically  !
[...]
 0.02212934,-0.07642119,-0.02406017,-0.01644536,0.48352442,0.00058106,0
 .00323477,-0.00140146,-0.00885787,-0.04664696,0.01433302,-0.01770424,-
 0.16891983,0.01737710,-0.08479458,0.47287363,-0.00055245,0.00055739,0.
 00125770,0.02019357,0.01796787,0.00208927,-0.02034729,0.00756591,-0.08
 600778,-0.06388000,-0.04326306,0.62376748,0.00057252,-0.00222804,0.000
 78888,-0.00176241,0.00830707,-0.00901180,-0.02781014,-0.03235903,-0.01
 287117,-0.18848141,0.00405382,-0.03483273,0.33887283,0.00315357,-0.000
 29379,-0.00050306,0.00056976,0.00515239,-0.00281818,-0.03820037,-0.005
 50896,-0.02070113,0.00529816,-0.06588682,0.01794590,0.02198285,0.12966
 198,0.00134042,-0.00515109,-0.00251967,-0.00211558,0.00832594,-0.00887
 190,-0.01258090,-0.02274567,0.00659385,-0.06000949,0.02271904,-0.12051
 858,0.09668812,-0.07386038,0.40114216,-0.00165943,0.00513342,0.0040363
 8,0.00133832,-0.00078711,-0.00135668,-0.00022000,-0.00058572,0.0011583
 9,0.00434489,0.01097139,-0.03500396,-0.09490838,-0.01595165,0.01953768
 ,0.51536804,0.00130968,-0.02211028,-0.00515865,-0.00124108,0.00277567,
 -0.00340954,-0.00200007,-0.00346528,-0.00084436,0.00528196,-0.00354017
 ,-0.00230018,-0.00660744,-0.06754149,0.03692773,0.13542239,0.47320438,
 -0.00325746,-0.02564857,0.00981388,0.00122824,-0.00862291,0.00872530,0
 .00649336,0.01364351,-0.00164571,-0.02475454,-0.00817381,-0.04353160,-
 0.00231652,0.03542838,-0.17864472,0.06704868,0.04668468,0.46299404,-0.
 00300500,-0.00029020,0.00221011,-0.00064810,-0.00697037,0.00061653,0.0
 0054672,0.00080195,0.00105226,0.00575985,-0.00348291,0.00212815,0.0057
 3227,0.00048837,0.00420860,-0.15512521,-0.00140987,0.01559811,0.492485
 41,0.00217972,-0.00163508,-0.00263751,0.00409374,-0.00448222,-0.007518
 62,-0.00043698,-0.00006034,0.00315480,-0.00147464,0.00410429,-0.001267
 63,-0.00475110,0.00041946,0.00413371,-0.01649996,-0.04742639,0.0043065
 6,-0.12120962,0.45429557,-0.00121275,0.00237452,-0.00217109,0.00523252
 ,-0.03076546,-0.00447801,-0.00122908,0.00000698,0.00469294,0.00466750,
 0.00277913,-0.00096159,0.03139921,0.00180510,-0.02922010,0.01330969,0.
 00305436,-0.08333047,0.05214700,0.00349651,0.56711702,-0.03809419,0.01
 568120,0.02961654,-0.04523358,-0.00703923,-0.00382884,0.00135866,-0.00
 102263,-0.00673064,-0.00008578,-0.00075055,0.00086516,0.00150849,0.000
 73487,-0.00101524,-0.03682331,-0.03874880,0.00836764,-0.04432707,0.011
 04179,-0.00660928,0.42699270,0.01640943,0.00902234,-0.02382320,-0.0059
 9134,-0.09410120,-0.01841346,-0.00078772,0.00452911,0.02769489,0.00008
 266,0.00386142,0.00330787,0.00033527,-0.00193617,-0.00125448,-0.039492
 05,-0.04978598,0.01316314,-0.00053218,-0.18034171,-0.01854104,0.094993
 16,0.53369824,0.03062678,-0.01418076,-0.03538250,0.01142279,-0.0200251
 6,-0.11977374,-0.00392874,0.00689898,-0.02416206,-0.00117422,-0.001333
 88,-0.00102805,-0.00067615,-0.00031307,0.00069711,0.01758759,0.0168080
 7,0.00682399,-0.00496950,-0.01255349,-0.08280298,-0.11186421,-0.066863
 59,0.45400227,-0.04375243,-0.00115406,0.00545630,-0.04692373,-0.012186
 69,-0.03951144,0.00068758,-0.00091868,-0.00014097,0.00014243,0.0018133
 2,-0.00090018,0.00162681,0.00332704,-0.00225248,-0.05148642,-0.0005718
 6,-0.01169048,-0.04504927,0.03390663,0.00949468,-0.14557585,0.00532100
 ,-0.00011949,0.48073330,-0.00373739,-0.10362169,-0.03905511,-0.0050299
 5,0.00806306,-0.01168607,-0.00055112,-0.00062326,0.00003967,-0.0005484
 6,-0.00070101,-0.00074925,0.00085678,-0.00912912,0.01687040,0.01390976
 ,-0.13166377,-0.00720856,0.03651915,-0.03612055,0.00077995,-0.00625781
 ,-0.04242853,0.01597027,-0.07122764,0.40400397,-0.00751448,-0.04462740
 ,-0.16164263,-0.04031626,-0.01104469,-0.04130518,-0.00089243,-0.002168
 88,-0.00137566,0.00371994,0.00540983,0.00070451,-0.01068127,0.03404206
 ,-0.01945753,-0.01333640,-0.00531866,-0.07529409,0.01565475,-0.0107853
 9,0.01225022,0.01541152,0.01085862,-0.05241348,0.14194425,-0.00347777,
 0.54299749,-0.13868369,-0.05315671,0.11273604,-0.01038148,-0.01398102,
 0.02108308,0.00492474,-0.00040637,-0.00097334,-0.00108170,0.00095120,-
 0.00035398,0.00058036,-0.00126971,-0.00104758,0.00023793,0.00014421,0.
 00184058,-0.00009477,-0.00015035,0.00086835,-0.00160879,0.00201373,0.0
 0144368,0.00179661,0.00603179,-0.00285551,0.14297463,-0.05540181,-0.07
 445120,0.06870907,0.00439638,-0.00094267,-0.00467473,-0.00093108,0.000
 68426,0.00003241,0.00147012,0.00001743,0.00061100,-0.00028402,-0.00218
 303,-0.00081860,0.00039313,0.00064145,0.00064552,0.00034197,-0.0000917
 5,0.00026979,0.00189590,-0.00143825,-0.00307666,0.01031596,0.00767647,
 -0.01017483,0.05602938,0.07937972,0.11387958,0.06748003,-0.19859000,-0
 .00436490,-0.00437236,0.00357487,0.00133332,-0.00136283,0.00117237,0.0
 0081204,0.00019074,0.00028667,-0.00106792,0.00136766,0.00256704,-0.000
 46040,0.00251472,-0.00097813,0.00095463,0.00020784,0.00083601,0.000650
 21,-0.00206081,-0.00359460,0.01446978,0.00979210,-0.01364484,-0.128353
 62,-0.07350561,0.21193466,-0.05147382,0.03930730,-0.00281946,-0.000971
 04,0.02843255,-0.00405759,-0.00555367,0.00474026,-0.00171122,-0.002512
 15,-0.00203410,-0.00039457,0.00119580,-0.00058577,0.00015962,0.0003956
 4,-0.00127585,-0.00138770,0.00013714,-0.00053932,0.00002606,-0.0020067
 1,-0.00162313,0.00073411,0.00057506,-0.00685368,0.00120446,0.00378148,
 -0.01835472,0.00203451,0.05349405,0.03824603,-0.29806519,0.04103646,-0
 .00101078,-0.00272271,0.00025988,0.00078040,0.00052164,-0.00047271,-0.
 00067628,0.00056401,-0.00048774,0.00021313,0.00013038,-0.00071550,-0.0
 0057749,0.00050768,-0.00208508,0.00013597,-0.00005249,0.00012082,0.000
 73070,0.00059120,0.00056095,0.00120219,-0.01598682,0.00315536,0.002024
 25,-0.00897002,0.00074912,-0.04189437,0.32174754,-0.00343938,0.0402468
 3,-0.05173477,0.00200757,0.00775208,-0.00262511,-0.00305734,0.00166190
 ,-0.00086167,-0.00041646,-0.00155707,-0.00021011,-0.00013247,0.0022366
 2,0.00151188,0.00007095,-0.00126459,-0.00669051,-0.00054040,-0.0004397
 2,0.00072721,0.00007999,0.00194816,0.00073186,0.00344643,-0.03108337,0
 .00452249,-0.00494017,0.02266643,-0.00208747,0.00582951,-0.04217062,0.
 05421038,-0.01327714,-0.02072022,-0.00554006,-0.14322164,-0.12659445,-
 0.03385919,0.00772475,0.00996640,0.00093041,0.00040396,0.00182814,-0.0
 0188665,0.00072360,-0.00002974,0.00057667,-0.00031116,0.00062881,0.000
 19436,0.00019461,0.00044708,0.00140151,0.00419057,0.00593757,0.0005375
 4,-0.00408270,0.00140711,-0.00117752,-0.00246713,-0.00017543,-0.001111
 28,0.00203179,0.00023166,0.00051852,0.14690231,0.00560829,0.00688819,0
 .00024503,-0.11884045,-0.20370575,-0.05129262,-0.01153263,-0.03419259,
 0.00601191,0.00277449,0.00119616,0.00349967,-0.00044606,0.00052144,-0.
 00087158,0.00070247,0.00042152,0.00080309,0.00011043,0.00008192,-0.000
 99563,-0.00516118,-0.00441267,0.00042713,-0.00040805,0.00058543,-0.001
 53326,0.00108552,0.00028933,0.00027531,-0.00038151,0.00127882,-0.00035
 433,0.12737543,0.23193928,0.00022509,0.00387299,0.00094767,-0.03756395
 ,-0.06046092,-0.06278319,0.01205574,0.03073309,-0.00026477,-0.00258330
 ,0.00168751,-0.00259095,0.00069567,-0.00047790,0.00146922,0.00117573,0
 .00099938,-0.00058482,-0.00152145,0.00139811,-0.00369751,-0.01265840,-
 0.02215551,-0.00378029,-0.00074025,0.00076523,-0.00127486,0.00041246,-
 0.00016346,-0.00023593,-0.00109596,0.00017836,0.00085731,0.04153404,0.
 04335074,0.07054385,0.00009632,-0.00066266,0.00025450,0.00037384,-0.00
 085606,-0.00254282,0.01098118,-0.01496912,-0.00080464,-0.15560409,0.10
 658855,0.05951554,-0.04031067,0.01525379,-0.00828026,-0.00073914,-0.00
 187185,0.00791332,0.00002291,0.00036161,0.00044763,-0.00008765,0.00011
 514,-0.00022494,0.00032033,0.00012489,-0.00060673,0.00002075,-0.000315
 16,-0.00016972,0.00025957,0.00013955,0.00003597,0.00010033,-0.00025541
 ,0.00022919,0.18505314,0.00006114,-0.00079938,0.00055951,-0.00032864,0
 .00169267,-0.00822357,0.00684528,-0.04471834,-0.00663014,0.10495111,-0
 .13768436,-0.04842932,0.00014682,0.00817795,0.00069684,0.00007916,0.00
 018505,-0.00041843,0.00144724,-0.00123209,-0.00011260,-0.00015549,0.00
 004819,0.00054769,-0.00028076,-0.00002437,-0.00001921,-0.00004142,-0.0
 0002584,0.00001393,0.00038534,-0.00005983,0.00019172,0.00006427,-0.000
 76126,0.00084801,-0.10969118,0.16687185,-0.00003140,-0.00017965,-0.000
 00127,0.00043182,0.00121086,-0.00201072,-0.00505342,-0.00160483,0.0092
 3413,0.06744332,-0.05481628,-0.09114012,-0.02439596,0.01203744,0.00521
 991,-0.00110263,0.00075071,0.00379835,0.00145207,-0.00026728,-0.002239
 38,0.00020811,0.00017962,0.00085967,-0.00023901,-0.00018685,-0.0002520
 8,0.00007305,-0.00006477,-0.00005726,0.00004563,-0.00000499,0.00002449
 ,0.00005656,0.00006710,-0.00009875,-0.06094850,0.05853630,0.08933132,0
 .00001053,0.00013851,-0.00016811,-0.00310198,0.00213307,-0.00008798,0.
 00128728,-0.01524294,0.00691099,-0.07011965,-0.00931653,0.07780218,-0.
 00044537,0.00679043,-0.04070612,-0.00376374,-0.00131246,-0.00143226,-0
 .00113481,0.00044294,0.00021574,0.00012775,-0.00047120,0.00018593,-0.0
 0014907,-0.00017342,-0.00039359,0.00001387,0.00006321,-0.00004287,0.00
 002919,0.00001600,0.00008395,0.00010375,-0.00028245,0.00022377,-0.0027
 8720,-0.00207814,0.02195171,0.07860464,0.00008881,0.00009705,-0.000065
 16,-0.00635499,0.00101126,-0.00048454,-0.01315662,-0.02751003,0.030450
 46,-0.00683791,-0.05705112,0.04349465,0.00039635,0.00267202,-0.0001312
 1,0.00035581,0.00166201,-0.00067357,-0.00000710,-0.00048766,-0.0002949
 3,-0.00008487,-0.00078107,0.00025905,-0.00010588,0.00000907,-0.0004140
 6,0.00031969,0.00004545,0.00008126,0.00010646,0.00000112,-0.00000231,0
 .00032962,-0.00103773,0.00076096,0.00631463,0.00645774,-0.01731687,0.0
 1906711,0.07418535,0.00013080,0.00010258,-0.00035413,0.00046636,-0.001
 57248,0.00124742,0.00159583,0.00485013,0.00679944,0.06599461,0.0493739
 7,-0.27596613,-0.00634381,0.00329918,-0.02513360,-0.00191826,-0.001787
 22,0.00197897,-0.00032875,-0.00028568,0.00031325,-0.00012051,-0.000153
 33,0.00007900,-0.00011787,0.00004028,-0.00021389,0.00003892,-0.0000101
 4,0.00010916,-0.00006148,0.00007515,0.00004197,0.00000433,0.00008076,-
 0.00004229,0.00466483,0.00156449,-0.00936566,-0.06376761,-0.05630044,0
 .30148893,0.00014324,0.00173540,-0.00059822,-0.00049108,0.00046998,0.0
 0029866,0.00040742,0.00000650,0.00004429,0.00148745,-0.00004920,0.0004
 5905,0.00306545,0.00158981,-0.00286639,-0.16607845,-0.10311965,-0.0799
 5517,-0.01090468,-0.01456075,-0.01260526,-0.00383321,-0.00130115,0.002
 62655,0.00622076,0.00477098,0.00592015,-0.00007033,-0.00012960,-0.0000
 1672,0.00002843,0.00036196,0.00057010,0.00001240,0.00000370,-0.0000651
 2,-0.00011260,-0.00011234,0.00009226,-0.00007656,0.00002330,-0.0001648
 5,0.16900965,-0.00042737,-0.00272070,0.00230046,0.00138220,0.00036716,
 0.00112500,0.00024604,0.00106713,-0.00042515,-0.00045609,-0.00023254,0
 .00221250,0.00858946,0.00922751,0.00890433,-0.10562833,-0.15104795,-0.
 08093092,0.00166507,0.00182119,0.00374202,-0.00127682,-0.00226917,0.00
 209808,-0.01643472,-0.01098233,-0.01387998,0.00014897,0.00020133,-0.00
 022452,-0.00021328,-0.00062666,-0.00104599,-0.00003116,0.00006521,0.00
 008831,0.00008059,0.00003019,-0.00008547,0.00036561,-0.00004930,0.0003
 0042,0.11320626,0.15302896,0.00044299,0.00013377,-0.00054178,0.0001448
 7,0.00088349,-0.00073968,-0.00110549,-0.00157870,0.00024678,0.00582325
 ,-0.00126174,-0.00355439,-0.02712148,-0.01089997,-0.03451678,-0.073244
 52,-0.07297893,-0.09505801,0.00803668,0.00653101,0.00629555,0.00140339
 ,0.00021008,-0.00013376,0.00011470,0.00242336,0.00272946,-0.00014281,0
 .00013532,-0.00002731,0.00010359,0.00002884,0.00010753,0.00004984,-0.0
 0015698,0.00013936,-0.00031722,0.00015278,0.00025028,-0.00132053,0.000
 21360,-0.00092978,0.08655394,0.07529665,0.12367289,-0.00030524,0.00073
 932,-0.00053090,-0.00030405,0.00143167,-0.00067040,0.00012526,-0.00095
 791,0.00048211,-0.00112342,0.00168884,-0.00048982,0.00305372,-0.000530
 63,-0.00024755,-0.01080308,0.01256096,-0.01536518,-0.19988526,0.104412
 88,-0.07489921,0.00216658,-0.00015743,0.00480322,-0.00131641,0.0022882
 2,0.00199687,-0.00002984,0.00007803,0.00002776,0.00016774,0.00019952,0
 .00038482,-0.00001019,-0.00003439,0.00022962,0.00149246,-0.00103408,0.
 00043299,0.00068935,-0.00047035,-0.00013591,-0.00163347,0.00051001,0.0
 0105330,0.20848225,0.00090554,0.00107355,-0.00034639,0.00031467,0.0011
 8823,0.00192658,-0.00084765,0.00092133,-0.00149983,0.00127222,-0.00094
 152,0.00115412,0.00119290,0.00058614,-0.00088665,-0.00377351,0.0014989
 5,-0.00725489,0.10459606,-0.12811876,0.05646322,0.02085287,-0.00731336
 ,0.01340571,0.00137864,-0.00470987,-0.00082115,0.00001577,-0.00031279,
 -0.00060943,0.00000537,0.00003833,0.00019242,-0.00010933,0.00003563,-0
 .00000730,-0.00050772,0.00096913,0.00177860,-0.00035259,0.00021873,0.0
 0008385,-0.00089382,0.00001389,0.00068852,-0.12150102,0.13300872,0.000
 19539,-0.00041057,0.00012781,0.00062689,-0.00025147,0.00113238,-0.0006
 4852,0.00118272,0.00056080,0.00142414,0.00032709,-0.00342215,-0.002604
 54,0.00009695,0.00029768,0.00744196,-0.00851666,0.00631924,-0.07622692
 ,0.05710752,-0.08437991,0.00542942,-0.00337203,0.00184586,0.00353045,-
 0.00206535,-0.00034856,0.00002260,-0.00001452,-0.00009621,-0.00011262,
 -0.00003623,-0.00010540,-0.00005025,0.00008777,0.00011819,0.00074705,0
 .00062864,-0.00363511,0.00024901,0.00010075,0.00006967,0.00016711,0.00
 003753,-0.00003360,0.08340156,-0.06179214,0.09301350,0.00017609,-0.000
 39784,-0.00035957,0.00019395,-0.00119028,0.00010796,0.00041197,0.00032
 370,0.00036964,-0.00304863,0.00054503,-0.00191704,-0.00484788,0.000337
 22,0.00553357,0.00300937,0.00402273,0.02756042,-0.04612824,0.00137557,
 -0.01649319,-0.00026603,-0.00113778,-0.00511128,-0.00120969,-0.0004123
 4,-0.00116887,0.00013310,-0.00013253,-0.00005352,0.00001207,-0.0000216
 0,-0.00006073,0.00001282,-0.00008522,-0.00023541,0.00072799,-0.0003391
 4,-0.00050412,0.00044112,-0.00017600,-0.00002037,0.00175958,-0.0010226
 9,-0.00027721,-0.00060405,-0.00415684,-0.02391957,0.04891204,-0.000683
 28,0.00024416,-0.00076446,0.00073016,-0.00699489,0.00265535,0.00010596
 ,0.00166026,0.00031962,-0.00124212,-0.00147815,-0.00024166,-0.00205398
 ,0.00004466,0.00317938,0.00251707,0.00065982,0.00940434,0.00062519,-0.
 04906300,-0.04022428,-0.00237101,-0.00779526,-0.03615051,-0.00036714,0
 .00134635,0.00133665,0.00043241,-0.00003007,0.00023457,-0.00000289,0.0
 0005722,0.00010002,0.00054472,-0.00036033,-0.00136363,-0.00007833,0.00
 058761,-0.00011862,-0.00012055,0.00023279,0.00005528,0.00066989,0.0006
 4953,-0.00045494,0.00054320,0.00319839,0.01725166,0.00120669,0.0551541
 6,0.00038000,0.00009047,0.00010304,-0.00069096,0.00001802,0.00194454,0
 .00006747,-0.00033940,0.00048104,0.00058658,0.00048713,0.00116155,0.00
 213274,-0.00037604,-0.00102274,-0.00269531,-0.00150044,-0.01227948,-0.
 01622557,-0.03909728,-0.30344322,-0.00092450,-0.00142923,-0.00453179,0
 .00072750,0.00042002,0.00011836,0.00005894,0.00001810,0.00006466,0.000
 01942,-0.00005381,0.00004644,0.00017444,-0.00011463,-0.00029128,0.0001
 7923,-0.00023329,0.00005700,0.00011168,-0.00007112,-0.00008143,-0.0001
 2463,0.00057816,0.00122205,-0.00037742,-0.00199241,-0.01127898,0.01636
 846,0.04406891,0.32674495,-0.00012699,-0.00067305,0.00008723,0.0020953
 3,0.00626111,-0.00174295,-0.00023240,0.00081053,-0.00303880,-0.0013047
 5,-0.00098986,-0.00031591,0.00088790,-0.00086875,0.00139889,-0.0038627
 5,-0.00129328,0.00039058,0.00211265,0.00171923,-0.00544795,-0.11423594
 ,-0.08147595,0.07834094,0.00021312,-0.01713685,0.01496217,-0.00019939,
 0.00067536,0.00076784,0.00014359,0.00037861,0.00036093,0.00065039,0.00
 015263,0.00080186,0.00015557,0.00003160,0.00008206,0.00011374,0.000067
 10,-0.00000089,0.00057360,-0.00143058,0.00002862,0.00003919,0.00066473
 ,-0.00026860,0.00024655,-0.00096027,-0.00010703,0.11083335,0.00051622,
 -0.00135361,-0.00013445,0.00342934,0.00374992,-0.00483806,0.00072324,0
 .00109365,-0.00066620,-0.00042139,-0.00069745,-0.00088594,-0.00002213,
 0.00048295,0.00061517,-0.00237286,-0.00555770,-0.00232347,-0.01352149,
 -0.00959865,0.01721583,-0.08010794,-0.15867783,0.10286677,-0.00005258,
 0.00058298,-0.00392551,0.00012959,-0.00019156,-0.00017768,0.00046495,0
 .00008419,-0.00016009,-0.00024973,0.00113332,0.00034128,-0.00005896,0.
 00015014,-0.00000841,0.00005542,0.00017933,0.00010844,-0.00153479,-0.0
 0012940,0.00083077,-0.00035783,-0.00132491,0.00021168,0.00043874,0.001
 95535,-0.00026550,0.09353752,0.16761571,0.00084541,-0.00219083,-0.0018
 6986,0.01261890,0.01903058,-0.00803439,0.00028684,0.00130674,-0.005786
 03,-0.00109618,-0.00234168,-0.00054226,0.00011307,-0.00017018,0.001052
 69,-0.00077244,-0.00190003,0.00063169,-0.00438045,-0.00593451,0.004850
 77,0.07911388,0.10484553,-0.14343710,-0.00241997,-0.00426384,0.0016987
 0,0.00065572,-0.00028696,0.00000722,0.00090173,-0.00017217,-0.00008398
 ,-0.00102345,0.00009869,0.00147956,-0.00002329,0.00023527,0.00002991,0
 .00019729,0.00034333,0.00001362,-0.00041994,-0.00035143,0.00009931,-0.
 00004099,-0.00015795,-0.00003218,0.00009977,0.00077862,0.00087402,-0.0
 8529128,-0.10905924,0.14871313,0.00258490,-0.00357670,0.00292316,-0.00
 391238,-0.00009692,-0.00058507,0.00033111,0.00073407,-0.00162729,-0.00
 129290,-0.00104152,-0.00008907,0.00074649,-0.00208925,0.00167802,0.001
 08688,0.00008147,0.00352402,-0.00068915,-0.00035847,-0.00071317,-0.004
 16664,0.00776196,-0.02024061,-0.15277042,0.04601997,-0.12187104,0.0001
 5366,0.00006491,0.00071125,0.00026585,-0.00047945,-0.00080180,0.000318
 68,-0.00038562,-0.00111932,0.00003695,0.00004921,0.00000548,0.00015717
 ,0.00012483,0.00008463,0.00049241,0.00072684,-0.00022592,-0.00020152,0
 .00094370,0.00059548,0.00006788,0.00050429,0.00033895,0.00189723,-0.00
 059531,0.00063537,0.15489381,-0.01068054,0.00542824,-0.00964129,-0.001
 81559,-0.00157322,-0.00328981,-0.00056080,0.00124921,-0.00076595,-0.00
 211552,-0.00207180,-0.00069213,0.00267736,-0.00459751,0.00406262,0.016
 18407,0.00058247,0.01926097,0.00069233,-0.00201175,-0.00117431,-0.0029
 5418,-0.00046931,-0.00534558,0.04644326,-0.06627603,0.05338827,-0.0003
 2095,-0.00029828,-0.00059404,0.00031640,0.00096161,0.00108190,-0.00085
 075,0.00003408,-0.00039526,0.00028770,0.00013493,0.00009339,0.00027797
 ,0.00014500,0.00017475,-0.00113648,0.00158595,-0.00019693,0.00059097,-
 0.00002981,-0.00057333,0.00082259,-0.00006861,-0.00020766,0.00053016,0
 .00050360,0.00019006,-0.04838800,0.06677123,-0.01386265,0.01054250,-0.
 00914705,-0.00071453,-0.00402018,-0.00299028,-0.00059822,0.00093074,0.
 00050840,0.00024277,-0.00053559,0.00020654,0.00023815,0.00186062,-0.00
 064592,-0.00147645,-0.00276041,-0.00304791,0.00013414,0.00045106,-0.00
 035871,0.00260577,-0.00414123,0.00600059,-0.12105195,0.05267490,-0.197
 79844,-0.00056643,-0.00029737,-0.00124092,0.00058196,0.00003391,0.0016
 1747,-0.00132983,0.00037182,0.00008947,-0.00006913,0.00009138,-0.00000
 470,-0.00001319,0.00005016,-0.00005452,0.00008418,0.00025997,0.0007718
 9,-0.00005488,-0.00032490,-0.00015301,0.00008104,-0.00006631,0.0001112
 9,-0.00100770,0.00025460,0.00033517,0.13677692,-0.05537567,0.20580062\
 \0.00000299,-0.00005958,0.00000661,-0.00003396,-0.00001853,-0.00003087
 ,0.00002543,-0.00009282,0.00000995,-0.00005287,-0.00001067,0.00001720,
 0.00008783,0.00004157,0.00002729,-0.00015923,-0.00012098,-0.00013368,0
 .00004323,-0.00001963,0.00000632,0.00002500,0.00011235,0.00012501,0.00
 007404,0.00014653,-0.00003425,0.00001899,0.00002483,-0.00000067,-0.000
 00995,0.00000010,0.00001392,-0.00001235,0.00000008,-0.00000312,-0.0000
 0974,0.00002371,0.00001577,-0.00000108,-0.00001615,0.00000598,0.000000
 28,0.00000672,-0.00000996,0.00000548,-0.00003753,-0.00000847,-0.000019
 39,0.00001822,0.00000878,-0.00000316,0.00000930,-0.00000608,0.00001845
 ,-0.00000749,-0.00000972\\\@


 IF YOU DON'T HAVE THE LAW - ARGUE THE FACTS.
 IF YOU DON'T HAVE THE FACTS - ARGUE THE LAW.
 IF YOU DON'T HAVE EITHER - POUND THE TABLE.
 Job cpu time:       0 days  2 hours 26 minutes 49.1 seconds.
 File lengths (MBytes):  RWF=    152 Int=      0 D2E=      0 Chk=      8 Scr=      1
 Normal termination of Gaussian 09 at Mon Jan 27 13:59:34 2020.
