 Entering Gaussian System, Link 0=/home/puck/opt/gaussian_09/g09
 Input=dsC7O2H10nsd_2444.com
 Output=dsC7O2H10nsd_2444.log
 Initial command:
 /home/puck/opt/gaussian_09/l1.exe "/scratch/puck/g09_3ac340d1-bc08-4496-b4e8-7a4160866d71/Gau-64636.inp" -scrdir="/scratch/puck/g09_3ac340d1-bc08-4496-b4e8-7a4160866d71/"
 Entering Link 1 = /home/puck/opt/gaussian_09/l1.exe PID=     64637.
  
 Copyright (c) 1988,1990,1992,1993,1995,1998,2003,2009,2013,
            Gaussian, Inc.  All Rights Reserved.
  
 This is part of the Gaussian(R) 09 program.  It is based on
 the Gaussian(R) 03 system (copyright 2003, Gaussian, Inc.),
 the Gaussian(R) 98 system (copyright 1998, Gaussian, Inc.),
 the Gaussian(R) 94 system (copyright 1995, Gaussian, Inc.),
 the Gaussian 92(TM) system (copyright 1992, Gaussian, Inc.),
 the Gaussian 90(TM) system (copyright 1990, Gaussian, Inc.),
 the Gaussian 88(TM) system (copyright 1988, Gaussian, Inc.),
 the Gaussian 86(TM) system (copyright 1986, Carnegie Mellon
 University), and the Gaussian 82(TM) system (copyright 1983,
 Carnegie Mellon University). Gaussian is a federally registered
 trademark of Gaussian, Inc.
  
 This software contains proprietary and confidential information,
 including trade secrets, belonging to Gaussian, Inc.
  
 This software is provided under written license and may be
 used, copied, transmitted, or stored only in accord with that
 written license.
  
 The following legend is applicable only to US Government
 contracts under FAR:
  
                    RESTRICTED RIGHTS LEGEND
  
 Use, reproduction and disclosure by the US Government is
 subject to restrictions as set forth in subparagraphs (a)
 and (c) of the Commercial Computer Software - Restricted
 Rights clause in FAR 52.227-19.
  
 Gaussian, Inc.
 340 Quinnipiac St., Bldg. 40, Wallingford CT 06492
  
  
 ---------------------------------------------------------------
 Warning -- This program may not be used in any manner that
 competes with the business of Gaussian, Inc. or will provide
 assistance to any competitor of Gaussian, Inc.  The licensee
 of this program is prohibited from giving any competitor of
 Gaussian, Inc. access to this program.  By using this program,
 the user acknowledges that Gaussian, Inc. is engaged in the
 business of creating and licensing software in the field of
 computational chemistry and represents and warrants to the
 licensee that it is not a competitor of Gaussian, Inc. and that
 it will not use this program in any manner prohibited above.
 ---------------------------------------------------------------
  

 Cite this work as:
 Gaussian 09, Revision D.01,
 M. J. Frisch, G. W. Trucks, H. B. Schlegel, G. E. Scuseria, 
 M. A. Robb, J. R. Cheeseman, G. Scalmani, V. Barone, B. Mennucci, 
 G. A. Petersson, H. Nakatsuji, M. Caricato, X. Li, H. P. Hratchian, 
 A. F. Izmaylov, J. Bloino, G. Zheng, J. L. Sonnenberg, M. Hada, 
 M. Ehara, K. Toyota, R. Fukuda, J. Hasegawa, M. Ishida, T. Nakajima, 
 Y. Honda, O. Kitao, H. Nakai, T. Vreven, J. A. Montgomery, Jr., 
 J. E. Peralta, F. Ogliaro, M. Bearpark, J. J. Heyd, E. Brothers, 
 K. N. Kudin, V. N. Staroverov, T. Keith, R. Kobayashi, J. Normand, 
 K. Raghavachari, A. Rendell, J. C. Burant, S. S. Iyengar, J. Tomasi, 
 M. Cossi, N. Rega, J. M. Millam, M. Klene, J. E. Knox, J. B. Cross, 
 V. Bakken, C. Adamo, J. Jaramillo, R. Gomperts, R. E. Stratmann, 
 O. Yazyev, A. J. Austin, R. Cammi, C. Pomelli, J. W. Ochterski, 
 R. L. Martin, K. Morokuma, V. G. Zakrzewski, G. A. Voth, 
 P. Salvador, J. J. Dannenberg, S. Dapprich, A. D. Daniels, 
 O. Farkas, J. B. Foresman, J. V. Ortiz, J. Cioslowski, 
 and D. J. Fox, Gaussian, Inc., Wallingford CT, 2013.
 
 ******************************************
 Gaussian 09:  ES64L-G09RevD.01 24-Apr-2013
                27-Jan-2020 
 ******************************************
 -----------------------------
 # b3lyp 6-31G(2df,p) opt Freq
 -----------------------------
 1/14=-1,18=20,19=15,26=3,38=1/1,3;
 2/9=110,12=2,17=6,18=5,40=1/2;
 3/5=1,6=6,7=104,11=2,16=1,25=1,30=1,71=1,74=-5/1,2,3;
 4//1;
 5/5=2,38=5/2;
 6/7=2,8=2,9=2,10=2,28=1/1;
 7//1,2,3,16;
 1/14=-1,18=20,19=15,26=3/3(2);
 2/9=110/2;
 99//99;
 2/9=110/2;
 3/5=1,6=6,7=104,11=2,16=1,25=1,30=1,71=1,74=-5/1,2,3;
 4/5=5,16=3,69=1/1;
 5/5=2,38=5/2;
 7//1,2,3,16;
 1/14=-1,18=20,19=15,26=3/3(-5);
 2/9=110/2;
 6/7=2,8=2,9=2,10=2,19=2,28=1/1;
 99/9=1/99;
 -----
 titel
 -----
 Symbolic Z-matrix:
 Charge =  0 Multiplicity = 1
 C                     0.80289   2.02516  -1.84957 
 C                     0.8976    1.91555  -0.3572 
 O                     0.04249   2.81069   0.33027 
 C                    -0.21266   2.25969   1.6269 
 C                     0.87781   1.21654   1.79805 
 O                     2.15481   1.92237   1.7105 
 C                     2.22149   1.58166   0.32644 
 C                     1.05955   0.61035   0.38017 
 C                     0.81892  -0.79768  -0.07117 
 H                     1.53473   1.37267  -2.33514 
 H                    -0.19571   1.74783  -2.20247 
 H                     1.00326   3.05329  -2.16615 
 H                    -0.13909   3.05817   2.3712 
 H                    -1.21853   1.81152   1.67192 
 H                     0.81535   0.56605   2.67235 
 H                     3.19757   1.54485  -0.14737 
 H                     1.40676  -1.51418   0.51331 
 H                    -0.23834  -1.07194   0.02653 
 H                     1.09209  -0.92411  -1.12355 
 

 GradGradGradGradGradGradGradGradGradGradGradGradGradGradGradGradGradGrad
 Berny optimization.
 Initialization pass.
                           ----------------------------
                           !    Initial Parameters    !
                           ! (Angstroms and Degrees)  !
 --------------------------                            --------------------------
 ! Name  Definition              Value          Derivative Info.                !
 --------------------------------------------------------------------------------
 ! R1    R(1,2)                  1.4994         estimate D2E/DX2                !
 ! R2    R(1,10)                 1.0941         estimate D2E/DX2                !
 ! R3    R(1,11)                 1.0948         estimate D2E/DX2                !
 ! R4    R(1,12)                 1.0943         estimate D2E/DX2                !
 ! R5    R(2,3)                  1.416          estimate D2E/DX2                !
 ! R6    R(2,7)                  1.5269         estimate D2E/DX2                !
 ! R7    R(2,8)                  1.5078         estimate D2E/DX2                !
 ! R8    R(3,4)                  1.4318         estimate D2E/DX2                !
 ! R9    R(4,5)                  1.5187         estimate D2E/DX2                !
 ! R10   R(4,13)                 1.0941         estimate D2E/DX2                !
 ! R11   R(4,14)                 1.1021         estimate D2E/DX2                !
 ! R12   R(5,6)                  1.4617         estimate D2E/DX2                !
 ! R13   R(5,8)                  1.5527         estimate D2E/DX2                !
 ! R14   R(5,15)                 1.0915         estimate D2E/DX2                !
 ! R15   R(6,7)                  1.4269         estimate D2E/DX2                !
 ! R16   R(7,8)                  1.5154         estimate D2E/DX2                !
 ! R17   R(7,16)                 1.0856         estimate D2E/DX2                !
 ! R18   R(8,9)                  1.4981         estimate D2E/DX2                !
 ! R19   R(9,17)                 1.0957         estimate D2E/DX2                !
 ! R20   R(9,18)                 1.0966         estimate D2E/DX2                !
 ! R21   R(9,19)                 1.0946         estimate D2E/DX2                !
 ! A1    A(2,1,10)             110.8467         estimate D2E/DX2                !
 ! A2    A(2,1,11)             111.0955         estimate D2E/DX2                !
 ! A3    A(2,1,12)             110.1859         estimate D2E/DX2                !
 ! A4    A(10,1,11)            108.4201         estimate D2E/DX2                !
 ! A5    A(10,1,12)            108.0257         estimate D2E/DX2                !
 ! A6    A(11,1,12)            108.1656         estimate D2E/DX2                !
 ! A7    A(1,2,3)              113.5072         estimate D2E/DX2                !
 ! A8    A(1,2,7)              121.0895         estimate D2E/DX2                !
 ! A9    A(1,2,8)              123.8355         estimate D2E/DX2                !
 ! A10   A(3,2,7)              116.3883         estimate D2E/DX2                !
 ! A11   A(3,2,8)              112.0025         estimate D2E/DX2                !
 ! A12   A(2,3,4)              107.6987         estimate D2E/DX2                !
 ! A13   A(3,4,5)              103.7937         estimate D2E/DX2                !
 ! A14   A(3,4,13)             108.8595         estimate D2E/DX2                !
 ! A15   A(3,4,14)             110.8624         estimate D2E/DX2                !
 ! A16   A(5,4,13)             112.1074         estimate D2E/DX2                !
 ! A17   A(5,4,14)             111.8018         estimate D2E/DX2                !
 ! A18   A(13,4,14)            109.2913         estimate D2E/DX2                !
 ! A19   A(4,5,6)              106.7898         estimate D2E/DX2                !
 ! A20   A(4,5,8)              104.4355         estimate D2E/DX2                !
 ! A21   A(4,5,15)             117.2903         estimate D2E/DX2                !
 ! A22   A(6,5,8)               91.8095         estimate D2E/DX2                !
 ! A23   A(6,5,15)             112.6894         estimate D2E/DX2                !
 ! A24   A(8,5,15)             120.3625         estimate D2E/DX2                !
 ! A25   A(5,6,7)               89.0616         estimate D2E/DX2                !
 ! A26   A(2,7,6)              109.9702         estimate D2E/DX2                !
 ! A27   A(2,7,16)             126.267          estimate D2E/DX2                !
 ! A28   A(6,7,8)               94.7503         estimate D2E/DX2                !
 ! A29   A(6,7,16)             118.2577         estimate D2E/DX2                !
 ! A30   A(8,7,16)             133.0892         estimate D2E/DX2                !
 ! A31   A(2,8,5)               95.5117         estimate D2E/DX2                !
 ! A32   A(2,8,9)              130.4676         estimate D2E/DX2                !
 ! A33   A(5,8,7)               82.6396         estimate D2E/DX2                !
 ! A34   A(5,8,9)              128.5557         estimate D2E/DX2                !
 ! A35   A(7,8,9)              135.6365         estimate D2E/DX2                !
 ! A36   A(8,9,17)             111.5763         estimate D2E/DX2                !
 ! A37   A(8,9,18)             111.2898         estimate D2E/DX2                !
 ! A38   A(8,9,19)             110.9864         estimate D2E/DX2                !
 ! A39   A(17,9,18)            107.8291         estimate D2E/DX2                !
 ! A40   A(17,9,19)            107.6644         estimate D2E/DX2                !
 ! A41   A(18,9,19)            107.3001         estimate D2E/DX2                !
 ! D1    D(10,1,2,3)           175.5834         estimate D2E/DX2                !
 ! D2    D(10,1,2,7)            29.6641         estimate D2E/DX2                !
 ! D3    D(10,1,2,8)           -42.8414         estimate D2E/DX2                !
 ! D4    D(11,1,2,3)           -63.799          estimate D2E/DX2                !
 ! D5    D(11,1,2,7)           150.2818         estimate D2E/DX2                !
 ! D6    D(11,1,2,8)            77.7763         estimate D2E/DX2                !
 ! D7    D(12,1,2,3)            56.0593         estimate D2E/DX2                !
 ! D8    D(12,1,2,7)           -89.8599         estimate D2E/DX2                !
 ! D9    D(12,1,2,8)          -162.3654         estimate D2E/DX2                !
 ! D10   D(1,2,3,4)            155.826          estimate D2E/DX2                !
 ! D11   D(7,2,3,4)            -56.5646         estimate D2E/DX2                !
 ! D12   D(8,2,3,4)              9.6596         estimate D2E/DX2                !
 ! D13   D(1,2,7,6)            162.7456         estimate D2E/DX2                !
 ! D14   D(1,2,7,16)             9.6997         estimate D2E/DX2                !
 ! D15   D(3,2,7,6)             17.7491         estimate D2E/DX2                !
 ! D16   D(3,2,7,16)          -135.2968         estimate D2E/DX2                !
 ! D17   D(1,2,8,5)           -172.3722         estimate D2E/DX2                !
 ! D18   D(1,2,8,9)            -17.4963         estimate D2E/DX2                !
 ! D19   D(3,2,8,5)            -30.3006         estimate D2E/DX2                !
 ! D20   D(3,2,8,9)            124.5752         estimate D2E/DX2                !
 ! D21   D(2,3,4,5)             16.8305         estimate D2E/DX2                !
 ! D22   D(2,3,4,13)           136.3926         estimate D2E/DX2                !
 ! D23   D(2,3,4,14)          -103.3564         estimate D2E/DX2                !
 ! D24   D(3,4,5,6)             60.0178         estimate D2E/DX2                !
 ! D25   D(3,4,5,8)            -36.397          estimate D2E/DX2                !
 ! D26   D(3,4,5,15)          -172.4619         estimate D2E/DX2                !
 ! D27   D(13,4,5,6)           -57.3039         estimate D2E/DX2                !
 ! D28   D(13,4,5,8)          -153.7187         estimate D2E/DX2                !
 ! D29   D(13,4,5,15)           70.2163         estimate D2E/DX2                !
 ! D30   D(14,4,5,6)           179.5659         estimate D2E/DX2                !
 ! D31   D(14,4,5,8)            83.151          estimate D2E/DX2                !
 ! D32   D(14,4,5,15)          -52.9139         estimate D2E/DX2                !
 ! D33   D(4,5,6,7)            -95.5744         estimate D2E/DX2                !
 ! D34   D(8,5,6,7)             10.0931         estimate D2E/DX2                !
 ! D35   D(15,5,6,7)           134.2423         estimate D2E/DX2                !
 ! D36   D(4,5,8,2)             38.8489         estimate D2E/DX2                !
 ! D37   D(4,5,8,7)             98.2754         estimate D2E/DX2                !
 ! D38   D(4,5,8,9)           -116.7542         estimate D2E/DX2                !
 ! D39   D(6,5,8,2)            -69.0031         estimate D2E/DX2                !
 ! D40   D(6,5,8,7)             -9.5767         estimate D2E/DX2                !
 ! D41   D(6,5,8,9)            135.3937         estimate D2E/DX2                !
 ! D42   D(15,5,8,2)           173.2361         estimate D2E/DX2                !
 ! D43   D(15,5,8,7)          -127.3374         estimate D2E/DX2                !
 ! D44   D(15,5,8,9)            17.633          estimate D2E/DX2                !
 ! D45   D(5,6,7,2)             48.7623         estimate D2E/DX2                !
 ! D46   D(5,6,7,8)            -10.375          estimate D2E/DX2                !
 ! D47   D(5,6,7,16)          -155.7512         estimate D2E/DX2                !
 ! D48   D(6,7,8,5)              9.8414         estimate D2E/DX2                !
 ! D49   D(6,7,8,9)           -130.2199         estimate D2E/DX2                !
 ! D50   D(16,7,8,5)           146.5816         estimate D2E/DX2                !
 ! D51   D(16,7,8,9)             6.5204         estimate D2E/DX2                !
 ! D52   D(2,8,9,17)           155.9156         estimate D2E/DX2                !
 ! D53   D(2,8,9,18)           -83.5894         estimate D2E/DX2                !
 ! D54   D(2,8,9,19)            35.8374         estimate D2E/DX2                !
 ! D55   D(5,8,9,17)           -56.7973         estimate D2E/DX2                !
 ! D56   D(5,8,9,18)            63.6977         estimate D2E/DX2                !
 ! D57   D(5,8,9,19)          -176.8755         estimate D2E/DX2                !
 ! D58   D(7,8,9,17)            68.6979         estimate D2E/DX2                !
 ! D59   D(7,8,9,18)          -170.807          estimate D2E/DX2                !
 ! D60   D(7,8,9,19)           -51.3803         estimate D2E/DX2                !
 --------------------------------------------------------------------------------
 Trust Radius=3.00D-01 FncErr=1.00D-07 GrdErr=1.00D-06
 Number of steps in this run=    114 maximum allowed number of steps=    114.
 GradGradGradGradGradGradGradGradGradGradGradGradGradGradGradGradGradGrad

                          Input orientation:                          
 ---------------------------------------------------------------------
 Center     Atomic      Atomic             Coordinates (Angstroms)
 Number     Number       Type             X           Y           Z
 ---------------------------------------------------------------------
      1          6           0        0.802886    2.025159   -1.849571
      2          6           0        0.897602    1.915551   -0.357198
      3          8           0        0.042492    2.810692    0.330270
      4          6           0       -0.212658    2.259693    1.626903
      5          6           0        0.877813    1.216544    1.798049
      6          8           0        2.154806    1.922371    1.710505
      7          6           0        2.221493    1.581656    0.326436
      8          6           0        1.059550    0.610351    0.380174
      9          6           0        0.818922   -0.797679   -0.071167
     10          1           0        1.534729    1.372670   -2.335136
     11          1           0       -0.195706    1.747829   -2.202466
     12          1           0        1.003256    3.053286   -2.166147
     13          1           0       -0.139093    3.058172    2.371197
     14          1           0       -1.218530    1.811517    1.671915
     15          1           0        0.815352    0.566052    2.672350
     16          1           0        3.197572    1.544854   -0.147374
     17          1           0        1.406758   -1.514182    0.513310
     18          1           0       -0.238345   -1.071936    0.026532
     19          1           0        1.092090   -0.924110   -1.123547
 ---------------------------------------------------------------------
                    Distance matrix (angstroms):
                    1          2          3          4          5
     1  C    0.000000
     2  C    1.499388   0.000000
     3  O    2.438641   1.416016   0.000000
     4  C    3.629354   2.299515   1.431768   0.000000
     5  C    3.736925   2.265854   2.322379   1.518742   0.000000
     6  O    3.809514   2.419918   2.675076   2.392835   1.461699
     7  C    2.635176   1.526935   2.501718   2.841838   2.025939
     8  C    2.653172   1.507810   2.424540   2.427586   1.552697
     9  C    3.336375   2.729400   3.712726   3.646248   2.748551
    10  H    1.094125   2.147764   3.376250   4.420172   4.187975
    11  H    1.094821   2.151387   2.757021   3.863465   4.175982
    12  H    1.094264   2.139603   2.685893   4.061462   4.370837
    13  H    4.446271   3.134399   2.063881   1.094054   2.180410
    14  H    4.066035   2.933622   2.094884   1.102120   2.182787
    15  H    4.751517   3.317540   3.334825   2.240129   1.091532
    16  H    2.977027   2.339082   3.432932   3.910079   3.045281
    17  H    4.298233   3.574926   4.538641   4.254965   3.063854
    18  H    3.767747   3.219115   3.904602   3.696160   3.101810
    19  H    3.051055   2.947676   4.142944   4.404991   3.628228
                    6          7          8          9         10
     6  O    0.000000
     7  C    1.426948   0.000000
     8  C    2.165816   1.515398   0.000000
     9  C    3.515340   2.790436   1.498052   0.000000
    10  H    4.129634   2.756680   2.860040   3.216886   0.000000
    11  H    4.568009   3.502258   3.088616   3.471530   1.775599
    12  H    4.199222   3.140505   3.529143   4.387808   1.770732
    13  H    2.643582   3.454492   3.375314   4.663745   5.271828
    14  H    3.375378   3.700934   2.881154   3.741317   4.881545
    15  H    2.135154   2.917532   2.305573   3.063765   5.122797
    16  H    2.163699   1.085624   2.392225   3.339349   2.753361
    17  H    3.715205   3.206701   2.156831   1.095692   4.057578
    18  H    4.186742   3.630743   2.153992   1.096619   3.833714
    19  H    4.154957   3.107550   2.148676   1.094582   2.634213
                   11         12         13         14         15
    11  H    0.000000
    12  H    1.772864   0.000000
    13  H    4.758003   4.678940   0.000000
    14  H    4.007625   4.605329   1.791181   0.000000
    15  H    5.116899   5.443592   2.685575   2.586257   0.000000
    16  H    3.972271   3.341532   4.445971   4.783606   3.818883
    17  H    4.536964   5.310751   5.171829   4.392582   3.055910
    18  H    3.594624   4.833929   4.750273   3.461553   3.285366
    19  H    3.156223   4.112735   5.439450   4.542822   4.087297
                   16         17         18         19
    16  H    0.000000
    17  H    3.605721   0.000000
    18  H    4.322425   1.771693   0.000000
    19  H    3.388474   1.768192   1.764820   0.000000
 Stoichiometry    C7H10O2
 Framework group  C1[X(C7H10O2)]
 Deg. of freedom    51
 Full point group                 C1      NOp   1
 Largest Abelian subgroup         C1      NOp   1
 Largest concise Abelian subgroup C1      NOp   1
                         Standard orientation:                         
 ---------------------------------------------------------------------
 Center     Atomic      Atomic             Coordinates (Angstroms)
 Number     Number       Type             X           Y           Z
 ---------------------------------------------------------------------
      1          6           0       -1.970966   -1.203372    0.125334
      2          6           0       -0.583524   -0.634948    0.117436
      3          8           0        0.371141   -1.483811   -0.493422
      4          6           0        1.453832   -0.664840   -0.948422
      5          6           0        1.265258    0.638151   -0.191300
      6          8           0        1.343188    0.314546    1.231996
      7          6           0       -0.081059    0.234425    1.267762
      8          6           0       -0.274603    0.822386   -0.115449
      9          6           0       -1.114945    1.911741   -0.708148
     10          1           0       -2.656140   -0.550399    0.674217
     11          1           0       -2.352151   -1.326539   -0.893568
     12          1           0       -1.974684   -2.183559    0.611784
     13          1           0        2.398630   -1.155040   -0.695409
     14          1           0        1.401677   -0.515701   -2.039158
     15          1           0        1.908133    1.475595   -0.468500
     16          1           0       -0.581121    0.393979    2.218057
     17          1           0       -0.792919    2.901124   -0.364692
     18          1           0       -1.063139    1.903287   -1.803510
     19          1           0       -2.166873    1.790114   -0.431084
 ---------------------------------------------------------------------
 Rotational constants (GHZ):      2.2162632      1.9670661      1.5537507
 Standard basis: 6-31G(2df,p) (6D, 7F)
 There are   329 symmetry adapted cartesian basis functions of A   symmetry.
 There are   302 symmetry adapted basis functions of A   symmetry.
   302 basis functions,   466 primitive gaussians,   329 cartesian basis functions
    34 alpha electrons       34 beta electrons
       nuclear repulsion energy       487.9710602655 Hartrees.
 NAtoms=   19 NActive=   19 NUniq=   19 SFac= 1.00D+00 NAtFMM=   60 NAOKFM=F Big=F
 Integral buffers will be    131072 words long.
 Raffenetti 2 integral format.
 Two-electron integral symmetry is turned on.
 One-electron integrals computed using PRISM.
 NBasis=   302 RedAO= T EigKep=  3.78D-04  NBF=   302
 NBsUse=   302 1.00D-06 EigRej= -1.00D+00 NBFU=   302
 ExpMin= 1.61D-01 ExpMax= 5.48D+03 ExpMxC= 8.25D+02 IAcc=1 IRadAn=         1 AccDes= 0.00D+00
 Harris functional with IExCor=  402 and IRadAn=       1 diagonalized for initial guess.
 HarFok:  IExCor=  402 AccDes= 0.00D+00 IRadAn=         1 IDoV= 1 UseB2=F ITyADJ=14
 ICtDFT=  3500011 ScaDFX=  1.000000  1.000000  1.000000  1.000000
 FoFCou: FMM=F IPFlag=           0 FMFlag=      100000 FMFlg1=           0
         NFxFlg=           0 DoJE=T BraDBF=F KetDBF=T FulRan=T
         wScrn=  0.000000 ICntrl=     500 IOpCl=  0 I1Cent=   200000004 NGrid=           0
         NMat0=    1 NMatS0=      1 NMatT0=    0 NMatD0=    1 NMtDS0=    0 NMtDT0=    0
 Petite list used in FoFCou.
 Requested convergence on RMS density matrix=1.00D-08 within 128 cycles.
 Requested convergence on MAX density matrix=1.00D-06.
 Requested convergence on             energy=1.00D-06.
 No special actions if energy rises.
 Integral accuracy reduced to 1.0D-05 until final iterations.
 Initial convergence to 1.0D-05 achieved.  Increase integral accuracy.
 SCF Done:  E(RB3LYP) =  -423.146686683     A.U. after   13 cycles
            NFock= 13  Conv=0.75D-08     -V/T= 2.0074

 **********************************************************************

            Population analysis using the SCF density.

 **********************************************************************

 Orbital symmetries:
       Occupied  (A) (A) (A) (A) (A) (A) (A) (A) (A) (A) (A) (A)
                 (A) (A) (A) (A) (A) (A) (A) (A) (A) (A) (A) (A)
                 (A) (A) (A) (A) (A) (A) (A) (A) (A) (A)
       Virtual   (A) (A) (A) (A) (A) (A) (A) (A) (A) (A) (A) (A)
                 (A) (A) (A) (A) (A) (A) (A) (A) (A) (A) (A) (A)
                 (A) (A) (A) (A) (A) (A) (A) (A) (A) (A) (A) (A)
                 (A) (A) (A) (A) (A) (A) (A) (A) (A) (A) (A) (A)
                 (A) (A) (A) (A) (A) (A) (A) (A) (A) (A) (A) (A)
                 (A) (A) (A) (A) (A) (A) (A) (A) (A) (A) (A) (A)
                 (A) (A) (A) (A) (A) (A) (A) (A) (A) (A) (A) (A)
                 (A) (A) (A) (A) (A) (A) (A) (A) (A) (A) (A) (A)
                 (A) (A) (A) (A) (A) (A) (A) (A) (A) (A) (A) (A)
                 (A) (A) (A) (A) (A) (A) (A) (A) (A) (A) (A) (A)
                 (A) (A) (A) (A) (A) (A) (A) (A) (A) (A) (A) (A)
                 (A) (A) (A) (A) (A) (A) (A) (A) (A) (A) (A) (A)
                 (A) (A) (A) (A) (A) (A) (A) (A) (A) (A) (A) (A)
                 (A) (A) (A) (A) (A) (A) (A) (A) (A) (A) (A) (A)
                 (A) (A) (A) (A) (A) (A) (A) (A) (A) (A) (A) (A)
                 (A) (A) (A) (A) (A) (A) (A) (A) (A) (A) (A) (A)
                 (A) (A) (A) (A) (A) (A) (A) (A) (A) (A) (A) (A)
                 (A) (A) (A) (A) (A) (A) (A) (A) (A) (A) (A) (A)
                 (A) (A) (A) (A) (A) (A) (A) (A) (A) (A) (A) (A)
                 (A) (A) (A) (A) (A) (A) (A) (A) (A) (A) (A) (A)
                 (A) (A) (A) (A) (A) (A) (A) (A) (A) (A) (A) (A)
                 (A) (A) (A) (A) (A) (A) (A) (A) (A) (A) (A) (A)
                 (A) (A) (A) (A)
 The electronic state is 1-A.
 Alpha  occ. eigenvalues --  -19.13788 -19.13583 -10.24081 -10.23736 -10.23261
 Alpha  occ. eigenvalues --  -10.22753 -10.19677 -10.19052 -10.18477  -1.07260
 Alpha  occ. eigenvalues --   -1.01186  -0.83672  -0.76243  -0.71337  -0.70692
 Alpha  occ. eigenvalues --   -0.63515  -0.54990  -0.54274  -0.50116  -0.49945
 Alpha  occ. eigenvalues --   -0.45858  -0.44212  -0.42321  -0.41417  -0.40712
 Alpha  occ. eigenvalues --   -0.40004  -0.38994  -0.38237  -0.35466  -0.33213
 Alpha  occ. eigenvalues --   -0.31229  -0.29732  -0.24454  -0.21075
 Alpha virt. eigenvalues --    0.07393   0.09661   0.10440   0.12009   0.12977
 Alpha virt. eigenvalues --    0.13393   0.14252   0.14388   0.15216   0.16612
 Alpha virt. eigenvalues --    0.17530   0.18141   0.19097   0.21128   0.21920
 Alpha virt. eigenvalues --    0.22761   0.24132   0.25886   0.29398   0.32147
 Alpha virt. eigenvalues --    0.36512   0.38876   0.41621   0.44215   0.44918
 Alpha virt. eigenvalues --    0.45998   0.47127   0.49035   0.50238   0.51605
 Alpha virt. eigenvalues --    0.54088   0.55732   0.57825   0.58360   0.60683
 Alpha virt. eigenvalues --    0.62593   0.63750   0.65075   0.66702   0.68698
 Alpha virt. eigenvalues --    0.70204   0.71071   0.71982   0.73571   0.74618
 Alpha virt. eigenvalues --    0.75401   0.75790   0.77894   0.78582   0.80837
 Alpha virt. eigenvalues --    0.83016   0.83390   0.84660   0.88113   0.89593
 Alpha virt. eigenvalues --    0.91694   0.93602   0.94530   0.96712   1.00783
 Alpha virt. eigenvalues --    1.02582   1.06870   1.08889   1.10687   1.14587
 Alpha virt. eigenvalues --    1.16759   1.18347   1.20583   1.21147   1.25565
 Alpha virt. eigenvalues --    1.27098   1.29687   1.30052   1.32227   1.36014
 Alpha virt. eigenvalues --    1.36150   1.39341   1.40750   1.42278   1.43180
 Alpha virt. eigenvalues --    1.45687   1.47985   1.49762   1.50829   1.52152
 Alpha virt. eigenvalues --    1.53085   1.56192   1.56871   1.58658   1.60047
 Alpha virt. eigenvalues --    1.61474   1.63731   1.65169   1.66743   1.69138
 Alpha virt. eigenvalues --    1.72673   1.75112   1.78033   1.80270   1.82611
 Alpha virt. eigenvalues --    1.86695   1.87863   1.90347   1.93230   1.94794
 Alpha virt. eigenvalues --    1.95659   1.96530   2.00925   2.01262   2.08945
 Alpha virt. eigenvalues --    2.10038   2.14616   2.19846   2.24326   2.27867
 Alpha virt. eigenvalues --    2.32587   2.33320   2.35769   2.37704   2.42158
 Alpha virt. eigenvalues --    2.47447   2.48155   2.52602   2.55777   2.57732
 Alpha virt. eigenvalues --    2.61320   2.64642   2.67288   2.72561   2.74171
 Alpha virt. eigenvalues --    2.75699   2.77670   2.79348   2.82192   2.83280
 Alpha virt. eigenvalues --    2.84841   2.87753   2.89309   2.90151   2.91378
 Alpha virt. eigenvalues --    2.94085   2.96463   2.97795   3.01126   3.04458
 Alpha virt. eigenvalues --    3.05148   3.09595   3.12251   3.13846   3.14634
 Alpha virt. eigenvalues --    3.15864   3.19270   3.21574   3.25260   3.27977
 Alpha virt. eigenvalues --    3.30463   3.31403   3.33168   3.35638   3.39292
 Alpha virt. eigenvalues --    3.40909   3.42573   3.44132   3.47498   3.49688
 Alpha virt. eigenvalues --    3.51446   3.54775   3.56745   3.62140   3.64844
 Alpha virt. eigenvalues --    3.66252   3.67982   3.70137   3.73107   3.77151
 Alpha virt. eigenvalues --    3.80132   3.82118   3.88028   3.90663   3.92591
 Alpha virt. eigenvalues --    3.95549   3.97200   4.04833   4.07766   4.12777
 Alpha virt. eigenvalues --    4.16340   4.22123   4.23282   4.26628   4.27752
 Alpha virt. eigenvalues --    4.31081   4.35871   4.38159   4.41804   4.42586
 Alpha virt. eigenvalues --    4.44577   4.45320   4.47444   4.49619   4.49871
 Alpha virt. eigenvalues --    4.51848   4.53593   4.55192   4.57147   4.59279
 Alpha virt. eigenvalues --    4.59924   4.61021   4.63268   4.64997   4.66516
 Alpha virt. eigenvalues --    4.67471   4.70072   4.72020   4.73298   4.75416
 Alpha virt. eigenvalues --    4.76373   4.78663   4.78830   4.80899   4.84187
 Alpha virt. eigenvalues --    4.84437   4.88644   4.91600   4.95497   4.98707
 Alpha virt. eigenvalues --    4.99729   5.02401   5.04944   5.07453   5.13245
 Alpha virt. eigenvalues --    5.20150   5.25320   5.29365   5.33554   5.37060
 Alpha virt. eigenvalues --    5.39558   5.45297   5.50886   5.52816   5.59082
 Alpha virt. eigenvalues --    5.60364   5.68583   5.74154   5.78002   5.82601
 Alpha virt. eigenvalues --    5.84766   5.91598   5.93048   5.98313   6.03613
 Alpha virt. eigenvalues --    6.10071   6.10427   6.17997   6.23440   6.30784
 Alpha virt. eigenvalues --    6.50154   6.57721   7.24822   7.36732  10.88643
 Alpha virt. eigenvalues --   11.38737  11.53099  11.63384  12.12269  12.45059
 Alpha virt. eigenvalues --   12.64041  13.51322  13.74486
          Condensed to atoms (all electrons):
               1          2          3          4          5          6
     1  C    5.163171   0.360851  -0.033378   0.005377   0.003081   0.001355
     2  C    0.360851   4.600891   0.405846  -0.124862  -0.003913  -0.035678
     3  O   -0.033378   0.405846   7.707433   0.391135  -0.045038  -0.001005
     4  C    0.005377  -0.124862   0.391135   4.876749   0.328204  -0.020483
     5  C    0.003081  -0.003913  -0.045038   0.328204   4.882682   0.288996
     6  O    0.001355  -0.035678  -0.001005  -0.020483   0.288996   7.813270
     7  C   -0.062097   0.266009  -0.023172  -0.009440  -0.124484   0.346103
     8  C   -0.031873   0.273214  -0.049765   0.003107   0.382123  -0.039186
     9  C   -0.007745  -0.053232   0.001446   0.005698  -0.057387   0.005040
    10  H    0.365674  -0.017010   0.001764  -0.000300   0.000265   0.000044
    11  H    0.356111  -0.011343   0.001607   0.000537  -0.000186  -0.000051
    12  H    0.363618  -0.013667  -0.000328  -0.000157  -0.000096   0.000028
    13  H   -0.000239   0.004814  -0.022402   0.351939  -0.005835  -0.004304
    14  H    0.000283   0.004442  -0.031847   0.331689  -0.027693   0.003462
    15  H   -0.000100   0.003897   0.002686  -0.053020   0.359129  -0.024777
    16  H   -0.002173  -0.048501   0.000794  -0.000546   0.007638  -0.026549
    17  H   -0.000044   0.003446  -0.000048  -0.000187  -0.001386   0.000332
    18  H    0.000784  -0.000409   0.000139   0.000194  -0.002567  -0.000118
    19  H    0.001894  -0.005686  -0.000002  -0.000106   0.003953  -0.000153
               7          8          9         10         11         12
     1  C   -0.062097  -0.031873  -0.007745   0.365674   0.356111   0.363618
     2  C    0.266009   0.273214  -0.053232  -0.017010  -0.011343  -0.013667
     3  O   -0.023172  -0.049765   0.001446   0.001764   0.001607  -0.000328
     4  C   -0.009440   0.003107   0.005698  -0.000300   0.000537  -0.000157
     5  C   -0.124484   0.382123  -0.057387   0.000265  -0.000186  -0.000096
     6  O    0.346103  -0.039186   0.005040   0.000044  -0.000051   0.000028
     7  C    4.989247   0.310087  -0.041805   0.001002   0.003789  -0.003114
     8  C    0.310087   4.719847   0.372526  -0.003276  -0.004867   0.004113
     9  C   -0.041805   0.372526   5.223615  -0.000760   0.002219  -0.000042
    10  H    0.001002  -0.003276  -0.000760   0.589140  -0.030781  -0.029098
    11  H    0.003789  -0.004867   0.002219  -0.030781   0.590941  -0.034770
    12  H   -0.003114   0.004113  -0.000042  -0.029098  -0.034770   0.575252
    13  H    0.001129   0.001138  -0.000128   0.000006   0.000006  -0.000009
    14  H    0.000182  -0.003596  -0.000787  -0.000004  -0.000161   0.000033
    15  H    0.010316  -0.039118  -0.004569  -0.000002  -0.000010   0.000004
    16  H    0.361470  -0.024007  -0.003189   0.000802  -0.000242   0.001270
    17  H   -0.002666  -0.017725   0.364279  -0.000036  -0.000037   0.000004
    18  H    0.004328  -0.014316   0.354771   0.000026  -0.000186  -0.000010
    19  H   -0.003321  -0.010064   0.361735   0.002497   0.000483  -0.000095
              13         14         15         16         17         18
     1  C   -0.000239   0.000283  -0.000100  -0.002173  -0.000044   0.000784
     2  C    0.004814   0.004442   0.003897  -0.048501   0.003446  -0.000409
     3  O   -0.022402  -0.031847   0.002686   0.000794  -0.000048   0.000139
     4  C    0.351939   0.331689  -0.053020  -0.000546  -0.000187   0.000194
     5  C   -0.005835  -0.027693   0.359129   0.007638  -0.001386  -0.002567
     6  O   -0.004304   0.003462  -0.024777  -0.026549   0.000332  -0.000118
     7  C    0.001129   0.000182   0.010316   0.361470  -0.002666   0.004328
     8  C    0.001138  -0.003596  -0.039118  -0.024007  -0.017725  -0.014316
     9  C   -0.000128  -0.000787  -0.004569  -0.003189   0.364279   0.354771
    10  H    0.000006  -0.000004  -0.000002   0.000802  -0.000036   0.000026
    11  H    0.000006  -0.000161  -0.000010  -0.000242  -0.000037  -0.000186
    12  H   -0.000009   0.000033   0.000004   0.001270   0.000004  -0.000010
    13  H    0.605409  -0.051470   0.001492   0.000050  -0.000002  -0.000014
    14  H   -0.051470   0.681808   0.004387   0.000059   0.000048   0.000522
    15  H    0.001492   0.004387   0.652928  -0.000119   0.001390   0.000664
    16  H    0.000050   0.000059  -0.000119   0.633630   0.000703  -0.000053
    17  H   -0.000002   0.000048   0.001390   0.000703   0.593327  -0.035718
    18  H   -0.000014   0.000522   0.000664  -0.000053  -0.035718   0.598297
    19  H    0.000004  -0.000010  -0.000079   0.000386  -0.032490  -0.030565
              19
     1  C    0.001894
     2  C   -0.005686
     3  O   -0.000002
     4  C   -0.000106
     5  C    0.003953
     6  O   -0.000153
     7  C   -0.003321
     8  C   -0.010064
     9  C    0.361735
    10  H    0.002497
    11  H    0.000483
    12  H   -0.000095
    13  H    0.000004
    14  H   -0.000010
    15  H   -0.000079
    16  H    0.000386
    17  H   -0.032490
    18  H   -0.030565
    19  H    0.584790
 Mulliken charges:
               1
     1  C   -0.484548
     2  C    0.390892
     3  O   -0.305865
     4  C   -0.085528
     5  C    0.012514
     6  O   -0.306326
     7  C   -0.023565
     8  C    0.171638
     9  C   -0.521686
    10  H    0.120047
    11  H    0.126941
    12  H    0.137063
    13  H    0.118416
    14  H    0.088654
    15  H    0.084903
    16  H    0.098579
    17  H    0.126810
    18  H    0.124230
    19  H    0.126829
 Sum of Mulliken charges =   0.00000
 Mulliken charges with hydrogens summed into heavy atoms:
               1
     1  C   -0.100496
     2  C    0.390892
     3  O   -0.305865
     4  C    0.121542
     5  C    0.097417
     6  O   -0.306326
     7  C    0.075014
     8  C    0.171638
     9  C   -0.143816
 Electronic spatial extent (au):  <R**2>=            976.2073
 Charge=              0.0000 electrons
 Dipole moment (field-independent basis, Debye):
    X=             -1.2915    Y=              1.5751    Z=             -1.1186  Tot=              2.3238
 Quadrupole moment (field-independent basis, Debye-Ang):
   XX=            -50.8802   YY=            -54.8582   ZZ=            -53.1365
   XY=              0.6261   XZ=             -4.4779   YZ=             -1.4366
 Traceless Quadrupole moment (field-independent basis, Debye-Ang):
   XX=              2.0781   YY=             -1.8999   ZZ=             -0.1782
   XY=              0.6261   XZ=             -4.4779   YZ=             -1.4366
 Octapole moment (field-independent basis, Debye-Ang**2):
  XXX=              7.6633  YYY=              1.7436  ZZZ=              1.9221  XYY=              1.6350
  XXY=             -3.2674  XXZ=             -5.1159  XZZ=             -2.5578  YZZ=             -1.5300
  YYZ=              1.9979  XYZ=             -0.8329
 Hexadecapole moment (field-independent basis, Debye-Ang**3):
 XXXX=           -536.7772 YYYY=           -457.6599 ZZZZ=           -253.7258 XXXY=             -5.1066
 XXXZ=             -6.4137 YYYX=              7.9814 YYYZ=             -1.0675 ZZZX=             -2.5569
 ZZZY=              4.5076 XXYY=           -161.5667 XXZZ=           -140.9719 YYZZ=           -123.1142
 XXYZ=              2.1744 YYXZ=             -0.9647 ZZXY=             -1.8148
 N-N= 4.879710602655D+02 E-N=-1.962621834712D+03  KE= 4.200479208444D+02
 Calling FoFJK, ICntrl=      2127 FMM=F ISym2X=0 I1Cent= 0 IOpClX= 0 NMat=1 NMatS=1 NMatT=0.
 ***** Axes restored to original set *****
 -------------------------------------------------------------------
 Center     Atomic                   Forces (Hartrees/Bohr)
 Number     Number              X              Y              Z
 -------------------------------------------------------------------
      1        6           0.000001947    0.000005040   -0.000030303
      2        6           0.000050392   -0.000022697    0.000020743
      3        8          -0.000037582    0.000001132    0.000011218
      4        6          -0.000022997    0.000006160   -0.000018098
      5        6           0.000017111   -0.000033762    0.000016156
      6        8          -0.000002535   -0.000000079    0.000010507
      7        6           0.000027296    0.000000129   -0.000008649
      8        6          -0.000013135    0.000039940   -0.000004336
      9        6          -0.000007696   -0.000044808   -0.000006285
     10        1           0.000011156   -0.000006188    0.000006213
     11        1           0.000006017   -0.000006759    0.000000535
     12        1           0.000007755   -0.000001761    0.000002517
     13        1           0.000007688    0.000012971    0.000005240
     14        1          -0.000004682    0.000015082   -0.000014378
     15        1          -0.000014829    0.000015761    0.000000946
     16        1          -0.000029688   -0.000007850   -0.000009341
     17        1          -0.000000395    0.000010082    0.000009960
     18        1          -0.000000040    0.000011631    0.000003589
     19        1           0.000004217    0.000005977    0.000003766
 -------------------------------------------------------------------
 Cartesian Forces:  Max     0.000050392 RMS     0.000016947

 GradGradGradGradGradGradGradGradGradGradGradGradGradGradGradGradGradGrad
 Berny optimization.
 FormGI is forming the generalized inverse of G from B-inverse, IUseBI=4.
 Internal  Forces:  Max     0.000026424 RMS     0.000007073
 Search for a local minimum.
 Step number   1 out of a maximum of  114
 All quantities printed in internal units (Hartrees-Bohrs-Radians)
 Mixed Optimization -- En-DIIS/RFO-DIIS
 Second derivative matrix not updated -- first step.
 ITU=  0
     Eigenvalues ---    0.00774   0.00792   0.01084   0.01717   0.02310
     Eigenvalues ---    0.02559   0.03016   0.03336   0.04179   0.05455
     Eigenvalues ---    0.05718   0.05795   0.05798   0.05902   0.05968
     Eigenvalues ---    0.07050   0.07369   0.07749   0.10306   0.10898
     Eigenvalues ---    0.11226   0.12926   0.14983   0.16000   0.16000
     Eigenvalues ---    0.16000   0.16000   0.16000   0.16000   0.19275
     Eigenvalues ---    0.20370   0.21619   0.25397   0.28316   0.29781
     Eigenvalues ---    0.32442   0.32583   0.33268   0.33449   0.34059
     Eigenvalues ---    0.34163   0.34261   0.34288   0.34324   0.34340
     Eigenvalues ---    0.34348   0.34636   0.35323   0.36235   0.38309
     Eigenvalues ---    0.40778
 RFO step:  Lambda=-4.77341570D-08 EMin= 7.74045145D-03
 Linear search not attempted -- first point.
 Iteration  1 RMS(Cart)=  0.00012012 RMS(Int)=  0.00000001
 Iteration  2 RMS(Cart)=  0.00000001 RMS(Int)=  0.00000000
 Variable       Old X    -DE/DX   Delta X   Delta X   Delta X     New X
                                 (Linear)    (Quad)   (Total)
    R1        2.83343   0.00002   0.00000   0.00005   0.00005   2.83348
    R2        2.06760   0.00000   0.00000   0.00001   0.00001   2.06760
    R3        2.06891   0.00000   0.00000   0.00000   0.00000   2.06891
    R4        2.06786   0.00000   0.00000   0.00000   0.00000   2.06786
    R5        2.67588   0.00003   0.00000   0.00006   0.00006   2.67594
    R6        2.88549  -0.00001   0.00000  -0.00005  -0.00005   2.88543
    R7        2.84935  -0.00001   0.00000  -0.00004  -0.00004   2.84931
    R8        2.70565  -0.00001   0.00000  -0.00004  -0.00004   2.70561
    R9        2.87001   0.00003   0.00000   0.00009   0.00009   2.87009
   R10        2.06746   0.00001   0.00000   0.00004   0.00004   2.06750
   R11        2.08270   0.00000   0.00000  -0.00001  -0.00001   2.08270
   R12        2.76221   0.00001   0.00000   0.00002   0.00002   2.76224
   R13        2.93417   0.00000   0.00000   0.00001   0.00001   2.93419
   R14        2.06270  -0.00001   0.00000  -0.00002  -0.00002   2.06268
   R15        2.69654   0.00002   0.00000   0.00003   0.00003   2.69657
   R16        2.86369   0.00000   0.00000   0.00000   0.00000   2.86369
   R17        2.05153  -0.00002   0.00000  -0.00006  -0.00006   2.05147
   R18        2.83091   0.00001   0.00000   0.00004   0.00004   2.83095
   R19        2.07056   0.00000   0.00000  -0.00001  -0.00001   2.07055
   R20        2.07231   0.00000   0.00000  -0.00001  -0.00001   2.07230
   R21        2.06846   0.00000   0.00000   0.00000   0.00000   2.06846
    A1        1.93464  -0.00001   0.00000  -0.00006  -0.00006   1.93458
    A2        1.93898   0.00000   0.00000  -0.00002  -0.00002   1.93897
    A3        1.92311   0.00000   0.00000  -0.00003  -0.00003   1.92308
    A4        1.89229   0.00001   0.00000   0.00003   0.00003   1.89231
    A5        1.88540   0.00001   0.00000   0.00003   0.00003   1.88543
    A6        1.88785   0.00001   0.00000   0.00005   0.00005   1.88789
    A7        1.98107   0.00000   0.00000  -0.00002  -0.00002   1.98106
    A8        2.11341  -0.00001   0.00000  -0.00007  -0.00007   2.11335
    A9        2.16134   0.00000   0.00000   0.00002   0.00002   2.16135
   A10        2.03136   0.00001   0.00000   0.00010   0.00010   2.03146
   A11        1.95481   0.00000   0.00000  -0.00003  -0.00003   1.95478
   A12        1.87970   0.00000   0.00000   0.00003   0.00003   1.87972
   A13        1.81154   0.00000   0.00000   0.00003   0.00003   1.81157
   A14        1.89996   0.00000   0.00000   0.00000   0.00000   1.89995
   A15        1.93491  -0.00001   0.00000  -0.00010  -0.00010   1.93482
   A16        1.95664  -0.00001   0.00000  -0.00007  -0.00007   1.95657
   A17        1.95131   0.00001   0.00000   0.00010   0.00010   1.95141
   A18        1.90749   0.00000   0.00000   0.00003   0.00003   1.90753
   A19        1.86383   0.00000   0.00000   0.00001   0.00001   1.86384
   A20        1.82274   0.00000   0.00000   0.00000   0.00000   1.82274
   A21        2.04710   0.00000   0.00000  -0.00008  -0.00008   2.04702
   A22        1.60238  -0.00001   0.00000  -0.00003  -0.00003   1.60235
   A23        1.96680   0.00000   0.00000   0.00002   0.00002   1.96682
   A24        2.10072   0.00001   0.00000   0.00009   0.00009   2.10081
   A25        1.55442   0.00000   0.00000   0.00002   0.00002   1.55444
   A26        1.91934   0.00000   0.00000   0.00004   0.00004   1.91938
   A27        2.20378  -0.00001   0.00000  -0.00015  -0.00015   2.20363
   A28        1.65370  -0.00001   0.00000  -0.00003  -0.00003   1.65367
   A29        2.06399   0.00001   0.00000   0.00014   0.00014   2.06413
   A30        2.32284   0.00000   0.00000  -0.00008  -0.00008   2.32277
   A31        1.66699   0.00000   0.00000   0.00003   0.00003   1.66702
   A32        2.27709   0.00000   0.00000   0.00004   0.00004   2.27713
   A33        1.44233   0.00001   0.00000   0.00003   0.00003   1.44236
   A34        2.24372   0.00000   0.00000  -0.00002  -0.00002   2.24370
   A35        2.36730  -0.00001   0.00000  -0.00007  -0.00007   2.36723
   A36        1.94737  -0.00001   0.00000  -0.00008  -0.00008   1.94729
   A37        1.94237  -0.00001   0.00000  -0.00005  -0.00005   1.94232
   A38        1.93708  -0.00001   0.00000  -0.00005  -0.00005   1.93703
   A39        1.88197   0.00001   0.00000   0.00007   0.00007   1.88205
   A40        1.87910   0.00001   0.00000   0.00006   0.00006   1.87915
   A41        1.87274   0.00001   0.00000   0.00007   0.00007   1.87281
    D1        3.06451   0.00000   0.00000  -0.00015  -0.00015   3.06436
    D2        0.51774   0.00000   0.00000  -0.00022  -0.00022   0.51752
    D3       -0.74772   0.00000   0.00000  -0.00022  -0.00022  -0.74794
    D4       -1.11350   0.00000   0.00000  -0.00017  -0.00017  -1.11367
    D5        2.62291   0.00000   0.00000  -0.00023  -0.00023   2.62268
    D6        1.35745   0.00000   0.00000  -0.00023  -0.00023   1.35722
    D7        0.97842   0.00000   0.00000  -0.00013  -0.00013   0.97829
    D8       -1.56835   0.00000   0.00000  -0.00020  -0.00020  -1.56855
    D9       -2.83381   0.00000   0.00000  -0.00020  -0.00020  -2.83401
   D10        2.71968   0.00000   0.00000   0.00019   0.00019   2.71987
   D11       -0.98724   0.00000   0.00000   0.00020   0.00020  -0.98704
   D12        0.16859   0.00000   0.00000   0.00023   0.00023   0.16882
   D13        2.84045   0.00000   0.00000   0.00002   0.00002   2.84046
   D14        0.16929  -0.00001   0.00000  -0.00012  -0.00012   0.16917
   D15        0.30978   0.00000   0.00000  -0.00001  -0.00001   0.30977
   D16       -2.36137  -0.00001   0.00000  -0.00015  -0.00015  -2.36152
   D17       -3.00846   0.00000   0.00000  -0.00007  -0.00007  -3.00853
   D18       -0.30537   0.00000   0.00000   0.00003   0.00003  -0.30534
   D19       -0.52885   0.00000   0.00000  -0.00012  -0.00012  -0.52897
   D20        2.17425   0.00000   0.00000  -0.00003  -0.00003   2.17421
   D21        0.29375   0.00000   0.00000  -0.00024  -0.00024   0.29351
   D22        2.38050  -0.00001   0.00000  -0.00031  -0.00031   2.38019
   D23       -1.80391  -0.00001   0.00000  -0.00032  -0.00032  -1.80423
   D24        1.04751   0.00000   0.00000   0.00015   0.00015   1.04765
   D25       -0.63525   0.00000   0.00000   0.00018   0.00018  -0.63507
   D26       -3.01003   0.00000   0.00000   0.00012   0.00012  -3.00991
   D27       -1.00014   0.00000   0.00000   0.00016   0.00016  -0.99998
   D28       -2.68290   0.00000   0.00000   0.00020   0.00020  -2.68270
   D29        1.22551   0.00000   0.00000   0.00014   0.00014   1.22564
   D30        3.13402  -0.00001   0.00000   0.00010   0.00010   3.13411
   D31        1.45126   0.00000   0.00000   0.00013   0.00013   1.45139
   D32       -0.92352   0.00000   0.00000   0.00007   0.00007  -0.92345
   D33       -1.66809   0.00000   0.00000   0.00006   0.00006  -1.66802
   D34        0.17616   0.00000   0.00000   0.00005   0.00005   0.17621
   D35        2.34297   0.00001   0.00000   0.00015   0.00015   2.34311
   D36        0.67804   0.00000   0.00000  -0.00003  -0.00003   0.67801
   D37        1.71523   0.00000   0.00000  -0.00005  -0.00005   1.71518
   D38       -2.03775   0.00000   0.00000  -0.00014  -0.00014  -2.03789
   D39       -1.20433   0.00000   0.00000  -0.00003  -0.00003  -1.20437
   D40       -0.16714   0.00000   0.00000  -0.00005  -0.00005  -0.16719
   D41        2.36307   0.00000   0.00000  -0.00015  -0.00015   2.36292
   D42        3.02354   0.00000   0.00000  -0.00007  -0.00007   3.02347
   D43       -2.22246   0.00000   0.00000  -0.00009  -0.00009  -2.22254
   D44        0.30775  -0.00001   0.00000  -0.00018  -0.00018   0.30757
   D45        0.85106   0.00000   0.00000  -0.00008  -0.00008   0.85099
   D46       -0.18108   0.00000   0.00000  -0.00005  -0.00005  -0.18113
   D47       -2.71837   0.00000   0.00000  -0.00004  -0.00004  -2.71841
   D48        0.17176   0.00000   0.00000   0.00005   0.00005   0.17181
   D49       -2.27277   0.00000   0.00000   0.00012   0.00012  -2.27264
   D50        2.55833   0.00001   0.00000   0.00017   0.00017   2.55850
   D51        0.11380   0.00001   0.00000   0.00024   0.00024   0.11404
   D52        2.72124   0.00000   0.00000  -0.00002  -0.00002   2.72122
   D53       -1.45891   0.00000   0.00000  -0.00003  -0.00003  -1.45894
   D54        0.62548   0.00000   0.00000  -0.00001  -0.00001   0.62547
   D55       -0.99130   0.00000   0.00000   0.00011   0.00011  -0.99119
   D56        1.11174   0.00000   0.00000   0.00011   0.00011   1.11185
   D57       -3.08706   0.00000   0.00000   0.00013   0.00013  -3.08693
   D58        1.19900   0.00000   0.00000   0.00002   0.00002   1.19902
   D59       -2.98115   0.00000   0.00000   0.00001   0.00001  -2.98113
   D60       -0.89675   0.00000   0.00000   0.00003   0.00003  -0.89672
         Item               Value     Threshold  Converged?
 Maximum Force            0.000026     0.000450     YES
 RMS     Force            0.000007     0.000300     YES
 Maximum Displacement     0.000450     0.001800     YES
 RMS     Displacement     0.000120     0.001200     YES
 Predicted change in Energy=-2.386684D-08
 Optimization completed.
    -- Stationary point found.
                           ----------------------------
                           !   Optimized Parameters   !
                           ! (Angstroms and Degrees)  !
 --------------------------                            --------------------------
 ! Name  Definition              Value          Derivative Info.                !
 --------------------------------------------------------------------------------
 ! R1    R(1,2)                  1.4994         -DE/DX =    0.0                 !
 ! R2    R(1,10)                 1.0941         -DE/DX =    0.0                 !
 ! R3    R(1,11)                 1.0948         -DE/DX =    0.0                 !
 ! R4    R(1,12)                 1.0943         -DE/DX =    0.0                 !
 ! R5    R(2,3)                  1.416          -DE/DX =    0.0                 !
 ! R6    R(2,7)                  1.5269         -DE/DX =    0.0                 !
 ! R7    R(2,8)                  1.5078         -DE/DX =    0.0                 !
 ! R8    R(3,4)                  1.4318         -DE/DX =    0.0                 !
 ! R9    R(4,5)                  1.5187         -DE/DX =    0.0                 !
 ! R10   R(4,13)                 1.0941         -DE/DX =    0.0                 !
 ! R11   R(4,14)                 1.1021         -DE/DX =    0.0                 !
 ! R12   R(5,6)                  1.4617         -DE/DX =    0.0                 !
 ! R13   R(5,8)                  1.5527         -DE/DX =    0.0                 !
 ! R14   R(5,15)                 1.0915         -DE/DX =    0.0                 !
 ! R15   R(6,7)                  1.4269         -DE/DX =    0.0                 !
 ! R16   R(7,8)                  1.5154         -DE/DX =    0.0                 !
 ! R17   R(7,16)                 1.0856         -DE/DX =    0.0                 !
 ! R18   R(8,9)                  1.4981         -DE/DX =    0.0                 !
 ! R19   R(9,17)                 1.0957         -DE/DX =    0.0                 !
 ! R20   R(9,18)                 1.0966         -DE/DX =    0.0                 !
 ! R21   R(9,19)                 1.0946         -DE/DX =    0.0                 !
 ! A1    A(2,1,10)             110.8467         -DE/DX =    0.0                 !
 ! A2    A(2,1,11)             111.0955         -DE/DX =    0.0                 !
 ! A3    A(2,1,12)             110.1859         -DE/DX =    0.0                 !
 ! A4    A(10,1,11)            108.4201         -DE/DX =    0.0                 !
 ! A5    A(10,1,12)            108.0257         -DE/DX =    0.0                 !
 ! A6    A(11,1,12)            108.1656         -DE/DX =    0.0                 !
 ! A7    A(1,2,3)              113.5072         -DE/DX =    0.0                 !
 ! A8    A(1,2,7)              121.0895         -DE/DX =    0.0                 !
 ! A9    A(1,2,8)              123.8355         -DE/DX =    0.0                 !
 ! A10   A(3,2,7)              116.3883         -DE/DX =    0.0                 !
 ! A11   A(3,2,8)              112.0025         -DE/DX =    0.0                 !
 ! A12   A(2,3,4)              107.6987         -DE/DX =    0.0                 !
 ! A13   A(3,4,5)              103.7937         -DE/DX =    0.0                 !
 ! A14   A(3,4,13)             108.8595         -DE/DX =    0.0                 !
 ! A15   A(3,4,14)             110.8624         -DE/DX =    0.0                 !
 ! A16   A(5,4,13)             112.1074         -DE/DX =    0.0                 !
 ! A17   A(5,4,14)             111.8018         -DE/DX =    0.0                 !
 ! A18   A(13,4,14)            109.2913         -DE/DX =    0.0                 !
 ! A19   A(4,5,6)              106.7898         -DE/DX =    0.0                 !
 ! A20   A(4,5,8)              104.4355         -DE/DX =    0.0                 !
 ! A21   A(4,5,15)             117.2903         -DE/DX =    0.0                 !
 ! A22   A(6,5,8)               91.8095         -DE/DX =    0.0                 !
 ! A23   A(6,5,15)             112.6894         -DE/DX =    0.0                 !
 ! A24   A(8,5,15)             120.3625         -DE/DX =    0.0                 !
 ! A25   A(5,6,7)               89.0616         -DE/DX =    0.0                 !
 ! A26   A(2,7,6)              109.9702         -DE/DX =    0.0                 !
 ! A27   A(2,7,16)             126.267          -DE/DX =    0.0                 !
 ! A28   A(6,7,8)               94.7503         -DE/DX =    0.0                 !
 ! A29   A(6,7,16)             118.2577         -DE/DX =    0.0                 !
 ! A30   A(8,7,16)             133.0892         -DE/DX =    0.0                 !
 ! A31   A(2,8,5)               95.5117         -DE/DX =    0.0                 !
 ! A32   A(2,8,9)              130.4676         -DE/DX =    0.0                 !
 ! A33   A(5,8,7)               82.6396         -DE/DX =    0.0                 !
 ! A34   A(5,8,9)              128.5557         -DE/DX =    0.0                 !
 ! A35   A(7,8,9)              135.6365         -DE/DX =    0.0                 !
 ! A36   A(8,9,17)             111.5763         -DE/DX =    0.0                 !
 ! A37   A(8,9,18)             111.2898         -DE/DX =    0.0                 !
 ! A38   A(8,9,19)             110.9864         -DE/DX =    0.0                 !
 ! A39   A(17,9,18)            107.8291         -DE/DX =    0.0                 !
 ! A40   A(17,9,19)            107.6644         -DE/DX =    0.0                 !
 ! A41   A(18,9,19)            107.3001         -DE/DX =    0.0                 !
 ! D1    D(10,1,2,3)           175.5834         -DE/DX =    0.0                 !
 ! D2    D(10,1,2,7)            29.6641         -DE/DX =    0.0                 !
 ! D3    D(10,1,2,8)           -42.8414         -DE/DX =    0.0                 !
 ! D4    D(11,1,2,3)           -63.799          -DE/DX =    0.0                 !
 ! D5    D(11,1,2,7)           150.2818         -DE/DX =    0.0                 !
 ! D6    D(11,1,2,8)            77.7763         -DE/DX =    0.0                 !
 ! D7    D(12,1,2,3)            56.0593         -DE/DX =    0.0                 !
 ! D8    D(12,1,2,7)           -89.8599         -DE/DX =    0.0                 !
 ! D9    D(12,1,2,8)          -162.3654         -DE/DX =    0.0                 !
 ! D10   D(1,2,3,4)            155.826          -DE/DX =    0.0                 !
 ! D11   D(7,2,3,4)            -56.5646         -DE/DX =    0.0                 !
 ! D12   D(8,2,3,4)              9.6596         -DE/DX =    0.0                 !
 ! D13   D(1,2,7,6)            162.7456         -DE/DX =    0.0                 !
 ! D14   D(1,2,7,16)             9.6997         -DE/DX =    0.0                 !
 ! D15   D(3,2,7,6)             17.7491         -DE/DX =    0.0                 !
 ! D16   D(3,2,7,16)          -135.2968         -DE/DX =    0.0                 !
 ! D17   D(1,2,8,5)           -172.3722         -DE/DX =    0.0                 !
 ! D18   D(1,2,8,9)            -17.4963         -DE/DX =    0.0                 !
 ! D19   D(3,2,8,5)            -30.3006         -DE/DX =    0.0                 !
 ! D20   D(3,2,8,9)            124.5752         -DE/DX =    0.0                 !
 ! D21   D(2,3,4,5)             16.8305         -DE/DX =    0.0                 !
 ! D22   D(2,3,4,13)           136.3926         -DE/DX =    0.0                 !
 ! D23   D(2,3,4,14)          -103.3564         -DE/DX =    0.0                 !
 ! D24   D(3,4,5,6)             60.0178         -DE/DX =    0.0                 !
 ! D25   D(3,4,5,8)            -36.397          -DE/DX =    0.0                 !
 ! D26   D(3,4,5,15)          -172.4619         -DE/DX =    0.0                 !
 ! D27   D(13,4,5,6)           -57.3039         -DE/DX =    0.0                 !
 ! D28   D(13,4,5,8)          -153.7187         -DE/DX =    0.0                 !
 ! D29   D(13,4,5,15)           70.2163         -DE/DX =    0.0                 !
 ! D30   D(14,4,5,6)           179.5659         -DE/DX =    0.0                 !
 ! D31   D(14,4,5,8)            83.151          -DE/DX =    0.0                 !
 ! D32   D(14,4,5,15)          -52.9139         -DE/DX =    0.0                 !
 ! D33   D(4,5,6,7)            -95.5744         -DE/DX =    0.0                 !
 ! D34   D(8,5,6,7)             10.0931         -DE/DX =    0.0                 !
 ! D35   D(15,5,6,7)           134.2423         -DE/DX =    0.0                 !
 ! D36   D(4,5,8,2)             38.8489         -DE/DX =    0.0                 !
 ! D37   D(4,5,8,7)             98.2754         -DE/DX =    0.0                 !
 ! D38   D(4,5,8,9)           -116.7542         -DE/DX =    0.0                 !
 ! D39   D(6,5,8,2)            -69.0031         -DE/DX =    0.0                 !
 ! D40   D(6,5,8,7)             -9.5767         -DE/DX =    0.0                 !
 ! D41   D(6,5,8,9)            135.3937         -DE/DX =    0.0                 !
 ! D42   D(15,5,8,2)           173.2361         -DE/DX =    0.0                 !
 ! D43   D(15,5,8,7)          -127.3374         -DE/DX =    0.0                 !
 ! D44   D(15,5,8,9)            17.633          -DE/DX =    0.0                 !
 ! D45   D(5,6,7,2)             48.7623         -DE/DX =    0.0                 !
 ! D46   D(5,6,7,8)            -10.375          -DE/DX =    0.0                 !
 ! D47   D(5,6,7,16)          -155.7512         -DE/DX =    0.0                 !
 ! D48   D(6,7,8,5)              9.8414         -DE/DX =    0.0                 !
 ! D49   D(6,7,8,9)           -130.2199         -DE/DX =    0.0                 !
 ! D50   D(16,7,8,5)           146.5816         -DE/DX =    0.0                 !
 ! D51   D(16,7,8,9)             6.5204         -DE/DX =    0.0                 !
 ! D52   D(2,8,9,17)           155.9156         -DE/DX =    0.0                 !
 ! D53   D(2,8,9,18)           -83.5894         -DE/DX =    0.0                 !
 ! D54   D(2,8,9,19)            35.8374         -DE/DX =    0.0                 !
 ! D55   D(5,8,9,17)           -56.7973         -DE/DX =    0.0                 !
 ! D56   D(5,8,9,18)            63.6977         -DE/DX =    0.0                 !
 ! D57   D(5,8,9,19)          -176.8755         -DE/DX =    0.0                 !
 ! D58   D(7,8,9,17)            68.6979         -DE/DX =    0.0                 !
 ! D59   D(7,8,9,18)          -170.807          -DE/DX =    0.0                 !
 ! D60   D(7,8,9,19)           -51.3803         -DE/DX =    0.0                 !
 --------------------------------------------------------------------------------
 GradGradGradGradGradGradGradGradGradGradGradGradGradGradGradGradGradGrad

                          Input orientation:                          
 ---------------------------------------------------------------------
 Center     Atomic      Atomic             Coordinates (Angstroms)
 Number     Number       Type             X           Y           Z
 ---------------------------------------------------------------------
      1          6           0        0.802886    2.025159   -1.849571
      2          6           0        0.897602    1.915551   -0.357198
      3          8           0        0.042492    2.810692    0.330270
      4          6           0       -0.212658    2.259693    1.626903
      5          6           0        0.877813    1.216544    1.798049
      6          8           0        2.154806    1.922371    1.710505
      7          6           0        2.221493    1.581656    0.326436
      8          6           0        1.059550    0.610351    0.380174
      9          6           0        0.818922   -0.797679   -0.071167
     10          1           0        1.534729    1.372670   -2.335136
     11          1           0       -0.195706    1.747829   -2.202466
     12          1           0        1.003256    3.053286   -2.166147
     13          1           0       -0.139093    3.058172    2.371197
     14          1           0       -1.218530    1.811517    1.671915
     15          1           0        0.815352    0.566052    2.672350
     16          1           0        3.197572    1.544854   -0.147374
     17          1           0        1.406758   -1.514182    0.513310
     18          1           0       -0.238345   -1.071936    0.026532
     19          1           0        1.092090   -0.924110   -1.123547
 ---------------------------------------------------------------------
                    Distance matrix (angstroms):
                    1          2          3          4          5
     1  C    0.000000
     2  C    1.499388   0.000000
     3  O    2.438641   1.416016   0.000000
     4  C    3.629354   2.299515   1.431768   0.000000
     5  C    3.736925   2.265854   2.322379   1.518742   0.000000
     6  O    3.809514   2.419918   2.675076   2.392835   1.461699
     7  C    2.635176   1.526935   2.501718   2.841838   2.025939
     8  C    2.653172   1.507810   2.424540   2.427586   1.552697
     9  C    3.336375   2.729400   3.712726   3.646248   2.748551
    10  H    1.094125   2.147764   3.376250   4.420172   4.187975
    11  H    1.094821   2.151387   2.757021   3.863465   4.175982
    12  H    1.094264   2.139603   2.685893   4.061462   4.370837
    13  H    4.446271   3.134399   2.063881   1.094054   2.180410
    14  H    4.066035   2.933622   2.094884   1.102120   2.182787
    15  H    4.751517   3.317540   3.334825   2.240129   1.091532
    16  H    2.977027   2.339082   3.432932   3.910079   3.045281
    17  H    4.298233   3.574926   4.538641   4.254965   3.063854
    18  H    3.767747   3.219115   3.904602   3.696160   3.101810
    19  H    3.051055   2.947676   4.142944   4.404991   3.628228
                    6          7          8          9         10
     6  O    0.000000
     7  C    1.426948   0.000000
     8  C    2.165816   1.515398   0.000000
     9  C    3.515340   2.790436   1.498052   0.000000
    10  H    4.129634   2.756680   2.860040   3.216886   0.000000
    11  H    4.568009   3.502258   3.088616   3.471530   1.775599
    12  H    4.199222   3.140505   3.529143   4.387808   1.770732
    13  H    2.643582   3.454492   3.375314   4.663745   5.271828
    14  H    3.375378   3.700934   2.881154   3.741317   4.881545
    15  H    2.135154   2.917532   2.305573   3.063765   5.122797
    16  H    2.163699   1.085624   2.392225   3.339349   2.753361
    17  H    3.715205   3.206701   2.156831   1.095692   4.057578
    18  H    4.186742   3.630743   2.153992   1.096619   3.833714
    19  H    4.154957   3.107550   2.148676   1.094582   2.634213
                   11         12         13         14         15
    11  H    0.000000
    12  H    1.772864   0.000000
    13  H    4.758003   4.678940   0.000000
    14  H    4.007625   4.605329   1.791181   0.000000
    15  H    5.116899   5.443592   2.685575   2.586257   0.000000
    16  H    3.972271   3.341532   4.445971   4.783606   3.818883
    17  H    4.536964   5.310751   5.171829   4.392582   3.055910
    18  H    3.594624   4.833929   4.750273   3.461553   3.285366
    19  H    3.156223   4.112735   5.439450   4.542822   4.087297
                   16         17         18         19
    16  H    0.000000
    17  H    3.605721   0.000000
    18  H    4.322425   1.771693   0.000000
    19  H    3.388474   1.768192   1.764820   0.000000
 Stoichiometry    C7H10O2
 Framework group  C1[X(C7H10O2)]
 Deg. of freedom    51
 Full point group                 C1      NOp   1
 Largest Abelian subgroup         C1      NOp   1
 Largest concise Abelian subgroup C1      NOp   1
                         Standard orientation:                         
 ---------------------------------------------------------------------
 Center     Atomic      Atomic             Coordinates (Angstroms)
 Number     Number       Type             X           Y           Z
 ---------------------------------------------------------------------
      1          6           0       -1.970966   -1.203372    0.125334
      2          6           0       -0.583524   -0.634948    0.117436
      3          8           0        0.371141   -1.483811   -0.493422
      4          6           0        1.453832   -0.664840   -0.948422
      5          6           0        1.265258    0.638151   -0.191300
      6          8           0        1.343188    0.314546    1.231996
      7          6           0       -0.081059    0.234425    1.267762
      8          6           0       -0.274603    0.822386   -0.115449
      9          6           0       -1.114945    1.911741   -0.708148
     10          1           0       -2.656140   -0.550399    0.674217
     11          1           0       -2.352151   -1.326539   -0.893568
     12          1           0       -1.974684   -2.183559    0.611784
     13          1           0        2.398630   -1.155040   -0.695409
     14          1           0        1.401677   -0.515701   -2.039158
     15          1           0        1.908133    1.475595   -0.468500
     16          1           0       -0.581121    0.393979    2.218057
     17          1           0       -0.792919    2.901124   -0.364692
     18          1           0       -1.063139    1.903287   -1.803510
     19          1           0       -2.166873    1.790114   -0.431084
 ---------------------------------------------------------------------
 Rotational constants (GHZ):      2.2162632      1.9670661      1.5537507
 1\1\GINC-ALCHEMY-N\FOpt\RB3LYP\6-31G(2df,p)\C7H10O2\PUCK\27-Jan-2020\0
 \\# b3lyp 6-31G(2df,p) opt Freq\\titel\\0,1\C,0.8028860458,2.025158654
 ,-1.8495714906\C,0.8976018935,1.9155508731,-0.3571978991\O,0.042491871
 ,2.8106915729,0.3302700806\C,-0.2126578346,2.2596928379,1.6269032774\C
 ,0.8778134881,1.21654394,1.7980492959\O,2.1548056107,1.9223710036,1.71
 05046741\C,2.2214933974,1.5816559404,0.326436262\C,1.0595503502,0.6103
 512479,0.3801736501\C,0.8189216944,-0.7976793744,-0.0711666922\H,1.534
 7290351,1.3726699148,-2.3351358824\H,-0.1957060071,1.7478288715,-2.202
 4658741\H,1.0032559171,3.0532861429,-2.1661473899\H,-0.1390926372,3.05
 81715919,2.3711971866\H,-1.2185303985,1.8115168735,1.671915434\H,0.815
 3515219,0.5660522261,2.6723496746\H,3.1975721988,1.5448544286,-0.14737
 36029\H,1.4067577802,-1.5141822219,0.5133101392\H,-0.238344609,-1.0719
 35697,0.0265316806\H,1.0920902022,-0.9241104856,-1.1235469639\\Version
 =ES64L-G09RevD.01\State=1-A\HF=-423.1466867\RMSD=7.509e-09\RMSF=1.695e
 -05\Dipole=-0.2346877,-0.8378628,-0.280691\Quadrupole=-0.5517924,-1.31
 69018,1.8686942,0.2974238,-3.3981326,-0.4897258\PG=C01 [X(C7H10O2)]\\@


 BUT 'GLORY' DOESN'T MEAN 'A NICE KNOCK DOWN ARGUMENT', ALICE OBJECTED.
 WHEN I USE A WORD, HUMPTY DUMPTY SAID, IN A RATHER SCORNFUL TONE,
 IT MEANS JUST WHAT I CHOOSE IT TO MEAN....
 NEITHER MORE NOR LESS....
 THE QUESTION IS, SAID ALICE,
 WHETHER YOU CAN MAKE WORDS MEAN SO MANY DIFFERENT THINGS...
 THE QUESTION IS, SAID HUMPTY DUMPTY,
 WHICH IS TO BE MASTER....
 THAT IS ALL.....

 ALICE THROUGH THE LOOKING GLASS
 Job cpu time:       0 days  0 hours  6 minutes 51.8 seconds.
 File lengths (MBytes):  RWF=     52 Int=      0 D2E=      0 Chk=      7 Scr=      1
 Normal termination of Gaussian 09 at Mon Jan 27 18:58:31 2020.
 Link1:  Proceeding to internal job step number  2.
 ----------------------------------------------------------------------
 #N Geom=AllCheck Guess=TCheck SCRF=Check GenChk RB3LYP/6-31G(2df,p) Fr
 eq
 ----------------------------------------------------------------------
 1/10=4,29=7,30=1,38=1,40=1/1,3;
 2/12=2,40=1/2;
 3/5=1,6=6,7=104,11=2,14=-4,16=1,25=1,30=1,70=2,71=2,74=-5,116=1,140=1/1,2,3;
 4/5=101/1;
 5/5=2,98=1/2;
 8/6=4,10=90,11=11/1;
 11/6=1,8=1,9=11,15=111,16=1/1,2,10;
 10/6=1/2;
 6/7=2,8=2,9=2,10=2,18=1,28=1/1;
 7/8=1,10=1,25=1/1,2,3,16;
 1/10=4,30=1/3;
 99//99;
 Structure from the checkpoint file:  "/scratch/puck/g09_3ac340d1-bc08-4496-b4e8-7a4160866d71/Gau-64637.chk"
 -----
 titel
 -----
 Charge =  0 Multiplicity = 1
 Redundant internal coordinates found in file.
 C,0,0.8028860458,2.025158654,-1.8495714906
 C,0,0.8976018935,1.9155508731,-0.3571978991
 O,0,0.042491871,2.8106915729,0.3302700806
 C,0,-0.2126578346,2.2596928379,1.6269032774
 C,0,0.8778134881,1.21654394,1.7980492959
 O,0,2.1548056107,1.9223710036,1.7105046741
 C,0,2.2214933974,1.5816559404,0.326436262
 C,0,1.0595503502,0.6103512479,0.3801736501
 C,0,0.8189216944,-0.7976793744,-0.0711666922
 H,0,1.5347290351,1.3726699148,-2.3351358824
 H,0,-0.1957060071,1.7478288715,-2.2024658741
 H,0,1.0032559171,3.0532861429,-2.1661473899
 H,0,-0.1390926372,3.0581715919,2.3711971866
 H,0,-1.2185303985,1.8115168735,1.671915434
 H,0,0.8153515219,0.5660522261,2.6723496746
 H,0,3.1975721988,1.5448544286,-0.1473736029
 H,0,1.4067577802,-1.5141822219,0.5133101392
 H,0,-0.238344609,-1.071935697,0.0265316806
 H,0,1.0920902022,-0.9241104856,-1.1235469639
 Recover connectivity data from disk.

 GradGradGradGradGradGradGradGradGradGradGradGradGradGradGradGradGradGrad
 Berny optimization.
 Initialization pass.
                           ----------------------------
                           !    Initial Parameters    !
                           ! (Angstroms and Degrees)  !
 --------------------------                            --------------------------
 ! Name  Definition              Value          Derivative Info.                !
 --------------------------------------------------------------------------------
 ! R1    R(1,2)                  1.4994         calculate D2E/DX2 analytically  !
 ! R2    R(1,10)                 1.0941         calculate D2E/DX2 analytically  !
 ! R3    R(1,11)                 1.0948         calculate D2E/DX2 analytically  !
 ! R4    R(1,12)                 1.0943         calculate D2E/DX2 analytically  !
 ! R5    R(2,3)                  1.416          calculate D2E/DX2 analytically  !
 ! R6    R(2,7)                  1.5269         calculate D2E/DX2 analytically  !
 ! R7    R(2,8)                  1.5078         calculate D2E/DX2 analytically  !
 ! R8    R(3,4)                  1.4318         calculate D2E/DX2 analytically  !
 ! R9    R(4,5)                  1.5187         calculate D2E/DX2 analytically  !
 ! R10   R(4,13)                 1.0941         calculate D2E/DX2 analytically  !
 ! R11   R(4,14)                 1.1021         calculate D2E/DX2 analytically  !
 ! R12   R(5,6)                  1.4617         calculate D2E/DX2 analytically  !
 ! R13   R(5,8)                  1.5527         calculate D2E/DX2 analytically  !
 ! R14   R(5,15)                 1.0915         calculate D2E/DX2 analytically  !
 ! R15   R(6,7)                  1.4269         calculate D2E/DX2 analytically  !
 ! R16   R(7,8)                  1.5154         calculate D2E/DX2 analytically  !
 ! R17   R(7,16)                 1.0856         calculate D2E/DX2 analytically  !
 ! R18   R(8,9)                  1.4981         calculate D2E/DX2 analytically  !
 ! R19   R(9,17)                 1.0957         calculate D2E/DX2 analytically  !
 ! R20   R(9,18)                 1.0966         calculate D2E/DX2 analytically  !
 ! R21   R(9,19)                 1.0946         calculate D2E/DX2 analytically  !
 ! A1    A(2,1,10)             110.8467         calculate D2E/DX2 analytically  !
 ! A2    A(2,1,11)             111.0955         calculate D2E/DX2 analytically  !
 ! A3    A(2,1,12)             110.1859         calculate D2E/DX2 analytically  !
 ! A4    A(10,1,11)            108.4201         calculate D2E/DX2 analytically  !
 ! A5    A(10,1,12)            108.0257         calculate D2E/DX2 analytically  !
 ! A6    A(11,1,12)            108.1656         calculate D2E/DX2 analytically  !
 ! A7    A(1,2,3)              113.5072         calculate D2E/DX2 analytically  !
 ! A8    A(1,2,7)              121.0895         calculate D2E/DX2 analytically  !
 ! A9    A(1,2,8)              123.8355         calculate D2E/DX2 analytically  !
 ! A10   A(3,2,7)              116.3883         calculate D2E/DX2 analytically  !
 ! A11   A(3,2,8)              112.0025         calculate D2E/DX2 analytically  !
 ! A12   A(2,3,4)              107.6987         calculate D2E/DX2 analytically  !
 ! A13   A(3,4,5)              103.7937         calculate D2E/DX2 analytically  !
 ! A14   A(3,4,13)             108.8595         calculate D2E/DX2 analytically  !
 ! A15   A(3,4,14)             110.8624         calculate D2E/DX2 analytically  !
 ! A16   A(5,4,13)             112.1074         calculate D2E/DX2 analytically  !
 ! A17   A(5,4,14)             111.8018         calculate D2E/DX2 analytically  !
 ! A18   A(13,4,14)            109.2913         calculate D2E/DX2 analytically  !
 ! A19   A(4,5,6)              106.7898         calculate D2E/DX2 analytically  !
 ! A20   A(4,5,8)              104.4355         calculate D2E/DX2 analytically  !
 ! A21   A(4,5,15)             117.2903         calculate D2E/DX2 analytically  !
 ! A22   A(6,5,8)               91.8095         calculate D2E/DX2 analytically  !
 ! A23   A(6,5,15)             112.6894         calculate D2E/DX2 analytically  !
 ! A24   A(8,5,15)             120.3625         calculate D2E/DX2 analytically  !
 ! A25   A(5,6,7)               89.0616         calculate D2E/DX2 analytically  !
 ! A26   A(2,7,6)              109.9702         calculate D2E/DX2 analytically  !
 ! A27   A(2,7,16)             126.267          calculate D2E/DX2 analytically  !
 ! A28   A(6,7,8)               94.7503         calculate D2E/DX2 analytically  !
 ! A29   A(6,7,16)             118.2577         calculate D2E/DX2 analytically  !
 ! A30   A(8,7,16)             133.0892         calculate D2E/DX2 analytically  !
 ! A31   A(2,8,5)               95.5117         calculate D2E/DX2 analytically  !
 ! A32   A(2,8,9)              130.4676         calculate D2E/DX2 analytically  !
 ! A33   A(5,8,7)               82.6396         calculate D2E/DX2 analytically  !
 ! A34   A(5,8,9)              128.5557         calculate D2E/DX2 analytically  !
 ! A35   A(7,8,9)              135.6365         calculate D2E/DX2 analytically  !
 ! A36   A(8,9,17)             111.5763         calculate D2E/DX2 analytically  !
 ! A37   A(8,9,18)             111.2898         calculate D2E/DX2 analytically  !
 ! A38   A(8,9,19)             110.9864         calculate D2E/DX2 analytically  !
 ! A39   A(17,9,18)            107.8291         calculate D2E/DX2 analytically  !
 ! A40   A(17,9,19)            107.6644         calculate D2E/DX2 analytically  !
 ! A41   A(18,9,19)            107.3001         calculate D2E/DX2 analytically  !
 ! D1    D(10,1,2,3)           175.5834         calculate D2E/DX2 analytically  !
 ! D2    D(10,1,2,7)            29.6641         calculate D2E/DX2 analytically  !
 ! D3    D(10,1,2,8)           -42.8414         calculate D2E/DX2 analytically  !
 ! D4    D(11,1,2,3)           -63.799          calculate D2E/DX2 analytically  !
 ! D5    D(11,1,2,7)           150.2818         calculate D2E/DX2 analytically  !
 ! D6    D(11,1,2,8)            77.7763         calculate D2E/DX2 analytically  !
 ! D7    D(12,1,2,3)            56.0593         calculate D2E/DX2 analytically  !
 ! D8    D(12,1,2,7)           -89.8599         calculate D2E/DX2 analytically  !
 ! D9    D(12,1,2,8)          -162.3654         calculate D2E/DX2 analytically  !
 ! D10   D(1,2,3,4)            155.826          calculate D2E/DX2 analytically  !
 ! D11   D(7,2,3,4)            -56.5646         calculate D2E/DX2 analytically  !
 ! D12   D(8,2,3,4)              9.6596         calculate D2E/DX2 analytically  !
 ! D13   D(1,2,7,6)            162.7456         calculate D2E/DX2 analytically  !
 ! D14   D(1,2,7,16)             9.6997         calculate D2E/DX2 analytically  !
 ! D15   D(3,2,7,6)             17.7491         calculate D2E/DX2 analytically  !
 ! D16   D(3,2,7,16)          -135.2968         calculate D2E/DX2 analytically  !
 ! D17   D(1,2,8,5)           -172.3722         calculate D2E/DX2 analytically  !
 ! D18   D(1,2,8,9)            -17.4963         calculate D2E/DX2 analytically  !
 ! D19   D(3,2,8,5)            -30.3006         calculate D2E/DX2 analytically  !
 ! D20   D(3,2,8,9)            124.5752         calculate D2E/DX2 analytically  !
 ! D21   D(2,3,4,5)             16.8305         calculate D2E/DX2 analytically  !
 ! D22   D(2,3,4,13)           136.3926         calculate D2E/DX2 analytically  !
 ! D23   D(2,3,4,14)          -103.3564         calculate D2E/DX2 analytically  !
 ! D24   D(3,4,5,6)             60.0178         calculate D2E/DX2 analytically  !
 ! D25   D(3,4,5,8)            -36.397          calculate D2E/DX2 analytically  !
[...]
 076126,-0.00092697,0.00089018,-0.00008124,-0.00795733,-0.00689993,0.02
 399581,-0.07352281,0.00789854,0.01268099,0.55152310,0.00367225,-0.0043
 7876,-0.00226641,-0.00122506,0.00724343,-0.01597168,-0.00542260,-0.099
 67005,0.06043579,0.03101787,0.52661010,0.00187374,-0.00039401,0.000258
 46,0.02645690,-0.01871531,-0.05062599,0.03082996,0.02921730,-0.1513540
 6,-0.02477152,0.11007901,0.48546030,-0.00322416,0.00184605,-0.00008107
 ,0.01298784,-0.00054071,-0.01573447,-0.00183873,0.00099236,0.00095747,
 -0.12005704,0.06401899,-0.01533630,0.40260032,-0.00146886,-0.00663826,
 -0.00009951,0.00084349,0.00994490,0.01937094,0.01189235,-0.02846966,0.
 02723900,0.04838907,-0.12517460,0.00928753,-0.02592709,0.47264857,0.00
 156321,0.00332304,0.00044921,0.00661892,0.01681557,-0.04224767,-0.0165
 3236,0.02705614,-0.03348629,-0.00450775,0.00097459,-0.07047571,-0.0431
 0849,-0.15156852,0.60957649,-0.00169091,-0.00139917,0.00023968,-0.0072
 8505,-0.00511818,-0.01488603,0.01052860,-0.00480065,-0.00299156,-0.051
 08458,-0.01969549,0.00320443,-0.13134848,-0.04854501,-0.02146437,0.271
 23133,0.00299206,0.00151573,0.00031771,-0.00176207,0.00605134,0.012892
 67,-0.00292057,0.00667643,-0.00162566,0.01094063,0.00773189,0.00054265
 ,-0.03419248,-0.09258203,-0.00500126,0.09387056,0.17250965,-0.00907768
 ,-0.00388495,0.00195375,0.00335221,-0.00471112,-0.04115322,0.00180010,
 -0.00025957,0.00948141,0.00498001,0.00522472,-0.00105810,0.01396677,0.
 01275365,-0.06325743,0.00887178,0.08085654,0.34583524,0.00318510,-0.00
 217130,-0.00332582,-0.14796403,0.04804489,-0.04017538,-0.02824729,0.01
 614546,0.00691010,-0.00327597,0.00163880,-0.00269167,-0.04668283,-0.00
 913629,0.04892584,-0.06009058,-0.00423026,-0.02228829,0.69754094,-0.00
 096983,-0.00148664,0.00459028,0.01100232,-0.03498178,-0.01125536,0.027
 97820,-0.00578242,0.00257261,0.00142843,-0.00108840,0.00101427,-0.0191
 5501,0.00836083,0.01685301,0.00701715,-0.06095689,-0.05999989,0.044189
 96,0.24110839,-0.02333579,-0.00657441,-0.01214775,-0.05236257,0.013836
 66,-0.06659225,0.01919994,0.00091031,-0.00827342,-0.00259892,-0.007331
 36,0.00210003,0.06109202,0.00285098,-0.04551837,0.01597666,-0.03853715
 ,-0.20570676,-0.11806841,0.04894731,0.45946865,-0.00076686,0.00097057,
 -0.00401706,-0.02495450,-0.00222174,0.00770736,-0.00176141,0.02542601,
 -0.00110585,-0.00114264,0.02089404,0.01877219,-0.04290208,0.01598146,0
 .01592355,-0.02884373,-0.04287299,-0.01818584,-0.14068730,-0.06006603,
 -0.00609887,0.32289062,-0.00068931,0.00290395,0.00310856,0.04023801,-0
 .16122089,0.05532624,0.01178754,-0.03204707,-0.00787059,0.00871529,-0.
 01794791,-0.01077216,0.00518413,-0.08363540,-0.01386629,-0.02958387,-0
 .03619914,-0.04029774,-0.09989411,-0.09490899,-0.01295743,0.08389594,0
 .64656990,0.00855033,0.02984365,-0.00954238,-0.01702147,0.05128965,-0.
 09333286,-0.00371894,-0.00869347,-0.00317959,0.00952716,-0.01769559,-0
 .00480181,-0.00130411,-0.02527571,-0.13498738,-0.01183826,-0.04924972,
 -0.03741599,0.02478754,0.00849784,-0.01841213,-0.00556276,0.06864318,0
 .41276123,0.00089686,-0.00064640,0.00092583,-0.00100594,0.00296726,0.0
 1038755,-0.00103555,0.00525281,0.00151203,0.00026000,0.00162208,-0.000
 13892,-0.00326369,0.00491547,-0.00295563,0.00190596,-0.00397212,-0.007
 34933,0.00684425,-0.01595516,-0.00588007,-0.07704472,-0.02128690,-0.00
 358315,0.54352641,0.00054648,0.00230859,-0.00059621,-0.00664372,-0.016
 61745,-0.00496084,0.00009124,-0.00088400,-0.00094973,0.00049954,0.0001
 0897,0.00083342,0.00064183,-0.00317360,-0.00326260,0.00255437,0.002483
 85,0.00270376,-0.00194329,-0.00892607,0.00288524,-0.02229927,-0.205735
 82,-0.04491371,-0.01366921,0.48696503,-0.00058695,-0.00068830,0.001280
 96,0.00475344,0.00955452,0.00825804,-0.00123119,0.00422288,0.00235219,
 -0.00100128,0.00007924,-0.00443561,-0.00260219,-0.02028872,0.00149306,
 -0.00640975,-0.00552990,-0.00138236,0.00099340,0.00337702,-0.00616236,
 -0.00175336,-0.04080878,-0.09357692,-0.00448114,-0.02152900,0.55074086
 ,-0.16487483,0.10686394,0.07772516,0.00014276,-0.00275049,-0.00103078,
 0.00107743,-0.00030813,-0.00050268,0.00047826,0.00017744,-0.00049549,-
 0.00003783,-0.00004451,0.00008163,0.00014199,-0.00008189,0.00037616,-0
 .00005627,0.00002828,-0.00032662,0.00014474,0.00042787,0.00026168,-0.0
 0022298,0.00034194,0.00035787,0.17689574,0.10678279,-0.13986622,-0.069
 87487,-0.00337539,0.00014899,0.00144273,0.00006683,0.00108668,0.000639
 52,-0.00009670,0.00014382,0.00046906,-0.00001087,0.00024532,-0.0001339
 0,-0.00025673,-0.00014540,-0.00008652,0.00074539,0.00021611,0.00014093
 ,0.00000885,-0.00011414,-0.00046637,-0.00017555,-0.00011372,0.00036427
 ,-0.11797505,0.15042124,0.07530708,-0.06801110,-0.09885299,0.02357225,
 -0.02183366,-0.00977661,0.00020159,0.00225182,-0.00769045,0.00004446,-
 0.00208062,0.00006382,0.00069146,-0.00030740,0.00021806,-0.00051941,-0
 .00000837,0.00069975,-0.00021733,-0.00055399,-0.00000204,0.00048057,0.
 00038796,0.00045177,-0.00018899,0.00009080,-0.00038987,-0.08525918,0.0
 7650906,0.10741150,-0.26630703,-0.06221990,-0.07333935,-0.00206707,0.0
 0170578,-0.00224265,0.00113784,-0.00050503,-0.00033534,-0.00013065,-0.
 00005861,-0.00004448,-0.00027720,-0.00005479,-0.00011066,0.00027502,0.
 00019502,-0.00049413,0.00165592,-0.00100982,0.00076581,0.00040986,0.00
 031477,0.00013572,0.00005940,0.00004147,-0.00038170,-0.01807416,-0.006
 24167,-0.00635429,0.28817631,-0.06242712,-0.06451441,-0.02037846,0.003
 95815,-0.00001963,0.00097871,-0.00018920,0.00000869,0.00022894,0.00012
 579,0.00008042,-0.00016518,-0.00002316,0.00017621,0.00003288,0.0001528
 0,-0.00028971,0.00030736,0.00035291,0.00086671,0.00148770,0.00060685,0
 .00111496,-0.00086359,-0.00022215,0.00016842,-0.00011180,0.01815466,0.
 00498334,0.00717605,0.06825048,0.06485927,-0.07224785,-0.02067053,-0.0
 7062838,-0.03620295,-0.00636097,-0.01529321,0.00120518,0.00049727,0.00
 307259,-0.00003353,0.00030441,-0.00024933,-0.00121901,-0.00060812,0.00
 034916,-0.00054163,0.00121140,-0.00367869,0.00287175,-0.00286376,-0.00
 248182,0.00107436,-0.00025292,0.00283438,0.00004613,0.00034901,-0.0003
 7029,0.01331965,0.00494848,0.00440604,0.08316254,0.02118940,0.07932885
 ,-0.05571206,-0.04687332,0.01272034,-0.00058501,0.00307779,-0.00004994
 ,0.00002143,-0.00036707,-0.00028525,-0.00010759,0.00000216,0.00021964,
 0.00007108,0.00039959,-0.00033986,0.00010566,-0.00007735,0.00015073,0.
 00102110,0.00047494,0.00099157,0.00058746,0.00036445,-0.00115193,-0.00
 003981,-0.00004644,0.00000823,0.00403983,0.02091559,-0.00719696,-0.005
 16914,-0.02866240,0.00841440,0.05593082,-0.04668432,-0.28140024,0.0691
 3839,0.00083619,-0.00228806,0.00241915,-0.00031743,0.00095822,0.000085
 32,-0.00001815,0.00011462,0.00018536,0.00016770,-0.00014100,-0.0003008
 7,0.00010408,0.00012327,0.00031819,0.00057504,0.00032315,-0.00018879,-
 0.00064426,0.00137360,-0.00068802,0.00007434,0.00013299,-0.00013373,-0
 .00420313,-0.01669673,0.00505851,-0.00077654,-0.00713625,0.00146715,0.
 05087228,0.30456189,0.01289355,0.06785460,-0.06554573,0.00459454,0.036
 68199,-0.01385427,-0.00085708,-0.00094518,0.00315129,-0.00025171,0.000
 40956,-0.00036736,-0.00060588,0.00215584,-0.00092781,0.00008736,-0.000
 27966,0.00024895,0.00084388,-0.00096742,0.00263321,0.00180514,-0.00267
 686,-0.00538756,-0.00002349,-0.00076004,-0.00027812,-0.00376916,-0.013
 93907,0.00390805,-0.00104537,-0.00960565,0.00246576,-0.01312170,-0.077
 85350,0.07411665,-0.00051743,0.00017138,0.00025002,-0.00078547,0.00132
 159,0.00182155,0.00268318,0.00618540,0.00550084,-0.05113725,-0.0205942
 6,-0.01711240,0.00022228,0.01721568,0.01518289,0.00363616,-0.00090776,
 -0.00133872,0.00039969,0.00061393,0.00215794,-0.00323834,0.00203472,0.
 00061208,-0.00052785,-0.00028506,0.00060035,0.00001547,-0.00002829,0.0
 0015474,0.00000954,-0.00001870,-0.00002119,0.00001858,-0.00000650,0.00
 005029,0.05075524,-0.00045896,0.00075492,0.00036164,0.00034939,-0.0010
 7835,0.00288656,-0.00145325,0.01272413,0.01363805,-0.01538890,-0.19569
 928,-0.13408691,-0.00312887,-0.01716043,-0.01655683,-0.00145429,0.0021
 8809,0.00113404,0.00040711,-0.00057054,-0.00068916,0.00302884,-0.00121
 791,0.00195240,0.00034855,0.00039898,-0.00068678,-0.00000472,-0.000018
 58,0.00031997,0.00000069,-0.00002637,-0.00003880,0.00001457,0.00001235
 ,-0.00012939,0.01785414,0.20681674,0.00147808,-0.00136721,-0.00063371,
 -0.00511532,0.00281438,-0.00326730,0.00821186,-0.01596661,-0.03267335,
 -0.01528501,-0.12687982,-0.15605494,0.00125288,0.00464436,0.00681106,0
 .00061699,-0.00004653,0.00039892,-0.00017482,0.00048236,-0.00001517,-0
 .00219840,0.00070790,-0.00047113,0.00004553,-0.00016446,0.00041300,0.0
 0004188,0.00006110,-0.00069789,-0.00000196,0.00002848,0.00016906,-0.00
 001941,0.00002623,0.00010838,0.01092297,0.13877158,0.18356518,-0.00026
 416,0.00013899,-0.00022479,-0.00080299,-0.00087323,-0.00042950,0.00172
 778,-0.00459355,0.01100457,-0.25085865,-0.08309428,-0.00365590,-0.0172
 7140,-0.01309135,-0.00162739,-0.00535243,0.00262206,0.00050904,0.00076
 709,-0.00044835,-0.00124776,0.00117967,0.00044570,0.00085134,-0.000279
 86,0.00000821,-0.00004740,-0.00002547,0.00001831,0.00008480,0.00011289
 ,-0.00005266,0.00006431,0.00004007,-0.00003817,-0.00002125,-0.00190055
 ,-0.00027148,-0.00064554,0.27261979,-0.00036512,0.00016273,-0.00008477
 ,0.00029001,-0.00333779,-0.00209938,-0.01156707,-0.00206135,0.01413219
 ,-0.08298708,-0.09150147,-0.00651505,0.01679451,0.01208996,-0.00039371
 ,0.00716292,-0.00114327,-0.00166714,-0.00071238,0.00034802,0.00337165,
 -0.00116397,0.00073298,-0.00014913,0.00009746,-0.00004239,-0.00020149,
 -0.00000660,0.00003205,0.00012309,0.00004739,0.00000750,-0.00005140,0.
 00002545,0.00000763,-0.00008144,-0.02330736,-0.00745787,-0.00218990,0.
 09722419,0.09174849,0.00056344,-0.00023238,0.00003370,-0.00108696,0.00
 633209,0.00159672,0.03330009,0.01637826,-0.01671838,-0.00572863,-0.004
 50792,-0.04739209,-0.00189600,-0.00620582,0.00037015,-0.00235393,0.002
 21405,0.00259464,-0.00045562,-0.00097972,-0.00214744,0.00000402,-0.000
 64468,0.00100383,0.00032876,-0.00009362,0.00043762,-0.00003625,-0.0000
 8641,-0.00019286,0.00000576,0.00001033,-0.00004314,-0.00004632,-0.0000
 0648,0.00014192,-0.01826470,-0.00740285,0.00222641,-0.00466386,-0.0039
 8274,0.05774616,0.00039416,0.00010727,-0.00024210,-0.00313739,0.003750
 75,0.00137043,-0.00152391,0.00420509,-0.00555661,0.00799204,0.00753364
 ,-0.01696589,-0.04714155,-0.00032647,0.00326144,-0.00928868,-0.0194529
 9,0.02661191,-0.00310374,-0.00422486,-0.00298619,0.00130509,0.00052162
 ,0.00212806,0.00090757,-0.00014607,-0.00008417,0.00000374,-0.00004998,
 -0.00011518,0.00006474,0.00001398,0.00017352,-0.00003774,-0.00004446,0
 .00002031,0.00021257,0.00016560,0.00076058,0.00018632,-0.00136624,0.00
 041139,0.05320971,0.00045759,0.00145706,0.00005548,0.00092298,-0.00233
 157,-0.00365162,0.00248637,-0.00277191,0.00307252,-0.00394186,-0.00604
 961,0.01617348,-0.00137165,-0.14440121,0.12443088,-0.00718560,-0.00604
 106,0.01221462,-0.00125945,-0.00350966,-0.00097628,0.00021308,0.013029
 24,-0.01088650,-0.00012207,0.00106139,0.00131746,-0.00002203,-0.000024
 88,0.00011695,0.00005942,-0.00006524,0.00008923,-0.00008169,0.00006209
 ,-0.00049870,-0.00044127,0.00006578,-0.00066816,0.00096869,0.00020907,
 -0.00031072,0.00891519,0.14912727,0.00077618,0.00144400,0.00029686,0.0
 0075710,-0.00199151,-0.00262831,0.00015526,-0.00065576,0.00041634,0.00
 178929,-0.00239939,0.00018041,0.00481636,0.12853910,-0.22689555,0.0053
 7911,-0.00018882,0.00565300,-0.00040410,-0.00027034,0.00075161,-0.0020
 9198,0.01601392,-0.01233985,-0.00041716,0.00081652,0.00170800,0.000023
 02,-0.00004800,0.00001359,-0.00005566,-0.00005349,0.00005563,-0.000077
 33,-0.00003315,-0.00061009,-0.00037532,0.00042647,0.00005820,-0.000491
 73,0.00030701,0.00000902,-0.00990473,-0.14112778,0.23357033,0.00094404
 ,0.00111819,0.00097326,-0.00843368,-0.00586013,0.00854161,-0.00146355,
 0.00123286,0.00089490,0.00070117,0.00011499,-0.00000443,-0.00225301,0.
 00015452,-0.00058324,0.00701344,0.00008962,-0.00078928,-0.28542899,0.0
 0562558,0.11202871,-0.00571251,0.00645767,-0.00046079,0.00210877,-0.00
 027422,0.00051369,0.00005845,-0.00038421,-0.00066718,0.00020994,-0.000
 15238,-0.00011643,-0.00010536,0.00014303,-0.00056038,-0.00010747,0.000
 12751,0.00005485,-0.00018112,-0.00020759,0.00005947,0.00010602,0.00036
 662,0.00007976,0.29266508,-0.00093850,0.00051442,-0.00092757,0.0026967
 8,-0.00103613,-0.00820440,0.00510078,-0.00137107,-0.00181041,0.0001534
 4,-0.00003641,0.00265262,-0.00403708,-0.00026862,-0.00086769,0.0076001
 6,-0.00005743,-0.00186257,0.00721552,-0.04105548,-0.00702004,-0.012279
 77,0.01089876,0.01022869,0.00170541,0.00205321,-0.00014147,-0.00008675
 ,0.00014228,0.00022027,-0.00008986,-0.00002130,0.00023808,0.00007847,-
 0.00019291,0.00012065,-0.00018249,0.00048721,-0.00027634,0.00046421,0.
 00009280,-0.00026618,0.00006698,0.00021963,0.00048557,-0.00774796,0.03
 062150,0.00113656,0.00069855,0.00132258,-0.00834679,-0.00098802,0.0071
 5214,-0.00337489,0.00049930,0.00177406,0.00157584,0.00171785,-0.001499
 15,-0.00068305,-0.00322653,-0.00502872,0.02686079,0.00264435,-0.012922
 36,0.10258268,-0.00977939,-0.09786802,-0.00218329,0.00097749,-0.001392
 76,0.00061006,-0.00031787,0.00114921,-0.00013557,-0.00016468,-0.000065
 55,0.00029182,-0.00020044,-0.00003654,-0.00010134,0.00037224,-0.000220
 16,-0.00021651,0.00013793,0.00006963,0.00041768,-0.00052543,0.00036053
 ,0.00105925,0.00022686,-0.00015209,-0.11957889,0.00794172,0.10736345,-
 0.00011402,0.00005102,-0.00006893,0.00088621,-0.00231892,-0.00032938,-
 0.00014048,-0.00044597,0.00014752,-0.00028231,-0.00001726,0.00010484,0
 .00026758,0.00045721,-0.00038650,-0.00009302,0.00020719,0.00043404,0.0
 0093664,0.00073630,0.00028231,0.00409446,-0.00427710,0.00470343,-0.124
 07019,0.09034417,-0.07684534,0.00008785,0.00002017,-0.00003980,0.00001
 301,-0.00003429,0.00006337,0.00002561,0.00001420,-0.00003226,0.0000624
 5,0.00000931,0.,0.00006873,0.00005211,-0.00001057,-0.00005186,0.000071
 63,0.00018780,-0.00007664,0.00012633,0.00007874,0.13075149,-0.00004140
 ,0.00022672,-0.00067127,0.00009161,0.00112446,-0.00399579,0.00047851,-
 0.00255113,-0.00133915,0.00017338,-0.00025314,0.00113452,-0.00015506,0
 .00088268,0.00073142,0.00022677,0.00038419,-0.00023337,-0.00165197,0.0
 0113931,0.00141943,0.01585694,-0.02691149,0.01796742,0.09024485,-0.151
 07889,0.09035623,-0.00006032,-0.00000239,0.00009438,0.00016800,0.00004
 991,0.00013564,-0.00000510,-0.00002464,0.00024325,-0.00000900,0.000048
 78,-0.00013655,0.00015110,0.00007480,-0.00017883,0.00007150,-0.0001023
 1,-0.00079309,-0.00072865,-0.00035693,-0.00031893,-0.09851645,0.169984
 76,0.00007679,-0.00008676,-0.00011440,-0.00015137,-0.00100529,-0.00080
 924,0.00027254,-0.00071856,-0.00005237,0.00006504,0.00001723,0.0002888
 3,0.00018917,0.00016579,0.00083143,0.00035699,0.00039556,0.00015019,-0
 .00047038,0.00085522,0.00044537,0.00698544,-0.00844065,0.00681784,-0.0
 7637494,0.09010092,-0.12329899,-0.00023164,-0.00004914,0.00014236,0.00
 009816,-0.00008011,0.00008095,0.00001370,0.00001808,0.00017072,-0.0000
 1835,0.00002648,-0.00001498,-0.00002538,0.00001327,-0.00001806,0.00000
 324,0.00017042,-0.00008953,-0.00019372,-0.00001811,-0.00002189,0.08465
 092,-0.09801921,0.13030600,-0.00007434,-0.00012134,-0.00009759,-0.0001
 8815,-0.00066611,0.00018178,0.00047868,-0.00035590,-0.00024346,-0.0002
 2574,-0.00032696,0.00008025,-0.00051268,-0.00038836,0.00024130,0.00040
 249,-0.00041890,-0.00134671,0.00250379,0.00204437,0.00067947,-0.003798
 07,-0.00403747,-0.00054044,-0.28721524,-0.05696998,0.02394870,0.000024
 83,-0.00000243,-0.00006539,0.00013728,-0.00000934,0.00009604,0.0000377
 0,-0.00002418,0.00005110,0.00009255,-0.00005649,0.00001377,0.00016889,
 -0.00000250,-0.00007847,0.00001727,-0.00010898,-0.00024644,0.00004933,
 0.00011228,0.00000163,-0.01672887,-0.00374663,0.00259944,0.31233252,0.
 00024078,-0.00019257,0.00004744,-0.00051729,0.00055667,0.00112590,0.00
 054036,-0.00001363,-0.00031522,-0.00055455,-0.00030867,0.00023600,-0.0
 0090834,0.00050562,-0.00033907,0.00123425,-0.00120028,-0.00257519,0.00
 193656,-0.00032242,-0.00050640,-0.03490476,-0.01141711,0.00402864,-0.0
 5787087,-0.06030870,0.00621550,-0.00000386,-0.00002838,-0.00007994,0.0
 0010657,-0.00013040,0.00029595,0.00005379,0.00000907,0.00007714,0.0001
 2932,0.00003514,-0.00000079,0.00036945,0.00007640,-0.00007906,0.000258
 24,0.00001724,-0.00040304,0.00023172,-0.00024079,0.00004154,0.02001860
 ,0.00512269,-0.00311644,0.06614836,0.06774742,0.00030153,-0.00006168,-
 0.00016223,0.00048931,0.00003596,0.00031006,0.00019924,-0.00015074,-0.
 00024205,-0.00017756,-0.00008556,0.00045779,-0.00052986,0.00044393,0.0
 0034187,0.00038295,0.00006171,-0.00067289,0.00029123,-0.00076813,0.000
 50893,-0.01146247,-0.00374348,0.00079200,0.02321885,0.00617141,-0.0485
 0739,-0.00010993,0.00002371,0.00016639,-0.00007729,0.00009533,-0.00004
 001,-0.00014689,0.00005803,0.00001380,-0.00001452,0.00006695,-0.000047
 86,0.00013653,0.00001246,-0.00002346,0.00007208,0.00011544,-0.00015742
 ,0.00002234,-0.00017397,-0.00007405,-0.01792523,-0.00465880,0.00145643
 ,-0.02555675,-0.00497425,0.04804468,0.00012836,-0.00029370,0.00007503,
 0.00055077,0.00002997,0.00055192,-0.00010459,0.00009402,-0.00002472,-0
 .00024504,-0.00025776,-0.00032496,0.00066159,-0.00126614,-0.00018251,-
 0.00016317,-0.00002776,-0.00018278,0.00068248,0.00068961,-0.00026923,0
 .00024025,-0.00061895,-0.00637550,-0.06180339,0.00720804,0.06424880,0.
 00018045,0.00003894,0.00008675,-0.00023649,0.00017579,-0.00010867,-0.0
 0014263,-0.00002973,-0.00005789,0.00010667,-0.00008876,0.00004106,0.00
 006538,-0.00000813,-0.00005161,-0.00011437,0.00007305,0.00010056,-0.00
 009390,0.00004204,0.00000527,0.00436336,-0.00254808,-0.01784564,-0.007
 50223,0.00349167,0.03088642,0.06342649,0.00040057,-0.00029402,-0.00031
 257,0.00087560,0.00157243,-0.00060633,-0.00004488,-0.00002885,0.000712
 54,-0.00034498,0.00007502,-0.00117660,-0.00019523,-0.00320928,0.002073
 19,-0.00188405,-0.00104922,0.00006520,-0.00025260,0.00122678,-0.001069
 19,0.00957019,-0.00526753,-0.03356968,0.00669222,-0.04880079,-0.025367
 16,-0.00044664,-0.00040939,0.00052619,0.00006661,-0.00011213,0.0001204
 9,-0.00016571,0.00020095,0.00019387,0.00025453,-0.00030280,0.00015999,
 0.00005215,-0.00003828,0.00004268,0.00000120,0.00004867,-0.00006825,-0
 .00030718,-0.00039276,0.00026348,-0.00649825,0.00224263,0.01977131,-0.
 00106943,0.00009272,0.00753167,-0.00670413,0.05444585,0.00020679,-0.00
 010511,0.00000967,0.00029868,0.00062791,-0.00019869,-0.00007204,-0.000
 16255,0.00033934,-0.00022144,-0.00002406,-0.00049549,0.00013431,0.0001
 2922,0.00238445,-0.00097180,-0.00066958,0.00023196,0.00006538,0.000248
 06,-0.00058026,0.00190725,-0.00283366,-0.00982069,0.06431807,-0.026403
 00,-0.28943105,-0.00028977,0.00025009,0.00018692,0.00002305,-0.0000764
 5,0.00005897,0.00001831,0.00005789,0.00023238,0.00010805,-0.00013133,0
 .00005649,0.00001224,-0.00001810,0.00001471,-0.00001732,0.00013640,0.0
 0015985,-0.00021425,-0.00031886,0.00008970,0.00498505,-0.00173731,-0.0
 1627064,0.00028177,0.00032127,-0.00216460,-0.07057230,0.03070917,0.315
 19697\\-0.00000195,-0.00000506,0.00003029,-0.00005059,0.00002293,-0.00
 002063,0.00003767,-0.00000136,-0.00001113,0.00002304,-0.00000592,0.000
 01780,-0.00001690,0.00003379,-0.00001608,0.00000242,0.,-0.00001070,-0.
 00002729,-0.00000008,0.00000888,0.00001317,-0.00004003,0.00000427,0.00
 000774,0.00004484,0.00000630,-0.00001114,0.00000618,-0.00000623,-0.000
 00603,0.00000676,-0.00000054,-0.00000775,0.00000179,-0.00000252,-0.000
 00770,-0.00001301,-0.00000521,0.00000462,-0.00001512,0.00001441,0.0000
 1481,-0.00001580,-0.00000091,0.00002969,0.00000784,0.00000932,0.000000
 41,-0.00001010,-0.00000995,0.,-0.00001164,-0.00000359,-0.00000421,-0.0
 0000598,-0.00000379\\\@


 THERE IS MORE TO LIFE THAN INCREASING ITS SPEED.

                                       -- GANDHI
 Job cpu time:       0 days  0 hours 44 minutes 23.6 seconds.
 File lengths (MBytes):  RWF=    152 Int=      0 D2E=      0 Chk=      8 Scr=      1
 Normal termination of Gaussian 09 at Mon Jan 27 19:42:52 2020.
