 Entering Gaussian System, Link 0=/home/puck/opt/gaussian_09/g09
 Input=dsC7O2H10nsd_4889.com
 Output=dsC7O2H10nsd_4889.log
 Initial command:
 /home/puck/opt/gaussian_09/l1.exe "/scratch/puck/g09_89060b90-8cd7-46b7-abcf-9edb0f9abdab/Gau-93594.inp" -scrdir="/scratch/puck/g09_89060b90-8cd7-46b7-abcf-9edb0f9abdab/"
 Entering Link 1 = /home/puck/opt/gaussian_09/l1.exe PID=     93598.
  
 Copyright (c) 1988,1990,1992,1993,1995,1998,2003,2009,2013,
            Gaussian, Inc.  All Rights Reserved.
  
 This is part of the Gaussian(R) 09 program.  It is based on
 the Gaussian(R) 03 system (copyright 2003, Gaussian, Inc.),
 the Gaussian(R) 98 system (copyright 1998, Gaussian, Inc.),
 the Gaussian(R) 94 system (copyright 1995, Gaussian, Inc.),
 the Gaussian 92(TM) system (copyright 1992, Gaussian, Inc.),
 the Gaussian 90(TM) system (copyright 1990, Gaussian, Inc.),
 the Gaussian 88(TM) system (copyright 1988, Gaussian, Inc.),
 the Gaussian 86(TM) system (copyright 1986, Carnegie Mellon
 University), and the Gaussian 82(TM) system (copyright 1983,
 Carnegie Mellon University). Gaussian is a federally registered
 trademark of Gaussian, Inc.
  
 This software contains proprietary and confidential information,
 including trade secrets, belonging to Gaussian, Inc.
  
 This software is provided under written license and may be
 used, copied, transmitted, or stored only in accord with that
 written license.
  
 The following legend is applicable only to US Government
 contracts under FAR:
  
                    RESTRICTED RIGHTS LEGEND
  
 Use, reproduction and disclosure by the US Government is
 subject to restrictions as set forth in subparagraphs (a)
 and (c) of the Commercial Computer Software - Restricted
 Rights clause in FAR 52.227-19.
  
 Gaussian, Inc.
 340 Quinnipiac St., Bldg. 40, Wallingford CT 06492
  
  
 ---------------------------------------------------------------
 Warning -- This program may not be used in any manner that
 competes with the business of Gaussian, Inc. or will provide
 assistance to any competitor of Gaussian, Inc.  The licensee
 of this program is prohibited from giving any competitor of
 Gaussian, Inc. access to this program.  By using this program,
 the user acknowledges that Gaussian, Inc. is engaged in the
 business of creating and licensing software in the field of
 computational chemistry and represents and warrants to the
 licensee that it is not a competitor of Gaussian, Inc. and that
 it will not use this program in any manner prohibited above.
 ---------------------------------------------------------------
  

 Cite this work as:
 Gaussian 09, Revision D.01,
 M. J. Frisch, G. W. Trucks, H. B. Schlegel, G. E. Scuseria, 
 M. A. Robb, J. R. Cheeseman, G. Scalmani, V. Barone, B. Mennucci, 
 G. A. Petersson, H. Nakatsuji, M. Caricato, X. Li, H. P. Hratchian, 
 A. F. Izmaylov, J. Bloino, G. Zheng, J. L. Sonnenberg, M. Hada, 
 M. Ehara, K. Toyota, R. Fukuda, J. Hasegawa, M. Ishida, T. Nakajima, 
 Y. Honda, O. Kitao, H. Nakai, T. Vreven, J. A. Montgomery, Jr., 
 J. E. Peralta, F. Ogliaro, M. Bearpark, J. J. Heyd, E. Brothers, 
 K. N. Kudin, V. N. Staroverov, T. Keith, R. Kobayashi, J. Normand, 
 K. Raghavachari, A. Rendell, J. C. Burant, S. S. Iyengar, J. Tomasi, 
 M. Cossi, N. Rega, J. M. Millam, M. Klene, J. E. Knox, J. B. Cross, 
 V. Bakken, C. Adamo, J. Jaramillo, R. Gomperts, R. E. Stratmann, 
 O. Yazyev, A. J. Austin, R. Cammi, C. Pomelli, J. W. Ochterski, 
 R. L. Martin, K. Morokuma, V. G. Zakrzewski, G. A. Voth, 
 P. Salvador, J. J. Dannenberg, S. Dapprich, A. D. Daniels, 
 O. Farkas, J. B. Foresman, J. V. Ortiz, J. Cioslowski, 
 and D. J. Fox, Gaussian, Inc., Wallingford CT, 2013.
 
 ******************************************
 Gaussian 09:  ES64L-G09RevD.01 24-Apr-2013
                28-Jan-2020 
 ******************************************
 -----------------------------
 # b3lyp 6-31G(2df,p) opt Freq
 -----------------------------
 1/14=-1,18=20,19=15,26=3,38=1/1,3;
 2/9=110,12=2,17=6,18=5,40=1/2;
 3/5=1,6=6,7=104,11=2,16=1,25=1,30=1,71=1,74=-5/1,2,3;
 4//1;
 5/5=2,38=5/2;
 6/7=2,8=2,9=2,10=2,28=1/1;
 7//1,2,3,16;
 1/14=-1,18=20,19=15,26=3/3(2);
 2/9=110/2;
 99//99;
 2/9=110/2;
 3/5=1,6=6,7=104,11=2,16=1,25=1,30=1,71=1,74=-5/1,2,3;
 4/5=5,16=3,69=1/1;
 5/5=2,38=5/2;
 7//1,2,3,16;
 1/14=-1,18=20,19=15,26=3/3(-5);
 2/9=110/2;
 6/7=2,8=2,9=2,10=2,19=2,28=1/1;
 99/9=1/99;
 -----
 titel
 -----
 Symbolic Z-matrix:
 Charge =  0 Multiplicity = 1
 O                    -1.46637   0.4118   -0.49583 
 C                    -0.07396   0.16944  -0.53739 
 C                     0.59983   0.44988   0.79628 
 C                     0.46652   1.857     1.24526 
 O                    -0.19113   2.69852   0.67219 
 C                     1.90514  -0.18152   1.27003 
 C                     2.022    -1.63885   0.79833 
 C                     0.68041  -1.96161   1.53349 
 C                     0.61105  -0.50017   1.99369 
 H                    -1.55737   1.3576   -0.32236 
 H                     0.05163  -0.87478  -0.82992 
 H                     0.41772   0.78301  -1.3081 
 H                     1.01556   2.10985   2.18099 
 H                     2.73478   0.44164   1.58484 
 H                     2.0676   -1.80954  -0.28046 
 H                     2.87083  -2.14482   1.26264 
 H                    -0.15701  -2.32024   0.92996 
 H                     0.82577  -2.64869   2.36933 
 H                     0.26632  -0.16427   2.9647 
 

 GradGradGradGradGradGradGradGradGradGradGradGradGradGradGradGradGradGrad
 Berny optimization.
 Initialization pass.
                           ----------------------------
                           !    Initial Parameters    !
                           ! (Angstroms and Degrees)  !
 --------------------------                            --------------------------
 ! Name  Definition              Value          Derivative Info.                !
 --------------------------------------------------------------------------------
 ! R1    R(1,2)                  1.414          estimate D2E/DX2                !
 ! R2    R(1,10)                 0.9659         estimate D2E/DX2                !
 ! R3    R(2,3)                  1.5203         estimate D2E/DX2                !
 ! R4    R(2,11)                 1.0917         estimate D2E/DX2                !
 ! R5    R(2,12)                 1.101          estimate D2E/DX2                !
 ! R6    R(3,4)                  1.483          estimate D2E/DX2                !
 ! R7    R(3,6)                  1.5254         estimate D2E/DX2                !
 ! R8    R(3,9)                  1.5286         estimate D2E/DX2                !
 ! R9    R(4,5)                  1.212          estimate D2E/DX2                !
 ! R10   R(4,13)                 1.114          estimate D2E/DX2                !
 ! R11   R(6,7)                  1.5362         estimate D2E/DX2                !
 ! R12   R(6,9)                  1.5165         estimate D2E/DX2                !
 ! R13   R(6,14)                 1.0843         estimate D2E/DX2                !
 ! R14   R(7,8)                  1.5635         estimate D2E/DX2                !
 ! R15   R(7,15)                 1.0932         estimate D2E/DX2                !
 ! R16   R(7,16)                 1.0918         estimate D2E/DX2                !
 ! R17   R(8,9)                  1.5338         estimate D2E/DX2                !
 ! R18   R(8,17)                 1.0928         estimate D2E/DX2                !
 ! R19   R(8,18)                 1.0917         estimate D2E/DX2                !
 ! R20   R(9,19)                 1.0838         estimate D2E/DX2                !
 ! A1    A(2,1,10)             105.421          estimate D2E/DX2                !
 ! A2    A(1,2,3)              112.274          estimate D2E/DX2                !
 ! A3    A(1,2,11)             106.5663         estimate D2E/DX2                !
 ! A4    A(1,2,12)             111.3965         estimate D2E/DX2                !
 ! A5    A(3,2,11)             111.1328         estimate D2E/DX2                !
 ! A6    A(3,2,12)             108.2616         estimate D2E/DX2                !
 ! A7    A(11,2,12)            107.1042         estimate D2E/DX2                !
 ! A8    A(2,3,4)              113.6261         estimate D2E/DX2                !
 ! A9    A(2,3,6)              125.1223         estimate D2E/DX2                !
 ! A10   A(2,3,9)              125.155          estimate D2E/DX2                !
 ! A11   A(4,3,6)              112.0638         estimate D2E/DX2                !
 ! A12   A(4,3,9)              110.685          estimate D2E/DX2                !
 ! A13   A(3,4,5)              124.3604         estimate D2E/DX2                !
 ! A14   A(3,4,13)             115.1732         estimate D2E/DX2                !
 ! A15   A(5,4,13)             120.4633         estimate D2E/DX2                !
 ! A16   A(3,6,7)              111.2478         estimate D2E/DX2                !
 ! A17   A(3,6,14)             120.4645         estimate D2E/DX2                !
 ! A18   A(7,6,9)               90.6937         estimate D2E/DX2                !
 ! A19   A(7,6,14)             125.1789         estimate D2E/DX2                !
 ! A20   A(9,6,14)             129.4284         estimate D2E/DX2                !
 ! A21   A(6,7,8)               89.2083         estimate D2E/DX2                !
 ! A22   A(6,7,15)             117.0205         estimate D2E/DX2                !
 ! A23   A(6,7,16)             111.6034         estimate D2E/DX2                !
 ! A24   A(8,7,15)             117.8773         estimate D2E/DX2                !
 ! A25   A(8,7,16)             111.8066         estimate D2E/DX2                !
 ! A26   A(15,7,16)            108.3538         estimate D2E/DX2                !
 ! A27   A(7,8,9)               89.0366         estimate D2E/DX2                !
 ! A28   A(7,8,17)             117.7513         estimate D2E/DX2                !
 ! A29   A(7,8,18)             112.0658         estimate D2E/DX2                !
 ! A30   A(9,8,17)             116.3449         estimate D2E/DX2                !
 ! A31   A(9,8,18)             112.0845         estimate D2E/DX2                !
 ! A32   A(17,8,18)            108.5624         estimate D2E/DX2                !
 ! A33   A(3,9,8)              110.9478         estimate D2E/DX2                !
 ! A34   A(3,9,19)             120.456          estimate D2E/DX2                !
 ! A35   A(6,9,8)               91.0568         estimate D2E/DX2                !
 ! A36   A(6,9,19)             129.3345         estimate D2E/DX2                !
 ! A37   A(8,9,19)             125.3487         estimate D2E/DX2                !
 ! D1    D(10,1,2,3)            63.5587         estimate D2E/DX2                !
 ! D2    D(10,1,2,11)         -174.5494         estimate D2E/DX2                !
 ! D3    D(10,1,2,12)          -58.0545         estimate D2E/DX2                !
 ! D4    D(1,2,3,4)            -60.9279         estimate D2E/DX2                !
 ! D5    D(1,2,3,6)            155.0775         estimate D2E/DX2                !
 ! D6    D(1,2,3,9)             80.2979         estimate D2E/DX2                !
 ! D7    D(11,2,3,4)           179.82           estimate D2E/DX2                !
 ! D8    D(11,2,3,6)            35.8255         estimate D2E/DX2                !
 ! D9    D(11,2,3,9)           -38.9541         estimate D2E/DX2                !
 ! D10   D(12,2,3,4)            62.4599         estimate D2E/DX2                !
 ! D11   D(12,2,3,6)           -81.5346         estimate D2E/DX2                !
 ! D12   D(12,2,3,9)          -156.3143         estimate D2E/DX2                !
 ! D13   D(2,3,4,5)              5.0639         estimate D2E/DX2                !
 ! D14   D(2,3,4,13)          -175.5794         estimate D2E/DX2                !
 ! D15   D(6,3,4,5)            153.8106         estimate D2E/DX2                !
 ! D16   D(6,3,4,13)           -26.8327         estimate D2E/DX2                !
 ! D17   D(9,3,4,5)           -141.7539         estimate D2E/DX2                !
 ! D18   D(9,3,4,13)            37.6028         estimate D2E/DX2                !
 ! D19   D(2,3,6,7)            -35.6917         estimate D2E/DX2                !
 ! D20   D(2,3,6,14)           125.3715         estimate D2E/DX2                !
 ! D21   D(4,3,6,7)            179.8396         estimate D2E/DX2                !
 ! D22   D(4,3,6,14)           -19.0972         estimate D2E/DX2                !
 ! D23   D(2,3,9,8)             35.088          estimate D2E/DX2                !
 ! D24   D(2,3,9,19)          -125.6047         estimate D2E/DX2                !
 ! D25   D(4,3,9,8)            177.2598         estimate D2E/DX2                !
 ! D26   D(4,3,9,19)            16.5671         estimate D2E/DX2                !
 ! D27   D(3,6,7,8)            -57.7154         estimate D2E/DX2                !
 ! D28   D(3,6,7,15)            63.4744         estimate D2E/DX2                !
 ! D29   D(3,6,7,16)          -170.9256         estimate D2E/DX2                !
 ! D30   D(9,6,7,8)              0.5187         estimate D2E/DX2                !
 ! D31   D(9,6,7,15)           121.7086         estimate D2E/DX2                !
 ! D32   D(9,6,7,16)          -112.6915         estimate D2E/DX2                !
 ! D33   D(14,6,7,8)           142.2972         estimate D2E/DX2                !
 ! D34   D(14,6,7,15)          -96.5129         estimate D2E/DX2                !
 ! D35   D(14,6,7,16)           29.087          estimate D2E/DX2                !
 ! D36   D(7,6,9,8)             -0.5288         estimate D2E/DX2                !
 ! D37   D(7,6,9,19)           139.2227         estimate D2E/DX2                !
 ! D38   D(14,6,9,8)          -139.632          estimate D2E/DX2                !
 ! D39   D(14,6,9,19)            0.1195         estimate D2E/DX2                !
 ! D40   D(6,7,8,9)             -0.5129         estimate D2E/DX2                !
 ! D41   D(6,7,8,17)           119.0036         estimate D2E/DX2                !
 ! D42   D(6,7,8,18)          -114.0242         estimate D2E/DX2                !
 ! D43   D(15,7,8,9)          -120.9567         estimate D2E/DX2                !
 ! D44   D(15,7,8,17)           -1.4401         estimate D2E/DX2                !
 ! D45   D(15,7,8,18)          125.532          estimate D2E/DX2                !
 ! D46   D(16,7,8,9)           112.5079         estimate D2E/DX2                !
 ! D47   D(16,7,8,17)         -127.9756         estimate D2E/DX2                !
 ! D48   D(16,7,8,18)           -1.0034         estimate D2E/DX2                !
 ! D49   D(7,8,9,3)             58.7562         estimate D2E/DX2                !
 ! D50   D(7,8,9,6)              0.5196         estimate D2E/DX2                !
 ! D51   D(7,8,9,19)          -141.6964         estimate D2E/DX2                !
 ! D52   D(17,8,9,3)           -61.9974         estimate D2E/DX2                !
 ! D53   D(17,8,9,6)          -120.2339         estimate D2E/DX2                !
 ! D54   D(17,8,9,19)           97.55           estimate D2E/DX2                !
 ! D55   D(18,8,9,3)           172.25           estimate D2E/DX2                !
 ! D56   D(18,8,9,6)           114.0135         estimate D2E/DX2                !
 ! D57   D(18,8,9,19)          -28.2026         estimate D2E/DX2                !
 --------------------------------------------------------------------------------
 Trust Radius=3.00D-01 FncErr=1.00D-07 GrdErr=1.00D-06
 Number of steps in this run=    114 maximum allowed number of steps=    114.
 GradGradGradGradGradGradGradGradGradGradGradGradGradGradGradGradGradGrad

                          Input orientation:                          
 ---------------------------------------------------------------------
 Center     Atomic      Atomic             Coordinates (Angstroms)
 Number     Number       Type             X           Y           Z
 ---------------------------------------------------------------------
      1          8           0       -1.466369    0.411801   -0.495833
      2          6           0       -0.073957    0.169439   -0.537393
      3          6           0        0.599833    0.449884    0.796284
      4          6           0        0.466520    1.856999    1.245260
      5          8           0       -0.191132    2.698517    0.672194
      6          6           0        1.905138   -0.181524    1.270027
      7          6           0        2.022001   -1.638851    0.798329
      8          6           0        0.680414   -1.961611    1.533485
      9          6           0        0.611055   -0.500174    1.993688
     10          1           0       -1.557374    1.357598   -0.322357
     11          1           0        0.051634   -0.874779   -0.829920
     12          1           0        0.417720    0.783009   -1.308100
     13          1           0        1.015563    2.109848    2.180991
     14          1           0        2.734783    0.441637    1.584837
     15          1           0        2.067597   -1.809536   -0.280460
     16          1           0        2.870830   -2.144821    1.262639
     17          1           0       -0.157011   -2.320244    0.929962
     18          1           0        0.825774   -2.648685    2.369334
     19          1           0        0.266315   -0.164266    2.964701
 ---------------------------------------------------------------------
                    Distance matrix (angstroms):
                    1          2          3          4          5
     1  O    0.000000
     2  C    1.413958   0.000000
     3  C    2.437254   1.520308   0.000000
     4  C    2.975914   2.513529   1.483013   0.000000
     5  O    2.866983   2.805899   2.386918   1.212049   0.000000
     6  C    3.851929   2.703102   1.525428   2.495158   3.611979
     7  C    4.248383   3.073614   2.526931   3.852304   4.871000
     8  C    3.789445   3.065776   2.522947   3.835441   4.818528
     9  C    3.368249   2.706288   1.528565   2.477358   3.552672
    10  H    0.965872   1.912718   2.594002   2.608251   2.157270
    11  H    2.017729   1.091666   2.167901   3.455592   3.883777
    12  H    2.085033   1.101001   2.138357   2.770466   2.821602
    13  H    4.026008   3.513097   2.201301   1.113990   2.019681
    14  H    4.688257   3.530860   2.275939   2.695104   3.806233
    15  H    4.179669   2.927219   2.901497   4.281910   5.131467
    16  H    5.332901   4.155440   3.479570   4.668573   5.760396
    17  H    3.348339   2.891115   2.874768   4.235276   5.025492
    18  H    4.778041   4.147336   3.482336   4.657661   5.701488
    19  H    3.912715   3.534374   2.278255   2.661216   3.695994
                    6          7          8          9         10
     6  C    0.000000
     7  C    1.536216   0.000000
     8  C    2.176710   1.563485   0.000000
     9  C    1.516533   2.171691   1.533752   0.000000
    10  H    4.110179   4.800685   4.412368   3.676611   0.000000
    11  H    2.885456   2.667836   2.676239   2.902765   2.798219
    12  H    3.128814   3.588338   3.959363   3.547639   2.280973
    13  H    2.621371   4.120367   4.136226   2.647815   3.667784
    14  H    1.084319   2.335612   3.162067   2.358896   4.785289
    15  H    2.254068   1.093159   2.288624   3.001282   4.813825
    16  H    2.187955   1.091833   2.214688   2.888923   5.864140
    17  H    2.990355   2.286858   1.092767   2.243679   4.129871
    18  H    2.908674   2.217833   1.091716   2.191647   5.382834
    19  H    2.357532   3.154363   2.334588   1.083764   4.055448
                   11         12         13         14         15
    11  H    0.000000
    12  H    1.763784   0.000000
    13  H    4.347728   3.780433   0.000000
    14  H    3.842303   3.722150   2.468613   0.000000
    15  H    2.289058   3.240282   4.746271   2.998708   0.000000
    16  H    3.733588   4.604198   4.731553   2.609997   1.771652
    17  H    2.286938   3.869033   4.750339   4.052076   2.583569
    18  H    3.739153   5.046440   4.766040   3.716160   3.044290
    19  H    3.866531   4.379164   2.519359   2.892141   4.059876
                   16         17         18         19
    16  H    0.000000
    17  H    3.051109   0.000000
    18  H    2.379266   1.773565   0.000000
    19  H    3.688239   2.994596   2.615300   0.000000
 Stoichiometry    C7H10O2
 Framework group  C1[X(C7H10O2)]
 Deg. of freedom    51
 Full point group                 C1      NOp   1
 Largest Abelian subgroup         C1      NOp   1
 Largest concise Abelian subgroup C1      NOp   1
                         Standard orientation:                         
 ---------------------------------------------------------------------
 Center     Atomic      Atomic             Coordinates (Angstroms)
 Number     Number       Type             X           Y           Z
 ---------------------------------------------------------------------
      1          8           0        1.512781    1.758347    0.303627
      2          6           0        0.644268    1.113680   -0.607070
      3          6           0        0.202438   -0.254210   -0.112096
      4          6           0        1.323504   -1.203833    0.089780
      5          8           0        2.494619   -0.914728   -0.028423
      6          6           0       -1.082569   -0.964355   -0.526076
      7          6           0       -2.231576    0.035508   -0.726118
      8          6           0       -2.039988    0.517566    0.748806
      9          6           0       -0.907661   -0.504561    0.908452
     10          1           0        2.300464    1.200953    0.345761
     11          1           0       -0.211247    1.777714   -0.744507
     12          1           0        1.117845    0.987414   -1.592963
     13          1           0        1.023163   -2.237083    0.378160
     14          1           0       -1.048595   -1.967306   -0.936787
     15          1           0       -2.114623    0.773261   -1.524265
     16          1           0       -3.187496   -0.473277   -0.865599
     17          1           0       -1.774267    1.564999    0.911333
     18          1           0       -2.901704    0.276546    1.374266
     19          1           0       -0.713218   -1.090939    1.798900
 ---------------------------------------------------------------------
 Rotational constants (GHZ):      2.8350989      1.3394871      1.0889599
 Standard basis: 6-31G(2df,p) (6D, 7F)
 There are   329 symmetry adapted cartesian basis functions of A   symmetry.
 There are   302 symmetry adapted basis functions of A   symmetry.
   302 basis functions,   466 primitive gaussians,   329 cartesian basis functions
    34 alpha electrons       34 beta electrons
       nuclear repulsion energy       460.9434308513 Hartrees.
 NAtoms=   19 NActive=   19 NUniq=   19 SFac= 1.00D+00 NAtFMM=   60 NAOKFM=F Big=F
 Integral buffers will be    131072 words long.
 Raffenetti 2 integral format.
 Two-electron integral symmetry is turned on.
 One-electron integrals computed using PRISM.
 NBasis=   302 RedAO= T EigKep=  4.01D-04  NBF=   302
 NBsUse=   302 1.00D-06 EigRej= -1.00D+00 NBFU=   302
 ExpMin= 1.61D-01 ExpMax= 5.48D+03 ExpMxC= 8.25D+02 IAcc=1 IRadAn=         1 AccDes= 0.00D+00
 Harris functional with IExCor=  402 and IRadAn=       1 diagonalized for initial guess.
 HarFok:  IExCor=  402 AccDes= 0.00D+00 IRadAn=         1 IDoV= 1 UseB2=F ITyADJ=14
 ICtDFT=  3500011 ScaDFX=  1.000000  1.000000  1.000000  1.000000
 FoFCou: FMM=F IPFlag=           0 FMFlag=      100000 FMFlg1=           0
         NFxFlg=           0 DoJE=T BraDBF=F KetDBF=T FulRan=T
         wScrn=  0.000000 ICntrl=     500 IOpCl=  0 I1Cent=   200000004 NGrid=           0
         NMat0=    1 NMatS0=      1 NMatT0=    0 NMatD0=    1 NMtDS0=    0 NMtDT0=    0
 Petite list used in FoFCou.
 Requested convergence on RMS density matrix=1.00D-08 within 128 cycles.
 Requested convergence on MAX density matrix=1.00D-06.
 Requested convergence on             energy=1.00D-06.
 No special actions if energy rises.
 Integral accuracy reduced to 1.0D-05 until final iterations.
 Initial convergence to 1.0D-05 achieved.  Increase integral accuracy.
 SCF Done:  E(RB3LYP) =  -423.161523622     A.U. after   14 cycles
            NFock= 14  Conv=0.64D-08     -V/T= 2.0075

 **********************************************************************

            Population analysis using the SCF density.

 **********************************************************************

 Orbital symmetries:
       Occupied  (A) (A) (A) (A) (A) (A) (A) (A) (A) (A) (A) (A)
                 (A) (A) (A) (A) (A) (A) (A) (A) (A) (A) (A) (A)
                 (A) (A) (A) (A) (A) (A) (A) (A) (A) (A)
       Virtual   (A) (A) (A) (A) (A) (A) (A) (A) (A) (A) (A) (A)
                 (A) (A) (A) (A) (A) (A) (A) (A) (A) (A) (A) (A)
                 (A) (A) (A) (A) (A) (A) (A) (A) (A) (A) (A) (A)
                 (A) (A) (A) (A) (A) (A) (A) (A) (A) (A) (A) (A)
                 (A) (A) (A) (A) (A) (A) (A) (A) (A) (A) (A) (A)
                 (A) (A) (A) (A) (A) (A) (A) (A) (A) (A) (A) (A)
                 (A) (A) (A) (A) (A) (A) (A) (A) (A) (A) (A) (A)
                 (A) (A) (A) (A) (A) (A) (A) (A) (A) (A) (A) (A)
                 (A) (A) (A) (A) (A) (A) (A) (A) (A) (A) (A) (A)
                 (A) (A) (A) (A) (A) (A) (A) (A) (A) (A) (A) (A)
                 (A) (A) (A) (A) (A) (A) (A) (A) (A) (A) (A) (A)
                 (A) (A) (A) (A) (A) (A) (A) (A) (A) (A) (A) (A)
                 (A) (A) (A) (A) (A) (A) (A) (A) (A) (A) (A) (A)
                 (A) (A) (A) (A) (A) (A) (A) (A) (A) (A) (A) (A)
                 (A) (A) (A) (A) (A) (A) (A) (A) (A) (A) (A) (A)
                 (A) (A) (A) (A) (A) (A) (A) (A) (A) (A) (A) (A)
                 (A) (A) (A) (A) (A) (A) (A) (A) (A) (A) (A) (A)
                 (A) (A) (A) (A) (A) (A) (A) (A) (A) (A) (A) (A)
                 (A) (A) (A) (A) (A) (A) (A) (A) (A) (A) (A) (A)
                 (A) (A) (A) (A) (A) (A) (A) (A) (A) (A) (A) (A)
                 (A) (A) (A) (A) (A) (A) (A) (A) (A) (A) (A) (A)
                 (A) (A) (A) (A) (A) (A) (A) (A) (A) (A) (A) (A)
                 (A) (A) (A) (A)
 The electronic state is 1-A.
 Alpha  occ. eigenvalues --  -19.14495 -19.12206 -10.27655 -10.22773 -10.21482
 Alpha  occ. eigenvalues --  -10.21422 -10.21136 -10.20153 -10.19956  -1.05266
 Alpha  occ. eigenvalues --   -1.00573  -0.91677  -0.76884  -0.69247  -0.66984
 Alpha  occ. eigenvalues --   -0.63493  -0.56043  -0.55084  -0.52517  -0.49155
 Alpha  occ. eigenvalues --   -0.47924  -0.45629  -0.43608  -0.42329  -0.40715
 Alpha  occ. eigenvalues --   -0.40291  -0.38069  -0.36082  -0.34256  -0.33470
 Alpha  occ. eigenvalues --   -0.29354  -0.28947  -0.26051  -0.25348
 Alpha virt. eigenvalues --   -0.02863   0.08430   0.09123   0.09890   0.10497
 Alpha virt. eigenvalues --    0.11867   0.13906   0.14633   0.15351   0.16485
 Alpha virt. eigenvalues --    0.17122   0.18587   0.19861   0.21319   0.22132
 Alpha virt. eigenvalues --    0.23182   0.25563   0.27647   0.28892   0.31658
 Alpha virt. eigenvalues --    0.34993   0.42295   0.43010   0.45290   0.46168
 Alpha virt. eigenvalues --    0.47799   0.49345   0.50468   0.50626   0.52735
 Alpha virt. eigenvalues --    0.53842   0.55115   0.58996   0.59605   0.62076
 Alpha virt. eigenvalues --    0.62642   0.63188   0.64734   0.64911   0.67629
 Alpha virt. eigenvalues --    0.68510   0.70168   0.72420   0.72735   0.74596
 Alpha virt. eigenvalues --    0.75023   0.75716   0.76686   0.77099   0.81599
 Alpha virt. eigenvalues --    0.83016   0.84266   0.85249   0.85931   0.88706
 Alpha virt. eigenvalues --    0.92030   0.92873   0.94424   0.97170   0.97439
 Alpha virt. eigenvalues --    0.99135   1.01601   1.02994   1.04345   1.07229
 Alpha virt. eigenvalues --    1.09273   1.13801   1.14252   1.15557   1.17837
 Alpha virt. eigenvalues --    1.20449   1.21281   1.25333   1.26483   1.27629
 Alpha virt. eigenvalues --    1.30574   1.33069   1.34832   1.36475   1.39369
 Alpha virt. eigenvalues --    1.41295   1.44362   1.44652   1.46924   1.47131
 Alpha virt. eigenvalues --    1.48742   1.50551   1.51602   1.53004   1.54603
 Alpha virt. eigenvalues --    1.59553   1.61849   1.62380   1.67366   1.67378
 Alpha virt. eigenvalues --    1.68423   1.69613   1.70324   1.74501   1.76282
 Alpha virt. eigenvalues --    1.79581   1.81368   1.84587   1.89835   1.91553
 Alpha virt. eigenvalues --    1.96302   1.98163   2.02186   2.04062   2.11345
 Alpha virt. eigenvalues --    2.14009   2.15323   2.18132   2.23343   2.27365
 Alpha virt. eigenvalues --    2.31707   2.36069   2.39975   2.40574   2.42498
 Alpha virt. eigenvalues --    2.45405   2.48021   2.53249   2.57302   2.58020
 Alpha virt. eigenvalues --    2.60362   2.61941   2.63928   2.70592   2.72508
 Alpha virt. eigenvalues --    2.78436   2.79296   2.81520   2.83498   2.86689
 Alpha virt. eigenvalues --    2.88534   2.89224   2.91149   2.91853   2.93225
 Alpha virt. eigenvalues --    2.95065   2.96173   2.97039   3.01239   3.02426
 Alpha virt. eigenvalues --    3.03872   3.07560   3.07972   3.08920   3.10819
 Alpha virt. eigenvalues --    3.13919   3.14748   3.18607   3.21151   3.24482
 Alpha virt. eigenvalues --    3.26328   3.31633   3.32230   3.32458   3.35026
 Alpha virt. eigenvalues --    3.37750   3.38634   3.42971   3.43268   3.44957
 Alpha virt. eigenvalues --    3.47145   3.47962   3.51384   3.53452   3.55748
 Alpha virt. eigenvalues --    3.62267   3.64029   3.67886   3.74431   3.79263
 Alpha virt. eigenvalues --    3.80899   3.83017   3.85476   3.91442   3.96205
 Alpha virt. eigenvalues --    3.96844   4.02019   4.07354   4.11164   4.14687
 Alpha virt. eigenvalues --    4.17704   4.19545   4.20170   4.25545   4.26116
 Alpha virt. eigenvalues --    4.29147   4.30018   4.32772   4.36396   4.37398
 Alpha virt. eigenvalues --    4.40546   4.41387   4.43115   4.45343   4.46844
 Alpha virt. eigenvalues --    4.47693   4.49455   4.53124   4.53448   4.56966
 Alpha virt. eigenvalues --    4.59775   4.60949   4.61642   4.64830   4.66137
 Alpha virt. eigenvalues --    4.68225   4.68810   4.71306   4.74480   4.76091
 Alpha virt. eigenvalues --    4.76251   4.80050   4.80627   4.83930   4.87044
 Alpha virt. eigenvalues --    4.87705   4.89313   4.92195   4.94545   4.95434
 Alpha virt. eigenvalues --    4.98620   5.05305   5.05529   5.06136   5.09116
 Alpha virt. eigenvalues --    5.11301   5.15702   5.17528   5.25703   5.31546
 Alpha virt. eigenvalues --    5.34856   5.38566   5.39179   5.43633   5.46847
 Alpha virt. eigenvalues --    5.48643   5.51276   5.57242   5.59125   5.61829
 Alpha virt. eigenvalues --    5.65670   5.71077   5.74071   5.79064   5.96212
 Alpha virt. eigenvalues --    5.99597   6.00440   6.12451   6.23341   6.39534
 Alpha virt. eigenvalues --    6.60351   6.63914   6.84539   7.10370  10.62863
 Alpha virt. eigenvalues --   11.05603  11.48943  11.77165  11.91257  12.55817
 Alpha virt. eigenvalues --   12.78617  13.03149  13.25125
          Condensed to atoms (all electrons):
               1          2          3          4          5          6
     1  O    7.844151   0.365857  -0.049573   0.000935  -0.009277   0.003808
     2  C    0.365857   4.904683   0.337044  -0.012635  -0.000480  -0.032495
     3  C   -0.049573   0.337044   5.085933   0.280706  -0.068073   0.202013
     4  C    0.000935  -0.012635   0.280706   4.550929   0.746657  -0.022054
     5  O   -0.009277  -0.000480  -0.068073   0.746657   7.646482   0.000467
     6  C    0.003808  -0.032495   0.202013  -0.022054   0.000467   5.008911
     7  C    0.000052  -0.006899   0.003784   0.001176  -0.000049   0.373111
     8  C   -0.000627  -0.001927  -0.006075   0.000320  -0.000037  -0.060614
     9  C    0.002813  -0.037429   0.263160  -0.019399  -0.000229   0.345028
    10  H    0.314302  -0.062882  -0.011940   0.006086   0.027768  -0.000114
    11  H   -0.016862   0.347760  -0.010469   0.004582   0.000203  -0.008234
    12  H   -0.028777   0.344286  -0.038849  -0.006497   0.003110   0.008267
    13  H   -0.000262   0.007492  -0.119407   0.354097  -0.048711  -0.005105
    14  H   -0.000034   0.001487  -0.035663  -0.004791   0.000189   0.374755
    15  H    0.000006   0.000075  -0.004504   0.000080  -0.000002  -0.023918
    16  H   -0.000001   0.000165   0.001362  -0.000055   0.000000  -0.020736
    17  H    0.000714   0.001040  -0.006041   0.000132  -0.000002   0.001633
    18  H   -0.000001   0.000015   0.002145  -0.000024   0.000000   0.001882
    19  H    0.000060   0.001977  -0.040059  -0.002808   0.000222  -0.034351
               7          8          9         10         11         12
     1  O    0.000052  -0.000627   0.002813   0.314302  -0.016862  -0.028777
     2  C   -0.006899  -0.001927  -0.037429  -0.062882   0.347760   0.344286
     3  C    0.003784  -0.006075   0.263160  -0.011940  -0.010469  -0.038849
     4  C    0.001176   0.000320  -0.019399   0.006086   0.004582  -0.006497
     5  O   -0.000049  -0.000037  -0.000229   0.027768   0.000203   0.003110
     6  C    0.373111  -0.060614   0.345028  -0.000114  -0.008234   0.008267
     7  C    4.934829   0.357721  -0.063510   0.000003   0.002296  -0.000566
     8  C    0.357721   4.926760   0.383038   0.000022   0.004219  -0.000025
     9  C   -0.063510   0.383038   4.901853  -0.000439  -0.012409   0.006839
    10  H    0.000003   0.000022  -0.000439   0.428444   0.006632  -0.004836
    11  H    0.002296   0.004219  -0.012409   0.006632   0.617423  -0.047167
    12  H   -0.000566  -0.000025   0.006839  -0.004836  -0.047167   0.667382
    13  H   -0.000219  -0.000200   0.002184   0.000752  -0.000134   0.000059
    14  H   -0.048062   0.010342  -0.031583   0.000001  -0.000183   0.000417
    15  H    0.363390  -0.025389   0.001561  -0.000001   0.002922  -0.000132
    16  H    0.367327  -0.022298   0.001892   0.000000  -0.000093  -0.000019
    17  H   -0.025093   0.363773  -0.022551  -0.000039   0.002461  -0.000060
    18  H   -0.022828   0.368735  -0.022188   0.000001  -0.000051  -0.000004
    19  H    0.010343  -0.047272   0.381528   0.000018  -0.000093  -0.000071
              13         14         15         16         17         18
     1  O   -0.000262  -0.000034   0.000006  -0.000001   0.000714  -0.000001
     2  C    0.007492   0.001487   0.000075   0.000165   0.001040   0.000015
     3  C   -0.119407  -0.035663  -0.004504   0.001362  -0.006041   0.002145
     4  C    0.354097  -0.004791   0.000080  -0.000055   0.000132  -0.000024
     5  O   -0.048711   0.000189  -0.000002   0.000000  -0.000002   0.000000
     6  C   -0.005105   0.374755  -0.023918  -0.020736   0.001633   0.001882
     7  C   -0.000219  -0.048062   0.363390   0.367327  -0.025093  -0.022828
     8  C   -0.000200   0.010342  -0.025389  -0.022298   0.363773   0.368735
     9  C    0.002184  -0.031583   0.001561   0.001892  -0.022551  -0.022188
    10  H    0.000752   0.000001  -0.000001   0.000000  -0.000039   0.000001
    11  H   -0.000134  -0.000183   0.002922  -0.000093   0.002461  -0.000051
    12  H    0.000059   0.000417  -0.000132  -0.000019  -0.000060  -0.000004
    13  H    0.719865   0.004959   0.000001   0.000003   0.000005   0.000008
    14  H    0.004959   0.637348   0.002046  -0.002700  -0.000488  -0.000177
    15  H    0.000001   0.002046   0.614836  -0.040291  -0.004447   0.003245
    16  H    0.000003  -0.002700  -0.040291   0.607430   0.003178  -0.008942
    17  H    0.000005  -0.000488  -0.004447   0.003178   0.600827  -0.039153
    18  H    0.000008  -0.000177   0.003245  -0.008942  -0.039153   0.606479
    19  H    0.003837  -0.003245  -0.000489  -0.000138   0.002141  -0.002910
              19
     1  O    0.000060
     2  C    0.001977
     3  C   -0.040059
     4  C   -0.002808
     5  O    0.000222
     6  C   -0.034351
     7  C    0.010343
     8  C   -0.047272
     9  C    0.381528
    10  H    0.000018
    11  H   -0.000093
    12  H   -0.000071
    13  H    0.003837
    14  H   -0.003245
    15  H   -0.000489
    16  H   -0.000138
    17  H    0.002141
    18  H   -0.002910
    19  H    0.632931
 Mulliken charges:
               1
     1  O   -0.427283
     2  C   -0.157134
     3  C    0.214508
     4  C    0.122565
     5  O   -0.298238
     6  C   -0.112255
     7  C   -0.246804
     8  C   -0.250467
     9  C   -0.080158
    10  H    0.296221
    11  H    0.107196
    12  H    0.096645
    13  H    0.080775
    14  H    0.095381
    15  H    0.111014
    16  H    0.113916
    17  H    0.121971
    18  H    0.113767
    19  H    0.098379
 Sum of Mulliken charges =   0.00000
 Mulliken charges with hydrogens summed into heavy atoms:
               1
     1  O   -0.131062
     2  C    0.046707
     3  C    0.214508
     4  C    0.203340
     5  O   -0.298238
     6  C   -0.016874
     7  C   -0.021874
     8  C   -0.014729
     9  C    0.018221
 Electronic spatial extent (au):  <R**2>=           1153.3192
 Charge=              0.0000 electrons
 Dipole moment (field-independent basis, Debye):
    X=             -3.1673    Y=             -1.5786    Z=             -0.3237  Tot=              3.5536
 Quadrupole moment (field-independent basis, Debye-Ang):
   XX=            -56.9044   YY=            -55.3488   ZZ=            -52.0849
   XY=              0.0475   XZ=             -0.2055   YZ=             -1.7479
 Traceless Quadrupole moment (field-independent basis, Debye-Ang):
   XX=             -2.1250   YY=             -0.5695   ZZ=              2.6945
   XY=              0.0475   XZ=             -0.2055   YZ=             -1.7479
 Octapole moment (field-independent basis, Debye-Ang**2):
  XXX=             -4.5671  YYY=             -9.0378  ZZZ=              2.4788  XYY=             -2.9756
  XXY=              8.4309  XXZ=              2.5586  XZZ=              4.9473  YZZ=             -0.1388
  YYZ=             -2.4923  XYZ=             -1.6401
 Hexadecapole moment (field-independent basis, Debye-Ang**3):
 XXXX=           -895.4311 YYYY=           -399.7229 ZZZZ=           -187.8241 XXXY=             41.4911
 XXXZ=              5.6327 YYYX=            -16.7296 YYYZ=             -0.1149 ZZZX=             -1.2486
 ZZZY=             -2.0641 XXYY=           -225.6748 XXZZ=           -172.0221 YYZZ=            -94.3325
 XXYZ=              2.6481 YYXZ=              0.6281 ZZXY=              0.6547
 N-N= 4.609434308513D+02 E-N=-1.908347730658D+03  KE= 4.200222414673D+02
 Calling FoFJK, ICntrl=      2127 FMM=F ISym2X=0 I1Cent= 0 IOpClX= 0 NMat=1 NMatS=1 NMatT=0.
 ***** Axes restored to original set *****
 -------------------------------------------------------------------
 Center     Atomic                   Forces (Hartrees/Bohr)
 Number     Number              X              Y              Z
 -------------------------------------------------------------------
      1        8           0.000074494   -0.000091609   -0.000051397
      2        6          -0.000027133    0.000066740   -0.000012449
      3        6          -0.000031555   -0.000035578    0.000039075
      4        6          -0.000074760    0.000018884   -0.000018455
      5        8           0.000035125   -0.000012294   -0.000006345
      6        6           0.000068074   -0.000010211   -0.000024484
      7        6          -0.000031631   -0.000000186    0.000014740
      8        6           0.000001310   -0.000031017   -0.000013115
      9        6          -0.000009882    0.000104950   -0.000021645
     10        1          -0.000002771    0.000038028    0.000033446
     11        1          -0.000016821   -0.000051532    0.000028658
     12        1          -0.000002438   -0.000013701   -0.000016642
     13        1           0.000001542    0.000012789   -0.000017590
     14        1          -0.000054588    0.000020598   -0.000007735
     15        1           0.000016567    0.000003234    0.000017655
     16        1           0.000010803   -0.000005663    0.000016019
     17        1           0.000010498   -0.000002606    0.000026605
     18        1           0.000024543    0.000007284    0.000026857
     19        1           0.000008625   -0.000018109   -0.000013197
 -------------------------------------------------------------------
 Cartesian Forces:  Max     0.000104950 RMS     0.000034342

 GradGradGradGradGradGradGradGradGradGradGradGradGradGradGradGradGradGrad
 Berny optimization.
 FormGI is forming the generalized inverse of G from B-inverse, IUseBI=4.
 Internal  Forces:  Max     0.000080484 RMS     0.000015070
 Search for a local minimum.
 Step number   1 out of a maximum of  114
 All quantities printed in internal units (Hartrees-Bohrs-Radians)
 Mixed Optimization -- En-DIIS/RFO-DIIS
 Second derivative matrix not updated -- first step.
 ITU=  0
     Eigenvalues ---    0.00497   0.00561   0.00991   0.00991   0.01507
     Eigenvalues ---    0.01620   0.01633   0.02028   0.03370   0.03676
     Eigenvalues ---    0.03733   0.04796   0.04828   0.04916   0.05510
     Eigenvalues ---    0.05550   0.05910   0.06036   0.06453   0.07964
     Eigenvalues ---    0.08719   0.09798   0.11661   0.13876   0.13972
     Eigenvalues ---    0.16000   0.16000   0.16763   0.17913   0.21985
     Eigenvalues ---    0.22000   0.22013   0.22791   0.25462   0.26914
     Eigenvalues ---    0.28971   0.29583   0.30337   0.32181   0.33572
     Eigenvalues ---    0.34227   0.34450   0.34495   0.34602   0.34615
     Eigenvalues ---    0.34621   0.35478   0.35543   0.43383   0.54229
     Eigenvalues ---    0.98994
 RFO step:  Lambda=-3.49941842D-07 EMin= 4.97309190D-03
 Linear search not attempted -- first point.
 Iteration  1 RMS(Cart)=  0.00045968 RMS(Int)=  0.00000031
 Iteration  2 RMS(Cart)=  0.00000030 RMS(Int)=  0.00000013
 Variable       Old X    -DE/DX   Delta X   Delta X   Delta X     New X
                                 (Linear)    (Quad)   (Total)
    R1        2.67199  -0.00008   0.00000  -0.00019  -0.00019   2.67181
    R2        1.82523   0.00006   0.00000   0.00011   0.00011   1.82534
    R3        2.87297  -0.00002   0.00000  -0.00006  -0.00006   2.87290
    R4        2.06295   0.00003   0.00000   0.00008   0.00008   2.06303
    R5        2.08059   0.00001   0.00000   0.00002   0.00002   2.08061
    R6        2.80249   0.00001   0.00000   0.00004   0.00004   2.80253
    R7        2.88264   0.00000   0.00000  -0.00001  -0.00001   2.88263
    R8        2.88857  -0.00002   0.00000  -0.00012  -0.00012   2.88845
    R9        2.29044  -0.00004   0.00000  -0.00004  -0.00004   2.29041
   R10        2.10514   0.00000   0.00000   0.00001   0.00001   2.10514
   R11        2.90303   0.00001   0.00000   0.00002   0.00002   2.90305
   R12        2.86583  -0.00001   0.00000   0.00005   0.00005   2.86588
   R13        2.04907  -0.00004   0.00000  -0.00010  -0.00010   2.04896
   R14        2.95456  -0.00001   0.00000  -0.00008  -0.00008   2.95448
   R15        2.06577  -0.00001   0.00000  -0.00002  -0.00002   2.06575
   R16        2.06326   0.00001   0.00000   0.00003   0.00003   2.06330
   R17        2.89837   0.00003   0.00000   0.00013   0.00013   2.89851
   R18        2.06503  -0.00001   0.00000  -0.00003  -0.00003   2.06500
   R19        2.06304   0.00001   0.00000   0.00004   0.00004   2.06308
   R20        2.04802  -0.00002   0.00000  -0.00007  -0.00007   2.04795
    A1        1.83994  -0.00001   0.00000  -0.00008  -0.00008   1.83986
    A2        1.95955  -0.00001   0.00000  -0.00009  -0.00009   1.95946
    A3        1.85993   0.00000   0.00000  -0.00017  -0.00017   1.85976
    A4        1.94424   0.00000   0.00000   0.00006   0.00006   1.94430
    A5        1.93963  -0.00001   0.00000  -0.00010  -0.00010   1.93953
    A6        1.88952   0.00001   0.00000   0.00011   0.00011   1.88964
    A7        1.86932   0.00001   0.00000   0.00020   0.00020   1.86952
    A8        1.98315   0.00000   0.00000  -0.00002  -0.00002   1.98313
    A9        2.18380  -0.00001   0.00000  -0.00011  -0.00011   2.18369
   A10        2.18437   0.00001   0.00000   0.00018   0.00018   2.18455
   A11        1.95588   0.00000   0.00000  -0.00009  -0.00009   1.95580
   A12        1.93182   0.00000   0.00000   0.00002   0.00002   1.93184
   A13        2.17050   0.00002   0.00000   0.00010   0.00010   2.17060
   A14        2.01015  -0.00001   0.00000  -0.00004  -0.00004   2.01011
   A15        2.10248  -0.00001   0.00000  -0.00004  -0.00004   2.10244
   A16        1.94164   0.00002   0.00000   0.00006   0.00006   1.94170
   A17        2.10250  -0.00002   0.00000  -0.00024  -0.00024   2.10226
   A18        1.58290   0.00000   0.00000   0.00002   0.00002   1.58292
   A19        2.18478   0.00001   0.00000   0.00020   0.00020   2.18499
   A20        2.25895  -0.00001   0.00000  -0.00010  -0.00010   2.25885
   A21        1.55698   0.00000   0.00000   0.00003   0.00003   1.55700
   A22        2.04239   0.00000   0.00000  -0.00004  -0.00004   2.04235
   A23        1.94785   0.00000   0.00000   0.00006   0.00006   1.94791
   A24        2.05735   0.00001   0.00000   0.00012   0.00012   2.05747
   A25        1.95139  -0.00001   0.00000  -0.00010  -0.00010   1.95129
   A26        1.89113   0.00000   0.00000  -0.00005  -0.00005   1.89108
   A27        1.55398   0.00000   0.00000   0.00002   0.00002   1.55400
   A28        2.05515   0.00000   0.00000   0.00012   0.00012   2.05527
   A29        1.95592   0.00000   0.00000  -0.00016  -0.00016   1.95575
   A30        2.03060   0.00000   0.00000   0.00004   0.00004   2.03065
   A31        1.95624   0.00000   0.00000  -0.00006  -0.00006   1.95618
   A32        1.89477   0.00000   0.00000   0.00002   0.00002   1.89480
   A33        1.93640   0.00002   0.00000   0.00025   0.00025   1.93665
   A34        2.10235  -0.00001   0.00000   0.00009   0.00009   2.10244
   A35        1.58924   0.00000   0.00000  -0.00006  -0.00006   1.58918
   A36        2.25731   0.00001   0.00000  -0.00004  -0.00004   2.25728
   A37        2.18775  -0.00001   0.00000  -0.00022  -0.00022   2.18753
    D1        1.10931  -0.00001   0.00000  -0.00119  -0.00119   1.10812
    D2       -3.04646  -0.00003   0.00000  -0.00148  -0.00148  -3.04794
    D3       -1.01324  -0.00002   0.00000  -0.00131  -0.00131  -1.01455
    D4       -1.06339  -0.00001   0.00000   0.00032   0.00032  -1.06308
    D5        2.70661   0.00000   0.00000   0.00072   0.00072   2.70733
    D6        1.40146   0.00000   0.00000   0.00062   0.00062   1.40208
    D7        3.13845   0.00001   0.00000   0.00066   0.00066   3.13912
    D8        0.62527   0.00002   0.00000   0.00106   0.00106   0.62634
    D9       -0.67988   0.00002   0.00000   0.00097   0.00097  -0.67891
   D10        1.09013   0.00000   0.00000   0.00041   0.00041   1.09054
   D11       -1.42305   0.00000   0.00000   0.00081   0.00081  -1.42224
   D12       -2.72820   0.00000   0.00000   0.00071   0.00071  -2.72749
   D13        0.08838  -0.00001   0.00000  -0.00145  -0.00145   0.08693
   D14       -3.06444   0.00001   0.00000   0.00088   0.00088  -3.06356
   D15        2.68450  -0.00002   0.00000  -0.00181  -0.00181   2.68269
   D16       -0.46832   0.00000   0.00000   0.00052   0.00052  -0.46780
   D17       -2.47407  -0.00002   0.00000  -0.00178  -0.00178  -2.47585
   D18        0.65629   0.00000   0.00000   0.00056   0.00056   0.65685
   D19       -0.62294  -0.00002   0.00000  -0.00034  -0.00034  -0.62328
   D20        2.18815   0.00000   0.00000  -0.00022  -0.00022   2.18792
   D21        3.13879  -0.00001   0.00000   0.00004   0.00004   3.13883
   D22       -0.33331   0.00001   0.00000   0.00015   0.00015  -0.33316
   D23        0.61240   0.00000   0.00000   0.00006   0.00006   0.61246
   D24       -2.19222   0.00000   0.00000  -0.00025  -0.00025  -2.19246
   D25        3.09377   0.00001   0.00000   0.00033   0.00033   3.09410
   D26        0.28915   0.00000   0.00000   0.00003   0.00003   0.28918
   D27       -1.00732   0.00000   0.00000  -0.00018  -0.00018  -1.00751
   D28        1.10784   0.00001   0.00000  -0.00004  -0.00004   1.10779
   D29       -2.98322   0.00001   0.00000  -0.00010  -0.00010  -2.98331
   D30        0.00905   0.00000   0.00000  -0.00025  -0.00025   0.00880
   D31        2.12422   0.00000   0.00000  -0.00011  -0.00011   2.12411
   D32       -1.96684   0.00000   0.00000  -0.00016  -0.00016  -1.96700
   D33        2.48355  -0.00001   0.00000  -0.00020  -0.00020   2.48335
   D34       -1.68447   0.00000   0.00000  -0.00006  -0.00006  -1.68453
   D35        0.50766   0.00000   0.00000  -0.00011  -0.00011   0.50755
   D36       -0.00923   0.00000   0.00000   0.00026   0.00026  -0.00897
   D37        2.42989  -0.00001   0.00000  -0.00021  -0.00021   2.42968
   D38       -2.43704  -0.00001   0.00000   0.00000   0.00000  -2.43703
   D39        0.00209  -0.00002   0.00000  -0.00047  -0.00047   0.00162
   D40       -0.00895   0.00000   0.00000   0.00025   0.00025  -0.00870
   D41        2.07701   0.00000   0.00000   0.00034   0.00034   2.07735
   D42       -1.99010   0.00000   0.00000   0.00033   0.00033  -1.98977
   D43       -2.11109   0.00000   0.00000   0.00024   0.00024  -2.11085
   D44       -0.02513   0.00000   0.00000   0.00034   0.00034  -0.02479
   D45        2.19095   0.00000   0.00000   0.00033   0.00033   2.19127
   D46        1.96363   0.00001   0.00000   0.00031   0.00031   1.96395
   D47       -2.23359   0.00000   0.00000   0.00041   0.00041  -2.23318
   D48       -0.01751   0.00001   0.00000   0.00040   0.00040  -0.01712
   D49        1.02549  -0.00001   0.00000  -0.00032  -0.00032   1.02517
   D50        0.00907   0.00000   0.00000  -0.00025  -0.00025   0.00882
   D51       -2.47307   0.00000   0.00000   0.00008   0.00008  -2.47299
   D52       -1.08206  -0.00001   0.00000  -0.00048  -0.00048  -1.08254
   D53       -2.09848  -0.00001   0.00000  -0.00041  -0.00041  -2.09889
   D54        1.70257   0.00000   0.00000  -0.00008  -0.00008   1.70249
   D55        3.00633  -0.00001   0.00000  -0.00050  -0.00050   3.00583
   D56        1.98991  -0.00001   0.00000  -0.00043  -0.00043   1.98948
   D57       -0.49223   0.00000   0.00000  -0.00010  -0.00010  -0.49233
         Item               Value     Threshold  Converged?
 Maximum Force            0.000080     0.000450     YES
 RMS     Force            0.000015     0.000300     YES
 Maximum Displacement     0.001734     0.001800     YES
 RMS     Displacement     0.000460     0.001200     YES
 Predicted change in Energy=-1.749786D-07
 Optimization completed.
    -- Stationary point found.
                           ----------------------------
                           !   Optimized Parameters   !
                           ! (Angstroms and Degrees)  !
 --------------------------                            --------------------------
 ! Name  Definition              Value          Derivative Info.                !
 --------------------------------------------------------------------------------
 ! R1    R(1,2)                  1.414          -DE/DX =   -0.0001              !
 ! R2    R(1,10)                 0.9659         -DE/DX =    0.0001              !
 ! R3    R(2,3)                  1.5203         -DE/DX =    0.0                 !
 ! R4    R(2,11)                 1.0917         -DE/DX =    0.0                 !
 ! R5    R(2,12)                 1.101          -DE/DX =    0.0                 !
 ! R6    R(3,4)                  1.483          -DE/DX =    0.0                 !
 ! R7    R(3,6)                  1.5254         -DE/DX =    0.0                 !
 ! R8    R(3,9)                  1.5286         -DE/DX =    0.0                 !
 ! R9    R(4,5)                  1.212          -DE/DX =    0.0                 !
 ! R10   R(4,13)                 1.114          -DE/DX =    0.0                 !
 ! R11   R(6,7)                  1.5362         -DE/DX =    0.0                 !
 ! R12   R(6,9)                  1.5165         -DE/DX =    0.0                 !
 ! R13   R(6,14)                 1.0843         -DE/DX =    0.0                 !
 ! R14   R(7,8)                  1.5635         -DE/DX =    0.0                 !
 ! R15   R(7,15)                 1.0932         -DE/DX =    0.0                 !
 ! R16   R(7,16)                 1.0918         -DE/DX =    0.0                 !
 ! R17   R(8,9)                  1.5338         -DE/DX =    0.0                 !
 ! R18   R(8,17)                 1.0928         -DE/DX =    0.0                 !
 ! R19   R(8,18)                 1.0917         -DE/DX =    0.0                 !
 ! R20   R(9,19)                 1.0838         -DE/DX =    0.0                 !
 ! A1    A(2,1,10)             105.421          -DE/DX =    0.0                 !
 ! A2    A(1,2,3)              112.274          -DE/DX =    0.0                 !
 ! A3    A(1,2,11)             106.5663         -DE/DX =    0.0                 !
 ! A4    A(1,2,12)             111.3965         -DE/DX =    0.0                 !
 ! A5    A(3,2,11)             111.1328         -DE/DX =    0.0                 !
 ! A6    A(3,2,12)             108.2616         -DE/DX =    0.0                 !
 ! A7    A(11,2,12)            107.1042         -DE/DX =    0.0                 !
 ! A8    A(2,3,4)              113.6261         -DE/DX =    0.0                 !
 ! A9    A(2,3,6)              125.1223         -DE/DX =    0.0                 !
 ! A10   A(2,3,9)              125.155          -DE/DX =    0.0                 !
 ! A11   A(4,3,6)              112.0638         -DE/DX =    0.0                 !
 ! A12   A(4,3,9)              110.685          -DE/DX =    0.0                 !
 ! A13   A(3,4,5)              124.3604         -DE/DX =    0.0                 !
 ! A14   A(3,4,13)             115.1732         -DE/DX =    0.0                 !
 ! A15   A(5,4,13)             120.4633         -DE/DX =    0.0                 !
 ! A16   A(3,6,7)              111.2478         -DE/DX =    0.0                 !
 ! A17   A(3,6,14)             120.4645         -DE/DX =    0.0                 !
 ! A18   A(7,6,9)               90.6937         -DE/DX =    0.0                 !
 ! A19   A(7,6,14)             125.1789         -DE/DX =    0.0                 !
 ! A20   A(9,6,14)             129.4284         -DE/DX =    0.0                 !
 ! A21   A(6,7,8)               89.2083         -DE/DX =    0.0                 !
 ! A22   A(6,7,15)             117.0205         -DE/DX =    0.0                 !
 ! A23   A(6,7,16)             111.6034         -DE/DX =    0.0                 !
 ! A24   A(8,7,15)             117.8773         -DE/DX =    0.0                 !
 ! A25   A(8,7,16)             111.8066         -DE/DX =    0.0                 !
 ! A26   A(15,7,16)            108.3538         -DE/DX =    0.0                 !
 ! A27   A(7,8,9)               89.0366         -DE/DX =    0.0                 !
 ! A28   A(7,8,17)             117.7513         -DE/DX =    0.0                 !
 ! A29   A(7,8,18)             112.0658         -DE/DX =    0.0                 !
 ! A30   A(9,8,17)             116.3449         -DE/DX =    0.0                 !
 ! A31   A(9,8,18)             112.0845         -DE/DX =    0.0                 !
 ! A32   A(17,8,18)            108.5624         -DE/DX =    0.0                 !
 ! A33   A(3,9,8)              110.9478         -DE/DX =    0.0                 !
 ! A34   A(3,9,19)             120.456          -DE/DX =    0.0                 !
 ! A35   A(6,9,8)               91.0568         -DE/DX =    0.0                 !
 ! A36   A(6,9,19)             129.3345         -DE/DX =    0.0                 !
 ! A37   A(8,9,19)             125.3487         -DE/DX =    0.0                 !
 ! D1    D(10,1,2,3)            63.5587         -DE/DX =    0.0                 !
 ! D2    D(10,1,2,11)         -174.5494         -DE/DX =    0.0                 !
 ! D3    D(10,1,2,12)          -58.0545         -DE/DX =    0.0                 !
 ! D4    D(1,2,3,4)            -60.9279         -DE/DX =    0.0                 !
 ! D5    D(1,2,3,6)            155.0775         -DE/DX =    0.0                 !
 ! D6    D(1,2,3,9)             80.2979         -DE/DX =    0.0                 !
 ! D7    D(11,2,3,4)           179.82           -DE/DX =    0.0                 !
 ! D8    D(11,2,3,6)            35.8255         -DE/DX =    0.0                 !
 ! D9    D(11,2,3,9)           -38.9541         -DE/DX =    0.0                 !
 ! D10   D(12,2,3,4)            62.4599         -DE/DX =    0.0                 !
 ! D11   D(12,2,3,6)           -81.5346         -DE/DX =    0.0                 !
 ! D12   D(12,2,3,9)          -156.3143         -DE/DX =    0.0                 !
 ! D13   D(2,3,4,5)              5.0639         -DE/DX =    0.0                 !
 ! D14   D(2,3,4,13)          -175.5794         -DE/DX =    0.0                 !
 ! D15   D(6,3,4,5)            153.8106         -DE/DX =    0.0                 !
 ! D16   D(6,3,4,13)           -26.8327         -DE/DX =    0.0                 !
 ! D17   D(9,3,4,5)           -141.7539         -DE/DX =    0.0                 !
 ! D18   D(9,3,4,13)            37.6028         -DE/DX =    0.0                 !
 ! D19   D(2,3,6,7)            -35.6917         -DE/DX =    0.0                 !
 ! D20   D(2,3,6,14)           125.3715         -DE/DX =    0.0                 !
 ! D21   D(4,3,6,7)            179.8396         -DE/DX =    0.0                 !
 ! D22   D(4,3,6,14)           -19.0972         -DE/DX =    0.0                 !
 ! D23   D(2,3,9,8)             35.088          -DE/DX =    0.0                 !
 ! D24   D(2,3,9,19)          -125.6047         -DE/DX =    0.0                 !
 ! D25   D(4,3,9,8)            177.2598         -DE/DX =    0.0                 !
 ! D26   D(4,3,9,19)            16.5671         -DE/DX =    0.0                 !
 ! D27   D(3,6,7,8)            -57.7154         -DE/DX =    0.0                 !
 ! D28   D(3,6,7,15)            63.4744         -DE/DX =    0.0                 !
 ! D29   D(3,6,7,16)          -170.9256         -DE/DX =    0.0                 !
 ! D30   D(9,6,7,8)              0.5187         -DE/DX =    0.0                 !
 ! D31   D(9,6,7,15)           121.7086         -DE/DX =    0.0                 !
 ! D32   D(9,6,7,16)          -112.6915         -DE/DX =    0.0                 !
 ! D33   D(14,6,7,8)           142.2972         -DE/DX =    0.0                 !
 ! D34   D(14,6,7,15)          -96.5129         -DE/DX =    0.0                 !
 ! D35   D(14,6,7,16)           29.087          -DE/DX =    0.0                 !
 ! D36   D(7,6,9,8)             -0.5288         -DE/DX =    0.0                 !
 ! D37   D(7,6,9,19)           139.2227         -DE/DX =    0.0                 !
 ! D38   D(14,6,9,8)          -139.632          -DE/DX =    0.0                 !
 ! D39   D(14,6,9,19)            0.1195         -DE/DX =    0.0                 !
 ! D40   D(6,7,8,9)             -0.5129         -DE/DX =    0.0                 !
 ! D41   D(6,7,8,17)           119.0036         -DE/DX =    0.0                 !
 ! D42   D(6,7,8,18)          -114.0242         -DE/DX =    0.0                 !
 ! D43   D(15,7,8,9)          -120.9567         -DE/DX =    0.0                 !
 ! D44   D(15,7,8,17)           -1.4401         -DE/DX =    0.0                 !
 ! D45   D(15,7,8,18)          125.532          -DE/DX =    0.0                 !
 ! D46   D(16,7,8,9)           112.5079         -DE/DX =    0.0                 !
 ! D47   D(16,7,8,17)         -127.9756         -DE/DX =    0.0                 !
 ! D48   D(16,7,8,18)           -1.0034         -DE/DX =    0.0                 !
 ! D49   D(7,8,9,3)             58.7562         -DE/DX =    0.0                 !
 ! D50   D(7,8,9,6)              0.5196         -DE/DX =    0.0                 !
 ! D51   D(7,8,9,19)          -141.6964         -DE/DX =    0.0                 !
 ! D52   D(17,8,9,3)           -61.9974         -DE/DX =    0.0                 !
 ! D53   D(17,8,9,6)          -120.2339         -DE/DX =    0.0                 !
 ! D54   D(17,8,9,19)           97.55           -DE/DX =    0.0                 !
 ! D55   D(18,8,9,3)           172.25           -DE/DX =    0.0                 !
 ! D56   D(18,8,9,6)           114.0135         -DE/DX =    0.0                 !
 ! D57   D(18,8,9,19)          -28.2026         -DE/DX =    0.0                 !
 --------------------------------------------------------------------------------
 GradGradGradGradGradGradGradGradGradGradGradGradGradGradGradGradGradGrad

                          Input orientation:                          
 ---------------------------------------------------------------------
 Center     Atomic      Atomic             Coordinates (Angstroms)
 Number     Number       Type             X           Y           Z
 ---------------------------------------------------------------------
      1          8           0       -1.466369    0.411801   -0.495833
      2          6           0       -0.073957    0.169439   -0.537393
      3          6           0        0.599833    0.449884    0.796284
      4          6           0        0.466520    1.856999    1.245260
      5          8           0       -0.191132    2.698517    0.672194
      6          6           0        1.905138   -0.181524    1.270027
      7          6           0        2.022001   -1.638851    0.798329
      8          6           0        0.680414   -1.961611    1.533485
      9          6           0        0.611055   -0.500174    1.993688
     10          1           0       -1.557374    1.357598   -0.322357
     11          1           0        0.051634   -0.874779   -0.829920
     12          1           0        0.417720    0.783009   -1.308100
     13          1           0        1.015563    2.109848    2.180991
     14          1           0        2.734783    0.441637    1.584837
     15          1           0        2.067597   -1.809536   -0.280460
     16          1           0        2.870830   -2.144821    1.262639
     17          1           0       -0.157011   -2.320244    0.929962
     18          1           0        0.825774   -2.648685    2.369334
     19          1           0        0.266315   -0.164266    2.964701
 ---------------------------------------------------------------------
                    Distance matrix (angstroms):
                    1          2          3          4          5
     1  O    0.000000
     2  C    1.413958   0.000000
     3  C    2.437254   1.520308   0.000000
     4  C    2.975914   2.513529   1.483013   0.000000
     5  O    2.866983   2.805899   2.386918   1.212049   0.000000
     6  C    3.851929   2.703102   1.525428   2.495158   3.611979
     7  C    4.248383   3.073614   2.526931   3.852304   4.871000
     8  C    3.789445   3.065776   2.522947   3.835441   4.818528
     9  C    3.368249   2.706288   1.528565   2.477358   3.552672
    10  H    0.965872   1.912718   2.594002   2.608251   2.157270
    11  H    2.017729   1.091666   2.167901   3.455592   3.883777
    12  H    2.085033   1.101001   2.138357   2.770466   2.821602
    13  H    4.026008   3.513097   2.201301   1.113990   2.019681
    14  H    4.688257   3.530860   2.275939   2.695104   3.806233
    15  H    4.179669   2.927219   2.901497   4.281910   5.131467
    16  H    5.332901   4.155440   3.479570   4.668573   5.760396
    17  H    3.348339   2.891115   2.874768   4.235276   5.025492
    18  H    4.778041   4.147336   3.482336   4.657661   5.701488
    19  H    3.912715   3.534374   2.278255   2.661216   3.695994
                    6          7          8          9         10
     6  C    0.000000
     7  C    1.536216   0.000000
     8  C    2.176710   1.563485   0.000000
     9  C    1.516533   2.171691   1.533752   0.000000
    10  H    4.110179   4.800685   4.412368   3.676611   0.000000
    11  H    2.885456   2.667836   2.676239   2.902765   2.798219
    12  H    3.128814   3.588338   3.959363   3.547639   2.280973
    13  H    2.621371   4.120367   4.136226   2.647815   3.667784
    14  H    1.084319   2.335612   3.162067   2.358896   4.785289
    15  H    2.254068   1.093159   2.288624   3.001282   4.813825
    16  H    2.187955   1.091833   2.214688   2.888923   5.864140
    17  H    2.990355   2.286858   1.092767   2.243679   4.129871
    18  H    2.908674   2.217833   1.091716   2.191647   5.382834
    19  H    2.357532   3.154363   2.334588   1.083764   4.055448
                   11         12         13         14         15
    11  H    0.000000
    12  H    1.763784   0.000000
    13  H    4.347728   3.780433   0.000000
    14  H    3.842303   3.722150   2.468613   0.000000
    15  H    2.289058   3.240282   4.746271   2.998708   0.000000
    16  H    3.733588   4.604198   4.731553   2.609997   1.771652
    17  H    2.286938   3.869033   4.750339   4.052076   2.583569
    18  H    3.739153   5.046440   4.766040   3.716160   3.044290
    19  H    3.866531   4.379164   2.519359   2.892141   4.059876
                   16         17         18         19
    16  H    0.000000
    17  H    3.051109   0.000000
    18  H    2.379266   1.773565   0.000000
    19  H    3.688239   2.994596   2.615300   0.000000
 Stoichiometry    C7H10O2
 Framework group  C1[X(C7H10O2)]
 Deg. of freedom    51
 Full point group                 C1      NOp   1
 Largest Abelian subgroup         C1      NOp   1
 Largest concise Abelian subgroup C1      NOp   1
                         Standard orientation:                         
 ---------------------------------------------------------------------
 Center     Atomic      Atomic             Coordinates (Angstroms)
 Number     Number       Type             X           Y           Z
 ---------------------------------------------------------------------
      1          8           0        1.512781    1.758347    0.303627
      2          6           0        0.644268    1.113680   -0.607070
      3          6           0        0.202438   -0.254210   -0.112096
      4          6           0        1.323504   -1.203833    0.089780
      5          8           0        2.494619   -0.914728   -0.028423
      6          6           0       -1.082569   -0.964355   -0.526076
      7          6           0       -2.231576    0.035508   -0.726118
      8          6           0       -2.039988    0.517566    0.748806
      9          6           0       -0.907661   -0.504561    0.908452
     10          1           0        2.300464    1.200953    0.345761
     11          1           0       -0.211247    1.777714   -0.744507
     12          1           0        1.117845    0.987414   -1.592963
     13          1           0        1.023163   -2.237083    0.378160
     14          1           0       -1.048595   -1.967306   -0.936787
     15          1           0       -2.114623    0.773261   -1.524265
     16          1           0       -3.187496   -0.473277   -0.865599
     17          1           0       -1.774267    1.564999    0.911333
     18          1           0       -2.901704    0.276546    1.374266
     19          1           0       -0.713218   -1.090939    1.798900
 ---------------------------------------------------------------------
 Rotational constants (GHZ):      2.8350989      1.3394871      1.0889599
 1\1\GINC-ALCHEMY-MG\FOpt\RB3LYP\6-31G(2df,p)\C7H10O2\PUCK\28-Jan-2020\
 0\\# b3lyp 6-31G(2df,p) opt Freq\\titel\\0,1\O,-1.4663686097,0.4118005
 863,-0.4958333419\C,-0.0739567252,0.1694387531,-0.5373928971\C,0.59983
 31269,0.4498836804,0.7962842868\C,0.4665198456,1.8569994555,1.24526008
 01\O,-0.1911324243,2.6985174808,0.6721941588\C,1.9051379574,-0.1815244
 46,1.2700271869\C,2.022001449,-1.6388514586,0.7983285232\C,0.680414037
 5,-1.9616107881,1.5334850636\C,0.6110549679,-0.500173925,1.9936881708\
 H,-1.5573742403,1.3575975014,-0.3223572984\H,0.0516338417,-0.874778590
 8,-0.8299201322\H,0.4177199438,0.7830092632,-1.3080997697\H,1.01556268
 98,2.1098481579,2.180991213\H,2.7347834143,0.4416368034,1.5848370942\H
 ,2.0675971604,-1.8095358936,-0.2804596884\H,2.8708297245,-2.1448209307
 ,1.2626389967\H,-0.1570113799,-2.3202438774,0.9299619598\H,0.825773890
 3,-2.6486854895,2.3693337858\H,0.2663152402,-0.1642663424,2.964700588\
 \Version=ES64L-G09RevD.01\State=1-A\HF=-423.1615236\RMSD=6.445e-09\RMS
 F=3.434e-05\Dipole=1.0464205,-0.6902909,0.6190382\Quadrupole=-0.704494
 6,-1.3741219,2.0786165,0.2112491,-1.2649483,0.2455085\PG=C01 [X(C7H10O
 2)]\\@


 DEFINE YOUR TERMS, YOU WILL PERMIT ME AGAIN TO SAY, 
 OR WE SHALL NEVER UNDERSTAND ONE ANOTHER.

                                    -- VOLTAIRE
 Job cpu time:       0 days  0 hours  6 minutes 35.6 seconds.
 File lengths (MBytes):  RWF=     52 Int=      0 D2E=      0 Chk=      7 Scr=      1
 Normal termination of Gaussian 09 at Tue Jan 28 08:59:29 2020.
 Link1:  Proceeding to internal job step number  2.
 ----------------------------------------------------------------------
 #N Geom=AllCheck Guess=TCheck SCRF=Check GenChk RB3LYP/6-31G(2df,p) Fr
 eq
 ----------------------------------------------------------------------
 1/10=4,29=7,30=1,38=1,40=1/1,3;
 2/12=2,40=1/2;
 3/5=1,6=6,7=104,11=2,14=-4,16=1,25=1,30=1,70=2,71=2,74=-5,116=1,140=1/1,2,3;
 4/5=101/1;
 5/5=2,98=1/2;
 8/6=4,10=90,11=11/1;
 11/6=1,8=1,9=11,15=111,16=1/1,2,10;
 10/6=1/2;
 6/7=2,8=2,9=2,10=2,18=1,28=1/1;
 7/8=1,10=1,25=1/1,2,3,16;
 1/10=4,30=1/3;
 99//99;
 Structure from the checkpoint file:  "/scratch/puck/g09_89060b90-8cd7-46b7-abcf-9edb0f9abdab/Gau-93598.chk"
 -----
 titel
 -----
 Charge =  0 Multiplicity = 1
 Redundant internal coordinates found in file.
 O,0,-1.4663686097,0.4118005863,-0.4958333419
 C,0,-0.0739567252,0.1694387531,-0.5373928971
 C,0,0.5998331269,0.4498836804,0.7962842868
 C,0,0.4665198456,1.8569994555,1.2452600801
 O,0,-0.1911324243,2.6985174808,0.6721941588
 C,0,1.9051379574,-0.181524446,1.2700271869
 C,0,2.022001449,-1.6388514586,0.7983285232
 C,0,0.6804140375,-1.9616107881,1.5334850636
 C,0,0.6110549679,-0.500173925,1.9936881708
 H,0,-1.5573742403,1.3575975014,-0.3223572984
 H,0,0.0516338417,-0.8747785908,-0.8299201322
 H,0,0.4177199438,0.7830092632,-1.3080997697
 H,0,1.0155626898,2.1098481579,2.180991213
 H,0,2.7347834143,0.4416368034,1.5848370942
 H,0,2.0675971604,-1.8095358936,-0.2804596884
 H,0,2.8708297245,-2.1448209307,1.2626389967
 H,0,-0.1570113799,-2.3202438774,0.9299619598
 H,0,0.8257738903,-2.6486854895,2.3693337858
 H,0,0.2663152402,-0.1642663424,2.964700588
 Recover connectivity data from disk.

 GradGradGradGradGradGradGradGradGradGradGradGradGradGradGradGradGradGrad
 Berny optimization.
 Initialization pass.
                           ----------------------------
                           !    Initial Parameters    !
                           ! (Angstroms and Degrees)  !
 --------------------------                            --------------------------
 ! Name  Definition              Value          Derivative Info.                !
 --------------------------------------------------------------------------------
 ! R1    R(1,2)                  1.414          calculate D2E/DX2 analytically  !
 ! R2    R(1,10)                 0.9659         calculate D2E/DX2 analytically  !
 ! R3    R(2,3)                  1.5203         calculate D2E/DX2 analytically  !
 ! R4    R(2,11)                 1.0917         calculate D2E/DX2 analytically  !
 ! R5    R(2,12)                 1.101          calculate D2E/DX2 analytically  !
 ! R6    R(3,4)                  1.483          calculate D2E/DX2 analytically  !
 ! R7    R(3,6)                  1.5254         calculate D2E/DX2 analytically  !
 ! R8    R(3,9)                  1.5286         calculate D2E/DX2 analytically  !
 ! R9    R(4,5)                  1.212          calculate D2E/DX2 analytically  !
 ! R10   R(4,13)                 1.114          calculate D2E/DX2 analytically  !
 ! R11   R(6,7)                  1.5362         calculate D2E/DX2 analytically  !
 ! R12   R(6,9)                  1.5165         calculate D2E/DX2 analytically  !
 ! R13   R(6,14)                 1.0843         calculate D2E/DX2 analytically  !
 ! R14   R(7,8)                  1.5635         calculate D2E/DX2 analytically  !
 ! R15   R(7,15)                 1.0932         calculate D2E/DX2 analytically  !
 ! R16   R(7,16)                 1.0918         calculate D2E/DX2 analytically  !
 ! R17   R(8,9)                  1.5338         calculate D2E/DX2 analytically  !
 ! R18   R(8,17)                 1.0928         calculate D2E/DX2 analytically  !
 ! R19   R(8,18)                 1.0917         calculate D2E/DX2 analytically  !
 ! R20   R(9,19)                 1.0838         calculate D2E/DX2 analytically  !
 ! A1    A(2,1,10)             105.421          calculate D2E/DX2 analytically  !
 ! A2    A(1,2,3)              112.274          calculate D2E/DX2 analytically  !
 ! A3    A(1,2,11)             106.5663         calculate D2E/DX2 analytically  !
 ! A4    A(1,2,12)             111.3965         calculate D2E/DX2 analytically  !
 ! A5    A(3,2,11)             111.1328         calculate D2E/DX2 analytically  !
 ! A6    A(3,2,12)             108.2616         calculate D2E/DX2 analytically  !
 ! A7    A(11,2,12)            107.1042         calculate D2E/DX2 analytically  !
 ! A8    A(2,3,4)              113.6261         calculate D2E/DX2 analytically  !
 ! A9    A(2,3,6)              125.1223         calculate D2E/DX2 analytically  !
 ! A10   A(2,3,9)              125.155          calculate D2E/DX2 analytically  !
 ! A11   A(4,3,6)              112.0638         calculate D2E/DX2 analytically  !
 ! A12   A(4,3,9)              110.685          calculate D2E/DX2 analytically  !
 ! A13   A(3,4,5)              124.3604         calculate D2E/DX2 analytically  !
 ! A14   A(3,4,13)             115.1732         calculate D2E/DX2 analytically  !
 ! A15   A(5,4,13)             120.4633         calculate D2E/DX2 analytically  !
 ! A16   A(3,6,7)              111.2478         calculate D2E/DX2 analytically  !
 ! A17   A(3,6,14)             120.4645         calculate D2E/DX2 analytically  !
 ! A18   A(7,6,9)               90.6937         calculate D2E/DX2 analytically  !
 ! A19   A(7,6,14)             125.1789         calculate D2E/DX2 analytically  !
 ! A20   A(9,6,14)             129.4284         calculate D2E/DX2 analytically  !
 ! A21   A(6,7,8)               89.2083         calculate D2E/DX2 analytically  !
 ! A22   A(6,7,15)             117.0205         calculate D2E/DX2 analytically  !
 ! A23   A(6,7,16)             111.6034         calculate D2E/DX2 analytically  !
 ! A24   A(8,7,15)             117.8773         calculate D2E/DX2 analytically  !
 ! A25   A(8,7,16)             111.8066         calculate D2E/DX2 analytically  !
 ! A26   A(15,7,16)            108.3538         calculate D2E/DX2 analytically  !
 ! A27   A(7,8,9)               89.0366         calculate D2E/DX2 analytically  !
 ! A28   A(7,8,17)             117.7513         calculate D2E/DX2 analytically  !
 ! A29   A(7,8,18)             112.0658         calculate D2E/DX2 analytically  !
 ! A30   A(9,8,17)             116.3449         calculate D2E/DX2 analytically  !
 ! A31   A(9,8,18)             112.0845         calculate D2E/DX2 analytically  !
 ! A32   A(17,8,18)            108.5624         calculate D2E/DX2 analytically  !
 ! A33   A(3,9,8)              110.9478         calculate D2E/DX2 analytically  !
 ! A34   A(3,9,19)             120.456          calculate D2E/DX2 analytically  !
 ! A35   A(6,9,8)               91.0568         calculate D2E/DX2 analytically  !
 ! A36   A(6,9,19)             129.3345         calculate D2E/DX2 analytically  !
 ! A37   A(8,9,19)             125.3487         calculate D2E/DX2 analytically  !
 ! D1    D(10,1,2,3)            63.5587         calculate D2E/DX2 analytically  !
 ! D2    D(10,1,2,11)         -174.5494         calculate D2E/DX2 analytically  !
 ! D3    D(10,1,2,12)          -58.0545         calculate D2E/DX2 analytically  !
 ! D4    D(1,2,3,4)            -60.9279         calculate D2E/DX2 analytically  !
 ! D5    D(1,2,3,6)            155.0775         calculate D2E/DX2 analytically  !
 ! D6    D(1,2,3,9)             80.2979         calculate D2E/DX2 analytically  !
 ! D7    D(11,2,3,4)           179.82           calculate D2E/DX2 analytically  !
 ! D8    D(11,2,3,6)            35.8255         calculate D2E/DX2 analytically  !
 ! D9    D(11,2,3,9)           -38.9541         calculate D2E/DX2 analytically  !
 ! D10   D(12,2,3,4)            62.4599         calculate D2E/DX2 analytically  !
 ! D11   D(12,2,3,6)           -81.5346         calculate D2E/DX2 analytically  !
 ! D12   D(12,2,3,9)          -156.3143         calculate D2E/DX2 analytically  !
 ! D13   D(2,3,4,5)              5.0639         calculate D2E/DX2 analytically  !
 ! D14   D(2,3,4,13)          -175.5794         calculate D2E/DX2 analytically  !
 ! D15   D(6,3,4,5)            153.8106         calculate D2E/DX2 analytically  !
 ! D16   D(6,3,4,13)           -26.8327         calculate D2E/DX2 analytically  !
 ! D17   D(9,3,4,5)           -141.7539         calculate D2E/DX2 analytically  !
 ! D18   D(9,3,4,13)            37.6028         calculate D2E/DX2 analytically  !
 ! D19   D(2,3,6,7)            -35.6917         calculate D2E/DX2 analytically  !
 ! D20   D(2,3,6,14)           125.3715         calculate D2E/DX2 analytically  !
 ! D21   D(4,3,6,7)            179.8396         calculate D2E/DX2 analytically  !
 ! D22   D(4,3,6,14)           -19.0972         calculate D2E/DX2 analytically  !
 ! D23   D(2,3,9,8)             35.088          calculate D2E/DX2 analytically  !
 ! D24   D(2,3,9,19)          -125.6047         calculate D2E/DX2 analytically  !
 ! D25   D(4,3,9,8)            177.2598         calculate D2E/DX2 analytically  !
 ! D26   D(4,3,9,19)            16.5671         calculate D2E/DX2 analytically  !
 ! D27   D(3,6,7,8)            -57.7154         calculate D2E/DX2 analytically  !
 ! D28   D(3,6,7,15)            63.4744         calculate D2E/DX2 analytically  !
 ! D29   D(3,6,7,16)          -170.9256         calculate D2E/DX2 analytically  !
 ! D30   D(9,6,7,8)              0.5187         calculate D2E/DX2 analytically  !
 ! D31   D(9,6,7,15)           121.7086         calculate D2E/DX2 analytically  !
 ! D32   D(9,6,7,16)          -112.6915         calculate D2E/DX2 analytically  !
 ! D33   D(14,6,7,8)           142.2972         calculate D2E/DX2 analytically  !
 ! D34   D(14,6,7,15)          -96.5129         calculate D2E/DX2 analytically  !
 ! D35   D(14,6,7,16)           29.087          calculate D2E/DX2 analytically  !
 ! D36   D(7,6,9,8)             -0.5288         calculate D2E/DX2 analytically  !
 ! D37   D(7,6,9,19)           139.2227         calculate D2E/DX2 analytically  !
 ! D38   D(14,6,9,8)          -139.632          calculate D2E/DX2 analytically  !
 ! D39   D(14,6,9,19)            0.1195         calculate D2E/DX2 analytically  !
 ! D40   D(6,7,8,9)             -0.5129         calculate D2E/DX2 analytically  !
 ! D41   D(6,7,8,17)           119.0036         calculate D2E/DX2 analytically  !
 ! D42   D(6,7,8,18)          -114.0242         calculate D2E/DX2 analytically  !
 ! D43   D(15,7,8,9)          -120.9567         calculate D2E/DX2 analytically  !
 ! D44   D(15,7,8,17)           -1.4401         calculate D2E/DX2 analytically  !
 ! D45   D(15,7,8,18)          125.532          calculate D2E/DX2 analytically  !
 ! D46   D(16,7,8,9)           112.5079         calculate D2E/DX2 analytically  !
 ! D47   D(16,7,8,17)         -127.9756         calculate D2E/DX2 analytically  !
 ! D48   D(16,7,8,18)           -1.0034         calculate D2E/DX2 analytically  !
 ! D49   D(7,8,9,3)             58.7562         calculate D2E/DX2 analytically  !
 ! D50   D(7,8,9,6)              0.5196         calculate D2E/DX2 analytically  !
 ! D51   D(7,8,9,19)          -141.6964         calculate D2E/DX2 analytically  !
 ! D52   D(17,8,9,3)           -61.9974         calculate D2E/DX2 analytically  !
 ! D53   D(17,8,9,6)          -120.2339         calculate D2E/DX2 analytically  !
 ! D54   D(17,8,9,19)           97.55           calculate D2E/DX2 analytically  !
 ! D55   D(18,8,9,3)           172.25           calculate D2E/DX2 analytically  !
 ! D56   D(18,8,9,6)           114.0135         calculate D2E/DX2 analytically  !
[...]
 -0.11531061,0.27422015,-0.09198877,0.57212757,0.00216080,-0.00909620,-
 0.00375825,-0.00960604,0.00154208,-0.00174977,0.00679930,0.03258670,-0
 .01060137,-0.27089913,0.24297132,-0.18478171,0.26835814,-0.00531281,-0
 .00152701,-0.00272436,0.00233003,0.00272098,0.00563935,0.03928635,-0.0
 5245119,0.02638115,0.24648181,-0.40348760,0.20438727,-0.29180370,0.452
 55439,0.00058057,-0.00702355,-0.00060406,-0.00409928,0.00321640,-0.002
 52528,-0.00567720,0.01399711,0.01751032,-0.18463485,0.20224428,-0.2435
 7352,0.21864811,-0.23538696,0.23672392,0.00046428,0.00079568,-0.003418
 37,-0.01167539,0.00372882,0.00304487,-0.14244702,0.05192035,-0.0827632
 4,-0.00990420,0.00975555,0.00394948,0.00272640,-0.00495985,0.00146655,
 0.61839535,-0.00563228,-0.00003540,-0.00449858,-0.00426135,0.00016924,
 0.01053231,0.03178500,-0.06318759,-0.00354090,0.04132779,-0.01562029,-
 0.00328111,-0.00558026,-0.00349378,-0.00054712,0.11708115,0.49499007,-
 0.00319845,0.00051295,-0.00349289,-0.01989229,0.00878833,0.00315522,-0
 .02869973,-0.02276729,-0.05240175,0.00530635,0.01864819,0.00003944,0.0
 0174754,-0.00880162,0.00574341,0.04798575,0.10291626,0.26285902,0.0003
 5206,0.00007836,0.00013343,-0.00043833,0.00007476,0.00003132,-0.007098
 05,0.01990978,0.00981659,-0.00506708,-0.00595128,0.00072630,0.00030011
 ,0.00287355,-0.00122704,-0.05967327,0.00662049,-0.01716536,0.49825412,
 -0.00061611,-0.00032151,-0.00082382,-0.00083045,0.00170860,0.00134414,
 0.00940396,-0.01524134,-0.00869481,0.00240656,-0.00041117,0.00162025,-
 0.00041488,0.00019257,-0.00071897,0.01707962,-0.16754549,-0.04630858,-
 0.10840735,0.41879626,0.00089854,-0.00040983,-0.00049617,-0.00016238,0
 .00087490,0.00050212,-0.00558341,0.02009504,0.01119197,-0.00385056,-0.
 00399555,-0.00147833,-0.00032843,0.00335383,-0.00107494,-0.01330517,-0
 .03783064,-0.07085499,0.03022504,0.02002668,0.59567069,-0.00038065,-0.
 00006824,-0.00013208,-0.00031831,-0.00052903,0.00080784,0.00416503,0.0
 1451163,0.00280812,-0.00058383,-0.00035416,-0.00263682,-0.00082330,0.0
 0121219,0.00015697,-0.03105193,-0.04087193,0.00957524,-0.13873120,-0.0
 2051228,0.02553600,0.48326825,-0.00002705,-0.00040446,-0.00033185,0.00
 040498,0.00161460,0.00009916,-0.00605311,-0.02194063,0.00088657,-0.000
 91079,-0.00054073,0.00357768,-0.00018801,-0.00007096,-0.00084233,-0.03
 548818,-0.04638270,0.00465892,-0.01073700,-0.05085467,0.01505377,0.074
 03836,0.51171245,-0.00039827,-0.00083810,-0.00036990,-0.00006584,0.001
 28853,0.00058258,0.00483694,0.02768489,0.00474172,0.00567735,-0.004529
 75,-0.00591159,-0.00332526,0.00301167,0.00006693,0.00445998,-0.0072616
 5,0.00122443,0.03435440,0.02257866,-0.09538575,0.10231016,-0.06886131,
 0.52179198,0.00104128,0.00029366,0.00165742,0.00092835,0.00781034,-0.0
 0928230,-0.01167848,-0.03100331,0.02105768,-0.00459482,0.01778422,-0.0
 0156270,0.00398071,-0.00313669,0.00311580,-0.15436233,-0.02280841,0.04
 345747,-0.02893180,0.02140000,0.03886236,-0.04148528,0.00020793,-0.009
 28319,0.31010918,0.00021890,0.00017739,0.00050886,0.00873237,0.0043766
 1,-0.00151486,0.00939027,-0.09463263,0.05447010,-0.01687251,-0.0308007
 8,0.02739080,0.00328289,0.00182789,-0.00554517,-0.05487086,-0.03045593
 ,0.00923834,0.01500202,-0.01936432,-0.03009336,0.01249839,-0.17167250,
 -0.03972072,0.00112462,0.45548055,-0.00060214,-0.00053496,0.00425866,0
 .01164037,0.01646751,-0.01979642,-0.02655805,0.03801600,-0.14455510,-0
 .00598926,0.01465206,0.00713139,0.00740618,-0.00833607,0.00164352,0.09
 408997,0.00413606,-0.07821394,0.02732071,-0.02152505,-0.02881440,-0.00
 466953,-0.03379103,-0.08590680,-0.17909295,0.07545908,0.60978391,-0.04
 610342,0.00437752,0.00091652,-0.01567132,0.04963294,0.00945571,0.00116
 023,-0.00084880,-0.00051780,-0.00485616,0.00476712,-0.00448218,0.00375
 245,0.00022583,0.00438263,-0.00035084,0.00029540,-0.00070397,0.0001128
 7,0.00017004,0.00035198,0.00005778,0.00007750,0.00037826,-0.00062376,0
 .00009239,-0.00064068,0.06848150,0.05730606,-0.47966595,-0.08536274,0.
 00311684,-0.01072297,-0.00104529,-0.00023391,-0.00141812,0.00066446,-0
 .00300482,0.00812541,-0.00117399,0.00343506,-0.00585234,0.00149250,-0.
 00067319,-0.00070471,-0.00128526,0.00020981,-0.00008800,0.00028909,0.0
 0015821,-0.00000041,0.00025853,-0.00043518,-0.00038337,-0.00057136,-0.
 05819154,0.48797856,0.00999576,-0.08344578,-0.02422989,0.00247948,-0.0
 0307431,-0.00027872,0.00004049,0.00068480,0.00149754,-0.00468985,0.003
 14076,-0.00256628,0.00376733,-0.00122652,-0.00094112,-0.00021868,-0.00
 012879,-0.00089207,0.00024633,-0.00008177,0.00022342,0.00013106,0.0001
 2639,0.00028839,-0.00039149,0.00028432,-0.00076271,-0.01070958,0.08589
 014,0.02633491,-0.01590979,0.04215700,0.00965256,-0.04731966,0.0123867
 1,0.00415572,0.00302759,-0.01282514,-0.00201406,-0.00110574,0.00007662
 ,-0.00266541,0.00061316,0.00024794,-0.00009964,0.00046387,-0.00018755,
 0.00055137,-0.00065446,0.00023159,-0.00173387,0.00037897,0.00072494,-0
 .00021208,0.00021968,0.00010173,0.00051153,-0.00762710,0.00095763,0.00
 081088,0.06634765,0.00805375,-0.00504320,-0.00116591,0.02157070,-0.293
 19303,-0.06690036,-0.00123446,-0.00408451,-0.00202267,-0.00012644,0.00
 013061,-0.00024919,-0.00044815,0.00044570,-0.00031736,0.00010598,-0.00
 076160,-0.00023482,0.00086635,-0.00084022,0.00050439,0.00089976,-0.000
 63407,0.00124114,0.00025168,-0.00070857,0.00018969,0.00083055,0.002376
 84,0.00006792,-0.03168608,0.31917586,0.00175351,-0.00152819,0.00193631
 ,0.00633413,-0.06420640,-0.06901012,0.00142500,-0.02954588,-0.00934153
 ,-0.00361281,0.00153973,-0.00521007,0.00035101,0.00022464,0.00135052,0
 .00075548,-0.00080904,0.00125070,-0.00077402,0.00033470,-0.00018124,-0
 .00083669,0.00031806,-0.00123899,0.00114283,-0.00069771,0.00168975,0.0
 0013245,0.00048377,0.00071660,-0.00552317,0.07135650,0.07199512,-0.037
 82002,-0.01428116,0.02536976,-0.08382072,-0.05348465,0.06683698,0.0066
 6343,0.00666235,-0.01145919,-0.00031610,0.00107818,-0.00004618,0.00105
 167,-0.00005522,0.00007620,0.00078989,-0.00024829,0.00200892,0.0001258
 4,0.00014348,0.00001671,0.00000699,-0.00036182,-0.00017238,0.00051057,
 -0.00131179,-0.00321546,0.00106845,-0.00278302,-0.00118075,0.00303743,
 0.00030262,-0.00166902,0.10959043,0.00419147,0.00944235,-0.00596218,-0
 .05802031,-0.13538083,0.09840245,0.00196810,0.00435035,-0.00534413,0.0
 0059963,0.00027219,-0.00032522,-0.00009775,0.00003668,-0.00009466,0.00
 015833,0.00021861,0.00033047,-0.00011261,-0.00010504,0.00030422,-0.000
 17571,-0.00007608,0.00007216,-0.00023478,-0.00068481,-0.00124619,-0.00
 015288,0.00125402,-0.00136650,-0.01200658,-0.01728002,0.02201405,0.063
 60872,0.13729491,0.00526179,-0.00220460,0.00478914,0.06813451,0.096791
 46,-0.16788488,0.00898284,0.01711439,-0.02552445,-0.00096392,0.0038659
 0,-0.00044557,0.00083097,-0.00150155,0.00206968,-0.00063429,0.00037549
 ,-0.00003275,-0.00008277,-0.00002019,-0.00028462,0.00022425,-0.0009350
 6,0.00027149,-0.00118779,-0.00314287,-0.00350407,0.00075415,0.00010542
 ,0.00035569,-0.00371140,-0.00468176,0.00676761,-0.07639898,-0.10704302
 ,0.18343525,-0.00001960,-0.00016642,0.00037803,0.00187277,0.00074642,-
 0.00044482,0.00896759,0.00366106,-0.00494961,-0.09872113,-0.03339271,-
 0.07320885,-0.00760044,0.01176726,-0.03325996,0.00118081,-0.00167067,0
 .00016159,0.00098156,-0.00036371,0.00035840,-0.00001319,0.00032550,-0.
 00034846,-0.00051595,0.00241350,-0.00058033,0.00045222,0.00036840,-0.0
 0027164,-0.00004895,0.00015221,-0.00000282,-0.00016811,-0.00013629,-0.
 00005513,0.09361942,-0.00049935,0.00136685,0.00065608,0.00325488,-0.00
 609616,0.00040296,-0.01121211,-0.00365913,-0.02673091,-0.02960678,-0.0
 8256329,-0.05246163,0.02289596,0.01183557,0.02918165,-0.00056771,0.000
 23513,-0.00080949,0.00028814,-0.00007475,0.00024939,0.00007691,0.00015
 905,-0.00009425,-0.00058580,0.00152250,-0.00072244,-0.00060896,-0.0010
 0390,-0.00033276,-0.00087657,-0.00022523,-0.00176482,0.00004588,0.0000
 8495,-0.00003476,0.01691858,0.07872555,-0.00083225,-0.00038384,-0.0000
 5753,0.00014144,-0.00259318,0.00145895,-0.01134897,-0.00337269,-0.0046
 3182,-0.07152357,-0.05990159,-0.19440030,-0.02874651,0.01432875,-0.016
 51205,-0.00132015,0.00203896,-0.00087653,0.00026600,0.00007716,0.00017
 593,0.00006767,-0.00061039,0.00123267,-0.00032538,-0.00118989,-0.00077
 918,0.00097582,0.00067677,0.00054182,-0.00020986,-0.00010656,-0.000879
 40,0.00014443,0.00029343,0.00014006,0.11163758,0.05149444,0.21353928,-
 0.00049997,0.00010946,-0.00089640,-0.00051432,0.00008660,0.00209418,-0
 .01310881,-0.00593190,-0.00119155,0.00016228,-0.00343529,-0.00349254,-
 0.00023741,0.00096205,0.00074707,-0.21446717,-0.12596826,-0.06200543,0
 .00725523,0.00320075,0.00338436,-0.00155021,0.00073016,-0.00086936,-0.
 00708054,-0.00240523,-0.00870776,0.00004452,-0.00021403,0.00003314,-0.
 00001788,-0.00008695,-0.00008437,-0.00004044,0.00008288,-0.00024162,0.
 00023811,0.00070716,0.00107964,0.22676610,0.00121121,0.00000024,0.0011
 3838,0.00114161,-0.00074100,-0.00236533,0.01229078,0.00838324,0.005201
 59,0.00062299,0.00075908,0.00201236,0.00011389,0.00021820,-0.00047985,
 -0.12846013,-0.14319862,-0.05545625,-0.01723058,-0.00482625,-0.0026193
 1,-0.00263037,-0.00459261,-0.00159022,0.00114148,-0.00524749,-0.002547
 80,-0.00006662,0.00020788,-0.00000703,0.00002824,0.00015523,0.00018216
 ,-0.00005726,-0.00000580,0.00013148,-0.00039331,-0.00012691,-0.0001210
 0,0.13341695,0.14911105,-0.00155954,0.00010804,-0.00126989,-0.00193521
 ,0.00013414,0.00276715,-0.00828032,-0.00797015,-0.00754393,0.00209127,
 -0.00229289,0.00024462,-0.00054497,0.00067378,-0.00051905,-0.06367664,
 -0.05849170,-0.06586136,-0.00661746,0.00198885,-0.00365741,0.00295497,
 0.00026644,0.00220868,0.00965697,0.01009498,0.01194284,0.00006959,-0.0
 0020556,0.00002594,0.00013089,-0.00005006,-0.00005835,0.00008754,0.000
 08874,-0.00003339,0.00020750,0.00019705,0.00025888,0.06997645,0.055370
 32,0.06003128,0.00027682,-0.00051922,-0.00010164,-0.00015940,0.0012439
 9,0.00034540,0.00056752,0.00044135,0.00067967,0.00001154,0.00008632,-0
 .00018265,-0.00008371,-0.00002493,-0.00001615,-0.00188080,0.00256673,0
 .00007113,-0.04936853,-0.00226377,0.00701904,0.00466918,0.00285936,0.0
 2216620,-0.00142216,0.00151705,0.00271929,0.00012955,0.00007898,0.0000
 6017,-0.00104865,0.00017685,-0.00030090,-0.00002479,-0.00013065,-0.000
 03205,-0.00004061,-0.00011411,-0.00004093,0.00013980,-0.00049599,-0.00
 031887,0.04857253,0.00007146,0.00030566,0.00037636,0.00067810,-0.00061
 247,-0.00042007,-0.00243325,0.00278007,0.00116140,-0.00055688,0.000118
 02,-0.00035259,0.00023081,0.00002675,0.00019949,0.00085900,-0.00258290
 ,-0.02821482,-0.00095451,-0.05307432,-0.03552254,0.00287853,-0.0011557
 0,0.00955458,0.00123588,-0.00325969,-0.00347520,-0.00013361,-0.0000305
 5,-0.00009968,0.00078052,0.00022425,0.00034025,0.00004727,-0.00014601,
 0.00021336,0.00004319,0.00016670,0.00013649,0.00074484,-0.00141198,-0.
 00150085,-0.00317245,0.05465412,0.00000171,0.00050779,0.00050159,-0.00
 018733,-0.00096425,-0.00055202,-0.00065181,-0.00041852,0.00051304,-0.0
 0003131,0.00071138,0.00001109,0.00029357,-0.00046638,0.00026805,0.0018
 5097,-0.00215933,-0.00330009,0.00750920,-0.03524904,-0.30536227,-0.003
 08836,-0.00005358,-0.00726571,-0.00068433,-0.00169143,-0.00120380,-0.0
 0019593,-0.00001490,-0.00004724,0.00007737,0.00078318,0.00038219,0.000
 03735,-0.00002280,0.00012295,0.00002345,0.00007718,0.00005977,0.000444
 72,-0.00006272,-0.00059063,-0.00817827,0.04194512,0.32913693,-0.000014
 10,0.00012163,-0.00000356,0.00012325,-0.00029984,-0.00013140,0.0016847
 1,-0.00160208,0.00021990,0.00025177,-0.00007136,0.00014893,-0.00009132
 ,-0.00012620,0.00008759,0.00254232,-0.00118893,0.00101939,-0.20506440,
 0.09877362,-0.09255203,-0.02024680,0.01066958,-0.00971482,-0.00225395,
 -0.00200668,0.00139717,0.00000555,-0.00001217,-0.00000576,-0.00006078,
 0.00005580,0.00021105,-0.00002972,0.00009141,-0.00003208,0.00000626,0.
 00002644,-0.00003916,0.00045417,0.00055952,0.00015330,0.00147154,-0.00
 062968,0.00072356,0.22167297,0.00020648,0.00028333,0.00018924,-0.00075
 454,-0.00040386,-0.00077795,0.00001842,-0.00649141,-0.00339208,0.00207
 801,0.00252958,0.00028573,0.00004437,-0.00158430,0.00053051,0.02548872
 ,-0.01536344,0.01492347,0.09710191,-0.10162623,0.05340337,-0.01043536,
 0.00524626,-0.00638577,-0.00231171,0.00059825,0.00096527,-0.00020977,-
 0.00007488,-0.00014645,-0.00000413,0.00018618,0.00018077,0.00003379,0.
 00003043,0.00006022,-0.00027672,-0.00010033,-0.00013798,-0.00088590,0.
 00148426,0.00042562,-0.00381670,0.00298079,-0.00190924,-0.10512817,0.1
 1083357,-0.00021842,0.00043177,0.00021366,-0.00001161,-0.00079137,-0.0
 0045917,0.00027658,-0.00145785,-0.00100264,0.00039327,0.00064560,-0.00
 010484,0.00012170,-0.00039447,0.00026073,0.00652094,-0.00395110,0.0035
 7044,-0.09355944,0.05340135,-0.09974818,0.01252126,-0.00619433,0.00360
 449,0.00050179,0.00146157,-0.00045092,-0.00013875,-0.00006211,-0.00005
 024,0.00022143,0.00054476,0.00025107,0.00002439,0.00005295,0.00004431,
 -0.00006608,0.00002900,0.00005960,-0.00028507,0.00033059,0.00090442,-0
 .02477172,0.01509430,-0.01329853,0.09686498,-0.05847064,0.10521367,-0.
 00003377,0.00011512,0.00028024,0.00067838,-0.00056363,-0.00101345,0.00
 024800,-0.00129647,-0.00047450,-0.00011479,0.00038258,0.00036040,0.000
 23497,-0.00028103,0.00014006,-0.00031056,-0.00080163,-0.00106831,-0.01
 328177,-0.00237795,-0.01574397,-0.20546444,-0.06160740,-0.11264643,0.0
 0534620,-0.00165165,0.00514419,-0.00012006,-0.00006357,0.00001066,-0.0
 0007222,0.00029706,0.00035055,-0.00002081,0.00026926,0.00019082,-0.000
 01715,0.00006069,0.00002231,0.00031843,-0.00104542,0.00022567,0.001586
 95,0.00059738,-0.00004797,-0.00252793,-0.00209690,0.00138593,0.2165424
 2,0.00038671,0.00059549,-0.00001712,-0.00073396,-0.00125783,0.00017834
 ,0.00107420,0.00304771,-0.00106273,-0.00011098,0.00031209,-0.00058109,
 0.00018975,-0.00006782,0.00037061,-0.00278085,-0.00474909,-0.00186075,
 0.00027486,-0.00211392,-0.00042623,-0.06208811,-0.07133894,-0.04592314
 ,-0.02119003,-0.00944632,-0.01417137,-0.00005061,-0.00008514,-0.000231
 52,-0.00014209,-0.00030039,0.00124957,0.00007276,0.00040954,0.00012291
 ,0.00003061,0.00017058,0.00021642,-0.00082627,-0.00095826,0.00155683,-
 0.00029494,0.00076796,0.00012381,0.00074501,-0.00003507,-0.00042673,0.
 07074782,0.07921945,0.00033076,-0.00002515,-0.00011461,-0.00027976,0.0
 0061977,0.00026878,0.00088895,0.00115818,-0.00001483,-0.00036881,0.000
 47774,-0.00015536,0.00021939,-0.00017449,0.00021468,0.00115798,0.00021
 819,-0.00076122,0.01106883,0.00385407,0.01144384,-0.11288918,-0.047061
 62,-0.13326043,-0.00625087,-0.00160774,-0.00457221,-0.00003350,-0.0000
 1449,-0.00000911,-0.00002635,0.00073063,-0.00079015,0.00014864,-0.0001
 4234,0.00027571,0.00004980,-0.00001694,0.00000193,-0.00012314,0.000864
 80,0.00038423,-0.00124994,-0.00064835,0.00072527,0.00216693,0.00098318
 ,-0.00050004,0.12486197,0.04975645,0.14011443,0.00003051,0.00011853,0.
 00000725,0.00007678,-0.00019126,0.00000813,-0.00017763,0.00214311,-0.0
 0025219,0.00018893,-0.00023890,-0.00068232,-0.00022358,0.00026122,0.00
 021299,-0.00302880,0.00046291,0.00140113,0.00104276,-0.01750181,0.0216
 6476,-0.04976602,0.02329675,-0.03331515,-0.00101367,0.00321412,-0.0047
 7913,0.00002682,-0.00002172,-0.00002197,-0.00019494,0.00011849,0.00027
 529,-0.00000441,0.00016981,0.00002173,0.00006755,0.00003606,0.00013187
 ,0.00025139,-0.00060939,-0.00053527,-0.00254398,-0.00198196,0.00137151
 ,0.00187677,0.00065194,0.00043686,-0.00287102,0.01572271,-0.01895438,0
 .05557406,0.00025448,0.00015298,0.00025960,-0.00008682,-0.00006973,-0.
 00124898,-0.00066525,-0.00588900,-0.00303219,-0.00173415,0.00167438,0.
 00204490,0.00106398,-0.00110674,-0.00001954,-0.00000043,0.00167967,-0.
 00040933,-0.00143465,-0.00054292,-0.00089099,0.02396971,-0.15055780,0.
 12885491,0.00514088,-0.01855346,0.02361331,-0.00017473,-0.00007118,-0.
 00011511,0.00002682,0.00026772,0.00017352,0.00000609,0.00010866,0.0001
 0058,0.00008035,0.00001985,-0.00036616,-0.00009765,-0.00028168,0.00006
 192,0.00051288,-0.00006301,-0.00069621,-0.00059801,0.00138821,0.000231
 54,-0.00135132,0.00738793,-0.00796156,-0.02534771,0.16289160,-0.000084
 59,0.00026246,0.00010950,0.00016789,-0.00049353,-0.00050131,-0.0004753
 9,-0.00404981,-0.00008175,-0.00073736,0.00065321,0.00093141,0.00061347
 ,-0.00046675,0.00005494,0.00194073,0.00035107,-0.00111459,-0.00266198,
 0.00832458,-0.01167317,-0.03271063,0.13051843,-0.20638826,0.00181656,-
 0.00857025,0.01061857,-0.00007868,-0.00007548,-0.00007601,0.00008319,0
 .00033573,0.00035384,0.00000079,0.00017059,0.00009040,0.00001844,0.000
 07003,-0.00012083,-0.00020295,0.00019448,0.00010509,0.00195700,0.00122
 988,-0.00041901,-0.00061318,-0.00068253,0.00172511,-0.00221045,0.01149
 115,-0.01303635,0.03293198,-0.14026522,0.21884263,-0.00015070,0.000026
 83,0.00055659,0.00255962,0.00149781,-0.00176030,-0.00131524,-0.0054934
 2,-0.00895715,0.00080362,-0.00079440,0.00131568,-0.00041277,0.00005220
 ,-0.00060041,0.00258940,0.00908010,0.01944768,-0.00011570,0.00047868,0
 .00494262,-0.00213105,0.00203831,-0.00383204,-0.06817323,0.02153048,0.
 08460587,0.00006072,0.00000215,-0.00008557,-0.00002820,-0.00009973,0.0
 0007249,-0.00059957,-0.00007205,-0.00106104,-0.00024116,-0.00023930,-0
 .00007998,0.00188673,0.00046240,-0.00208588,-0.00085282,0.00169537,0.0
 0073190,0.00019968,0.00029626,-0.00021804,-0.00012084,-0.00102660,-0.0
 0071732,0.00068846,0.00043553,0.00024516,0.06535304,0.00054302,0.00005
 263,-0.00011060,-0.00218686,-0.00149319,0.00023006,-0.00694718,0.00345
 211,0.01498889,0.00150128,0.00140864,0.00269916,-0.00072787,-0.0002169
 8,-0.00025704,0.00082801,-0.00321117,0.00613127,0.00152795,-0.00366727
 ,-0.00236624,0.00742149,0.00148990,-0.01934016,0.02531524,-0.07877330,
 -0.08657750,-0.00003178,0.00015881,0.00006190,0.00000840,0.00010845,0.
 00015435,0.00058205,0.00017588,0.00068258,-0.00010725,-0.00043701,-0.0
 0047915,-0.00018939,0.00107143,-0.00045552,0.00134926,0.00031233,-0.00
 044006,0.00062010,0.00011866,-0.00047483,0.00066707,-0.00155795,-0.001
 01032,-0.00030290,0.00156452,0.00100198,-0.02987061,0.07944349,-0.0006
 4516,0.00005466,0.00049659,0.00285515,0.00099434,-0.00070061,0.0053068
 7,-0.00316916,-0.01328039,-0.00075151,-0.00417977,-0.00125404,-0.00016
 300,0.00147872,-0.00015668,-0.00188617,0.00193163,-0.00004049,0.000389
 91,-0.00012820,-0.00019649,-0.00013025,0.00317609,-0.00028593,0.086792
 12,-0.08513406,-0.27850908,0.00008396,-0.00004951,-0.00013091,0.000000
 93,-0.00002524,0.00001614,-0.00060974,-0.00018201,-0.00065257,0.000352
 92,0.00061020,0.00078875,0.00034062,-0.00017663,0.00066089,0.00017523,
 -0.00001713,0.00031843,0.00009917,-0.00004473,-0.00023292,0.00023229,-
 0.00036541,-0.00021458,0.00007692,-0.00033499,0.00057980,-0.09252025,0
 .08556122,0.29279412\\-0.00007459,0.00009155,0.00005137,0.00002723,-0.
 00006676,0.00001237,0.00003150,0.00003556,-0.00003918,0.00007490,-0.00
 001886,0.00001866,-0.00003526,0.00001244,0.00000621,-0.00006795,0.0000
 1023,0.00002451,0.00003165,0.00000013,-0.00001477,-0.00000130,0.000030
 94,0.00001312,0.00000984,-0.00010497,0.00002178,0.00000277,-0.00003795
 ,-0.00003342,0.00001682,0.00005151,-0.00002865,0.00000243,0.00001371,0
 .00001665,-0.00000155,-0.00001281,0.00001758,0.00005457,-0.00002060,0.
 00000773,-0.00001657,-0.00000323,-0.00001766,-0.00001081,0.00000567,-0
 .00001602,-0.00001051,0.00000261,-0.00002662,-0.00002454,-0.00000727,-
 0.00002686,-0.00000863,0.00001812,0.00001320\\\@


 THE CHYMISTS ARE A STRANGE CLASS OF MORTALS IMPELLED
 BY AN ALMOST INSANE IMPULSE TO SEEK THEIR PLEASURE
 AMONG SMOKE AND VAPOR, SOOT AND FLAME, POISONS AND
 POVERTY; YET AMONG ALL THESE EVILS I SEEM TO LIVE
 SO SWEETLY, THAT I MAY DIE IF I WOULD CHANGE PLACES
 WITH THE PERSIAN KING.
   --  JOHANN JOACHIM BECHER, 1635-1682
 ACTA LABORATORII CHYMICA MONACENSIS, 1669
 Job cpu time:       0 days  0 hours 43 minutes 56.7 seconds.
 File lengths (MBytes):  RWF=    152 Int=      0 D2E=      0 Chk=      8 Scr=      1
 Normal termination of Gaussian 09 at Tue Jan 28 09:43:23 2020.
