 Entering Gaussian System, Link 0=/home/puck/opt/gaussian_09/g09
 Input=dsC7O2H10nsd_3417.com
 Output=dsC7O2H10nsd_3417.log
 Initial command:
 /home/puck/opt/gaussian_09/l1.exe "/scratch/puck/g09_ece8ae4b-6111-4b87-9042-39742efbc97b/Gau-71689.inp" -scrdir="/scratch/puck/g09_ece8ae4b-6111-4b87-9042-39742efbc97b/"
 Entering Link 1 = /home/puck/opt/gaussian_09/l1.exe PID=     71697.
  
 Copyright (c) 1988,1990,1992,1993,1995,1998,2003,2009,2013,
            Gaussian, Inc.  All Rights Reserved.
  
 This is part of the Gaussian(R) 09 program.  It is based on
 the Gaussian(R) 03 system (copyright 2003, Gaussian, Inc.),
 the Gaussian(R) 98 system (copyright 1998, Gaussian, Inc.),
 the Gaussian(R) 94 system (copyright 1995, Gaussian, Inc.),
 the Gaussian 92(TM) system (copyright 1992, Gaussian, Inc.),
 the Gaussian 90(TM) system (copyright 1990, Gaussian, Inc.),
 the Gaussian 88(TM) system (copyright 1988, Gaussian, Inc.),
 the Gaussian 86(TM) system (copyright 1986, Carnegie Mellon
 University), and the Gaussian 82(TM) system (copyright 1983,
 Carnegie Mellon University). Gaussian is a federally registered
 trademark of Gaussian, Inc.
  
 This software contains proprietary and confidential information,
 including trade secrets, belonging to Gaussian, Inc.
  
 This software is provided under written license and may be
 used, copied, transmitted, or stored only in accord with that
 written license.
  
 The following legend is applicable only to US Government
 contracts under FAR:
  
                    RESTRICTED RIGHTS LEGEND
  
 Use, reproduction and disclosure by the US Government is
 subject to restrictions as set forth in subparagraphs (a)
 and (c) of the Commercial Computer Software - Restricted
 Rights clause in FAR 52.227-19.
  
 Gaussian, Inc.
 340 Quinnipiac St., Bldg. 40, Wallingford CT 06492
  
  
 ---------------------------------------------------------------
 Warning -- This program may not be used in any manner that
 competes with the business of Gaussian, Inc. or will provide
 assistance to any competitor of Gaussian, Inc.  The licensee
 of this program is prohibited from giving any competitor of
 Gaussian, Inc. access to this program.  By using this program,
 the user acknowledges that Gaussian, Inc. is engaged in the
 business of creating and licensing software in the field of
 computational chemistry and represents and warrants to the
 licensee that it is not a competitor of Gaussian, Inc. and that
 it will not use this program in any manner prohibited above.
 ---------------------------------------------------------------
  

 Cite this work as:
 Gaussian 09, Revision D.01,
 M. J. Frisch, G. W. Trucks, H. B. Schlegel, G. E. Scuseria, 
 M. A. Robb, J. R. Cheeseman, G. Scalmani, V. Barone, B. Mennucci, 
 G. A. Petersson, H. Nakatsuji, M. Caricato, X. Li, H. P. Hratchian, 
 A. F. Izmaylov, J. Bloino, G. Zheng, J. L. Sonnenberg, M. Hada, 
 M. Ehara, K. Toyota, R. Fukuda, J. Hasegawa, M. Ishida, T. Nakajima, 
 Y. Honda, O. Kitao, H. Nakai, T. Vreven, J. A. Montgomery, Jr., 
 J. E. Peralta, F. Ogliaro, M. Bearpark, J. J. Heyd, E. Brothers, 
 K. N. Kudin, V. N. Staroverov, T. Keith, R. Kobayashi, J. Normand, 
 K. Raghavachari, A. Rendell, J. C. Burant, S. S. Iyengar, J. Tomasi, 
 M. Cossi, N. Rega, J. M. Millam, M. Klene, J. E. Knox, J. B. Cross, 
 V. Bakken, C. Adamo, J. Jaramillo, R. Gomperts, R. E. Stratmann, 
 O. Yazyev, A. J. Austin, R. Cammi, C. Pomelli, J. W. Ochterski, 
 R. L. Martin, K. Morokuma, V. G. Zakrzewski, G. A. Voth, 
 P. Salvador, J. J. Dannenberg, S. Dapprich, A. D. Daniels, 
 O. Farkas, J. B. Foresman, J. V. Ortiz, J. Cioslowski, 
 and D. J. Fox, Gaussian, Inc., Wallingford CT, 2013.
 
 ******************************************
 Gaussian 09:  ES64L-G09RevD.01 24-Apr-2013
                27-Jan-2020 
 ******************************************
 -----------------------------
 # b3lyp 6-31G(2df,p) opt Freq
 -----------------------------
 1/14=-1,18=20,19=15,26=3,38=1/1,3;
 2/9=110,12=2,17=6,18=5,40=1/2;
 3/5=1,6=6,7=104,11=2,16=1,25=1,30=1,71=1,74=-5/1,2,3;
 4//1;
 5/5=2,38=5/2;
 6/7=2,8=2,9=2,10=2,28=1/1;
 7//1,2,3,16;
 1/14=-1,18=20,19=15,26=3/3(2);
 2/9=110/2;
 99//99;
 2/9=110/2;
 3/5=1,6=6,7=104,11=2,16=1,25=1,30=1,71=1,74=-5/1,2,3;
 4/5=5,16=3,69=1/1;
 5/5=2,38=5/2;
 7//1,2,3,16;
 1/14=-1,18=20,19=15,26=3/3(-5);
 2/9=110/2;
 6/7=2,8=2,9=2,10=2,19=2,28=1/1;
 99/9=1/99;
 -----
 titel
 -----
 Symbolic Z-matrix:
 Charge =  0 Multiplicity = 1
 C                    -1.61889  -0.09334  -2.22178 
 C                    -1.82436  -0.02529  -0.71183 
 C                    -1.05392   1.14683  -0.00932 
 C                    -1.55667   1.2992    1.44813 
 C                    -2.02389  -0.0731    1.97936 
 O                    -1.28855  -1.17244   1.43845 
 C                    -0.88673  -0.99316   0.08044 
 C                     0.13731   0.17137   0.04828 
 O                     1.32695   0.27439  -0.00157 
 H                    -2.02117  -1.02563  -2.63093 
 H                    -2.12213   0.74044  -2.72171 
 H                    -0.55676  -0.04361  -2.48809 
 H                    -2.88484  -0.10578  -0.46349 
 H                    -0.93178   2.10391  -0.5208 
 H                    -0.75244   1.70997   2.06731 
 H                    -2.39311   2.00599   1.49221 
 H                    -1.90636  -0.13932   3.0643 
 H                    -3.09187  -0.20744   1.76063 
 H                    -0.6381   -1.97573  -0.32468 
 

 GradGradGradGradGradGradGradGradGradGradGradGradGradGradGradGradGradGrad
 Berny optimization.
 Initialization pass.
                           ----------------------------
                           !    Initial Parameters    !
                           ! (Angstroms and Degrees)  !
 --------------------------                            --------------------------
 ! Name  Definition              Value          Derivative Info.                !
 --------------------------------------------------------------------------------
 ! R1    R(1,2)                  1.5254         estimate D2E/DX2                !
 ! R2    R(1,10)                 1.0947         estimate D2E/DX2                !
 ! R3    R(1,11)                 1.0947         estimate D2E/DX2                !
 ! R4    R(1,12)                 1.0961         estimate D2E/DX2                !
 ! R5    R(2,3)                  1.5688         estimate D2E/DX2                !
 ! R6    R(2,7)                  1.5632         estimate D2E/DX2                !
 ! R7    R(2,13)                 1.0921         estimate D2E/DX2                !
 ! R8    R(3,4)                  1.5492         estimate D2E/DX2                !
 ! R9    R(3,8)                  1.5407         estimate D2E/DX2                !
 ! R10   R(3,14)                 1.092          estimate D2E/DX2                !
 ! R11   R(4,5)                  1.5439         estimate D2E/DX2                !
 ! R12   R(4,15)                 1.0949         estimate D2E/DX2                !
 ! R13   R(4,16)                 1.096          estimate D2E/DX2                !
 ! R14   R(5,6)                  1.4289         estimate D2E/DX2                !
 ! R15   R(5,17)                 1.0933         estimate D2E/DX2                !
 ! R16   R(5,18)                 1.0984         estimate D2E/DX2                !
 ! R17   R(6,7)                  1.4275         estimate D2E/DX2                !
 ! R18   R(7,8)                  1.5511         estimate D2E/DX2                !
 ! R19   R(7,19)                 1.0915         estimate D2E/DX2                !
 ! R20   R(8,9)                  1.1951         estimate D2E/DX2                !
 ! A1    A(2,1,10)             111.0059         estimate D2E/DX2                !
 ! A2    A(2,1,11)             110.8645         estimate D2E/DX2                !
 ! A3    A(2,1,12)             111.6538         estimate D2E/DX2                !
 ! A4    A(10,1,11)            108.0004         estimate D2E/DX2                !
 ! A5    A(10,1,12)            107.6927         estimate D2E/DX2                !
 ! A6    A(11,1,12)            107.4535         estimate D2E/DX2                !
 ! A7    A(1,2,3)              114.2337         estimate D2E/DX2                !
 ! A8    A(1,2,7)              113.1585         estimate D2E/DX2                !
 ! A9    A(1,2,13)             110.6461         estimate D2E/DX2                !
 ! A10   A(3,2,7)               86.6218         estimate D2E/DX2                !
 ! A11   A(3,2,13)             115.475          estimate D2E/DX2                !
 ! A12   A(7,2,13)             114.9328         estimate D2E/DX2                !
 ! A13   A(2,3,4)              109.5962         estimate D2E/DX2                !
 ! A14   A(2,3,8)               85.6073         estimate D2E/DX2                !
 ! A15   A(2,3,14)             120.0012         estimate D2E/DX2                !
 ! A16   A(4,3,8)              106.1409         estimate D2E/DX2                !
 ! A17   A(4,3,14)             112.9997         estimate D2E/DX2                !
 ! A18   A(8,3,14)             119.0722         estimate D2E/DX2                !
 ! A19   A(3,4,5)              109.5408         estimate D2E/DX2                !
 ! A20   A(3,4,15)             109.3012         estimate D2E/DX2                !
 ! A21   A(3,4,16)             110.4224         estimate D2E/DX2                !
 ! A22   A(5,4,15)             111.1703         estimate D2E/DX2                !
 ! A23   A(5,4,16)             109.1728         estimate D2E/DX2                !
 ! A24   A(15,4,16)            107.2107         estimate D2E/DX2                !
 ! A25   A(4,5,6)              113.4434         estimate D2E/DX2                !
 ! A26   A(4,5,17)             111.2692         estimate D2E/DX2                !
 ! A27   A(4,5,18)             109.5374         estimate D2E/DX2                !
 ! A28   A(6,5,17)             105.8869         estimate D2E/DX2                !
 ! A29   A(6,5,18)             109.3224         estimate D2E/DX2                !
 ! A30   A(17,5,18)            107.1413         estimate D2E/DX2                !
 ! A31   A(5,6,7)              114.1011         estimate D2E/DX2                !
 ! A32   A(2,7,6)              113.0209         estimate D2E/DX2                !
 ! A33   A(2,7,8)               85.4483         estimate D2E/DX2                !
 ! A34   A(2,7,19)             120.39           estimate D2E/DX2                !
 ! A35   A(6,7,8)              107.4486         estimate D2E/DX2                !
 ! A36   A(6,7,19)             107.707          estimate D2E/DX2                !
 ! A37   A(8,7,19)             121.1834         estimate D2E/DX2                !
 ! A38   A(3,8,7)               88.0323         estimate D2E/DX2                !
 ! A39   A(3,8,9)              135.5178         estimate D2E/DX2                !
 ! A40   A(7,8,9)              136.283          estimate D2E/DX2                !
 ! D1    D(10,1,2,3)           169.4998         estimate D2E/DX2                !
 ! D2    D(10,1,2,7)            72.4777         estimate D2E/DX2                !
 ! D3    D(10,1,2,13)          -58.15           estimate D2E/DX2                !
 ! D4    D(11,1,2,3)           -70.4599         estimate D2E/DX2                !
 ! D5    D(11,1,2,7)          -167.4821         estimate D2E/DX2                !
 ! D6    D(11,1,2,13)           61.8903         estimate D2E/DX2                !
 ! D7    D(12,1,2,3)            49.3203         estimate D2E/DX2                !
 ! D8    D(12,1,2,7)           -47.7018         estimate D2E/DX2                !
 ! D9    D(12,1,2,13)         -178.3295         estimate D2E/DX2                !
 ! D10   D(1,2,3,4)            168.4513         estimate D2E/DX2                !
 ! D11   D(1,2,3,8)            -85.9669         estimate D2E/DX2                !
 ! D12   D(1,2,3,14)            35.2574         estimate D2E/DX2                !
 ! D13   D(7,2,3,4)            -77.6287         estimate D2E/DX2                !
 ! D14   D(7,2,3,8)             27.9531         estimate D2E/DX2                !
 ! D15   D(7,2,3,14)           149.1774         estimate D2E/DX2                !
 ! D16   D(13,2,3,4)            38.4525         estimate D2E/DX2                !
 ! D17   D(13,2,3,8)           144.0343         estimate D2E/DX2                !
 ! D18   D(13,2,3,14)          -94.7413         estimate D2E/DX2                !
 ! D19   D(1,2,7,6)           -165.761          estimate D2E/DX2                !
 ! D20   D(1,2,7,8)             87.2013         estimate D2E/DX2                !
 ! D21   D(1,2,7,19)           -36.5413         estimate D2E/DX2                !
 ! D22   D(3,2,7,6)             79.2805         estimate D2E/DX2                !
 ! D23   D(3,2,7,8)            -27.7571         estimate D2E/DX2                !
 ! D24   D(3,2,7,19)          -151.4997         estimate D2E/DX2                !
 ! D25   D(13,2,7,6)           -37.3161         estimate D2E/DX2                !
 ! D26   D(13,2,7,8)          -144.3538         estimate D2E/DX2                !
 ! D27   D(13,2,7,19)           91.9036         estimate D2E/DX2                !
 ! D28   D(2,3,4,5)             29.7463         estimate D2E/DX2                !
 ! D29   D(2,3,4,15)           151.7743         estimate D2E/DX2                !
 ! D30   D(2,3,4,16)           -90.5197         estimate D2E/DX2                !
 ! D31   D(8,3,4,5)            -61.3078         estimate D2E/DX2                !
 ! D32   D(8,3,4,15)            60.7203         estimate D2E/DX2                !
 ! D33   D(8,3,4,16)           178.4262         estimate D2E/DX2                !
 ! D34   D(14,3,4,5)           166.4411         estimate D2E/DX2                !
 ! D35   D(14,3,4,15)          -71.5309         estimate D2E/DX2                !
 ! D36   D(14,3,4,16)           46.1751         estimate D2E/DX2                !
 ! D37   D(2,3,8,7)            -28.1558         estimate D2E/DX2                !
 ! D38   D(2,3,8,9)            147.5025         estimate D2E/DX2                !
 ! D39   D(4,3,8,7)             80.9886         estimate D2E/DX2                !
 ! D40   D(4,3,8,9)           -103.3531         estimate D2E/DX2                !
 ! D41   D(14,3,8,7)          -150.2341         estimate D2E/DX2                !
 ! D42   D(14,3,8,9)            25.4243         estimate D2E/DX2                !
 ! D43   D(3,4,5,6)             32.1723         estimate D2E/DX2                !
 ! D44   D(3,4,5,17)           151.4457         estimate D2E/DX2                !
 ! D45   D(3,4,5,18)           -90.2779         estimate D2E/DX2                !
 ! D46   D(15,4,5,6)           -88.7298         estimate D2E/DX2                !
 ! D47   D(15,4,5,17)           30.5436         estimate D2E/DX2                !
 ! D48   D(15,4,5,18)          148.82           estimate D2E/DX2                !
 ! D49   D(16,4,5,6)           153.1975         estimate D2E/DX2                !
 ! D50   D(16,4,5,17)          -87.5291         estimate D2E/DX2                !
 ! D51   D(16,4,5,18)           30.7473         estimate D2E/DX2                !
 ! D52   D(4,5,6,7)            -34.9318         estimate D2E/DX2                !
 ! D53   D(17,5,6,7)          -157.2423         estimate D2E/DX2                !
 ! D54   D(18,5,6,7)            87.6374         estimate D2E/DX2                !
 ! D55   D(5,6,7,2)            -26.3492         estimate D2E/DX2                !
 ! D56   D(5,6,7,8)             66.125          estimate D2E/DX2                !
 ! D57   D(5,6,7,19)          -161.8004         estimate D2E/DX2                !
 ! D58   D(2,7,8,3)             28.2715         estimate D2E/DX2                !
 ! D59   D(2,7,8,9)           -147.3265         estimate D2E/DX2                !
 ! D60   D(6,7,8,3)            -84.4471         estimate D2E/DX2                !
 ! D61   D(6,7,8,9)             99.955          estimate D2E/DX2                !
 ! D62   D(19,7,8,3)           151.2968         estimate D2E/DX2                !
 ! D63   D(19,7,8,9)           -24.3012         estimate D2E/DX2                !
 --------------------------------------------------------------------------------
 Trust Radius=3.00D-01 FncErr=1.00D-07 GrdErr=1.00D-06
 Number of steps in this run=    114 maximum allowed number of steps=    114.
 GradGradGradGradGradGradGradGradGradGradGradGradGradGradGradGradGradGrad

                          Input orientation:                          
 ---------------------------------------------------------------------
 Center     Atomic      Atomic             Coordinates (Angstroms)
 Number     Number       Type             X           Y           Z
 ---------------------------------------------------------------------
      1          6           0       -1.618890   -0.093345   -2.221775
      2          6           0       -1.824363   -0.025294   -0.711829
      3          6           0       -1.053917    1.146833   -0.009320
      4          6           0       -1.556671    1.299202    1.448126
      5          6           0       -2.023886   -0.073102    1.979360
      6          8           0       -1.288550   -1.172436    1.438446
      7          6           0       -0.886731   -0.993160    0.080438
      8          6           0        0.137308    0.171373    0.048279
      9          8           0        1.326948    0.274394   -0.001573
     10          1           0       -2.021171   -1.025629   -2.630926
     11          1           0       -2.122132    0.740436   -2.721708
     12          1           0       -0.556764   -0.043610   -2.488088
     13          1           0       -2.884839   -0.105776   -0.463493
     14          1           0       -0.931781    2.103909   -0.520803
     15          1           0       -0.752444    1.709974    2.067315
     16          1           0       -2.393114    2.005990    1.492206
     17          1           0       -1.906360   -0.139315    3.064302
     18          1           0       -3.091872   -0.207437    1.760629
     19          1           0       -0.638100   -1.975733   -0.324680
 ---------------------------------------------------------------------
                    Distance matrix (angstroms):
                    1          2          3          4          5
     1  C    0.000000
     2  C    1.525381   0.000000
     3  C    2.598498   1.568753   0.000000
     4  C    3.925715   2.547814   1.549235   0.000000
     5  C    4.220660   2.698999   2.526644   1.543929   0.000000
     6  O    3.830246   2.495338   2.744101   2.486157   1.428931
     7  C    2.577966   1.563203   2.148389   2.752147   2.396985
     8  C    2.882266   2.112959   1.540733   2.470048   2.908540
     9  O    3.707087   3.244231   2.535692   3.386314   3.908062
    10  H    1.094709   2.173094   3.539490   4.717973   4.707659
    11  H    1.094704   2.171319   2.943347   4.244937   4.771954
    12  H    1.096133   2.182255   2.794388   4.277469   4.702277
    13  H    2.166642   1.092134   2.264415   2.718875   2.590335
    14  H    2.862403   2.316614   1.092029   2.216918   3.490399
    15  H    4.732756   3.447289   2.172654   1.094947   2.191726
    16  H    4.335930   3.050797   2.187734   1.095960   2.167088
    17  H    5.294088   3.778742   3.439185   2.191720   1.093296
    18  H    4.247615   2.784386   3.019939   2.173583   1.098400
    19  H    2.846806   2.315451   3.165876   3.835598   3.293783
                    6          7          8          9         10
     6  O    0.000000
     7  C    1.427510   0.000000
     8  C    2.402386   1.551073   0.000000
     9  O    3.317801   2.552214   1.195133   0.000000
    10  H    4.137400   2.939303   3.642800   4.451231   0.000000
    11  H    4.654119   3.519033   3.619632   4.417294   1.771276
    12  H    4.150593   2.758232   2.638392   3.135642   1.768969
    13  H    2.702457   2.252941   3.077677   4.254063   2.507951
    14  H    3.834107   3.155211   2.280680   2.952725   3.928536
    15  H    2.998528   3.357476   2.689880   3.265740   5.582711
    16  H    3.365315   3.641041   3.442932   4.366769   5.131206
    17  H    2.022976   3.266824   3.656432   4.474933   5.764925
    18  H    2.070506   2.881501   3.674676   4.781578   4.593647
    19  H    2.043767   1.091507   2.313098   3.004810   2.852079
                   11         12         13         14         15
    11  H    0.000000
    12  H    1.766263   0.000000
    13  H    2.529295   3.085900   0.000000
    14  H    2.849558   2.936441   2.949649   0.000000
    15  H    5.074524   4.885185   3.774790   2.624062   0.000000
    16  H    4.408190   4.838986   2.919950   2.489436   1.763569
    17  H    5.856487   5.714858   3.661131   4.339912   2.396951
    18  H    4.682970   4.950273   2.236049   3.900416   3.040304
    19  H    3.914801   2.901732   2.926404   4.094898   4.395355
                   16         17         18         19
    16  H    0.000000
    17  H    2.703839   0.000000
    18  H    2.336573   1.763418   0.000000
    19  H    4.715428   4.057845   3.673742   0.000000
 Stoichiometry    C7H10O2
 Framework group  C1[X(C7H10O2)]
 Deg. of freedom    51
 Full point group                 C1      NOp   1
 Largest Abelian subgroup         C1      NOp   1
 Largest concise Abelian subgroup C1      NOp   1
                         Standard orientation:                         
 ---------------------------------------------------------------------
 Center     Atomic      Atomic             Coordinates (Angstroms)
 Number     Number       Type             X           Y           Z
 ---------------------------------------------------------------------
      1          6           0       -2.244292   -1.120935    0.055238
      2          6           0       -0.725205   -0.982519    0.057670
      3          6           0       -0.175761    0.065413    1.087687
      4          6           0        1.361208   -0.084508    1.211712
      5          6           0        1.939720   -0.596091   -0.125197
      6          8           0        1.213851   -0.142481   -1.269397
      7          6           0       -0.193231   -0.026285   -1.058673
      8          6           0       -0.416389    1.106209   -0.022582
      9          8           0       -0.727284    2.259677   -0.057195
     10          1           0       -2.582548   -1.718175   -0.797566
     11          1           0       -2.592670   -1.610320    0.970394
     12          1           0       -2.739289   -0.144757   -0.004445
     13          1           0       -0.249061   -1.964935    0.087741
     14          1           0       -0.671109    0.194400    2.052321
     15          1           0        1.797888    0.880854    1.487930
     16          1           0        1.613208   -0.794144    2.007978
     17          1           0        2.968397   -0.254729   -0.268696
     18          1           0        1.960799   -1.694277   -0.120053
     19          1           0       -0.674457    0.000802   -2.037996
 ---------------------------------------------------------------------
 Rotational constants (GHZ):      2.2131800      1.6966835      1.4392003
 Standard basis: 6-31G(2df,p) (6D, 7F)
 There are   329 symmetry adapted cartesian basis functions of A   symmetry.
 There are   302 symmetry adapted basis functions of A   symmetry.
   302 basis functions,   466 primitive gaussians,   329 cartesian basis functions
    34 alpha electrons       34 beta electrons
       nuclear repulsion energy       475.1270537566 Hartrees.
 NAtoms=   19 NActive=   19 NUniq=   19 SFac= 1.00D+00 NAtFMM=   60 NAOKFM=F Big=F
 Integral buffers will be    131072 words long.
 Raffenetti 2 integral format.
 Two-electron integral symmetry is turned on.
 One-electron integrals computed using PRISM.
 NBasis=   302 RedAO= T EigKep=  4.22D-04  NBF=   302
 NBsUse=   302 1.00D-06 EigRej= -1.00D+00 NBFU=   302
 ExpMin= 1.61D-01 ExpMax= 5.48D+03 ExpMxC= 8.25D+02 IAcc=1 IRadAn=         1 AccDes= 0.00D+00
 Harris functional with IExCor=  402 and IRadAn=       1 diagonalized for initial guess.
 HarFok:  IExCor=  402 AccDes= 0.00D+00 IRadAn=         1 IDoV= 1 UseB2=F ITyADJ=14
 ICtDFT=  3500011 ScaDFX=  1.000000  1.000000  1.000000  1.000000
 FoFCou: FMM=F IPFlag=           0 FMFlag=      100000 FMFlg1=           0
         NFxFlg=           0 DoJE=T BraDBF=F KetDBF=T FulRan=T
         wScrn=  0.000000 ICntrl=     500 IOpCl=  0 I1Cent=   200000004 NGrid=           0
         NMat0=    1 NMatS0=      1 NMatT0=    0 NMatD0=    1 NMtDS0=    0 NMtDT0=    0
 Petite list used in FoFCou.
 Requested convergence on RMS density matrix=1.00D-08 within 128 cycles.
 Requested convergence on MAX density matrix=1.00D-06.
 Requested convergence on             energy=1.00D-06.
 No special actions if energy rises.
 Integral accuracy reduced to 1.0D-05 until final iterations.
 Initial convergence to 1.0D-05 achieved.  Increase integral accuracy.
 SCF Done:  E(RB3LYP) =  -423.185448358     A.U. after   14 cycles
            NFock= 14  Conv=0.31D-08     -V/T= 2.0074

 **********************************************************************

            Population analysis using the SCF density.

 **********************************************************************

 Orbital symmetries:
       Occupied  (A) (A) (A) (A) (A) (A) (A) (A) (A) (A) (A) (A)
                 (A) (A) (A) (A) (A) (A) (A) (A) (A) (A) (A) (A)
                 (A) (A) (A) (A) (A) (A) (A) (A) (A) (A)
       Virtual   (A) (A) (A) (A) (A) (A) (A) (A) (A) (A) (A) (A)
                 (A) (A) (A) (A) (A) (A) (A) (A) (A) (A) (A) (A)
                 (A) (A) (A) (A) (A) (A) (A) (A) (A) (A) (A) (A)
                 (A) (A) (A) (A) (A) (A) (A) (A) (A) (A) (A) (A)
                 (A) (A) (A) (A) (A) (A) (A) (A) (A) (A) (A) (A)
                 (A) (A) (A) (A) (A) (A) (A) (A) (A) (A) (A) (A)
                 (A) (A) (A) (A) (A) (A) (A) (A) (A) (A) (A) (A)
                 (A) (A) (A) (A) (A) (A) (A) (A) (A) (A) (A) (A)
                 (A) (A) (A) (A) (A) (A) (A) (A) (A) (A) (A) (A)
                 (A) (A) (A) (A) (A) (A) (A) (A) (A) (A) (A) (A)
                 (A) (A) (A) (A) (A) (A) (A) (A) (A) (A) (A) (A)
                 (A) (A) (A) (A) (A) (A) (A) (A) (A) (A) (A) (A)
                 (A) (A) (A) (A) (A) (A) (A) (A) (A) (A) (A) (A)
                 (A) (A) (A) (A) (A) (A) (A) (A) (A) (A) (A) (A)
                 (A) (A) (A) (A) (A) (A) (A) (A) (A) (A) (A) (A)
                 (A) (A) (A) (A) (A) (A) (A) (A) (A) (A) (A) (A)
                 (A) (A) (A) (A) (A) (A) (A) (A) (A) (A) (A) (A)
                 (A) (A) (A) (A) (A) (A) (A) (A) (A) (A) (A) (A)
                 (A) (A) (A) (A) (A) (A) (A) (A) (A) (A) (A) (A)
                 (A) (A) (A) (A) (A) (A) (A) (A) (A) (A) (A) (A)
                 (A) (A) (A) (A) (A) (A) (A) (A) (A) (A) (A) (A)
                 (A) (A) (A) (A) (A) (A) (A) (A) (A) (A) (A) (A)
                 (A) (A) (A) (A)
 The electronic state is 1-A.
 Alpha  occ. eigenvalues --  -19.15034 -19.13967 -10.26480 -10.23976 -10.23860
 Alpha  occ. eigenvalues --  -10.20450 -10.20285 -10.20245 -10.18904  -1.05317
 Alpha  occ. eigenvalues --   -1.03629  -0.85789  -0.77923  -0.72645  -0.63958
 Alpha  occ. eigenvalues --   -0.63680  -0.60138  -0.52451  -0.49503  -0.47352
 Alpha  occ. eigenvalues --   -0.45811  -0.45725  -0.44430  -0.41639  -0.40413
 Alpha  occ. eigenvalues --   -0.39419  -0.38957  -0.38341  -0.36745  -0.35017
 Alpha  occ. eigenvalues --   -0.32907  -0.29896  -0.27677  -0.22256
 Alpha virt. eigenvalues --   -0.01906   0.07668   0.10478   0.10980   0.11393
 Alpha virt. eigenvalues --    0.13257   0.13939   0.14810   0.15206   0.16391
 Alpha virt. eigenvalues --    0.17195   0.18295   0.19626   0.20713   0.21661
 Alpha virt. eigenvalues --    0.22804   0.23249   0.26092   0.28461   0.29158
 Alpha virt. eigenvalues --    0.36878   0.41917   0.42878   0.45052   0.46391
 Alpha virt. eigenvalues --    0.48207   0.48391   0.49677   0.50850   0.53559
 Alpha virt. eigenvalues --    0.54487   0.55750   0.56469   0.58077   0.60223
 Alpha virt. eigenvalues --    0.62277   0.63188   0.65250   0.67479   0.69556
 Alpha virt. eigenvalues --    0.70767   0.71493   0.71824   0.73785   0.74408
 Alpha virt. eigenvalues --    0.74939   0.75605   0.75996   0.79368   0.80477
 Alpha virt. eigenvalues --    0.81249   0.82565   0.84867   0.87324   0.88110
 Alpha virt. eigenvalues --    0.88908   0.92918   0.94706   0.95508   0.96840
 Alpha virt. eigenvalues --    0.97591   0.98882   1.01200   1.07880   1.10563
 Alpha virt. eigenvalues --    1.12717   1.14680   1.16661   1.19362   1.22340
 Alpha virt. eigenvalues --    1.23564   1.28632   1.28994   1.31888   1.32129
 Alpha virt. eigenvalues --    1.34932   1.35607   1.38887   1.40615   1.41644
 Alpha virt. eigenvalues --    1.42776   1.44425   1.47066   1.47853   1.48841
 Alpha virt. eigenvalues --    1.51764   1.52729   1.54580   1.56863   1.61054
 Alpha virt. eigenvalues --    1.63239   1.63835   1.64733   1.66817   1.67355
 Alpha virt. eigenvalues --    1.69849   1.72587   1.73278   1.76588   1.78602
 Alpha virt. eigenvalues --    1.81717   1.83021   1.85689   1.91924   1.94413
 Alpha virt. eigenvalues --    1.97409   1.97946   1.99890   2.01375   2.08157
 Alpha virt. eigenvalues --    2.14638   2.17906   2.19755   2.21053   2.26266
 Alpha virt. eigenvalues --    2.29518   2.34317   2.34734   2.37338   2.41411
 Alpha virt. eigenvalues --    2.46460   2.48615   2.50745   2.50975   2.54278
 Alpha virt. eigenvalues --    2.55765   2.61778   2.66204   2.70319   2.71935
 Alpha virt. eigenvalues --    2.75569   2.77503   2.79776   2.82402   2.83518
 Alpha virt. eigenvalues --    2.86106   2.88275   2.89109   2.90326   2.93097
 Alpha virt. eigenvalues --    2.96070   2.98276   2.99169   3.01120   3.03321
 Alpha virt. eigenvalues --    3.06805   3.08752   3.11762   3.13055   3.16346
 Alpha virt. eigenvalues --    3.18614   3.23212   3.24763   3.25276   3.26648
 Alpha virt. eigenvalues --    3.28942   3.32501   3.34730   3.35902   3.40322
 Alpha virt. eigenvalues --    3.42062   3.43773   3.45026   3.49694   3.52501
 Alpha virt. eigenvalues --    3.57865   3.59375   3.59407   3.61877   3.64377
 Alpha virt. eigenvalues --    3.68230   3.70923   3.74091   3.76172   3.78144
 Alpha virt. eigenvalues --    3.82134   3.86794   3.89589   3.91918   3.95217
 Alpha virt. eigenvalues --    3.97730   3.98778   4.04079   4.10998   4.12232
 Alpha virt. eigenvalues --    4.15371   4.20739   4.21547   4.25388   4.26214
 Alpha virt. eigenvalues --    4.31285   4.34828   4.36292   4.38723   4.41216
 Alpha virt. eigenvalues --    4.42680   4.44453   4.46649   4.49603   4.51711
 Alpha virt. eigenvalues --    4.53851   4.55149   4.55377   4.58246   4.59043
 Alpha virt. eigenvalues --    4.60808   4.63586   4.65791   4.67608   4.68640
 Alpha virt. eigenvalues --    4.70003   4.70203   4.71718   4.73584   4.76005
 Alpha virt. eigenvalues --    4.78770   4.80022   4.81474   4.82624   4.84191
 Alpha virt. eigenvalues --    4.85925   4.88376   4.91604   4.92342   4.93466
 Alpha virt. eigenvalues --    4.96740   5.00099   5.06208   5.08031   5.10625
 Alpha virt. eigenvalues --    5.12312   5.17977   5.23467   5.27883   5.29733
 Alpha virt. eigenvalues --    5.34098   5.35717   5.39631   5.45985   5.50124
 Alpha virt. eigenvalues --    5.52839   5.55882   5.59581   5.62264   5.64575
 Alpha virt. eigenvalues --    5.77327   5.77988   5.88487   5.92908   5.98940
 Alpha virt. eigenvalues --    6.05998   6.10225   6.20131   6.31888   6.42644
 Alpha virt. eigenvalues --    6.68288   6.94605   7.07606   7.41326  11.14347
 Alpha virt. eigenvalues --   11.52706  11.79122  12.04149  12.14379  12.56934
 Alpha virt. eigenvalues --   12.78498  13.40452  13.70127
          Condensed to atoms (all electrons):
               1          2          3          4          5          6
     1  C    5.027173   0.393788  -0.031767   0.003257  -0.000373   0.001559
     2  C    0.393788   4.875347   0.337668  -0.019527  -0.004051  -0.027144
     3  C   -0.031767   0.337668   5.177751   0.373794  -0.025747   0.002468
     4  C    0.003257  -0.019527   0.373794   4.975816   0.362110  -0.041690
     5  C   -0.000373  -0.004051  -0.025747   0.362110   4.743205   0.381911
     6  O    0.001559  -0.027144   0.002468  -0.041690   0.381911   7.714955
     7  C   -0.028886   0.314247  -0.174782  -0.004437  -0.084257   0.353889
     8  C    0.003554  -0.064155   0.281014  -0.001770  -0.010599  -0.027224
     9  O   -0.000780   0.001398  -0.059210  -0.001344  -0.000084  -0.000199
    10  H    0.372189  -0.021922   0.003635  -0.000155   0.000033   0.000031
    11  H    0.371224  -0.019030  -0.003167   0.000015   0.000028  -0.000045
    12  H    0.370315  -0.022542  -0.005857   0.000131   0.000028   0.000048
    13  H   -0.043004   0.352206  -0.032084  -0.004969   0.003231  -0.003409
    14  H   -0.003570  -0.036854   0.351371  -0.038577   0.004379  -0.000063
    15  H   -0.000111   0.004585  -0.033680   0.366833  -0.024966   0.000452
    16  H   -0.000055  -0.003638  -0.023670   0.355809  -0.022145   0.002323
    17  H   -0.000014  -0.000528   0.003527  -0.027152   0.373503  -0.021183
    18  H   -0.000050   0.009838  -0.007274  -0.046338   0.369477  -0.032600
    19  H   -0.003080  -0.040704   0.011679   0.000234   0.003842  -0.021762
               7          8          9         10         11         12
     1  C   -0.028886   0.003554  -0.000780   0.372189   0.371224   0.370315
     2  C    0.314247  -0.064155   0.001398  -0.021922  -0.019030  -0.022542
     3  C   -0.174782   0.281014  -0.059210   0.003635  -0.003167  -0.005857
     4  C   -0.004437  -0.001770  -0.001344  -0.000155   0.000015   0.000131
     5  C   -0.084257  -0.010599  -0.000084   0.000033   0.000028   0.000028
     6  O    0.353889  -0.027224  -0.000199   0.000031  -0.000045   0.000048
     7  C    5.037801   0.302474  -0.057082  -0.002670   0.002657  -0.005827
     8  C    0.302474   4.331835   0.816392  -0.000069  -0.000372   0.009094
     9  O   -0.057082   0.816392   7.619530   0.000014   0.000022   0.000311
    10  H   -0.002670  -0.000069   0.000014   0.587315  -0.031820  -0.030636
    11  H    0.002657  -0.000372   0.000022  -0.031820   0.587892  -0.030770
    12  H   -0.005827   0.009094   0.000311  -0.030636  -0.030770   0.574914
    13  H   -0.026220   0.001306  -0.000168  -0.002381  -0.002258   0.005831
    14  H    0.008526  -0.019505  -0.000438  -0.000078   0.002474   0.000366
    15  H    0.001134  -0.004807   0.001215   0.000003  -0.000001  -0.000003
    16  H   -0.000013   0.001270  -0.000040   0.000000  -0.000007   0.000002
    17  H    0.005266   0.000578  -0.000003   0.000000   0.000000   0.000001
    18  H   -0.005947  -0.001070  -0.000002  -0.000002   0.000015  -0.000002
    19  H    0.349936  -0.036191   0.000578   0.002471  -0.000137   0.000469
              13         14         15         16         17         18
     1  C   -0.043004  -0.003570  -0.000111  -0.000055  -0.000014  -0.000050
     2  C    0.352206  -0.036854   0.004585  -0.003638  -0.000528   0.009838
     3  C   -0.032084   0.351371  -0.033680  -0.023670   0.003527  -0.007274
     4  C   -0.004969  -0.038577   0.366833   0.355809  -0.027152  -0.046338
     5  C    0.003231   0.004379  -0.024966  -0.022145   0.373503   0.369477
     6  O   -0.003409  -0.000063   0.000452   0.002323  -0.021183  -0.032600
     7  C   -0.026220   0.008526   0.001134  -0.000013   0.005266  -0.005947
     8  C    0.001306  -0.019505  -0.004807   0.001270   0.000578  -0.001070
     9  O   -0.000168  -0.000438   0.001215  -0.000040  -0.000003  -0.000002
    10  H   -0.002381  -0.000078   0.000003   0.000000   0.000000  -0.000002
    11  H   -0.002258   0.002474  -0.000001  -0.000007   0.000000   0.000015
    12  H    0.005831   0.000366  -0.000003   0.000002   0.000001  -0.000002
    13  H    0.665223   0.002755  -0.000049   0.001640  -0.000046  -0.000865
    14  H    0.002755   0.649740   0.000620  -0.005603  -0.000091  -0.000183
    15  H   -0.000049   0.000620   0.605070  -0.038926  -0.008209   0.005437
    16  H    0.001640  -0.005603  -0.038926   0.626089   0.002966  -0.005431
    17  H   -0.000046  -0.000091  -0.008209   0.002966   0.603547  -0.049242
    18  H   -0.000865  -0.000183   0.005437  -0.005431  -0.049242   0.660686
    19  H    0.001835  -0.000575   0.000021   0.000044  -0.000173   0.000076
              19
     1  C   -0.003080
     2  C   -0.040704
     3  C    0.011679
     4  C    0.000234
     5  C    0.003842
     6  O   -0.021762
     7  C    0.349936
     8  C   -0.036191
     9  O    0.000578
    10  H    0.002471
    11  H   -0.000137
    12  H    0.000469
    13  H    0.001835
    14  H   -0.000575
    15  H    0.000021
    16  H    0.000044
    17  H   -0.000173
    18  H    0.000076
    19  H    0.637542
 Mulliken charges:
               1
     1  C   -0.431368
     2  C   -0.028983
     3  C   -0.145669
     4  C   -0.252040
     5  C   -0.069526
     6  O   -0.282318
     7  C    0.014190
     8  C    0.418246
     9  O   -0.320110
    10  H    0.124042
    11  H    0.123280
    12  H    0.134128
    13  H    0.081427
    14  H    0.085307
    15  H    0.125385
    16  H    0.109383
    17  H    0.117254
    18  H    0.103476
    19  H    0.093896
 Sum of Mulliken charges =   0.00000
 Mulliken charges with hydrogens summed into heavy atoms:
               1
     1  C   -0.049918
     2  C    0.052444
     3  C   -0.060362
     4  C   -0.017272
     5  C    0.151204
     6  O   -0.282318
     7  C    0.108086
     8  C    0.418246
     9  O   -0.320110
 Electronic spatial extent (au):  <R**2>=           1030.5468
 Charge=              0.0000 electrons
 Dipole moment (field-independent basis, Debye):
    X=              0.2824    Y=             -3.0155    Z=              1.4799  Tot=              3.3709
 Quadrupole moment (field-independent basis, Debye-Ang):
   XX=            -50.6794   YY=            -59.3923   ZZ=            -53.3642
   XY=              2.2819   XZ=              2.8771   YZ=              0.0899
 Traceless Quadrupole moment (field-independent basis, Debye-Ang):
   XX=              3.7992   YY=             -4.9137   ZZ=              1.1145
   XY=              2.2819   XZ=              2.8771   YZ=              0.0899
 Octapole moment (field-independent basis, Debye-Ang**2):
  XXX=              8.4438  YYY=            -13.3669  ZZZ=             -1.7974  XYY=              7.8763
  XXY=             -0.0428  XXZ=              1.2776  XZZ=             -4.5133  YZZ=              2.3837
  YYZ=             -0.7149  XYZ=             -0.3457
 Hexadecapole moment (field-independent basis, Debye-Ang**3):
 XXXX=           -620.4853 YYYY=           -432.0120 ZZZZ=           -282.1152 XXXY=             -7.4180
 XXXZ=             -4.4648 YYYX=              9.2067 YYYZ=              1.6614 ZZZX=              2.4806
 ZZZY=             -1.4842 XXYY=           -172.4440 XXZZ=           -157.3179 YYZZ=           -113.1579
 XXYZ=              0.5550 YYXZ=             -0.6376 ZZXY=             -0.2713
 N-N= 4.751270537566D+02 E-N=-1.936723098298D+03  KE= 4.200738192096D+02
 Calling FoFJK, ICntrl=      2127 FMM=F ISym2X=0 I1Cent= 0 IOpClX= 0 NMat=1 NMatS=1 NMatT=0.
 ***** Axes restored to original set *****
 -------------------------------------------------------------------
 Center     Atomic                   Forces (Hartrees/Bohr)
 Number     Number              X              Y              Z
 -------------------------------------------------------------------
      1        6          -0.000004063   -0.000002958    0.000002297
      2        6          -0.000002060   -0.000002150   -0.000001679
      3        6          -0.000001169    0.000001168    0.000000184
      4        6           0.000000151    0.000001647   -0.000001423
      5        6           0.000006178   -0.000001504    0.000001472
      6        8           0.000004230    0.000003520    0.000002761
      7        6           0.000005054    0.000000946   -0.000000231
      8        6          -0.000004812    0.000003897   -0.000002954
      9        8           0.000001956    0.000006297   -0.000005766
     10        1          -0.000002547   -0.000004548    0.000002451
     11        1          -0.000006816   -0.000004970    0.000000554
     12        1          -0.000004470   -0.000001127   -0.000001424
     13        1           0.000000101   -0.000004606    0.000003998
     14        1          -0.000005599    0.000000182   -0.000003765
     15        1           0.000000174    0.000003741   -0.000003162
     16        1          -0.000001333   -0.000000816   -0.000000157
     17        1           0.000006190    0.000002437    0.000001883
     18        1           0.000004364   -0.000002415    0.000003818
     19        1           0.000004474    0.000001259    0.000001141
 -------------------------------------------------------------------
 Cartesian Forces:  Max     0.000006816 RMS     0.000003319

 GradGradGradGradGradGradGradGradGradGradGradGradGradGradGradGradGradGrad
 Berny optimization.
 FormGI is forming the generalized inverse of G from B-inverse, IUseBI=4.
 Internal  Forces:  Max     0.000002289 RMS     0.000000393
 Search for a local minimum.
 Step number   1 out of a maximum of  114
 All quantities printed in internal units (Hartrees-Bohrs-Radians)
 Mixed Optimization -- En-DIIS/RFO-DIIS
 Second derivative matrix not updated -- first step.
 ITU=  0
     Eigenvalues ---    0.00240   0.00430   0.00505   0.01749   0.01905
     Eigenvalues ---    0.02737   0.02908   0.03531   0.04005   0.04173
     Eigenvalues ---    0.04734   0.05114   0.05502   0.05558   0.05567
     Eigenvalues ---    0.05939   0.06180   0.06887   0.07640   0.07745
     Eigenvalues ---    0.08545   0.09179   0.11028   0.11845   0.12587
     Eigenvalues ---    0.13044   0.16000   0.16000   0.16000   0.19930
     Eigenvalues ---    0.21645   0.22139   0.24623   0.24762   0.26667
     Eigenvalues ---    0.26952   0.27581   0.29854   0.33860   0.34113
     Eigenvalues ---    0.34133   0.34247   0.34274   0.34275   0.34435
     Eigenvalues ---    0.34567   0.34579   0.34639   0.38622   0.39771
     Eigenvalues ---    1.07307
 RFO step:  Lambda= 0.00000000D+00 EMin= 2.40419899D-03
 Linear search not attempted -- first point.
 Iteration  1 RMS(Cart)=  0.00000699 RMS(Int)=  0.00000000
 Iteration  2 RMS(Cart)=  0.00000000 RMS(Int)=  0.00000000
 Variable       Old X    -DE/DX   Delta X   Delta X   Delta X     New X
                                 (Linear)    (Quad)   (Total)
    R1        2.88255   0.00000   0.00000   0.00000   0.00000   2.88255
    R2        2.06870   0.00000   0.00000   0.00000   0.00000   2.06870
    R3        2.06869   0.00000   0.00000   0.00000   0.00000   2.06869
    R4        2.07139   0.00000   0.00000   0.00000   0.00000   2.07139
    R5        2.96451   0.00000   0.00000   0.00000   0.00000   2.96452
    R6        2.95403   0.00000   0.00000   0.00000   0.00000   2.95403
    R7        2.06383   0.00000   0.00000   0.00000   0.00000   2.06383
    R8        2.92763   0.00000   0.00000   0.00000   0.00000   2.92763
    R9        2.91156   0.00000   0.00000   0.00000   0.00000   2.91156
   R10        2.06363   0.00000   0.00000   0.00000   0.00000   2.06364
   R11        2.91760   0.00000   0.00000   0.00000   0.00000   2.91761
   R12        2.06915   0.00000   0.00000   0.00000   0.00000   2.06915
   R13        2.07106   0.00000   0.00000   0.00000   0.00000   2.07106
   R14        2.70029   0.00000   0.00000   0.00000   0.00000   2.70028
   R15        2.06603   0.00000   0.00000   0.00000   0.00000   2.06603
   R16        2.07568   0.00000   0.00000   0.00000   0.00000   2.07568
   R17        2.69760   0.00000   0.00000   0.00000   0.00000   2.69761
   R18        2.93110   0.00000   0.00000   0.00000   0.00000   2.93110
   R19        2.06265   0.00000   0.00000   0.00000   0.00000   2.06265
   R20        2.25847   0.00000   0.00000   0.00000   0.00000   2.25848
    A1        1.93742   0.00000   0.00000   0.00000   0.00000   1.93742
    A2        1.93495   0.00000   0.00000   0.00000   0.00000   1.93495
    A3        1.94873   0.00000   0.00000   0.00000   0.00000   1.94873
    A4        1.88496   0.00000   0.00000   0.00000   0.00000   1.88496
    A5        1.87959   0.00000   0.00000   0.00000   0.00000   1.87959
    A6        1.87542   0.00000   0.00000   0.00000   0.00000   1.87542
    A7        1.99375   0.00000   0.00000   0.00000   0.00000   1.99375
    A8        1.97499   0.00000   0.00000   0.00000   0.00000   1.97499
    A9        1.93114   0.00000   0.00000   0.00000   0.00000   1.93114
   A10        1.51183   0.00000   0.00000   0.00000   0.00000   1.51183
   A11        2.01542   0.00000   0.00000   0.00000   0.00000   2.01542
   A12        2.00596   0.00000   0.00000  -0.00001  -0.00001   2.00595
   A13        1.91282   0.00000   0.00000   0.00000   0.00000   1.91282
   A14        1.49413   0.00000   0.00000   0.00000   0.00000   1.49413
   A15        2.09442   0.00000   0.00000   0.00000   0.00000   2.09441
   A16        1.85251   0.00000   0.00000   0.00000   0.00000   1.85251
   A17        1.97222   0.00000   0.00000   0.00000   0.00000   1.97222
   A18        2.07820   0.00000   0.00000   0.00000   0.00000   2.07820
   A19        1.91185   0.00000   0.00000   0.00000   0.00000   1.91185
   A20        1.90767   0.00000   0.00000   0.00000   0.00000   1.90767
   A21        1.92723   0.00000   0.00000   0.00000   0.00000   1.92723
   A22        1.94029   0.00000   0.00000   0.00000   0.00000   1.94029
   A23        1.90542   0.00000   0.00000   0.00000   0.00000   1.90543
   A24        1.87118   0.00000   0.00000   0.00000   0.00000   1.87118
   A25        1.97996   0.00000   0.00000   0.00000   0.00000   1.97996
   A26        1.94201   0.00000   0.00000   0.00000   0.00000   1.94202
   A27        1.91179   0.00000   0.00000   0.00000   0.00000   1.91179
   A28        1.84808   0.00000   0.00000   0.00001   0.00001   1.84808
   A29        1.90804   0.00000   0.00000   0.00000   0.00000   1.90803
   A30        1.86997   0.00000   0.00000   0.00000   0.00000   1.86997
   A31        1.99144   0.00000   0.00000   0.00000   0.00000   1.99144
   A32        1.97259   0.00000   0.00000   0.00000   0.00000   1.97259
   A33        1.49135   0.00000   0.00000   0.00000   0.00000   1.49135
   A34        2.10120   0.00000   0.00000   0.00000   0.00000   2.10120
   A35        1.87533   0.00000   0.00000   0.00000   0.00000   1.87533
   A36        1.87984   0.00000   0.00000   0.00000   0.00000   1.87984
   A37        2.11505   0.00000   0.00000   0.00000   0.00000   2.11505
   A38        1.53645   0.00000   0.00000   0.00000   0.00000   1.53646
   A39        2.36523   0.00000   0.00000   0.00000   0.00000   2.36523
   A40        2.37859   0.00000   0.00000   0.00000   0.00000   2.37858
    D1        2.95833   0.00000   0.00000   0.00002   0.00002   2.95835
    D2        1.26497   0.00000   0.00000   0.00002   0.00002   1.26499
    D3       -1.01491   0.00000   0.00000   0.00002   0.00002  -1.01489
    D4       -1.22976   0.00000   0.00000   0.00002   0.00002  -1.22974
    D5       -2.92311   0.00000   0.00000   0.00002   0.00002  -2.92309
    D6        1.08019   0.00000   0.00000   0.00002   0.00002   1.08021
    D7        0.86080   0.00000   0.00000   0.00002   0.00002   0.86082
    D8       -0.83255   0.00000   0.00000   0.00002   0.00002  -0.83253
    D9       -3.11244   0.00000   0.00000   0.00002   0.00002  -3.11242
   D10        2.94003   0.00000   0.00000   0.00000   0.00000   2.94003
   D11       -1.50041   0.00000   0.00000   0.00000   0.00000  -1.50041
   D12        0.61536   0.00000   0.00000  -0.00001  -0.00001   0.61535
   D13       -1.35488   0.00000   0.00000   0.00000   0.00000  -1.35488
   D14        0.48787   0.00000   0.00000   0.00000   0.00000   0.48787
   D15        2.60364   0.00000   0.00000   0.00000   0.00000   2.60363
   D16        0.67112   0.00000   0.00000  -0.00001  -0.00001   0.67112
   D17        2.51387   0.00000   0.00000  -0.00001  -0.00001   2.51387
   D18       -1.65355   0.00000   0.00000  -0.00001  -0.00001  -1.65356
   D19       -2.89308   0.00000   0.00000   0.00000   0.00000  -2.89308
   D20        1.52195   0.00000   0.00000   0.00000   0.00000   1.52195
   D21       -0.63777   0.00000   0.00000   0.00000   0.00000  -0.63777
   D22        1.38371   0.00000   0.00000   0.00000   0.00000   1.38371
   D23       -0.48445   0.00000   0.00000   0.00000   0.00000  -0.48445
   D24       -2.64417   0.00000   0.00000   0.00000   0.00000  -2.64417
   D25       -0.65129   0.00000   0.00000   0.00000   0.00000  -0.65129
   D26       -2.51945   0.00000   0.00000   0.00000   0.00000  -2.51945
   D27        1.60402   0.00000   0.00000   0.00000   0.00000   1.60402
   D28        0.51917   0.00000   0.00000   0.00000   0.00000   0.51917
   D29        2.64896   0.00000   0.00000   0.00000   0.00000   2.64896
   D30       -1.57987   0.00000   0.00000   0.00000   0.00000  -1.57987
   D31       -1.07002   0.00000   0.00000   0.00000   0.00000  -1.07002
   D32        1.05977   0.00000   0.00000   0.00000   0.00000   1.05977
   D33        3.11413   0.00000   0.00000   0.00000   0.00000   3.11413
   D34        2.90495   0.00000   0.00000   0.00000   0.00000   2.90495
   D35       -1.24845   0.00000   0.00000   0.00000   0.00000  -1.24845
   D36        0.80591   0.00000   0.00000   0.00000   0.00000   0.80591
   D37       -0.49141   0.00000   0.00000   0.00000   0.00000  -0.49141
   D38        2.57440   0.00000   0.00000  -0.00002  -0.00002   2.57438
   D39        1.41352   0.00000   0.00000   0.00000   0.00000   1.41352
   D40       -1.80385   0.00000   0.00000  -0.00002  -0.00002  -1.80387
   D41       -2.62208   0.00000   0.00000   0.00000   0.00000  -2.62207
   D42        0.44374   0.00000   0.00000  -0.00001  -0.00001   0.44372
   D43        0.56151   0.00000   0.00000   0.00000   0.00000   0.56151
   D44        2.64323   0.00000   0.00000   0.00001   0.00001   2.64324
   D45       -1.57565   0.00000   0.00000   0.00001   0.00001  -1.57564
   D46       -1.54863   0.00000   0.00000   0.00000   0.00000  -1.54863
   D47        0.53309   0.00000   0.00000   0.00001   0.00001   0.53310
   D48        2.59740   0.00000   0.00000   0.00001   0.00001   2.59741
   D49        2.67380   0.00000   0.00000   0.00000   0.00000   2.67380
   D50       -1.52767   0.00000   0.00000   0.00001   0.00001  -1.52766
   D51        0.53664   0.00000   0.00000   0.00001   0.00001   0.53665
   D52       -0.60967   0.00000   0.00000   0.00000   0.00000  -0.60968
   D53       -2.74440   0.00000   0.00000  -0.00001  -0.00001  -2.74440
   D54        1.52956   0.00000   0.00000  -0.00001  -0.00001   1.52956
   D55       -0.45988   0.00000   0.00000   0.00000   0.00000  -0.45988
   D56        1.15410   0.00000   0.00000   0.00000   0.00000   1.15410
   D57       -2.82395   0.00000   0.00000   0.00000   0.00000  -2.82395
   D58        0.49343   0.00000   0.00000   0.00000   0.00000   0.49343
   D59       -2.57133   0.00000   0.00000   0.00002   0.00002  -2.57131
   D60       -1.47388   0.00000   0.00000   0.00000   0.00000  -1.47388
   D61        1.74454   0.00000   0.00000   0.00002   0.00002   1.74457
   D62        2.64063   0.00000   0.00000   0.00000   0.00000   2.64063
   D63       -0.42414   0.00000   0.00000   0.00002   0.00002  -0.42412
         Item               Value     Threshold  Converged?
 Maximum Force            0.000002     0.000450     YES
 RMS     Force            0.000000     0.000300     YES
 Maximum Displacement     0.000032     0.001800     YES
 RMS     Displacement     0.000007     0.001200     YES
 Predicted change in Energy=-5.451952D-11
 Optimization completed.
    -- Stationary point found.
                           ----------------------------
                           !   Optimized Parameters   !
                           ! (Angstroms and Degrees)  !
 --------------------------                            --------------------------
 ! Name  Definition              Value          Derivative Info.                !
 --------------------------------------------------------------------------------
 ! R1    R(1,2)                  1.5254         -DE/DX =    0.0                 !
 ! R2    R(1,10)                 1.0947         -DE/DX =    0.0                 !
 ! R3    R(1,11)                 1.0947         -DE/DX =    0.0                 !
 ! R4    R(1,12)                 1.0961         -DE/DX =    0.0                 !
 ! R5    R(2,3)                  1.5688         -DE/DX =    0.0                 !
 ! R6    R(2,7)                  1.5632         -DE/DX =    0.0                 !
 ! R7    R(2,13)                 1.0921         -DE/DX =    0.0                 !
 ! R8    R(3,4)                  1.5492         -DE/DX =    0.0                 !
 ! R9    R(3,8)                  1.5407         -DE/DX =    0.0                 !
 ! R10   R(3,14)                 1.092          -DE/DX =    0.0                 !
 ! R11   R(4,5)                  1.5439         -DE/DX =    0.0                 !
 ! R12   R(4,15)                 1.0949         -DE/DX =    0.0                 !
 ! R13   R(4,16)                 1.096          -DE/DX =    0.0                 !
 ! R14   R(5,6)                  1.4289         -DE/DX =    0.0                 !
 ! R15   R(5,17)                 1.0933         -DE/DX =    0.0                 !
 ! R16   R(5,18)                 1.0984         -DE/DX =    0.0                 !
 ! R17   R(6,7)                  1.4275         -DE/DX =    0.0                 !
 ! R18   R(7,8)                  1.5511         -DE/DX =    0.0                 !
 ! R19   R(7,19)                 1.0915         -DE/DX =    0.0                 !
 ! R20   R(8,9)                  1.1951         -DE/DX =    0.0                 !
 ! A1    A(2,1,10)             111.0059         -DE/DX =    0.0                 !
 ! A2    A(2,1,11)             110.8645         -DE/DX =    0.0                 !
 ! A3    A(2,1,12)             111.6538         -DE/DX =    0.0                 !
 ! A4    A(10,1,11)            108.0004         -DE/DX =    0.0                 !
 ! A5    A(10,1,12)            107.6927         -DE/DX =    0.0                 !
 ! A6    A(11,1,12)            107.4535         -DE/DX =    0.0                 !
 ! A7    A(1,2,3)              114.2337         -DE/DX =    0.0                 !
 ! A8    A(1,2,7)              113.1585         -DE/DX =    0.0                 !
 ! A9    A(1,2,13)             110.6461         -DE/DX =    0.0                 !
 ! A10   A(3,2,7)               86.6218         -DE/DX =    0.0                 !
 ! A11   A(3,2,13)             115.475          -DE/DX =    0.0                 !
 ! A12   A(7,2,13)             114.9328         -DE/DX =    0.0                 !
 ! A13   A(2,3,4)              109.5962         -DE/DX =    0.0                 !
 ! A14   A(2,3,8)               85.6073         -DE/DX =    0.0                 !
 ! A15   A(2,3,14)             120.0012         -DE/DX =    0.0                 !
 ! A16   A(4,3,8)              106.1409         -DE/DX =    0.0                 !
 ! A17   A(4,3,14)             112.9997         -DE/DX =    0.0                 !
 ! A18   A(8,3,14)             119.0722         -DE/DX =    0.0                 !
 ! A19   A(3,4,5)              109.5408         -DE/DX =    0.0                 !
 ! A20   A(3,4,15)             109.3012         -DE/DX =    0.0                 !
 ! A21   A(3,4,16)             110.4224         -DE/DX =    0.0                 !
 ! A22   A(5,4,15)             111.1703         -DE/DX =    0.0                 !
 ! A23   A(5,4,16)             109.1728         -DE/DX =    0.0                 !
 ! A24   A(15,4,16)            107.2107         -DE/DX =    0.0                 !
 ! A25   A(4,5,6)              113.4434         -DE/DX =    0.0                 !
 ! A26   A(4,5,17)             111.2692         -DE/DX =    0.0                 !
 ! A27   A(4,5,18)             109.5374         -DE/DX =    0.0                 !
 ! A28   A(6,5,17)             105.8869         -DE/DX =    0.0                 !
 ! A29   A(6,5,18)             109.3224         -DE/DX =    0.0                 !
 ! A30   A(17,5,18)            107.1413         -DE/DX =    0.0                 !
 ! A31   A(5,6,7)              114.1011         -DE/DX =    0.0                 !
 ! A32   A(2,7,6)              113.0209         -DE/DX =    0.0                 !
 ! A33   A(2,7,8)               85.4483         -DE/DX =    0.0                 !
 ! A34   A(2,7,19)             120.39           -DE/DX =    0.0                 !
 ! A35   A(6,7,8)              107.4486         -DE/DX =    0.0                 !
 ! A36   A(6,7,19)             107.707          -DE/DX =    0.0                 !
 ! A37   A(8,7,19)             121.1834         -DE/DX =    0.0                 !
 ! A38   A(3,8,7)               88.0323         -DE/DX =    0.0                 !
 ! A39   A(3,8,9)              135.5178         -DE/DX =    0.0                 !
 ! A40   A(7,8,9)              136.283          -DE/DX =    0.0                 !
 ! D1    D(10,1,2,3)           169.4998         -DE/DX =    0.0                 !
 ! D2    D(10,1,2,7)            72.4777         -DE/DX =    0.0                 !
 ! D3    D(10,1,2,13)          -58.15           -DE/DX =    0.0                 !
 ! D4    D(11,1,2,3)           -70.4599         -DE/DX =    0.0                 !
 ! D5    D(11,1,2,7)          -167.4821         -DE/DX =    0.0                 !
 ! D6    D(11,1,2,13)           61.8903         -DE/DX =    0.0                 !
 ! D7    D(12,1,2,3)            49.3203         -DE/DX =    0.0                 !
 ! D8    D(12,1,2,7)           -47.7018         -DE/DX =    0.0                 !
 ! D9    D(12,1,2,13)         -178.3295         -DE/DX =    0.0                 !
 ! D10   D(1,2,3,4)            168.4513         -DE/DX =    0.0                 !
 ! D11   D(1,2,3,8)            -85.9669         -DE/DX =    0.0                 !
 ! D12   D(1,2,3,14)            35.2574         -DE/DX =    0.0                 !
 ! D13   D(7,2,3,4)            -77.6287         -DE/DX =    0.0                 !
 ! D14   D(7,2,3,8)             27.9531         -DE/DX =    0.0                 !
 ! D15   D(7,2,3,14)           149.1774         -DE/DX =    0.0                 !
 ! D16   D(13,2,3,4)            38.4525         -DE/DX =    0.0                 !
 ! D17   D(13,2,3,8)           144.0343         -DE/DX =    0.0                 !
 ! D18   D(13,2,3,14)          -94.7413         -DE/DX =    0.0                 !
 ! D19   D(1,2,7,6)           -165.761          -DE/DX =    0.0                 !
 ! D20   D(1,2,7,8)             87.2013         -DE/DX =    0.0                 !
 ! D21   D(1,2,7,19)           -36.5413         -DE/DX =    0.0                 !
 ! D22   D(3,2,7,6)             79.2805         -DE/DX =    0.0                 !
 ! D23   D(3,2,7,8)            -27.7571         -DE/DX =    0.0                 !
 ! D24   D(3,2,7,19)          -151.4997         -DE/DX =    0.0                 !
 ! D25   D(13,2,7,6)           -37.3161         -DE/DX =    0.0                 !
 ! D26   D(13,2,7,8)          -144.3538         -DE/DX =    0.0                 !
 ! D27   D(13,2,7,19)           91.9036         -DE/DX =    0.0                 !
 ! D28   D(2,3,4,5)             29.7463         -DE/DX =    0.0                 !
 ! D29   D(2,3,4,15)           151.7743         -DE/DX =    0.0                 !
 ! D30   D(2,3,4,16)           -90.5197         -DE/DX =    0.0                 !
 ! D31   D(8,3,4,5)            -61.3078         -DE/DX =    0.0                 !
 ! D32   D(8,3,4,15)            60.7203         -DE/DX =    0.0                 !
 ! D33   D(8,3,4,16)           178.4262         -DE/DX =    0.0                 !
 ! D34   D(14,3,4,5)           166.4411         -DE/DX =    0.0                 !
 ! D35   D(14,3,4,15)          -71.5309         -DE/DX =    0.0                 !
 ! D36   D(14,3,4,16)           46.1751         -DE/DX =    0.0                 !
 ! D37   D(2,3,8,7)            -28.1558         -DE/DX =    0.0                 !
 ! D38   D(2,3,8,9)            147.5025         -DE/DX =    0.0                 !
 ! D39   D(4,3,8,7)             80.9886         -DE/DX =    0.0                 !
 ! D40   D(4,3,8,9)           -103.3531         -DE/DX =    0.0                 !
 ! D41   D(14,3,8,7)          -150.2341         -DE/DX =    0.0                 !
 ! D42   D(14,3,8,9)            25.4243         -DE/DX =    0.0                 !
 ! D43   D(3,4,5,6)             32.1723         -DE/DX =    0.0                 !
 ! D44   D(3,4,5,17)           151.4457         -DE/DX =    0.0                 !
 ! D45   D(3,4,5,18)           -90.2779         -DE/DX =    0.0                 !
 ! D46   D(15,4,5,6)           -88.7298         -DE/DX =    0.0                 !
 ! D47   D(15,4,5,17)           30.5436         -DE/DX =    0.0                 !
 ! D48   D(15,4,5,18)          148.82           -DE/DX =    0.0                 !
 ! D49   D(16,4,5,6)           153.1975         -DE/DX =    0.0                 !
 ! D50   D(16,4,5,17)          -87.5291         -DE/DX =    0.0                 !
 ! D51   D(16,4,5,18)           30.7473         -DE/DX =    0.0                 !
 ! D52   D(4,5,6,7)            -34.9318         -DE/DX =    0.0                 !
 ! D53   D(17,5,6,7)          -157.2423         -DE/DX =    0.0                 !
 ! D54   D(18,5,6,7)            87.6374         -DE/DX =    0.0                 !
 ! D55   D(5,6,7,2)            -26.3492         -DE/DX =    0.0                 !
 ! D56   D(5,6,7,8)             66.125          -DE/DX =    0.0                 !
 ! D57   D(5,6,7,19)          -161.8004         -DE/DX =    0.0                 !
 ! D58   D(2,7,8,3)             28.2715         -DE/DX =    0.0                 !
 ! D59   D(2,7,8,9)           -147.3265         -DE/DX =    0.0                 !
 ! D60   D(6,7,8,3)            -84.4471         -DE/DX =    0.0                 !
 ! D61   D(6,7,8,9)             99.955          -DE/DX =    0.0                 !
 ! D62   D(19,7,8,3)           151.2968         -DE/DX =    0.0                 !
 ! D63   D(19,7,8,9)           -24.3012         -DE/DX =    0.0                 !
 --------------------------------------------------------------------------------
 GradGradGradGradGradGradGradGradGradGradGradGradGradGradGradGradGradGrad

                          Input orientation:                          
 ---------------------------------------------------------------------
 Center     Atomic      Atomic             Coordinates (Angstroms)
 Number     Number       Type             X           Y           Z
 ---------------------------------------------------------------------
      1          6           0       -1.618890   -0.093345   -2.221775
      2          6           0       -1.824363   -0.025294   -0.711829
      3          6           0       -1.053917    1.146833   -0.009320
      4          6           0       -1.556671    1.299202    1.448126
      5          6           0       -2.023886   -0.073102    1.979360
      6          8           0       -1.288550   -1.172436    1.438446
      7          6           0       -0.886731   -0.993160    0.080438
      8          6           0        0.137308    0.171373    0.048279
      9          8           0        1.326948    0.274394   -0.001573
     10          1           0       -2.021171   -1.025629   -2.630926
     11          1           0       -2.122132    0.740436   -2.721708
     12          1           0       -0.556764   -0.043610   -2.488088
     13          1           0       -2.884839   -0.105776   -0.463493
     14          1           0       -0.931781    2.103909   -0.520803
     15          1           0       -0.752444    1.709974    2.067315
     16          1           0       -2.393114    2.005990    1.492206
     17          1           0       -1.906360   -0.139315    3.064302
     18          1           0       -3.091872   -0.207437    1.760629
     19          1           0       -0.638100   -1.975733   -0.324680
 ---------------------------------------------------------------------
                    Distance matrix (angstroms):
                    1          2          3          4          5
     1  C    0.000000
     2  C    1.525381   0.000000
     3  C    2.598498   1.568753   0.000000
     4  C    3.925715   2.547814   1.549235   0.000000
     5  C    4.220660   2.698999   2.526644   1.543929   0.000000
     6  O    3.830246   2.495338   2.744101   2.486157   1.428931
     7  C    2.577966   1.563203   2.148389   2.752147   2.396985
     8  C    2.882266   2.112959   1.540733   2.470048   2.908540
     9  O    3.707087   3.244231   2.535692   3.386314   3.908062
    10  H    1.094709   2.173094   3.539490   4.717973   4.707659
    11  H    1.094704   2.171319   2.943347   4.244937   4.771954
    12  H    1.096133   2.182255   2.794388   4.277469   4.702277
    13  H    2.166642   1.092134   2.264415   2.718875   2.590335
    14  H    2.862403   2.316614   1.092029   2.216918   3.490399
    15  H    4.732756   3.447289   2.172654   1.094947   2.191726
    16  H    4.335930   3.050797   2.187734   1.095960   2.167088
    17  H    5.294088   3.778742   3.439185   2.191720   1.093296
    18  H    4.247615   2.784386   3.019939   2.173583   1.098400
    19  H    2.846806   2.315451   3.165876   3.835598   3.293783
                    6          7          8          9         10
     6  O    0.000000
     7  C    1.427510   0.000000
     8  C    2.402386   1.551073   0.000000
     9  O    3.317801   2.552214   1.195133   0.000000
    10  H    4.137400   2.939303   3.642800   4.451231   0.000000
    11  H    4.654119   3.519033   3.619632   4.417294   1.771276
    12  H    4.150593   2.758232   2.638392   3.135642   1.768969
    13  H    2.702457   2.252941   3.077677   4.254063   2.507951
    14  H    3.834107   3.155211   2.280680   2.952725   3.928536
    15  H    2.998528   3.357476   2.689880   3.265740   5.582711
    16  H    3.365315   3.641041   3.442932   4.366769   5.131206
    17  H    2.022976   3.266824   3.656432   4.474933   5.764925
    18  H    2.070506   2.881501   3.674676   4.781578   4.593647
    19  H    2.043767   1.091507   2.313098   3.004810   2.852079
                   11         12         13         14         15
    11  H    0.000000
    12  H    1.766263   0.000000
    13  H    2.529295   3.085900   0.000000
    14  H    2.849558   2.936441   2.949649   0.000000
    15  H    5.074524   4.885185   3.774790   2.624062   0.000000
    16  H    4.408190   4.838986   2.919950   2.489436   1.763569
    17  H    5.856487   5.714858   3.661131   4.339912   2.396951
    18  H    4.682970   4.950273   2.236049   3.900416   3.040304
    19  H    3.914801   2.901732   2.926404   4.094898   4.395355
                   16         17         18         19
    16  H    0.000000
    17  H    2.703839   0.000000
    18  H    2.336573   1.763418   0.000000
    19  H    4.715428   4.057845   3.673742   0.000000
 Stoichiometry    C7H10O2
 Framework group  C1[X(C7H10O2)]
 Deg. of freedom    51
 Full point group                 C1      NOp   1
 Largest Abelian subgroup         C1      NOp   1
 Largest concise Abelian subgroup C1      NOp   1
                         Standard orientation:                         
 ---------------------------------------------------------------------
 Center     Atomic      Atomic             Coordinates (Angstroms)
 Number     Number       Type             X           Y           Z
 ---------------------------------------------------------------------
      1          6           0       -2.244292   -1.120935    0.055238
      2          6           0       -0.725205   -0.982519    0.057670
      3          6           0       -0.175761    0.065413    1.087687
      4          6           0        1.361208   -0.084508    1.211712
      5          6           0        1.939720   -0.596091   -0.125197
      6          8           0        1.213851   -0.142481   -1.269397
      7          6           0       -0.193231   -0.026285   -1.058673
      8          6           0       -0.416389    1.106209   -0.022582
      9          8           0       -0.727284    2.259677   -0.057195
     10          1           0       -2.582548   -1.718175   -0.797566
     11          1           0       -2.592670   -1.610320    0.970394
     12          1           0       -2.739289   -0.144757   -0.004445
     13          1           0       -0.249061   -1.964935    0.087741
     14          1           0       -0.671109    0.194400    2.052321
     15          1           0        1.797888    0.880854    1.487930
     16          1           0        1.613208   -0.794144    2.007978
     17          1           0        2.968397   -0.254729   -0.268696
     18          1           0        1.960799   -1.694277   -0.120053
     19          1           0       -0.674457    0.000802   -2.037996
 ---------------------------------------------------------------------
 Rotational constants (GHZ):      2.2131800      1.6966835      1.4392003
 1\1\GINC-ALCHEMY-H\FOpt\RB3LYP\6-31G(2df,p)\C7H10O2\PUCK\28-Jan-2020\0
 \\# b3lyp 6-31G(2df,p) opt Freq\\titel\\0,1\C,-1.6188898924,-0.0933449
 773,-2.2217753907\C,-1.824362541,-0.0252940611,-0.7118289865\C,-1.0539
 172822,1.1468330621,-0.009320499\C,-1.5566712587,1.2992021195,1.448126
 2855\C,-2.023886488,-0.0731019041,1.9793600594\O,-1.2885496719,-1.1724
 357397,1.4384462803\C,-0.8867311377,-0.9931597886,0.0804375675\C,0.137
 3083406,0.1713732192,0.0482794791\O,1.3269484961,0.2743936248,-0.00157
 31979\H,-2.0211707705,-1.0256290302,-2.6309264778\H,-2.1221321072,0.74
 04358764,-2.7217084301\H,-0.5567636659,-0.043610261,-2.4880875959\H,-2
 .8848385912,-0.1057762992,-0.4634930151\H,-0.9317811048,2.1039090518,-
 0.5208032457\H,-0.752443855,1.709973655,2.06731463\H,-2.3931142072,2.0
 059898155,1.4922063854\H,-1.9063598273,-0.1393152281,3.0643018549\H,-3
 .0918722185,-0.2074374933,1.7606285563\H,-0.6380999174,-1.9757326917,-
 0.3246797099\\Version=ES64L-G09RevD.01\State=1-A\HF=-423.1854484\RMSD=
 3.101e-09\RMSF=3.319e-06\Dipole=-1.2412034,0.4293252,-0.184298\Quadrup
 ole=-3.9046387,0.92216,2.9824787,-0.9820048,-0.082831,2.2353503\PG=C01
  [X(C7H10O2)]\\@


 In the race for quality, there is no finish line.
                               -- David T. Kearns
 Job cpu time:       0 days  0 hours  7 minutes 14.8 seconds.
 File lengths (MBytes):  RWF=     52 Int=      0 D2E=      0 Chk=      7 Scr=      1
 Normal termination of Gaussian 09 at Tue Jan 28 00:05:34 2020.
 Link1:  Proceeding to internal job step number  2.
 ----------------------------------------------------------------------
 #N Geom=AllCheck Guess=TCheck SCRF=Check GenChk RB3LYP/6-31G(2df,p) Fr
 eq
 ----------------------------------------------------------------------
 1/10=4,29=7,30=1,38=1,40=1/1,3;
 2/12=2,40=1/2;
 3/5=1,6=6,7=104,11=2,14=-4,16=1,25=1,30=1,70=2,71=2,74=-5,116=1,140=1/1,2,3;
 4/5=101/1;
 5/5=2,98=1/2;
 8/6=4,10=90,11=11/1;
 11/6=1,8=1,9=11,15=111,16=1/1,2,10;
 10/6=1/2;
 6/7=2,8=2,9=2,10=2,18=1,28=1/1;
 7/8=1,10=1,25=1/1,2,3,16;
 1/10=4,30=1/3;
 99//99;
 Structure from the checkpoint file:  "/scratch/puck/g09_ece8ae4b-6111-4b87-9042-39742efbc97b/Gau-71697.chk"
 -----
 titel
 -----
 Charge =  0 Multiplicity = 1
 Redundant internal coordinates found in file.
 C,0,-1.6188898924,-0.0933449773,-2.2217753907
 C,0,-1.824362541,-0.0252940611,-0.7118289865
 C,0,-1.0539172822,1.1468330621,-0.009320499
 C,0,-1.5566712587,1.2992021195,1.4481262855
 C,0,-2.023886488,-0.0731019041,1.9793600594
 O,0,-1.2885496719,-1.1724357397,1.4384462803
 C,0,-0.8867311377,-0.9931597886,0.0804375675
 C,0,0.1373083406,0.1713732192,0.0482794791
 O,0,1.3269484961,0.2743936248,-0.0015731979
 H,0,-2.0211707705,-1.0256290302,-2.6309264778
 H,0,-2.1221321072,0.7404358764,-2.7217084301
 H,0,-0.5567636659,-0.043610261,-2.4880875959
 H,0,-2.8848385912,-0.1057762992,-0.4634930151
 H,0,-0.9317811048,2.1039090518,-0.5208032457
 H,0,-0.752443855,1.709973655,2.06731463
 H,0,-2.3931142072,2.0059898155,1.4922063854
 H,0,-1.9063598273,-0.1393152281,3.0643018549
 H,0,-3.0918722185,-0.2074374933,1.7606285563
 H,0,-0.6380999174,-1.9757326917,-0.3246797099
 Recover connectivity data from disk.

 GradGradGradGradGradGradGradGradGradGradGradGradGradGradGradGradGradGrad
 Berny optimization.
 Initialization pass.
                           ----------------------------
                           !    Initial Parameters    !
                           ! (Angstroms and Degrees)  !
 --------------------------                            --------------------------
 ! Name  Definition              Value          Derivative Info.                !
 --------------------------------------------------------------------------------
 ! R1    R(1,2)                  1.5254         calculate D2E/DX2 analytically  !
 ! R2    R(1,10)                 1.0947         calculate D2E/DX2 analytically  !
 ! R3    R(1,11)                 1.0947         calculate D2E/DX2 analytically  !
 ! R4    R(1,12)                 1.0961         calculate D2E/DX2 analytically  !
 ! R5    R(2,3)                  1.5688         calculate D2E/DX2 analytically  !
 ! R6    R(2,7)                  1.5632         calculate D2E/DX2 analytically  !
 ! R7    R(2,13)                 1.0921         calculate D2E/DX2 analytically  !
 ! R8    R(3,4)                  1.5492         calculate D2E/DX2 analytically  !
 ! R9    R(3,8)                  1.5407         calculate D2E/DX2 analytically  !
 ! R10   R(3,14)                 1.092          calculate D2E/DX2 analytically  !
 ! R11   R(4,5)                  1.5439         calculate D2E/DX2 analytically  !
 ! R12   R(4,15)                 1.0949         calculate D2E/DX2 analytically  !
 ! R13   R(4,16)                 1.096          calculate D2E/DX2 analytically  !
 ! R14   R(5,6)                  1.4289         calculate D2E/DX2 analytically  !
 ! R15   R(5,17)                 1.0933         calculate D2E/DX2 analytically  !
 ! R16   R(5,18)                 1.0984         calculate D2E/DX2 analytically  !
 ! R17   R(6,7)                  1.4275         calculate D2E/DX2 analytically  !
 ! R18   R(7,8)                  1.5511         calculate D2E/DX2 analytically  !
 ! R19   R(7,19)                 1.0915         calculate D2E/DX2 analytically  !
 ! R20   R(8,9)                  1.1951         calculate D2E/DX2 analytically  !
 ! A1    A(2,1,10)             111.0059         calculate D2E/DX2 analytically  !
 ! A2    A(2,1,11)             110.8645         calculate D2E/DX2 analytically  !
 ! A3    A(2,1,12)             111.6538         calculate D2E/DX2 analytically  !
 ! A4    A(10,1,11)            108.0004         calculate D2E/DX2 analytically  !
 ! A5    A(10,1,12)            107.6927         calculate D2E/DX2 analytically  !
 ! A6    A(11,1,12)            107.4535         calculate D2E/DX2 analytically  !
 ! A7    A(1,2,3)              114.2337         calculate D2E/DX2 analytically  !
 ! A8    A(1,2,7)              113.1585         calculate D2E/DX2 analytically  !
 ! A9    A(1,2,13)             110.6461         calculate D2E/DX2 analytically  !
 ! A10   A(3,2,7)               86.6218         calculate D2E/DX2 analytically  !
 ! A11   A(3,2,13)             115.475          calculate D2E/DX2 analytically  !
 ! A12   A(7,2,13)             114.9328         calculate D2E/DX2 analytically  !
 ! A13   A(2,3,4)              109.5962         calculate D2E/DX2 analytically  !
 ! A14   A(2,3,8)               85.6073         calculate D2E/DX2 analytically  !
 ! A15   A(2,3,14)             120.0012         calculate D2E/DX2 analytically  !
 ! A16   A(4,3,8)              106.1409         calculate D2E/DX2 analytically  !
 ! A17   A(4,3,14)             112.9997         calculate D2E/DX2 analytically  !
 ! A18   A(8,3,14)             119.0722         calculate D2E/DX2 analytically  !
 ! A19   A(3,4,5)              109.5408         calculate D2E/DX2 analytically  !
 ! A20   A(3,4,15)             109.3012         calculate D2E/DX2 analytically  !
 ! A21   A(3,4,16)             110.4224         calculate D2E/DX2 analytically  !
 ! A22   A(5,4,15)             111.1703         calculate D2E/DX2 analytically  !
 ! A23   A(5,4,16)             109.1728         calculate D2E/DX2 analytically  !
 ! A24   A(15,4,16)            107.2107         calculate D2E/DX2 analytically  !
 ! A25   A(4,5,6)              113.4434         calculate D2E/DX2 analytically  !
 ! A26   A(4,5,17)             111.2692         calculate D2E/DX2 analytically  !
 ! A27   A(4,5,18)             109.5374         calculate D2E/DX2 analytically  !
 ! A28   A(6,5,17)             105.8869         calculate D2E/DX2 analytically  !
 ! A29   A(6,5,18)             109.3224         calculate D2E/DX2 analytically  !
 ! A30   A(17,5,18)            107.1413         calculate D2E/DX2 analytically  !
 ! A31   A(5,6,7)              114.1011         calculate D2E/DX2 analytically  !
 ! A32   A(2,7,6)              113.0209         calculate D2E/DX2 analytically  !
 ! A33   A(2,7,8)               85.4483         calculate D2E/DX2 analytically  !
 ! A34   A(2,7,19)             120.39           calculate D2E/DX2 analytically  !
 ! A35   A(6,7,8)              107.4486         calculate D2E/DX2 analytically  !
 ! A36   A(6,7,19)             107.707          calculate D2E/DX2 analytically  !
 ! A37   A(8,7,19)             121.1834         calculate D2E/DX2 analytically  !
 ! A38   A(3,8,7)               88.0323         calculate D2E/DX2 analytically  !
 ! A39   A(3,8,9)              135.5178         calculate D2E/DX2 analytically  !
 ! A40   A(7,8,9)              136.283          calculate D2E/DX2 analytically  !
 ! D1    D(10,1,2,3)           169.4998         calculate D2E/DX2 analytically  !
 ! D2    D(10,1,2,7)            72.4777         calculate D2E/DX2 analytically  !
 ! D3    D(10,1,2,13)          -58.15           calculate D2E/DX2 analytically  !
 ! D4    D(11,1,2,3)           -70.4599         calculate D2E/DX2 analytically  !
 ! D5    D(11,1,2,7)          -167.4821         calculate D2E/DX2 analytically  !
 ! D6    D(11,1,2,13)           61.8903         calculate D2E/DX2 analytically  !
 ! D7    D(12,1,2,3)            49.3203         calculate D2E/DX2 analytically  !
 ! D8    D(12,1,2,7)           -47.7018         calculate D2E/DX2 analytically  !
 ! D9    D(12,1,2,13)         -178.3295         calculate D2E/DX2 analytically  !
 ! D10   D(1,2,3,4)            168.4513         calculate D2E/DX2 analytically  !
 ! D11   D(1,2,3,8)            -85.9669         calculate D2E/DX2 analytically  !
 ! D12   D(1,2,3,14)            35.2574         calculate D2E/DX2 analytically  !
 ! D13   D(7,2,3,4)            -77.6287         calculate D2E/DX2 analytically  !
 ! D14   D(7,2,3,8)             27.9531         calculate D2E/DX2 analytically  !
 ! D15   D(7,2,3,14)           149.1774         calculate D2E/DX2 analytically  !
 ! D16   D(13,2,3,4)            38.4525         calculate D2E/DX2 analytically  !
 ! D17   D(13,2,3,8)           144.0343         calculate D2E/DX2 analytically  !
 ! D18   D(13,2,3,14)          -94.7413         calculate D2E/DX2 analytically  !
 ! D19   D(1,2,7,6)           -165.761          calculate D2E/DX2 analytically  !
 ! D20   D(1,2,7,8)             87.2013         calculate D2E/DX2 analytically  !
 ! D21   D(1,2,7,19)           -36.5413         calculate D2E/DX2 analytically  !
 ! D22   D(3,2,7,6)             79.2805         calculate D2E/DX2 analytically  !
 ! D23   D(3,2,7,8)            -27.7571         calculate D2E/DX2 analytically  !
 ! D24   D(3,2,7,19)          -151.4997         calculate D2E/DX2 analytically  !
 ! D25   D(13,2,7,6)           -37.3161         calculate D2E/DX2 analytically  !
 ! D26   D(13,2,7,8)          -144.3538         calculate D2E/DX2 analytically  !
 ! D27   D(13,2,7,19)           91.9036         calculate D2E/DX2 analytically  !
[...]
 7545023,-0.00164275,-0.00312900,-0.00006487,0.00660677,-0.00339242,-0.
 01882976,0.00526391,-0.07821836,-0.01545279,-0.02667194,0.50256360,-0.
 00090667,-0.00261426,0.00007857,0.00340343,-0.00744730,-0.02292881,0.0
 2136532,-0.00280267,-0.14199371,0.05118162,0.04552925,0.44251464,-0.00
 166590,0.00109256,-0.00070822,0.00685220,-0.00066214,-0.00190491,-0.00
 435495,-0.00883553,0.00652281,-0.09583785,-0.03151084,0.01035573,0.539
 58909,0.00049810,-0.00259137,-0.00002739,0.00001399,0.00249013,0.00306
 248,0.00218830,-0.00307952,0.00673609,-0.03381532,-0.14276261,0.032536
 67,0.02323002,0.40532965,0.00114380,-0.00087987,0.00013932,-0.00079576
 ,0.00035340,-0.00164796,0.01256715,0.02914593,-0.02039328,0.01352444,0
 .02283843,-0.08848598,0.03100999,-0.01982211,0.60969328,-0.00207857,0.
 00405798,-0.00170129,0.01274782,0.00215629,-0.01865818,0.00386916,-0.0
 0145828,-0.00579589,0.00738818,0.00161317,0.00021847,-0.10222821,0.059
 75518,0.01758894,0.18406922,0.00169934,-0.00210081,-0.00008916,-0.0061
 2579,0.00086609,0.01719633,0.00321161,0.00851711,-0.01038693,0.0268403
 0,-0.03759512,-0.01420813,0.05364101,-0.14507135,-0.00269589,-0.107459
 64,0.27379182,-0.00417637,0.00792448,0.00041533,0.00717051,0.00577794,
 -0.03611170,-0.00489030,0.00252516,0.00333379,-0.00339087,0.00458196,0
 .00042318,0.03554361,-0.03301399,-0.09286548,-0.12585100,-0.00032303,0
 .35512210,0.00448248,-0.00727981,-0.00148914,-0.10193751,0.03612068,-0
 .00253897,0.00484086,0.01775019,-0.00573702,0.00276129,-0.00178479,-0.
 00157731,-0.01082826,-0.00013289,0.02174351,-0.07033390,0.01180863,0.0
 3212771,0.35345893,-0.00366004,0.00321011,0.00232528,0.03248630,-0.094
 25732,0.00984665,-0.00146816,-0.09295646,0.01596123,0.00088918,0.00064
 574,-0.00298357,0.00821228,-0.00182799,-0.03295551,-0.00000690,-0.0910
 9511,0.04342618,-0.06890976,0.66979830,-0.01342943,0.02261958,-0.01948
 916,-0.01570757,0.01391635,-0.07434040,-0.00448119,-0.00817699,0.03480
 524,-0.00898918,0.00610076,0.00268427,0.00925042,-0.01570999,-0.030391
 92,0.06253301,0.02735573,-0.17602364,-0.04475398,0.06896966,0.38609370
 ,0.00089516,0.00099158,-0.00321616,-0.08594886,-0.01379545,-0.03173137
 ,-0.08396089,0.02056747,0.00073365,-0.01529972,0.00638313,0.01496732,-
 0.00262754,-0.00221589,-0.00040603,-0.01271378,-0.01003004,0.01542580,
 -0.07250999,-0.00739729,0.00371861,1.06792820,0.00005152,-0.00365830,-
 0.00050179,-0.00584884,0.01043065,-0.00270025,0.04605010,-0.11745237,0
 .02925769,0.00394056,-0.00012268,-0.01340245,-0.00590688,0.01267250,0.
 00341869,0.00752282,0.00139789,0.00034910,-0.05028611,-0.13265086,-0.0
 2030823,0.06511542,0.37381857,-0.00313834,-0.00111685,0.00117412,-0.05
 045654,-0.00442879,0.00214169,-0.00033073,0.00492764,-0.07894881,0.031
 62584,-0.01687926,-0.00064837,0.00136932,0.00289847,0.00021262,0.03543
 004,0.02406294,-0.02277030,-0.00906673,-0.01189918,-0.07166950,-0.0197
 7266,-0.00257181,0.24275639,-0.00127167,0.00003466,0.00167084,-0.00374
 527,0.00113894,0.00268722,-0.03700214,0.00972546,0.00209447,-0.0015330
 0,-0.00000675,-0.00653933,0.00105108,-0.00071365,-0.00051907,-0.001197
 90,-0.00026448,0.00604683,-0.02402590,-0.01382962,-0.00500595,-0.82286
 398,-0.06528229,0.03481192,0.89390940,-0.00031384,0.00134786,0.0000529
 4,-0.00123534,-0.00139024,-0.00063326,0.01411793,0.01980845,-0.0069671
 5,0.00239343,-0.00090620,0.00196820,0.00188157,-0.00432624,-0.00104953
 ,-0.00569329,-0.00094925,0.00678308,-0.01503378,0.01864634,0.00126229,
 -0.06508320,-0.11170666,0.00526993,0.07058658,0.07165809,0.00079984,0.
 00026669,-0.00186641,0.00936294,0.00032646,-0.00223956,0.00124113,0.00
 332824,0.01978191,-0.00431368,0.00111485,-0.00141373,0.00030607,-0.000
 64743,-0.00005211,-0.00584531,-0.00298905,0.00210851,0.00531520,0.0002
 2431,0.01970987,0.02573323,0.00346622,-0.06101400,-0.03444051,-0.00506
 670,0.02167880,-0.08360499,-0.08389296,-0.03556653,0.00136958,0.005604
 43,0.00195385,0.00082054,-0.00027319,0.00046569,0.00012528,-0.00002903
 ,0.00028055,0.00008878,-0.00001504,-0.00003171,-0.00008432,0.00023233,
 -0.00000103,0.00025550,-0.00097761,-0.00011136,-0.00053157,-0.00006191
 ,0.00085073,0.00052413,0.00007812,-0.00038712,0.08618439,-0.08367610,-
 0.23932661,-0.08097182,0.00004559,-0.00031568,-0.00006022,0.00083183,0
 .00109589,0.00015564,-0.00021992,0.00006949,0.00014922,-0.00006714,0.0
 0001370,0.00002929,-0.00001495,0.00008985,-0.00027683,0.00012502,0.001
 11019,0.00014970,0.00040359,-0.00018135,-0.00007490,-0.00018985,0.0000
 3386,0.00010287,0.09224391,0.25795846,-0.03514395,-0.08004939,-0.07998
 043,-0.01435741,-0.02880575,-0.01356941,0.00270258,0.00173009,-0.00589
 427,-0.00197376,-0.00114444,-0.00065768,0.00000518,-0.00054117,0.00014
 266,0.00013478,0.00039531,0.00052309,0.00044424,-0.00098721,0.00161507
 ,0.00119394,-0.00109380,0.00018678,-0.00045506,0.00035762,0.00011984,0
 .03829242,0.08983645,0.08948451,-0.10360907,0.09399655,-0.05489350,0.0
 0249390,-0.00545108,0.00276046,0.00024416,0.00047627,-0.00015635,-0.00
 001379,-0.00018689,0.00002871,0.00000802,-0.00001828,-0.00004099,0.000
 16573,-0.00001624,0.00059482,0.00047564,0.00046584,0.00051451,-0.00056
 065,0.00020144,0.00089616,0.00049114,-0.00004495,-0.00044304,0.0056405
 1,-0.01002572,0.00645711,0.10859511,0.09372841,-0.20136973,0.08945491,
 -0.00169782,0.00175639,-0.00157834,-0.00012160,0.00148300,0.00004385,0
 .00013310,0.00000465,0.00003815,0.00008302,-0.00001917,0.00001712,-0.0
 0012932,0.00025446,-0.00019256,-0.00049499,0.00054501,-0.00089766,-0.0
 0021009,0.00008103,0.00045045,0.00013241,-0.00001448,-0.00022349,0.013
 66279,-0.02035672,0.01219055,-0.10330967,0.21594080,-0.05452891,0.0887
 8841,-0.09663302,-0.01783542,0.02578631,-0.01792639,0.00060197,0.00066
 076,0.00172545,0.00034744,-0.00010328,0.00022952,-0.00060383,0.0009337
 2,0.00065921,-0.00138946,0.00080276,-0.00306294,0.00437193,-0.00275746
 ,-0.00377530,0.00042247,0.00122391,0.00040509,-0.00037809,-0.00049792,
 0.00005316,0.00642331,-0.00882652,0.00521212,0.05918723,-0.09838470,0.
 10866249,-0.29162698,-0.01155201,0.05749979,-0.00329338,-0.00047397,0.
 00206410,0.00041802,-0.00050115,-0.00029352,0.00010772,0.00015611,0.00
 014054,-0.00027253,-0.00006640,-0.00030240,0.00015818,-0.00015260,0.00
 034763,0.00008535,0.00081573,-0.00057144,-0.00038328,-0.00013823,0.000
 94257,0.00039549,0.00003164,-0.00094590,-0.01086627,0.00035088,0.00213
 716,-0.01414098,-0.00155873,0.00307521,0.31777976,-0.01160012,-0.04804
 192,0.00239042,0.00134812,-0.00117098,-0.00014570,0.00073813,0.0001571
 9,0.00005792,0.00006543,-0.00004594,0.00003247,-0.00002602,0.00010386,
 0.00001418,0.00016101,-0.00015778,-0.00022165,-0.00075069,0.00021776,0
 .00033876,-0.00002102,0.00120411,-0.00013086,-0.00005626,-0.00051997,-
 0.00000740,-0.02744141,-0.00065163,0.00699111,0.02475724,0.00143200,-0
 .00638559,0.01281273,0.04707017,0.05656725,0.00225672,-0.06216698,0.03
 398769,0.00191494,-0.00781550,0.00031322,0.00037298,0.00181966,0.00010
 171,0.00027792,-0.00002506,0.00055678,-0.00011100,-0.00017498,-0.00040
 585,-0.00013554,0.00043520,0.00122608,0.00008164,0.00121600,0.00064976
 ,-0.00036867,-0.00223601,-0.00116571,-0.00000037,0.00055001,-0.0116444
 2,0.00049492,0.00223110,-0.01426076,-0.00171020,0.00304652,-0.06496263
 ,-0.00269820,0.06971191,-0.00253859,-0.00016690,0.00041953,-0.29587565
 ,-0.01782770,0.05892112,-0.00787492,0.00054985,0.00113970,0.00041967,-
 0.00037851,0.00113225,-0.00130709,0.00027492,0.00081834,0.00229437,-0.
 00024442,-0.00016754,-0.01318735,-0.00309896,0.00404343,-0.00526215,0.
 00016257,-0.00276934,0.00000853,-0.00026809,0.00062371,0.00033768,0.00
 034360,0.00036633,0.00041528,-0.00026872,0.00040152,0.00123800,0.00004
 637,0.00020250,0.31990723,0.00120917,0.00065247,-0.00047387,-0.0179046
 1,-0.04902861,0.00477278,-0.02324094,0.00051636,0.00559065,0.00137607,
 0.00158061,0.00162525,-0.00045138,0.00030372,0.00014553,-0.00337716,0.
 00104324,-0.00189362,0.02154430,0.00391228,-0.00743754,0.00047343,-0.0
 0777899,0.00016792,-0.00043321,0.00316345,0.00000441,0.00035839,0.0002
 1009,0.00031388,-0.00036531,0.00004065,-0.00024843,0.00013499,0.000970
 71,-0.00034004,0.02074768,0.04492813,0.03303790,0.00169816,-0.00980480
 ,0.06094693,0.00450622,-0.05822657,-0.01116472,0.00020560,0.00133202,-
 0.00010102,0.00012815,0.00111247,-0.00074101,0.00031037,-0.00149684,0.
 00239219,-0.00080456,0.00107094,-0.01395792,-0.00259148,0.00237881,-0.
 00455877,-0.00004056,-0.00442682,-0.00146049,-0.00026121,0.00188730,-0
 .00046307,-0.00037339,0.00135707,-0.00052078,0.00047368,0.00142587,0.0
 0052990,-0.00029730,-0.00658064,-0.06449822,-0.00286142,0.07291347,0.0
 0092679,0.00144764,0.00135934,-0.00073851,-0.00984065,0.01043040,-0.05
 466542,-0.02657068,0.00654664,-0.00112441,-0.01006953,0.00583174,0.000
 09505,0.00057182,0.00285643,-0.00028153,-0.00068136,-0.00012615,-0.004
 29720,0.00370392,0.00236125,0.01453700,0.01792985,-0.01433697,-0.00152
 158,-0.00310669,0.00232250,-0.00010950,0.00003891,0.00018377,-0.000077
 63,0.00022602,-0.00042684,0.00010439,0.00013048,-0.00025325,-0.0005570
 9,-0.00155780,-0.00016381,0.04478321,0.00014036,0.00142783,0.00121777,
 0.00241856,-0.00852656,0.00869743,-0.02769976,-0.25185155,0.11282860,0
 .00120185,0.00610876,-0.00366396,0.00075763,0.00059548,-0.00168387,-0.
 00001992,0.00090211,-0.00007098,0.00329831,-0.00782880,-0.00320934,-0.
 00878866,-0.01265334,0.00491883,0.00207146,0.00229396,-0.00104203,0.00
 016033,0.00021898,-0.00001519,-0.00027640,0.00000184,-0.00077608,0.000
 34470,-0.00020243,-0.00029213,-0.00019164,-0.00083370,-0.00019707,0.02
 760159,0.27062036,0.00047299,0.00047238,0.00173475,0.00056271,-0.01114
 907,0.00810034,0.00924441,0.11202703,-0.10548530,0.00416952,0.02575785
 ,-0.01324279,0.00090558,-0.00335716,-0.00519334,-0.00042808,-0.0001470
 8,0.00114028,-0.00103920,-0.00333145,-0.00066146,0.00324551,-0.0020741
 7,-0.00095619,-0.00142591,0.00015321,-0.00025315,0.00006333,0.00015970
 ,0.00010323,-0.00016235,0.00040186,-0.00004516,0.00013555,0.00001904,-
 0.00007093,-0.00023077,-0.00062291,-0.00016293,-0.01640796,-0.11878668
 ,0.11270505,0.00048745,0.00083038,0.00023423,-0.00062851,0.00032610,0.
 00285388,0.00823812,0.00590140,0.00726908,-0.19170845,-0.06897689,-0.1
 1030407,-0.00866486,-0.00264426,-0.00302743,0.00065946,-0.00070336,-0.
 00085545,-0.00014018,-0.00037792,0.00080366,0.00206651,0.00079739,0.00
 027239,0.00041271,-0.00057903,-0.00025863,-0.00000329,0.00003496,0.000
 33698,-0.00001414,-0.00001816,-0.00002074,0.00000765,-0.00002855,-0.00
 005311,0.00014104,0.00012004,0.00015321,0.00005514,-0.00024623,-0.0006
 3056,0.20549608,-0.00018116,-0.00028534,0.00003852,0.00015213,0.000943
 27,-0.00116543,-0.00097655,-0.00164767,-0.00319165,-0.06723544,-0.0836
 0279,-0.05192473,-0.02402768,-0.00947579,-0.01489216,0.00155351,-0.000
 29833,-0.00002928,-0.00033604,0.00014001,0.00030996,-0.00103524,0.0000
 6993,-0.00099165,0.00065881,0.00002752,0.00037217,0.00001797,-0.000011
 73,-0.00010142,0.00000581,0.00001278,-0.00001498,0.00002279,0.00000749
 ,-0.00002660,0.00003483,-0.00008652,0.00014587,0.00015581,-0.00000404,
 -0.00024434,0.07666175,0.08902729,-0.00094385,-0.00216404,-0.00013289,
 0.00349422,0.00118054,-0.00556905,-0.01939984,-0.01428165,-0.01865333,
 -0.11043785,-0.05345143,-0.12805477,0.01200289,0.00589525,0.00576654,-
 0.00034595,-0.00028536,0.00069946,-0.00034262,0.00046264,-0.00122647,-
 0.00416065,0.00035917,0.00127281,0.00171988,0.00042381,-0.00007774,0.0
 0007093,-0.00005318,-0.00081278,-0.00001263,0.00006414,0.00008124,0.00
 005304,0.00002266,-0.00000085,0.00000994,0.00038046,0.00023425,0.00017
 856,0.00060026,0.00028304,0.11612469,0.05772216,0.14425884,-0.00003501
 ,0.00009430,-0.00008938,0.00068847,0.00002694,0.00005358,-0.00888594,0
 .00656901,0.00250425,-0.19950796,0.12719661,0.00307918,0.00684457,-0.0
 0702884,-0.00147318,0.00191364,-0.00332283,-0.00026014,-0.00030832,-0.
 00036565,0.00035278,0.00077628,-0.00275904,0.00265965,-0.00032991,0.00
 072297,-0.00029488,0.00001247,0.00001860,0.00004835,0.00001573,-0.0000
 1439,0.00002783,0.00000196,-0.00002545,-0.00004706,0.00004403,0.000382
 21,0.00030601,0.00061532,-0.00041626,0.00001210,-0.01810122,0.01552463
 ,0.00046698,0.21493994,-0.00019607,0.00006303,-0.00000814,0.00032246,-
 0.00005293,-0.00015992,0.00101426,-0.00066781,0.00001053,0.12543839,-0
 .15317836,-0.00434694,0.02300425,-0.01605775,-0.00341480,-0.00082264,-
 0.00761785,0.00119876,-0.00081055,0.00075747,0.00240081,-0.00073618,0.
 00070888,0.00026836,0.00018262,0.00001486,-0.00017266,-0.00000103,-0.0
 0001028,-0.00000525,0.00002435,0.00002321,-0.00009787,-0.00000836,0.00
 000888,0.00005425,-0.00013632,-0.00022907,-0.00013719,-0.00040168,0.00
 093144,-0.00027971,-0.00896064,0.00789054,0.00046309,-0.13700666,0.166
 87153,-0.00002230,0.00009129,0.00007481,0.00009217,0.00099488,0.001371
 58,0.02787629,-0.02227279,-0.00597093,0.00303477,-0.00466919,-0.045477
 80,-0.00869547,0.00497728,0.00090188,-0.00040609,0.00109223,0.00072754
 ,0.00021045,0.00034172,0.00115591,-0.00179724,0.00393559,-0.00671891,0
 .00256978,-0.00141148,0.00117776,-0.00006653,-0.00000556,0.00000795,-0
 .00001828,-0.00000601,-0.00008951,-0.00005125,0.00001962,0.00013319,-0
 .00063704,-0.00016787,-0.00005719,-0.00088040,0.00052902,0.00185625,-0
 .01429474,0.01250440,0.00071762,-0.00728572,0.00448619,0.04965659,0.00
 049989,-0.00013037,0.00007106,-0.00057726,0.00006607,-0.00043445,-0.00
 047427,-0.00203035,0.00088999,0.00141638,-0.00306626,0.01185474,-0.054
 30852,0.00166354,-0.04308548,-0.00101022,0.00337969,0.02552670,-0.0007
 8966,0.00340541,0.00140426,0.00066631,0.00058939,0.00031487,-0.0004726
 7,-0.00022721,-0.00020810,-0.00002630,0.00001881,0.00000173,-0.0000091
 4,-0.00002918,0.00006779,0.00004769,0.00000161,-0.00021069,0.00064011,
 0.00006945,0.00020782,-0.00022730,0.00004785,0.00049714,0.00082008,0.0
 0067421,0.00025889,-0.00010029,-0.00052711,0.00034574,0.05845330,-0.00
 009873,0.00028861,-0.00007230,0.00017990,-0.00080916,-0.00055319,-0.00
 102429,-0.00439513,0.00127785,0.00140550,-0.00035821,0.02759315,0.0015
 1326,-0.04757693,0.02701427,0.00578809,-0.00367616,-0.03331183,-0.0000
 3973,-0.00404747,-0.00056532,0.00049437,-0.00193333,0.00030311,-0.0002
 1821,0.00060946,-0.00009685,0.00003096,0.00002328,0.00008537,-0.000036
 48,-0.00000895,-0.00011530,0.00001238,-0.00002129,0.00001658,-0.000031
 26,0.00005754,0.00006881,-0.00088077,0.00038550,0.00142954,0.00015270,
 0.00149355,-0.00031410,0.00040541,-0.00052761,-0.00022943,-0.00595856,
 0.05770168,0.00005380,0.00011178,0.00006370,-0.00012941,-0.00009035,0.
 00058777,-0.00023541,0.00143287,0.00054778,-0.00235706,0.00107415,-0.0
 0749189,-0.03487472,0.01993978,-0.30455611,0.00701078,-0.00605146,-0.0
 1575239,-0.00126640,-0.00259016,0.00193825,-0.00061637,-0.00040763,0.0
 0006213,0.00050058,0.00015295,0.00005678,0.00000900,-0.00002372,-0.000
 00176,-0.00000761,0.00002659,-0.00004768,-0.00000747,-0.00001633,-0.00
 002872,0.00012259,0.00005418,-0.00002367,0.00020486,-0.00010800,-0.000
 30520,0.00045037,-0.00025609,0.00136329,0.00045490,0.00081560,-0.00055
 891,0.03282806,-0.01599765,0.33182393,0.00087680,-0.00015125,0.0001960
 5,-0.00152619,-0.00049852,-0.00025550,0.00045490,-0.00033341,-0.000579
 36,-0.00932700,-0.00290561,-0.00461577,-0.27343549,-0.04109494,-0.0538
 5383,-0.02129701,0.01684364,0.00830729,-0.00014727,0.00037675,-0.00505
 280,0.00074966,0.00078703,0.00047634,-0.00047400,-0.00033972,-0.000167
 46,-0.00002757,0.00002705,0.00005812,-0.00003448,-0.00000617,0.0001627
 5,0.00009621,0.00000768,-0.00033251,0.00170597,0.00007331,0.00004866,0
 .00015987,0.00000020,0.00018850,0.00079896,-0.00170159,0.00124080,0.00
 139790,-0.00037376,0.00015822,-0.00416967,-0.00235400,-0.00246748,0.30
 425711,0.00014822,0.00025622,0.00016600,-0.00096844,0.00077864,-0.0003
 6229,-0.00066776,-0.00046415,-0.00091098,-0.02805856,-0.00814974,-0.00
 669152,-0.04042210,-0.05003732,-0.00758117,0.03688435,-0.00787997,-0.0
 0392064,0.00081150,-0.00009843,0.00463616,0.00012625,-0.00175110,-0.00
 097752,0.00037996,0.00062020,0.00020446,0.00000695,-0.00000749,0.00005
 393,-0.00000946,0.00001342,-0.00010289,0.00004176,-0.00007475,-0.00006
 870,0.00020949,0.00089664,-0.00010510,0.00018343,0.00007667,0.00035233
 ,-0.00231237,-0.00420885,0.00301551,-0.00014588,0.00101517,-0.00015807
 ,0.00218967,0.00252270,0.00182617,0.03161820,0.06648248,-0.00003426,-0
 .00009917,0.00033996,-0.00085550,0.00037712,-0.00104421,-0.00000181,-0
 .00002515,0.00023636,0.01203959,0.00344329,0.00381453,-0.05758534,-0.0
 0663989,-0.06793292,0.01934275,-0.00359846,0.00443831,0.00151821,-0.00
 016714,0.00200829,-0.00028060,-0.00014468,-0.00022159,0.00012915,0.000
 07152,0.00012855,0.00000982,-0.00000398,-0.00002716,0.00000190,-0.0000
 1147,0.00001407,0.00007083,-0.00002420,0.00002827,0.00047484,0.0003413
 7,-0.00280624,-0.00021584,-0.00000466,-0.00013944,0.00097961,0.0018011
 2,-0.00025358,-0.00038832,-0.00082127,0.00108475,-0.03128405,-0.005215
 48,-0.00695513,0.05620387,0.01071529,0.06729108,0.00106768,-0.00089983
 ,0.00162152,-0.00030426,0.01284015,0.00905926,-0.00259824,-0.00304486,
 0.00123912,-0.00058391,0.00001011,0.00010356,0.00100240,-0.00045035,0.
 00228326,-0.00204033,0.01134420,0.00862796,-0.06785453,0.04973650,0.01
 312097,0.01504328,-0.01286481,-0.00977850,-0.00235443,0.00211290,0.001
 60001,-0.00010505,-0.00028908,-0.00043253,-0.00008535,-0.00010690,0.00
 009384,0.00014299,-0.00011929,-0.00026901,-0.00054908,0.00084138,0.000
 00719,0.00232338,-0.00040397,0.00082750,0.00007745,0.00003144,0.000022
 57,0.00001834,-0.00000531,-0.00013236,-0.00037846,0.00065946,0.0003270
 1,-0.00005870,-0.00001521,-0.00012485,0.05723680,0.00008196,0.00083713
 ,-0.00074248,-0.00224168,-0.00587537,-0.00477222,-0.00257245,-0.007463
 57,0.00298446,-0.00037196,0.00048859,0.00061317,-0.00150588,0.00131697
 ,0.00199808,-0.00051032,0.00957917,0.00068773,0.05440053,-0.27422077,-
 0.09175470,0.01475782,-0.01049457,-0.00419682,-0.00391658,0.00158900,0
 .00083491,0.00029599,0.00003770,0.00078930,-0.00018702,0.00017983,0.00
 011513,-0.00027225,-0.00028547,0.00028150,0.00024322,-0.00031897,0.000
 13243,0.00111969,-0.00166249,-0.00078035,0.00002269,0.00000868,-0.0000
 3991,0.00014431,0.00005666,-0.00005182,-0.00013664,0.00027191,0.000107
 34,0.00002511,0.00000966,0.00000584,-0.05937655,0.28594591,0.00032677,
 -0.00030208,0.00190467,-0.00136702,0.01125159,0.00743157,-0.00046018,0
 .00303874,-0.00115870,0.00050820,-0.00025161,-0.00043658,-0.00271490,0
 .00258002,-0.00432459,0.01617614,-0.02919065,-0.02385127,0.01481198,-0
 .08137615,-0.07602756,0.00044956,0.00160367,0.00139888,-0.00084054,-0.
 00060792,-0.00033579,-0.00014784,-0.00040766,-0.00003994,0.00007539,-0
 .00015688,0.00006527,0.00013828,0.00004104,-0.00007219,-0.00037289,0.0
 0064928,-0.00012652,0.00053575,0.00105809,0.00059294,-0.00003337,-0.00
 005587,0.00010435,-0.00012693,-0.00025385,0.00000744,0.00095399,-0.001
 31721,-0.00072219,0.00028414,-0.00009097,-0.00000391,-0.02819652,0.093
 78842,0.09559412\\0.00000404,0.00000294,-0.00000235,0.00000200,0.00000
 212,0.00000171,0.00000115,-0.00000109,-0.00000018,-0.00000016,-0.00000
 161,0.00000147,-0.00000622,0.00000153,-0.00000145,-0.00000419,-0.00000
 357,-0.00000280,-0.00000506,-0.00000101,0.00000025,0.00000469,-0.00000
 394,0.00000296,-0.00000177,-0.00000627,0.00000576,0.00000255,0.0000045
 4,-0.00000245,0.00000681,0.00000499,-0.00000056,0.00000451,0.00000113,
 0.00000142,-0.00000009,0.00000461,-0.00000400,0.00000560,-0.00000017,0
 .00000375,-0.00000017,-0.00000375,0.00000315,0.00000134,0.00000081,0.0
 0000015,-0.00000619,-0.00000244,-0.00000188,-0.00000436,0.00000241,-0.
 00000382,-0.00000448,-0.00000123,-0.00000114\\\@


 THERE IS SOMETHING FASCINATING ABOUT SCIENCE.
 ONE GETS SUCH WHOLESALE CONJECTURE OUT OF SUCH TRIFLING INVESTMENTS.

                                                       -- MARK TWAIN
 Job cpu time:       0 days  0 hours 45 minutes 17.0 seconds.
 File lengths (MBytes):  RWF=    152 Int=      0 D2E=      0 Chk=      8 Scr=      1
 Normal termination of Gaussian 09 at Tue Jan 28 00:50:49 2020.
