 Entering Gaussian System, Link 0=/home/puck/opt/gaussian_09/g09
 Input=dsC7O2H10nsd_1393.com
 Output=dsC7O2H10nsd_1393.log
 Initial command:
 /home/puck/opt/gaussian_09/l1.exe "/scratch/puck/g09_8051f811-6f0e-46c6-bb4f-ca3fa66fa768/Gau-165013.inp" -scrdir="/scratch/puck/g09_8051f811-6f0e-46c6-bb4f-ca3fa66fa768/"
 Entering Link 1 = /home/puck/opt/gaussian_09/l1.exe PID=    165014.
  
 Copyright (c) 1988,1990,1992,1993,1995,1998,2003,2009,2013,
            Gaussian, Inc.  All Rights Reserved.
  
 This is part of the Gaussian(R) 09 program.  It is based on
 the Gaussian(R) 03 system (copyright 2003, Gaussian, Inc.),
 the Gaussian(R) 98 system (copyright 1998, Gaussian, Inc.),
 the Gaussian(R) 94 system (copyright 1995, Gaussian, Inc.),
 the Gaussian 92(TM) system (copyright 1992, Gaussian, Inc.),
 the Gaussian 90(TM) system (copyright 1990, Gaussian, Inc.),
 the Gaussian 88(TM) system (copyright 1988, Gaussian, Inc.),
 the Gaussian 86(TM) system (copyright 1986, Carnegie Mellon
 University), and the Gaussian 82(TM) system (copyright 1983,
 Carnegie Mellon University). Gaussian is a federally registered
 trademark of Gaussian, Inc.
  
 This software contains proprietary and confidential information,
 including trade secrets, belonging to Gaussian, Inc.
  
 This software is provided under written license and may be
 used, copied, transmitted, or stored only in accord with that
 written license.
  
 The following legend is applicable only to US Government
 contracts under FAR:
  
                    RESTRICTED RIGHTS LEGEND
  
 Use, reproduction and disclosure by the US Government is
 subject to restrictions as set forth in subparagraphs (a)
 and (c) of the Commercial Computer Software - Restricted
 Rights clause in FAR 52.227-19.
  
 Gaussian, Inc.
 340 Quinnipiac St., Bldg. 40, Wallingford CT 06492
  
  
 ---------------------------------------------------------------
 Warning -- This program may not be used in any manner that
 competes with the business of Gaussian, Inc. or will provide
 assistance to any competitor of Gaussian, Inc.  The licensee
 of this program is prohibited from giving any competitor of
 Gaussian, Inc. access to this program.  By using this program,
 the user acknowledges that Gaussian, Inc. is engaged in the
 business of creating and licensing software in the field of
 computational chemistry and represents and warrants to the
 licensee that it is not a competitor of Gaussian, Inc. and that
 it will not use this program in any manner prohibited above.
 ---------------------------------------------------------------
  

 Cite this work as:
 Gaussian 09, Revision D.01,
 M. J. Frisch, G. W. Trucks, H. B. Schlegel, G. E. Scuseria, 
 M. A. Robb, J. R. Cheeseman, G. Scalmani, V. Barone, B. Mennucci, 
 G. A. Petersson, H. Nakatsuji, M. Caricato, X. Li, H. P. Hratchian, 
 A. F. Izmaylov, J. Bloino, G. Zheng, J. L. Sonnenberg, M. Hada, 
 M. Ehara, K. Toyota, R. Fukuda, J. Hasegawa, M. Ishida, T. Nakajima, 
 Y. Honda, O. Kitao, H. Nakai, T. Vreven, J. A. Montgomery, Jr., 
 J. E. Peralta, F. Ogliaro, M. Bearpark, J. J. Heyd, E. Brothers, 
 K. N. Kudin, V. N. Staroverov, T. Keith, R. Kobayashi, J. Normand, 
 K. Raghavachari, A. Rendell, J. C. Burant, S. S. Iyengar, J. Tomasi, 
 M. Cossi, N. Rega, J. M. Millam, M. Klene, J. E. Knox, J. B. Cross, 
 V. Bakken, C. Adamo, J. Jaramillo, R. Gomperts, R. E. Stratmann, 
 O. Yazyev, A. J. Austin, R. Cammi, C. Pomelli, J. W. Ochterski, 
 R. L. Martin, K. Morokuma, V. G. Zakrzewski, G. A. Voth, 
 P. Salvador, J. J. Dannenberg, S. Dapprich, A. D. Daniels, 
 O. Farkas, J. B. Foresman, J. V. Ortiz, J. Cioslowski, 
 and D. J. Fox, Gaussian, Inc., Wallingford CT, 2013.
 
 ******************************************
 Gaussian 09:  ES64L-G09RevD.01 24-Apr-2013
                27-Jan-2020 
 ******************************************
 -----------------------------
 # b3lyp 6-31G(2df,p) opt Freq
 -----------------------------
 1/14=-1,18=20,19=15,26=3,38=1/1,3;
 2/9=110,12=2,17=6,18=5,40=1/2;
 3/5=1,6=6,7=104,11=2,16=1,25=1,30=1,71=1,74=-5/1,2,3;
 4//1;
 5/5=2,38=5/2;
 6/7=2,8=2,9=2,10=2,28=1/1;
 7//1,2,3,16;
 1/14=-1,18=20,19=15,26=3/3(2);
 2/9=110/2;
 99//99;
 2/9=110/2;
 3/5=1,6=6,7=104,11=2,16=1,25=1,30=1,71=1,74=-5/1,2,3;
 4/5=5,16=3,69=1/1;
 5/5=2,38=5/2;
 7//1,2,3,16;
 1/14=-1,18=20,19=15,26=3/3(-5);
 2/9=110/2;
 6/7=2,8=2,9=2,10=2,19=2,28=1/1;
 99/9=1/99;
 -----
 titel
 -----
 Symbolic Z-matrix:
 Charge =  0 Multiplicity = 1
 C                     6.37479  -0.72762  -2.71672 
 C                     4.84722  -0.68315  -2.77592 
 O                     4.38012  -0.18492  -1.53782 
 C                     2.99341  -0.37753  -1.32455 
 C                     2.65769   0.20807   0.05057 
 C                     1.24935   0.04942   0.38539 
 C                     0.08295  -0.09559   0.63493 
 C                     4.4187    0.23462  -3.92017 
 O                     4.26081  -0.12083  -5.05765 
 H                     6.69024  -1.36287  -1.88547 
 H                     6.77721  -1.12808  -3.65034 
 H                     6.78163   0.27555  -2.55621 
 H                     4.44894  -1.68949  -2.97523 
 H                     2.39337   0.12071  -2.10115 
 H                     2.74329  -1.44877  -1.35315 
 H                     3.28741  -0.28336   0.80162 
 H                     2.93491   1.26883   0.05758 
 H                    -0.94585  -0.21687   0.86798 
 H                     4.29885   1.29832  -3.60472 
 

 GradGradGradGradGradGradGradGradGradGradGradGradGradGradGradGradGradGrad
 Berny optimization.
 Initialization pass.
                           ----------------------------
                           !    Initial Parameters    !
                           ! (Angstroms and Degrees)  !
 --------------------------                            --------------------------
 ! Name  Definition              Value          Derivative Info.                !
 --------------------------------------------------------------------------------
 ! R1    R(1,2)                  1.5294         estimate D2E/DX2                !
 ! R2    R(1,10)                 1.0927         estimate D2E/DX2                !
 ! R3    R(1,11)                 1.0927         estimate D2E/DX2                !
 ! R4    R(1,12)                 1.0944         estimate D2E/DX2                !
 ! R5    R(2,3)                  1.414          estimate D2E/DX2                !
 ! R6    R(2,8)                  1.5282         estimate D2E/DX2                !
 ! R7    R(2,13)                 1.1005         estimate D2E/DX2                !
 ! R8    R(3,4)                  1.4162         estimate D2E/DX2                !
 ! R9    R(4,5)                  1.5319         estimate D2E/DX2                !
 ! R10   R(4,14)                 1.1006         estimate D2E/DX2                !
 ! R11   R(4,15)                 1.1004         estimate D2E/DX2                !
 ! R12   R(5,6)                  1.4563         estimate D2E/DX2                !
 ! R13   R(5,16)                 1.0964         estimate D2E/DX2                !
 ! R14   R(5,17)                 1.0964         estimate D2E/DX2                !
 ! R15   R(6,7)                  1.2016         estimate D2E/DX2                !
 ! R16   R(7,18)                 1.0618         estimate D2E/DX2                !
 ! R17   R(8,9)                  1.2021         estimate D2E/DX2                !
 ! R18   R(8,19)                 1.1159         estimate D2E/DX2                !
 ! A1    A(2,1,10)             109.554          estimate D2E/DX2                !
 ! A2    A(2,1,11)             110.2082         estimate D2E/DX2                !
 ! A3    A(2,1,12)             110.5085         estimate D2E/DX2                !
 ! A4    A(10,1,11)            109.3053         estimate D2E/DX2                !
 ! A5    A(10,1,12)            108.3013         estimate D2E/DX2                !
 ! A6    A(11,1,12)            108.9267         estimate D2E/DX2                !
 ! A7    A(1,2,3)              107.8371         estimate D2E/DX2                !
 ! A8    A(1,2,8)              109.0584         estimate D2E/DX2                !
 ! A9    A(1,2,13)             109.9935         estimate D2E/DX2                !
 ! A10   A(3,2,8)              110.5723         estimate D2E/DX2                !
 ! A11   A(3,2,13)             111.1772         estimate D2E/DX2                !
 ! A12   A(8,2,13)             108.1854         estimate D2E/DX2                !
 ! A13   A(2,3,4)              114.0422         estimate D2E/DX2                !
 ! A14   A(3,4,5)              107.3247         estimate D2E/DX2                !
 ! A15   A(3,4,14)             111.4695         estimate D2E/DX2                !
 ! A16   A(3,4,15)             110.552          estimate D2E/DX2                !
 ! A17   A(5,4,14)             109.9294         estimate D2E/DX2                !
 ! A18   A(5,4,15)             110.222          estimate D2E/DX2                !
 ! A19   A(14,4,15)            107.3632         estimate D2E/DX2                !
 ! A20   A(4,5,6)              112.1289         estimate D2E/DX2                !
 ! A21   A(4,5,16)             108.524          estimate D2E/DX2                !
 ! A22   A(4,5,17)             108.6741         estimate D2E/DX2                !
 ! A23   A(6,5,16)             110.4331         estimate D2E/DX2                !
 ! A24   A(6,5,17)             110.3927         estimate D2E/DX2                !
 ! A25   A(16,5,17)            106.5017         estimate D2E/DX2                !
 ! A26   A(2,8,9)              124.5941         estimate D2E/DX2                !
 ! A27   A(2,8,19)             113.0113         estimate D2E/DX2                !
 ! A28   A(9,8,19)             122.3579         estimate D2E/DX2                !
 ! A29   L(5,6,7,15,-1)        178.6648         estimate D2E/DX2                !
 ! A30   L(6,7,18,9,-1)        180.7275         estimate D2E/DX2                !
 ! A31   L(5,6,7,15,-2)        180.728          estimate D2E/DX2                !
 ! A32   L(6,7,18,9,-2)        180.413          estimate D2E/DX2                !
 ! D1    D(10,1,2,3)            58.522          estimate D2E/DX2                !
 ! D2    D(10,1,2,8)           178.6347         estimate D2E/DX2                !
 ! D3    D(10,1,2,13)          -62.8714         estimate D2E/DX2                !
 ! D4    D(11,1,2,3)           178.8259         estimate D2E/DX2                !
 ! D5    D(11,1,2,8)           -61.0613         estimate D2E/DX2                !
 ! D6    D(11,1,2,13)           57.4326         estimate D2E/DX2                !
 ! D7    D(12,1,2,3)           -60.7292         estimate D2E/DX2                !
 ! D8    D(12,1,2,8)            59.3836         estimate D2E/DX2                !
 ! D9    D(12,1,2,13)          177.8774         estimate D2E/DX2                !
 ! D10   D(1,2,3,4)           -165.985          estimate D2E/DX2                !
 ! D11   D(8,2,3,4)             74.8612         estimate D2E/DX2                !
 ! D12   D(13,2,3,4)           -45.3308         estimate D2E/DX2                !
 ! D13   D(1,2,8,9)             88.0725         estimate D2E/DX2                !
 ! D14   D(1,2,8,19)           -89.7629         estimate D2E/DX2                !
 ! D15   D(3,2,8,9)           -153.5152         estimate D2E/DX2                !
 ! D16   D(3,2,8,19)            28.6493         estimate D2E/DX2                !
 ! D17   D(13,2,8,9)           -31.5476         estimate D2E/DX2                !
 ! D18   D(13,2,8,19)          150.617          estimate D2E/DX2                !
 ! D19   D(2,3,4,5)            179.7645         estimate D2E/DX2                !
 ! D20   D(2,3,4,14)           -59.8132         estimate D2E/DX2                !
 ! D21   D(2,3,4,15)            59.5227         estimate D2E/DX2                !
 ! D22   D(3,4,5,6)           -179.2658         estimate D2E/DX2                !
 ! D23   D(3,4,5,16)           -57.0088         estimate D2E/DX2                !
 ! D24   D(3,4,5,17)            58.4241         estimate D2E/DX2                !
 ! D25   D(14,4,5,6)            59.3399         estimate D2E/DX2                !
 ! D26   D(14,4,5,16)         -178.4031         estimate D2E/DX2                !
 ! D27   D(14,4,5,17)          -62.9702         estimate D2E/DX2                !
 ! D28   D(15,4,5,6)           -58.8145         estimate D2E/DX2                !
 ! D29   D(15,4,5,16)           63.4425         estimate D2E/DX2                !
 ! D30   D(15,4,5,17)          178.8754         estimate D2E/DX2                !
 --------------------------------------------------------------------------------
 Trust Radius=3.00D-01 FncErr=1.00D-07 GrdErr=1.00D-06
 Number of steps in this run=     90 maximum allowed number of steps=    114.
 GradGradGradGradGradGradGradGradGradGradGradGradGradGradGradGradGradGrad

                          Input orientation:                          
 ---------------------------------------------------------------------
 Center     Atomic      Atomic             Coordinates (Angstroms)
 Number     Number       Type             X           Y           Z
 ---------------------------------------------------------------------
      1          6           0        6.374792   -0.727620   -2.716718
      2          6           0        4.847220   -0.683153   -2.775915
      3          8           0        4.380118   -0.184915   -1.537817
      4          6           0        2.993410   -0.377533   -1.324553
      5          6           0        2.657690    0.208074    0.050566
      6          6           0        1.249354    0.049424    0.385385
      7          6           0        0.082953   -0.095588    0.634933
      8          6           0        4.418703    0.234622   -3.920170
      9          8           0        4.260806   -0.120827   -5.057648
     10          1           0        6.690244   -1.362873   -1.885469
     11          1           0        6.777207   -1.128080   -3.650340
     12          1           0        6.781630    0.275552   -2.556210
     13          1           0        4.448937   -1.689488   -2.975232
     14          1           0        2.393371    0.120705   -2.101152
     15          1           0        2.743292   -1.448767   -1.353147
     16          1           0        3.287405   -0.283358    0.801623
     17          1           0        2.934907    1.268829    0.057580
     18          1           0       -0.945853   -0.216873    0.867984
     19          1           0        4.298852    1.298322   -3.604717
 ---------------------------------------------------------------------
                    Distance matrix (angstroms):
                    1          2          3          4          5
     1  C    0.000000
     2  C    1.529365   0.000000
     3  O    2.379718   1.413971   0.000000
     4  C    3.673476   2.374125   1.416172   0.000000
     5  C    4.727603   3.684742   2.375744   1.531860   0.000000
     6  C    6.041271   4.845114   3.681753   2.479498   1.456257
     7  C    7.156833   5.888748   4.816061   3.519920   2.657624
     8  C    2.490079   1.528154   2.419319   3.023809   4.343802
     9  O    3.212022   2.422064   3.522436   3.950720   5.363955
    10  H    1.092717   2.156769   2.616319   3.866794   4.741054
    11  H    1.092683   2.165047   3.331418   4.504412   5.696704
    12  H    1.094365   2.170099   2.648852   4.036596   4.879213
    13  H    2.168165   1.100485   2.081980   2.562134   3.995593
    14  H    4.117073   2.668870   2.087561   1.100633   2.169652
    15  H    3.945526   2.652725   2.076205   1.100418   2.173215
    16  H    4.701919   3.923218   2.583929   2.148470   1.096418
    17  H    4.849262   3.936479   2.597556   2.150400   1.096403
    18  H    8.167177   6.859673   5.844216   4.511188   3.719445
    19  H    3.033564   2.216723   2.545323   3.116378   4.152487
                    6          7          8          9         10
     6  C    0.000000
     7  C    1.201580   0.000000
     8  C    5.349474   6.297358   0.000000
     9  O    6.222897   7.061201   1.202137   0.000000
    10  H    6.062561   7.184339   3.442658   4.184204   0.000000
    11  H    6.944836   8.015150   2.737208   3.054070   1.782543
    12  H    6.269785   7.429227   2.728641   3.573354   1.772761
    13  H    4.955290   5.885204   2.143834   2.613914   2.513507
    14  H    2.738015   3.587614   2.724660   3.505213   4.550894
    15  H    2.738416   3.586218   3.497200   4.217772   3.983613
    16  H    2.106573   3.214274   4.882977   5.941799   4.468235
    17  H    2.106061   3.213816   4.369637   5.463946   4.980346
    18  H    2.263349   1.061821   7.204771   7.888703   8.197852
    19  H    5.174949   6.139334   1.115944   2.031364   3.969448
                   11         12         13         14         15
    11  H    0.000000
    12  H    1.779698   0.000000
    13  H    2.488331   3.078705   0.000000
    14  H    4.814298   4.414507   2.875094   0.000000
    15  H    4.653215   4.552891   2.366079   1.773471   0.000000
    16  H    5.719462   4.878220   4.194161   3.064093   2.509437
    17  H    5.852957   4.755605   4.499097   2.504311   3.067930
    18  H    8.993953   8.466498   6.785474   4.481087   4.478925
    19  H    3.468681   2.882639   3.057088   2.697841   3.877606
                   16         17         18         19
    16  H    0.000000
    17  H    1.757026   0.000000
    18  H    4.234300   4.233717   0.000000
    19  H    4.789631   3.908150   7.057464   0.000000
 Stoichiometry    C7H10O2
 Framework group  C1[X(C7H10O2)]
 Deg. of freedom    51
 Full point group                 C1      NOp   1
 Largest Abelian subgroup         C1      NOp   1
 Largest concise Abelian subgroup C1      NOp   1
                         Standard orientation:                         
 ---------------------------------------------------------------------
 Center     Atomic      Atomic             Coordinates (Angstroms)
 Number     Number       Type             X           Y           Z
 ---------------------------------------------------------------------
      1          6           0        2.598229   -1.400539   -0.138434
      2          6           0        1.554072   -0.301878   -0.342485
      3          8           0        0.323935   -0.772551    0.171854
      4          6           0       -0.798072   -0.003157   -0.221433
      5          6           0       -2.036398   -0.646259    0.410678
      6          6           0       -3.261131    0.057765    0.057035
      7          6           0       -4.255176    0.658179   -0.251461
      8          6           0        2.001159    0.955822    0.401532
      9          8           0        2.709135    1.808700   -0.063765
     10          1           0        2.274563   -2.311761   -0.647299
     11          1           0        3.562866   -1.084250   -0.542654
     12          1           0        2.715805   -1.624768    0.926241
     13          1           0        1.470018   -0.056619   -1.411994
     14          1           0       -0.706670    1.041875    0.111655
     15          1           0       -0.893277    0.008709   -1.317660
     16          1           0       -2.089201   -1.692474    0.086980
     17          1           0       -1.906205   -0.663245    1.499191
     18          1           0       -5.141437    1.179728   -0.516022
     19          1           0        1.632874    0.994022    1.454260
 ---------------------------------------------------------------------
 Rotational constants (GHZ):      3.5874833      0.6618492      0.5813165
 Standard basis: 6-31G(2df,p) (6D, 7F)
 There are   329 symmetry adapted cartesian basis functions of A   symmetry.
 There are   302 symmetry adapted basis functions of A   symmetry.
   302 basis functions,   466 primitive gaussians,   329 cartesian basis functions
    34 alpha electrons       34 beta electrons
       nuclear repulsion energy       414.1548733453 Hartrees.
 NAtoms=   19 NActive=   19 NUniq=   19 SFac= 1.00D+00 NAtFMM=   60 NAOKFM=F Big=F
 Integral buffers will be    131072 words long.
 Raffenetti 2 integral format.
 Two-electron integral symmetry is turned on.
 One-electron integrals computed using PRISM.
 NBasis=   302 RedAO= T EigKep=  1.64D-04  NBF=   302
 NBsUse=   302 1.00D-06 EigRej= -1.00D+00 NBFU=   302
 ExpMin= 1.61D-01 ExpMax= 5.48D+03 ExpMxC= 8.25D+02 IAcc=1 IRadAn=         1 AccDes= 0.00D+00
 Harris functional with IExCor=  402 and IRadAn=       1 diagonalized for initial guess.
 HarFok:  IExCor=  402 AccDes= 0.00D+00 IRadAn=         1 IDoV= 1 UseB2=F ITyADJ=14
 ICtDFT=  3500011 ScaDFX=  1.000000  1.000000  1.000000  1.000000
 FoFCou: FMM=F IPFlag=           0 FMFlag=      100000 FMFlg1=           0
         NFxFlg=           0 DoJE=T BraDBF=F KetDBF=T FulRan=T
         wScrn=  0.000000 ICntrl=     500 IOpCl=  0 I1Cent=   200000004 NGrid=           0
         NMat0=    1 NMatS0=      1 NMatT0=    0 NMatD0=    1 NMtDS0=    0 NMtDT0=    0
 Petite list used in FoFCou.
 Requested convergence on RMS density matrix=1.00D-08 within 128 cycles.
 Requested convergence on MAX density matrix=1.00D-06.
 Requested convergence on             energy=1.00D-06.
 No special actions if energy rises.
 Integral accuracy reduced to 1.0D-05 until final iterations.
 Initial convergence to 1.0D-05 achieved.  Increase integral accuracy.
 SCF Done:  E(RB3LYP) =  -423.147875870     A.U. after   14 cycles
            NFock= 14  Conv=0.74D-08     -V/T= 2.0075

 **********************************************************************

            Population analysis using the SCF density.

 **********************************************************************

 Orbital symmetries:
       Occupied  (A) (A) (A) (A) (A) (A) (A) (A) (A) (A) (A) (A)
                 (A) (A) (A) (A) (A) (A) (A) (A) (A) (A) (A) (A)
                 (A) (A) (A) (A) (A) (A) (A) (A) (A) (A)
       Virtual   (A) (A) (A) (A) (A) (A) (A) (A) (A) (A) (A) (A)
                 (A) (A) (A) (A) (A) (A) (A) (A) (A) (A) (A) (A)
                 (A) (A) (A) (A) (A) (A) (A) (A) (A) (A) (A) (A)
                 (A) (A) (A) (A) (A) (A) (A) (A) (A) (A) (A) (A)
                 (A) (A) (A) (A) (A) (A) (A) (A) (A) (A) (A) (A)
                 (A) (A) (A) (A) (A) (A) (A) (A) (A) (A) (A) (A)
                 (A) (A) (A) (A) (A) (A) (A) (A) (A) (A) (A) (A)
                 (A) (A) (A) (A) (A) (A) (A) (A) (A) (A) (A) (A)
                 (A) (A) (A) (A) (A) (A) (A) (A) (A) (A) (A) (A)
                 (A) (A) (A) (A) (A) (A) (A) (A) (A) (A) (A) (A)
                 (A) (A) (A) (A) (A) (A) (A) (A) (A) (A) (A) (A)
                 (A) (A) (A) (A) (A) (A) (A) (A) (A) (A) (A) (A)
                 (A) (A) (A) (A) (A) (A) (A) (A) (A) (A) (A) (A)
                 (A) (A) (A) (A) (A) (A) (A) (A) (A) (A) (A) (A)
                 (A) (A) (A) (A) (A) (A) (A) (A) (A) (A) (A) (A)
                 (A) (A) (A) (A) (A) (A) (A) (A) (A) (A) (A) (A)
                 (A) (A) (A) (A) (A) (A) (A) (A) (A) (A) (A) (A)
                 (A) (A) (A) (A) (A) (A) (A) (A) (A) (A) (A) (A)
                 (A) (A) (A) (A) (A) (A) (A) (A) (A) (A) (A) (A)
                 (A) (A) (A) (A) (A) (A) (A) (A) (A) (A) (A) (A)
                 (A) (A) (A) (A) (A) (A) (A) (A) (A) (A) (A) (A)
                 (A) (A) (A) (A) (A) (A) (A) (A) (A) (A) (A) (A)
                 (A) (A) (A) (A)
 The electronic state is 1-A.
 Alpha  occ. eigenvalues --  -19.15885 -19.14879 -10.27478 -10.24994 -10.24630
 Alpha  occ. eigenvalues --  -10.21572 -10.19349 -10.18697 -10.17616  -1.06064
 Alpha  occ. eigenvalues --   -1.04818  -0.81530  -0.77478  -0.72021  -0.66367
 Alpha  occ. eigenvalues --   -0.64199  -0.58324  -0.53754  -0.51774  -0.49476
 Alpha  occ. eigenvalues --   -0.47199  -0.45951  -0.44927  -0.43589  -0.41419
 Alpha  occ. eigenvalues --   -0.40062  -0.39064  -0.38115  -0.36816  -0.33703
 Alpha  occ. eigenvalues --   -0.29241  -0.27124  -0.26935  -0.24811
 Alpha virt. eigenvalues --   -0.03359   0.04776   0.05368   0.08932   0.10629
 Alpha virt. eigenvalues --    0.11776   0.12589   0.13334   0.14897   0.15189
 Alpha virt. eigenvalues --    0.15570   0.16950   0.17377   0.19512   0.20538
 Alpha virt. eigenvalues --    0.21159   0.24259   0.27204   0.28980   0.29187
 Alpha virt. eigenvalues --    0.37398   0.41498   0.43674   0.45423   0.45961
 Alpha virt. eigenvalues --    0.48679   0.49059   0.50121   0.51777   0.52852
 Alpha virt. eigenvalues --    0.53824   0.55624   0.56899   0.58658   0.60748
 Alpha virt. eigenvalues --    0.61355   0.64039   0.66366   0.66881   0.67868
 Alpha virt. eigenvalues --    0.69187   0.69238   0.71250   0.72076   0.73160
 Alpha virt. eigenvalues --    0.73346   0.74009   0.75156   0.75853   0.76375
 Alpha virt. eigenvalues --    0.77126   0.79901   0.81159   0.81599   0.82887
 Alpha virt. eigenvalues --    0.84214   0.86156   0.86557   0.90375   0.92054
 Alpha virt. eigenvalues --    0.95063   0.95750   0.97086   0.99040   1.02932
 Alpha virt. eigenvalues --    1.04767   1.06934   1.07265   1.09277   1.10412
 Alpha virt. eigenvalues --    1.12567   1.16456   1.17296   1.18070   1.21611
 Alpha virt. eigenvalues --    1.22128   1.23029   1.26712   1.29201   1.31249
 Alpha virt. eigenvalues --    1.33861   1.35620   1.38909   1.39442   1.43102
 Alpha virt. eigenvalues --    1.47238   1.49271   1.50218   1.51749   1.52349
 Alpha virt. eigenvalues --    1.55078   1.55383   1.55550   1.60992   1.61829
 Alpha virt. eigenvalues --    1.65378   1.67582   1.68363   1.70930   1.75481
 Alpha virt. eigenvalues --    1.77800   1.80010   1.82924   1.84525   1.87704
 Alpha virt. eigenvalues --    1.90639   1.93673   1.94468   1.97150   2.02192
 Alpha virt. eigenvalues --    2.09165   2.14555   2.18813   2.25027   2.27693
 Alpha virt. eigenvalues --    2.30436   2.32088   2.34343   2.38268   2.41964
 Alpha virt. eigenvalues --    2.43994   2.46256   2.52296   2.54249   2.55450
 Alpha virt. eigenvalues --    2.56529   2.61430   2.66418   2.66596   2.68368
 Alpha virt. eigenvalues --    2.68741   2.69117   2.73466   2.74046   2.74214
 Alpha virt. eigenvalues --    2.77531   2.80732   2.81745   2.84260   2.86207
 Alpha virt. eigenvalues --    2.88641   2.89989   2.91386   2.92333   2.94199
 Alpha virt. eigenvalues --    2.95868   2.96825   3.00074   3.04784   3.06201
 Alpha virt. eigenvalues --    3.07479   3.08516   3.11157   3.13614   3.17936
 Alpha virt. eigenvalues --    3.20971   3.22027   3.22906   3.24022   3.28615
 Alpha virt. eigenvalues --    3.32099   3.35768   3.37799   3.38916   3.41259
 Alpha virt. eigenvalues --    3.42473   3.46487   3.47665   3.50758   3.53504
 Alpha virt. eigenvalues --    3.55745   3.56524   3.59002   3.61978   3.63695
 Alpha virt. eigenvalues --    3.66123   3.66894   3.68984   3.73448   3.74964
 Alpha virt. eigenvalues --    3.81035   3.82799   3.88347   3.89191   3.93363
 Alpha virt. eigenvalues --    3.95619   3.98312   4.06611   4.07751   4.12006
 Alpha virt. eigenvalues --    4.12395   4.18503   4.20799   4.22376   4.25429
 Alpha virt. eigenvalues --    4.29627   4.31304   4.34307   4.35008   4.36663
 Alpha virt. eigenvalues --    4.38886   4.41750   4.43561   4.46676   4.47106
 Alpha virt. eigenvalues --    4.47797   4.50838   4.52181   4.54707   4.55049
 Alpha virt. eigenvalues --    4.57978   4.59190   4.59903   4.62861   4.63959
 Alpha virt. eigenvalues --    4.65761   4.68094   4.69951   4.71523   4.73698
 Alpha virt. eigenvalues --    4.77723   4.79967   4.82371   4.83486   4.85553
 Alpha virt. eigenvalues --    4.86558   4.88703   4.92161   4.94122   4.99448
 Alpha virt. eigenvalues --    5.03136   5.05775   5.07452   5.10487   5.15160
 Alpha virt. eigenvalues --    5.20017   5.26797   5.27918   5.31148   5.31569
 Alpha virt. eigenvalues --    5.35874   5.42649   5.50128   5.52548   5.55981
 Alpha virt. eigenvalues --    5.59941   5.70593   5.88769   5.93367   5.99724
 Alpha virt. eigenvalues --    6.03468   6.13226   6.17130   6.23113   6.27077
 Alpha virt. eigenvalues --    6.47702   6.76166   6.80726   7.15877   9.65756
 Alpha virt. eigenvalues --   10.90272  10.93407  11.60988  11.61714  12.11410
 Alpha virt. eigenvalues --   12.27885  12.94144  13.58909
          Condensed to atoms (all electrons):
               1          2          3          4          5          6
     1  C    5.002904   0.374964  -0.023781   0.004619  -0.000316   0.000001
     2  C    0.374964   4.997576   0.304654  -0.080297   0.003989  -0.000223
     3  O   -0.023781   0.304654   7.743083   0.342981  -0.024877   0.002703
     4  C    0.004619  -0.080297   0.342981   4.793891   0.411883  -0.050927
     5  C   -0.000316   0.003989  -0.024877   0.411883   5.102319   0.321298
     6  C    0.000001  -0.000223   0.002703  -0.050927   0.321298   4.527662
     7  C    0.000000  -0.000003  -0.000024  -0.001375  -0.086223   0.923600
     8  C   -0.021512   0.268369  -0.027954   0.000034   0.000097  -0.000004
     9  O   -0.001188  -0.055362   0.001683  -0.000105   0.000001   0.000000
    10  H    0.370126  -0.015595   0.001167   0.000122  -0.000001   0.000001
    11  H    0.367784  -0.025325   0.002263  -0.000184   0.000003   0.000000
    12  H    0.371197  -0.026238   0.000699  -0.000038   0.000028   0.000001
    13  H   -0.035395   0.326132  -0.030543  -0.005649   0.000160   0.000117
    14  H    0.000000  -0.000900  -0.031194   0.353614  -0.039361   0.007973
    15  H    0.000428  -0.006858  -0.027704   0.354716  -0.039169   0.007939
    16  H    0.000005   0.000198   0.003517  -0.030392   0.349846  -0.013978
    17  H    0.000010   0.000181   0.003255  -0.030260   0.349679  -0.014257
    18  H    0.000000   0.000000   0.000000   0.000050   0.000421   0.003556
    19  H    0.001714  -0.118437   0.013566   0.002707  -0.000188   0.000020
               7          8          9         10         11         12
     1  C    0.000000  -0.021512  -0.001188   0.370126   0.367784   0.371197
     2  C   -0.000003   0.268369  -0.055362  -0.015595  -0.025325  -0.026238
     3  O   -0.000024  -0.027954   0.001683   0.001167   0.002263   0.000699
     4  C   -0.001375   0.000034  -0.000105   0.000122  -0.000184  -0.000038
     5  C   -0.086223   0.000097   0.000001  -0.000001   0.000003   0.000028
     6  C    0.923600  -0.000004   0.000000   0.000001   0.000000   0.000001
     7  C    5.231604   0.000000   0.000000   0.000000   0.000000   0.000000
     8  C    0.000000   4.608965   0.735849   0.002917   0.003811  -0.005827
     9  O    0.000000   0.735849   7.600939  -0.000014   0.001665   0.000120
    10  H    0.000000   0.002917  -0.000014   0.570779  -0.026912  -0.031552
    11  H    0.000000   0.003811   0.001665  -0.026912   0.563581  -0.027311
    12  H    0.000000  -0.005827   0.000120  -0.031552  -0.027311   0.577019
    13  H    0.000005  -0.039035   0.003385  -0.005113   0.000416   0.006023
    14  H    0.003037   0.008830  -0.000597   0.000028   0.000012  -0.000014
    15  H    0.003177  -0.001812   0.000074  -0.000077   0.000002   0.000035
    16  H   -0.000309   0.000013   0.000000   0.000017   0.000000  -0.000001
    17  H   -0.000333  -0.000072   0.000000  -0.000002   0.000000   0.000005
    18  H    0.369863   0.000000   0.000000   0.000000   0.000000   0.000000
    19  H    0.000001   0.331867  -0.049066  -0.000390   0.000726   0.003832
              13         14         15         16         17         18
     1  C   -0.035395   0.000000   0.000428   0.000005   0.000010   0.000000
     2  C    0.326132  -0.000900  -0.006858   0.000198   0.000181   0.000000
     3  O   -0.030543  -0.031194  -0.027704   0.003517   0.003255   0.000000
     4  C   -0.005649   0.353614   0.354716  -0.030392  -0.030260   0.000050
     5  C    0.000160  -0.039361  -0.039169   0.349846   0.349679   0.000421
     6  C    0.000117   0.007973   0.007939  -0.013978  -0.014257   0.003556
     7  C    0.000005   0.003037   0.003177  -0.000309  -0.000333   0.369863
     8  C   -0.039035   0.008830  -0.001812   0.000013  -0.000072   0.000000
     9  O    0.003385  -0.000597   0.000074   0.000000   0.000000   0.000000
    10  H   -0.005113   0.000028  -0.000077   0.000017  -0.000002   0.000000
    11  H    0.000416   0.000012   0.000002   0.000000   0.000000   0.000000
    12  H    0.006023  -0.000014   0.000035  -0.000001   0.000005   0.000000
    13  H    0.666462  -0.002160   0.013827  -0.000046   0.000054   0.000000
    14  H   -0.002160   0.649699  -0.057043   0.006284  -0.007161   0.000017
    15  H    0.013827  -0.057043   0.643003  -0.007047   0.006207   0.000018
    16  H   -0.000046   0.006284  -0.007047   0.588556  -0.039071  -0.000042
    17  H    0.000054  -0.007161   0.006207  -0.039071   0.590136  -0.000042
    18  H    0.000000   0.000017   0.000018  -0.000042  -0.000042   0.426796
    19  H    0.008049  -0.001232   0.000413  -0.000010   0.000170   0.000000
              19
     1  C    0.001714
     2  C   -0.118437
     3  O    0.013566
     4  C    0.002707
     5  C   -0.000188
     6  C    0.000020
     7  C    0.000001
     8  C    0.331867
     9  O   -0.049066
    10  H   -0.000390
    11  H    0.000726
    12  H    0.003832
    13  H    0.008049
    14  H   -0.001232
    15  H    0.000413
    16  H   -0.000010
    17  H    0.000170
    18  H    0.000000
    19  H    0.721653
 Mulliken charges:
               1
     1  C   -0.411560
     2  C    0.053174
     3  O   -0.253494
     4  C   -0.065388
     5  C   -0.349588
     6  C    0.284519
     7  C   -0.443018
     8  C    0.135466
     9  O   -0.237382
    10  H    0.134499
    11  H    0.139470
    12  H    0.132024
    13  H    0.093312
    14  H    0.110167
    15  H    0.109871
    16  H    0.142460
    17  H    0.141500
    18  H    0.199363
    19  H    0.084605
 Sum of Mulliken charges =   0.00000
 Mulliken charges with hydrogens summed into heavy atoms:
               1
     1  C   -0.005568
     2  C    0.146487
     3  O   -0.253494
     4  C    0.154650
     5  C   -0.065628
     6  C    0.284519
     7  C   -0.243655
     8  C    0.220072
     9  O   -0.237382
 Electronic spatial extent (au):  <R**2>=           1868.7467
 Charge=              0.0000 electrons
 Dipole moment (field-independent basis, Debye):
    X=             -0.7947    Y=             -1.4997    Z=              0.0056  Tot=              1.6972
 Quadrupole moment (field-independent basis, Debye-Ang):
   XX=            -55.2887   YY=            -57.0728   ZZ=            -52.1981
   XY=             -8.2149   XZ=              1.6545   YZ=              0.7948
 Traceless Quadrupole moment (field-independent basis, Debye-Ang):
   XX=             -0.4355   YY=             -2.2196   ZZ=              2.6551
   XY=             -8.2149   XZ=              1.6545   YZ=              0.7948
 Octapole moment (field-independent basis, Debye-Ang**2):
  XXX=            -18.0123  YYY=             -7.9896  ZZZ=              2.0268  XYY=            -10.8788
  XXY=             -5.6084  XXZ=             -5.2321  XZZ=              8.6737  YZZ=              0.4109
  YYZ=             -0.3752  XYZ=              5.3888
 Hexadecapole moment (field-independent basis, Debye-Ang**3):
 XXXX=          -1845.3287 YYYY=           -371.8959 ZZZZ=           -110.0979 XXXY=           -148.0022
 XXXZ=             55.1863 YYYX=            -11.3878 YYYZ=              1.3863 ZZZX=             -2.4827
 ZZZY=             -1.4907 XXYY=           -410.5263 XXZZ=           -357.5707 YYZZ=            -78.3780
 XXYZ=            -13.0318 YYXZ=              4.3674 ZZXY=              6.0018
 N-N= 4.141548733453D+02 E-N=-1.814584504134D+03  KE= 4.200122953511D+02
 Calling FoFJK, ICntrl=      2127 FMM=F ISym2X=0 I1Cent= 0 IOpClX= 0 NMat=1 NMatS=1 NMatT=0.
 ***** Axes restored to original set *****
 -------------------------------------------------------------------
 Center     Atomic                   Forces (Hartrees/Bohr)
 Number     Number              X              Y              Z
 -------------------------------------------------------------------
      1        6          -0.000025394    0.000006258    0.000010406
      2        6           0.000022503   -0.000003494    0.000005631
      3        8          -0.000022783   -0.000004180   -0.000008764
      4        6           0.000026636    0.000011023    0.000005168
      5        6           0.000004099   -0.000001162   -0.000009970
      6        6          -0.000005026   -0.000001098    0.000005111
      7        6          -0.000019306   -0.000001095   -0.000003337
      8        6          -0.000009828    0.000010671   -0.000025185
      9        8           0.000002268    0.000004875    0.000018367
     10        1           0.000000977   -0.000003262    0.000000793
     11        1           0.000004919   -0.000003081   -0.000002406
     12        1           0.000006217   -0.000002731    0.000000011
     13        1           0.000001447   -0.000009193    0.000000252
     14        1          -0.000003820    0.000001706   -0.000004243
     15        1          -0.000003765   -0.000004670    0.000000805
     16        1          -0.000000073   -0.000000909    0.000004858
     17        1          -0.000000078    0.000003939    0.000002444
     18        1           0.000017149    0.000003900   -0.000004083
     19        1           0.000003860   -0.000007495    0.000004143
 -------------------------------------------------------------------
 Cartesian Forces:  Max     0.000026636 RMS     0.000009640

 GradGradGradGradGradGradGradGradGradGradGradGradGradGradGradGradGradGrad
 Berny optimization.
 FormGI is forming the generalized inverse of G from B-inverse, IUseBI=4.
 Internal  Forces:  Max     0.000020336 RMS     0.000005620
 Search for a local minimum.
 Step number   1 out of a maximum of   90
 All quantities printed in internal units (Hartrees-Bohrs-Radians)
 Mixed Optimization -- En-DIIS/RFO-DIIS
 Second derivative matrix not updated -- first step.
 ITU=  0
     Eigenvalues ---    0.00345   0.00378   0.00394   0.00398   0.00608
     Eigenvalues ---    0.00608   0.01478   0.01507   0.04713   0.04713
     Eigenvalues ---    0.05295   0.05350   0.05435   0.05649   0.05672
     Eigenvalues ---    0.05746   0.05897   0.06242   0.07523   0.11060
     Eigenvalues ---    0.13600   0.16000   0.16000   0.16000   0.16000
     Eigenvalues ---    0.16000   0.16000   0.16894   0.19836   0.21941
     Eigenvalues ---    0.22002   0.22392   0.25000   0.29252   0.29482
     Eigenvalues ---    0.29595   0.31979   0.33612   0.33629   0.33636
     Eigenvalues ---    0.34081   0.34083   0.34313   0.34501   0.34504
     Eigenvalues ---    0.37437   0.38283   0.43042   0.43381   1.03757
     Eigenvalues ---    1.04033
 RFO step:  Lambda=-1.29088930D-08 EMin= 3.44501384D-03
 Linear search not attempted -- first point.
 Iteration  1 RMS(Cart)=  0.00011460 RMS(Int)=  0.00000002
 Iteration  2 RMS(Cart)=  0.00000002 RMS(Int)=  0.00000000
 Variable       Old X    -DE/DX   Delta X   Delta X   Delta X     New X
                                 (Linear)    (Quad)   (Total)
    R1        2.89008  -0.00001   0.00000  -0.00005  -0.00005   2.89003
    R2        2.06494   0.00000   0.00000   0.00000   0.00000   2.06494
    R3        2.06487   0.00001   0.00000   0.00002   0.00002   2.06489
    R4        2.06805   0.00000   0.00000   0.00000   0.00000   2.06805
    R5        2.67202   0.00000   0.00000  -0.00001  -0.00001   2.67201
    R6        2.88779   0.00001   0.00000   0.00003   0.00003   2.88783
    R7        2.07962   0.00001   0.00000   0.00002   0.00002   2.07964
    R8        2.67618  -0.00002   0.00000  -0.00005  -0.00005   2.67613
    R9        2.89480   0.00000   0.00000   0.00000   0.00000   2.89479
   R10        2.07990   0.00001   0.00000   0.00002   0.00002   2.07991
   R11        2.07949   0.00001   0.00000   0.00002   0.00002   2.07951
   R12        2.75193   0.00001   0.00000   0.00001   0.00001   2.75194
   R13        2.07193   0.00000   0.00000   0.00001   0.00001   2.07194
   R14        2.07190   0.00000   0.00000   0.00001   0.00001   2.07191
   R15        2.27066   0.00000   0.00000   0.00000   0.00000   2.27066
   R16        2.00655  -0.00002   0.00000  -0.00005  -0.00005   2.00650
   R17        2.27171  -0.00002   0.00000  -0.00002  -0.00002   2.27169
   R18        2.10883  -0.00001   0.00000  -0.00002  -0.00002   2.10881
    A1        1.91208   0.00000   0.00000  -0.00001  -0.00001   1.91207
    A2        1.92350   0.00000   0.00000   0.00001   0.00001   1.92350
    A3        1.92874   0.00001   0.00000   0.00006   0.00006   1.92880
    A4        1.90774   0.00000   0.00000  -0.00003  -0.00003   1.90771
    A5        1.89021   0.00000   0.00000  -0.00001  -0.00001   1.89021
    A6        1.90113   0.00000   0.00000  -0.00003  -0.00003   1.90110
    A7        1.88211   0.00000   0.00000  -0.00003  -0.00003   1.88209
    A8        1.90343   0.00001   0.00000   0.00005   0.00005   1.90347
    A9        1.91975   0.00000   0.00000  -0.00002  -0.00002   1.91973
   A10        1.92985  -0.00001   0.00000  -0.00007  -0.00007   1.92978
   A11        1.94041   0.00000   0.00000   0.00002   0.00002   1.94043
   A12        1.88819   0.00000   0.00000   0.00005   0.00005   1.88824
   A13        1.99041   0.00001   0.00000   0.00004   0.00004   1.99046
   A14        1.87317   0.00001   0.00000   0.00003   0.00003   1.87320
   A15        1.94551   0.00000   0.00000   0.00001   0.00001   1.94552
   A16        1.92950   0.00000   0.00000   0.00001   0.00001   1.92950
   A17        1.91863   0.00000   0.00000  -0.00001  -0.00001   1.91862
   A18        1.92374   0.00000   0.00000  -0.00002  -0.00002   1.92371
   A19        1.87384   0.00000   0.00000  -0.00001  -0.00001   1.87383
   A20        1.95702  -0.00001   0.00000  -0.00003  -0.00003   1.95699
   A21        1.89410   0.00000   0.00000   0.00003   0.00003   1.89413
   A22        1.89672   0.00000   0.00000   0.00003   0.00003   1.89675
   A23        1.92742   0.00000   0.00000  -0.00001  -0.00001   1.92741
   A24        1.92672   0.00000   0.00000  -0.00001  -0.00001   1.92671
   A25        1.85880   0.00000   0.00000   0.00000   0.00000   1.85880
   A26        2.17458   0.00000   0.00000   0.00002   0.00002   2.17460
   A27        1.97242  -0.00001   0.00000  -0.00004  -0.00004   1.97237
   A28        2.13555   0.00000   0.00000   0.00003   0.00003   2.13558
   A29        3.11829   0.00000   0.00000  -0.00008  -0.00008   3.11820
   A30        3.15429   0.00000   0.00000   0.00057   0.00057   3.15486
   A31        3.15430   0.00000   0.00000   0.00008   0.00008   3.15438
   A32        3.14880   0.00000   0.00000  -0.00001  -0.00001   3.14879
    D1        1.02140   0.00000   0.00000   0.00005   0.00005   1.02146
    D2        3.11776   0.00000   0.00000  -0.00002  -0.00002   3.11774
    D3       -1.09731   0.00000   0.00000   0.00005   0.00005  -1.09726
    D4        3.12110   0.00000   0.00000   0.00002   0.00002   3.12112
    D5       -1.06572   0.00000   0.00000  -0.00006  -0.00006  -1.06578
    D6        1.00239   0.00000   0.00000   0.00002   0.00002   1.00240
    D7       -1.05992   0.00000   0.00000   0.00003   0.00003  -1.05990
    D8        1.03644   0.00000   0.00000  -0.00005  -0.00005   1.03639
    D9        3.10455   0.00000   0.00000   0.00003   0.00003   3.10457
   D10       -2.89698   0.00000   0.00000  -0.00001  -0.00001  -2.89699
   D11        1.30657   0.00000   0.00000   0.00000   0.00000   1.30657
   D12       -0.79117   0.00000   0.00000  -0.00003  -0.00003  -0.79120
   D13        1.53716   0.00000   0.00000   0.00028   0.00028   1.53743
   D14       -1.56666   0.00000   0.00000   0.00009   0.00009  -1.56657
   D15       -2.67935   0.00000   0.00000   0.00023   0.00023  -2.67911
   D16        0.50003   0.00000   0.00000   0.00004   0.00004   0.50007
   D17       -0.55061   0.00000   0.00000   0.00025   0.00025  -0.55036
   D18        2.62876   0.00000   0.00000   0.00006   0.00006   2.62882
   D19        3.13748   0.00000   0.00000   0.00006   0.00006   3.13754
   D20       -1.04394   0.00000   0.00000   0.00007   0.00007  -1.04386
   D21        1.03887   0.00000   0.00000   0.00006   0.00006   1.03893
   D22       -3.12878   0.00000   0.00000   0.00002   0.00002  -3.12876
   D23       -0.99499   0.00000   0.00000   0.00000   0.00000  -0.99499
   D24        1.01969   0.00000   0.00000   0.00002   0.00002   1.01971
   D25        1.03568   0.00000   0.00000  -0.00001  -0.00001   1.03567
   D26       -3.11372   0.00000   0.00000  -0.00003  -0.00003  -3.11375
   D27       -1.09904   0.00000   0.00000   0.00000   0.00000  -1.09904
   D28       -1.02651   0.00000   0.00000   0.00003   0.00003  -1.02648
   D29        1.10728   0.00000   0.00000   0.00001   0.00001   1.10729
   D30        3.12196   0.00000   0.00000   0.00004   0.00004   3.12200
         Item               Value     Threshold  Converged?
 Maximum Force            0.000020     0.000450     YES
 RMS     Force            0.000006     0.000300     YES
 Maximum Displacement     0.000496     0.001800     YES
 RMS     Displacement     0.000115     0.001200     YES
 Predicted change in Energy=-6.454485D-09
 Optimization completed.
    -- Stationary point found.
                           ----------------------------
                           !   Optimized Parameters   !
                           ! (Angstroms and Degrees)  !
 --------------------------                            --------------------------
 ! Name  Definition              Value          Derivative Info.                !
 --------------------------------------------------------------------------------
 ! R1    R(1,2)                  1.5294         -DE/DX =    0.0                 !
 ! R2    R(1,10)                 1.0927         -DE/DX =    0.0                 !
 ! R3    R(1,11)                 1.0927         -DE/DX =    0.0                 !
 ! R4    R(1,12)                 1.0944         -DE/DX =    0.0                 !
 ! R5    R(2,3)                  1.414          -DE/DX =    0.0                 !
 ! R6    R(2,8)                  1.5282         -DE/DX =    0.0                 !
 ! R7    R(2,13)                 1.1005         -DE/DX =    0.0                 !
 ! R8    R(3,4)                  1.4162         -DE/DX =    0.0                 !
 ! R9    R(4,5)                  1.5319         -DE/DX =    0.0                 !
 ! R10   R(4,14)                 1.1006         -DE/DX =    0.0                 !
 ! R11   R(4,15)                 1.1004         -DE/DX =    0.0                 !
 ! R12   R(5,6)                  1.4563         -DE/DX =    0.0                 !
 ! R13   R(5,16)                 1.0964         -DE/DX =    0.0                 !
 ! R14   R(5,17)                 1.0964         -DE/DX =    0.0                 !
 ! R15   R(6,7)                  1.2016         -DE/DX =    0.0                 !
 ! R16   R(7,18)                 1.0618         -DE/DX =    0.0                 !
 ! R17   R(8,9)                  1.2021         -DE/DX =    0.0                 !
 ! R18   R(8,19)                 1.1159         -DE/DX =    0.0                 !
 ! A1    A(2,1,10)             109.554          -DE/DX =    0.0                 !
 ! A2    A(2,1,11)             110.2082         -DE/DX =    0.0                 !
 ! A3    A(2,1,12)             110.5085         -DE/DX =    0.0                 !
 ! A4    A(10,1,11)            109.3053         -DE/DX =    0.0                 !
 ! A5    A(10,1,12)            108.3013         -DE/DX =    0.0                 !
 ! A6    A(11,1,12)            108.9267         -DE/DX =    0.0                 !
 ! A7    A(1,2,3)              107.8371         -DE/DX =    0.0                 !
 ! A8    A(1,2,8)              109.0584         -DE/DX =    0.0                 !
 ! A9    A(1,2,13)             109.9935         -DE/DX =    0.0                 !
 ! A10   A(3,2,8)              110.5723         -DE/DX =    0.0                 !
 ! A11   A(3,2,13)             111.1772         -DE/DX =    0.0                 !
 ! A12   A(8,2,13)             108.1854         -DE/DX =    0.0                 !
 ! A13   A(2,3,4)              114.0422         -DE/DX =    0.0                 !
 ! A14   A(3,4,5)              107.3247         -DE/DX =    0.0                 !
 ! A15   A(3,4,14)             111.4695         -DE/DX =    0.0                 !
 ! A16   A(3,4,15)             110.552          -DE/DX =    0.0                 !
 ! A17   A(5,4,14)             109.9294         -DE/DX =    0.0                 !
 ! A18   A(5,4,15)             110.222          -DE/DX =    0.0                 !
 ! A19   A(14,4,15)            107.3632         -DE/DX =    0.0                 !
 ! A20   A(4,5,6)              112.1289         -DE/DX =    0.0                 !
 ! A21   A(4,5,16)             108.524          -DE/DX =    0.0                 !
 ! A22   A(4,5,17)             108.6741         -DE/DX =    0.0                 !
 ! A23   A(6,5,16)             110.4331         -DE/DX =    0.0                 !
 ! A24   A(6,5,17)             110.3927         -DE/DX =    0.0                 !
 ! A25   A(16,5,17)            106.5017         -DE/DX =    0.0                 !
 ! A26   A(2,8,9)              124.5941         -DE/DX =    0.0                 !
 ! A27   A(2,8,19)             113.0113         -DE/DX =    0.0                 !
 ! A28   A(9,8,19)             122.3579         -DE/DX =    0.0                 !
 ! A29   L(5,6,7,15,-1)        178.6648         -DE/DX =    0.0                 !
 ! A30   L(6,7,18,9,-1)        180.7275         -DE/DX =    0.0                 !
 ! A31   L(5,6,7,15,-2)        180.728          -DE/DX =    0.0                 !
 ! A32   L(6,7,18,9,-2)        180.413          -DE/DX =    0.0                 !
 ! D1    D(10,1,2,3)            58.522          -DE/DX =    0.0                 !
 ! D2    D(10,1,2,8)           178.6347         -DE/DX =    0.0                 !
 ! D3    D(10,1,2,13)          -62.8714         -DE/DX =    0.0                 !
 ! D4    D(11,1,2,3)           178.8259         -DE/DX =    0.0                 !
 ! D5    D(11,1,2,8)           -61.0613         -DE/DX =    0.0                 !
 ! D6    D(11,1,2,13)           57.4326         -DE/DX =    0.0                 !
 ! D7    D(12,1,2,3)           -60.7292         -DE/DX =    0.0                 !
 ! D8    D(12,1,2,8)            59.3836         -DE/DX =    0.0                 !
 ! D9    D(12,1,2,13)          177.8774         -DE/DX =    0.0                 !
 ! D10   D(1,2,3,4)           -165.985          -DE/DX =    0.0                 !
 ! D11   D(8,2,3,4)             74.8612         -DE/DX =    0.0                 !
 ! D12   D(13,2,3,4)           -45.3308         -DE/DX =    0.0                 !
 ! D13   D(1,2,8,9)             88.0725         -DE/DX =    0.0                 !
 ! D14   D(1,2,8,19)           -89.7629         -DE/DX =    0.0                 !
 ! D15   D(3,2,8,9)           -153.5152         -DE/DX =    0.0                 !
 ! D16   D(3,2,8,19)            28.6493         -DE/DX =    0.0                 !
 ! D17   D(13,2,8,9)           -31.5476         -DE/DX =    0.0                 !
 ! D18   D(13,2,8,19)          150.617          -DE/DX =    0.0                 !
 ! D19   D(2,3,4,5)            179.7645         -DE/DX =    0.0                 !
 ! D20   D(2,3,4,14)           -59.8132         -DE/DX =    0.0                 !
 ! D21   D(2,3,4,15)            59.5227         -DE/DX =    0.0                 !
 ! D22   D(3,4,5,6)           -179.2658         -DE/DX =    0.0                 !
 ! D23   D(3,4,5,16)           -57.0088         -DE/DX =    0.0                 !
 ! D24   D(3,4,5,17)            58.4241         -DE/DX =    0.0                 !
 ! D25   D(14,4,5,6)            59.3399         -DE/DX =    0.0                 !
 ! D26   D(14,4,5,16)         -178.4031         -DE/DX =    0.0                 !
 ! D27   D(14,4,5,17)          -62.9702         -DE/DX =    0.0                 !
 ! D28   D(15,4,5,6)           -58.8145         -DE/DX =    0.0                 !
 ! D29   D(15,4,5,16)           63.4425         -DE/DX =    0.0                 !
 ! D30   D(15,4,5,17)          178.8754         -DE/DX =    0.0                 !
 --------------------------------------------------------------------------------
 GradGradGradGradGradGradGradGradGradGradGradGradGradGradGradGradGradGrad

                          Input orientation:                          
 ---------------------------------------------------------------------
 Center     Atomic      Atomic             Coordinates (Angstroms)
 Number     Number       Type             X           Y           Z
 ---------------------------------------------------------------------
      1          6           0        6.374792   -0.727620   -2.716718
      2          6           0        4.847220   -0.683153   -2.775915
      3          8           0        4.380118   -0.184915   -1.537817
      4          6           0        2.993410   -0.377533   -1.324553
      5          6           0        2.657690    0.208074    0.050566
      6          6           0        1.249354    0.049424    0.385385
      7          6           0        0.082953   -0.095588    0.634933
      8          6           0        4.418703    0.234622   -3.920170
      9          8           0        4.260806   -0.120827   -5.057648
     10          1           0        6.690244   -1.362873   -1.885469
     11          1           0        6.777207   -1.128080   -3.650340
     12          1           0        6.781630    0.275552   -2.556210
     13          1           0        4.448937   -1.689488   -2.975232
     14          1           0        2.393371    0.120705   -2.101152
     15          1           0        2.743292   -1.448767   -1.353147
     16          1           0        3.287405   -0.283358    0.801623
     17          1           0        2.934907    1.268829    0.057580
     18          1           0       -0.945853   -0.216873    0.867984
     19          1           0        4.298852    1.298322   -3.604717
 ---------------------------------------------------------------------
                    Distance matrix (angstroms):
                    1          2          3          4          5
     1  C    0.000000
     2  C    1.529365   0.000000
     3  O    2.379718   1.413971   0.000000
     4  C    3.673476   2.374125   1.416172   0.000000
     5  C    4.727603   3.684742   2.375744   1.531860   0.000000
     6  C    6.041271   4.845114   3.681753   2.479498   1.456257
     7  C    7.156833   5.888748   4.816061   3.519920   2.657624
     8  C    2.490079   1.528154   2.419319   3.023809   4.343802
     9  O    3.212022   2.422064   3.522436   3.950720   5.363955
    10  H    1.092717   2.156769   2.616319   3.866794   4.741054
    11  H    1.092683   2.165047   3.331418   4.504412   5.696704
    12  H    1.094365   2.170099   2.648852   4.036596   4.879213
    13  H    2.168165   1.100485   2.081980   2.562134   3.995593
    14  H    4.117073   2.668870   2.087561   1.100633   2.169652
    15  H    3.945526   2.652725   2.076205   1.100418   2.173215
    16  H    4.701919   3.923218   2.583929   2.148470   1.096418
    17  H    4.849262   3.936479   2.597556   2.150400   1.096403
    18  H    8.167177   6.859673   5.844216   4.511188   3.719445
    19  H    3.033564   2.216723   2.545323   3.116378   4.152487
                    6          7          8          9         10
     6  C    0.000000
     7  C    1.201580   0.000000
     8  C    5.349474   6.297358   0.000000
     9  O    6.222897   7.061201   1.202137   0.000000
    10  H    6.062561   7.184339   3.442658   4.184204   0.000000
    11  H    6.944836   8.015150   2.737208   3.054070   1.782543
    12  H    6.269785   7.429227   2.728641   3.573354   1.772761
    13  H    4.955290   5.885204   2.143834   2.613914   2.513507
    14  H    2.738015   3.587614   2.724660   3.505213   4.550894
    15  H    2.738416   3.586218   3.497200   4.217772   3.983613
    16  H    2.106573   3.214274   4.882977   5.941799   4.468235
    17  H    2.106061   3.213816   4.369637   5.463946   4.980346
    18  H    2.263349   1.061821   7.204771   7.888703   8.197852
    19  H    5.174949   6.139334   1.115944   2.031364   3.969448
                   11         12         13         14         15
    11  H    0.000000
    12  H    1.779698   0.000000
    13  H    2.488331   3.078705   0.000000
    14  H    4.814298   4.414507   2.875094   0.000000
    15  H    4.653215   4.552891   2.366079   1.773471   0.000000
    16  H    5.719462   4.878220   4.194161   3.064093   2.509437
    17  H    5.852957   4.755605   4.499097   2.504311   3.067930
    18  H    8.993953   8.466498   6.785474   4.481087   4.478925
    19  H    3.468681   2.882639   3.057088   2.697841   3.877606
                   16         17         18         19
    16  H    0.000000
    17  H    1.757026   0.000000
    18  H    4.234300   4.233717   0.000000
    19  H    4.789631   3.908150   7.057464   0.000000
 Stoichiometry    C7H10O2
 Framework group  C1[X(C7H10O2)]
 Deg. of freedom    51
 Full point group                 C1      NOp   1
 Largest Abelian subgroup         C1      NOp   1
 Largest concise Abelian subgroup C1      NOp   1
                         Standard orientation:                         
 ---------------------------------------------------------------------
 Center     Atomic      Atomic             Coordinates (Angstroms)
 Number     Number       Type             X           Y           Z
 ---------------------------------------------------------------------
      1          6           0        2.598229   -1.400539   -0.138434
      2          6           0        1.554072   -0.301878   -0.342485
      3          8           0        0.323935   -0.772551    0.171854
      4          6           0       -0.798072   -0.003157   -0.221433
      5          6           0       -2.036398   -0.646259    0.410678
      6          6           0       -3.261131    0.057765    0.057035
      7          6           0       -4.255176    0.658179   -0.251461
      8          6           0        2.001159    0.955822    0.401532
      9          8           0        2.709135    1.808700   -0.063765
     10          1           0        2.274563   -2.311761   -0.647299
     11          1           0        3.562866   -1.084250   -0.542654
     12          1           0        2.715805   -1.624768    0.926241
     13          1           0        1.470018   -0.056619   -1.411994
     14          1           0       -0.706670    1.041875    0.111655
     15          1           0       -0.893277    0.008709   -1.317660
     16          1           0       -2.089201   -1.692474    0.086980
     17          1           0       -1.906205   -0.663245    1.499191
     18          1           0       -5.141437    1.179728   -0.516022
     19          1           0        1.632874    0.994022    1.454260
 ---------------------------------------------------------------------
 Rotational constants (GHZ):      3.5874833      0.6618492      0.5813165
 1\1\GINC-ALCHEMY-SC\FOpt\RB3LYP\6-31G(2df,p)\C7H10O2\PUCK\27-Jan-2020\
 0\\# b3lyp 6-31G(2df,p) opt Freq\\titel\\0,1\C,6.3747919478,-0.7276202
 401,-2.716717657\C,4.8472198904,-0.683153108,-2.775915413\O,4.38011822
 91,-0.1849150369,-1.5378168302\C,2.9934101337,-0.3775326075,-1.3245526
 547\C,2.657690007,0.2080739213,0.050566211\C,1.2493540208,0.0494244316
 ,0.385385497\C,0.0829531547,-0.0955880002,0.6349326106\C,4.4187030742,
 0.2346223093,-3.9201696389\O,4.2608062836,-0.1208270918,-5.0576477871\
 H,6.6902436229,-1.3628726774,-1.8854686837\H,6.7772067307,-1.128080455
 1,-3.6503399116\H,6.7816300809,0.2755522569,-2.556210467\H,4.448936887
 9,-1.6894884343,-2.9752319148\H,2.3933714299,0.1207051045,-2.101151815
 5\H,2.7432915479,-1.448767193,-1.3531473836\H,3.2874054738,-0.28335829
 11,0.8016230228\H,2.9349073296,1.2688289908,0.0575800115\H,-0.94585275
 35,-0.2168729091,0.8679839032\H,4.2988523985,1.2983215599,-3.604716718
 9\\Version=ES64L-G09RevD.01\State=1-A\HF=-423.1478759\RMSD=7.390e-09\R
 MSF=9.640e-06\Dipole=0.1839657,-0.0789367,0.6370348\Quadrupole=5.20682
 63,2.0381069,-7.2449332,0.0050486,-0.6685641,-0.4504133\PG=C01 [X(C7H1
 0O2)]\\@


 At the touch of love, everyone becomves a poet.
                                -- Plato
 Job cpu time:       0 days  0 hours  5 minutes 13.9 seconds.
 File lengths (MBytes):  RWF=     52 Int=      0 D2E=      0 Chk=      7 Scr=      1
 Normal termination of Gaussian 09 at Mon Jan 27 15:50:20 2020.
 Link1:  Proceeding to internal job step number  2.
 ----------------------------------------------------------------------
 #N Geom=AllCheck Guess=TCheck SCRF=Check GenChk RB3LYP/6-31G(2df,p) Fr
 eq
 ----------------------------------------------------------------------
 1/10=4,29=7,30=1,38=1,40=1/1,3;
 2/12=2,40=1/2;
 3/5=1,6=6,7=104,11=2,14=-4,16=1,25=1,30=1,70=2,71=2,74=-5,116=1,140=1/1,2,3;
 4/5=101/1;
 5/5=2,98=1/2;
 8/6=4,10=90,11=11/1;
 11/6=1,8=1,9=11,15=111,16=1/1,2,10;
 10/6=1/2;
 6/7=2,8=2,9=2,10=2,18=1,28=1/1;
 7/8=1,10=1,25=1/1,2,3,16;
 1/10=4,30=1/3;
 99//99;
 Structure from the checkpoint file:  "/scratch/puck/g09_8051f811-6f0e-46c6-bb4f-ca3fa66fa768/Gau-165014.chk"
 -----
 titel
 -----
 Charge =  0 Multiplicity = 1
 Redundant internal coordinates found in file.
 C,0,6.3747919478,-0.7276202401,-2.716717657
 C,0,4.8472198904,-0.683153108,-2.775915413
 O,0,4.3801182291,-0.1849150369,-1.5378168302
 C,0,2.9934101337,-0.3775326075,-1.3245526547
 C,0,2.657690007,0.2080739213,0.050566211
 C,0,1.2493540208,0.0494244316,0.385385497
 C,0,0.0829531547,-0.0955880002,0.6349326106
 C,0,4.4187030742,0.2346223093,-3.9201696389
 O,0,4.2608062836,-0.1208270918,-5.0576477871
 H,0,6.6902436229,-1.3628726774,-1.8854686837
 H,0,6.7772067307,-1.1280804551,-3.6503399116
 H,0,6.7816300809,0.2755522569,-2.556210467
 H,0,4.4489368879,-1.6894884343,-2.9752319148
 H,0,2.3933714299,0.1207051045,-2.1011518155
 H,0,2.7432915479,-1.448767193,-1.3531473836
 H,0,3.2874054738,-0.2833582911,0.8016230228
 H,0,2.9349073296,1.2688289908,0.0575800115
 H,0,-0.9458527535,-0.2168729091,0.8679839032
 H,0,4.2988523985,1.2983215599,-3.6047167189
 Recover connectivity data from disk.

 GradGradGradGradGradGradGradGradGradGradGradGradGradGradGradGradGradGrad
 Berny optimization.
 Initialization pass.
                           ----------------------------
                           !    Initial Parameters    !
                           ! (Angstroms and Degrees)  !
 --------------------------                            --------------------------
 ! Name  Definition              Value          Derivative Info.                !
 --------------------------------------------------------------------------------
 ! R1    R(1,2)                  1.5294         calculate D2E/DX2 analytically  !
 ! R2    R(1,10)                 1.0927         calculate D2E/DX2 analytically  !
 ! R3    R(1,11)                 1.0927         calculate D2E/DX2 analytically  !
 ! R4    R(1,12)                 1.0944         calculate D2E/DX2 analytically  !
 ! R5    R(2,3)                  1.414          calculate D2E/DX2 analytically  !
 ! R6    R(2,8)                  1.5282         calculate D2E/DX2 analytically  !
 ! R7    R(2,13)                 1.1005         calculate D2E/DX2 analytically  !
 ! R8    R(3,4)                  1.4162         calculate D2E/DX2 analytically  !
 ! R9    R(4,5)                  1.5319         calculate D2E/DX2 analytically  !
 ! R10   R(4,14)                 1.1006         calculate D2E/DX2 analytically  !
 ! R11   R(4,15)                 1.1004         calculate D2E/DX2 analytically  !
 ! R12   R(5,6)                  1.4563         calculate D2E/DX2 analytically  !
 ! R13   R(5,16)                 1.0964         calculate D2E/DX2 analytically  !
 ! R14   R(5,17)                 1.0964         calculate D2E/DX2 analytically  !
 ! R15   R(6,7)                  1.2016         calculate D2E/DX2 analytically  !
 ! R16   R(7,18)                 1.0618         calculate D2E/DX2 analytically  !
 ! R17   R(8,9)                  1.2021         calculate D2E/DX2 analytically  !
 ! R18   R(8,19)                 1.1159         calculate D2E/DX2 analytically  !
 ! A1    A(2,1,10)             109.554          calculate D2E/DX2 analytically  !
 ! A2    A(2,1,11)             110.2082         calculate D2E/DX2 analytically  !
 ! A3    A(2,1,12)             110.5085         calculate D2E/DX2 analytically  !
 ! A4    A(10,1,11)            109.3053         calculate D2E/DX2 analytically  !
 ! A5    A(10,1,12)            108.3013         calculate D2E/DX2 analytically  !
 ! A6    A(11,1,12)            108.9267         calculate D2E/DX2 analytically  !
 ! A7    A(1,2,3)              107.8371         calculate D2E/DX2 analytically  !
 ! A8    A(1,2,8)              109.0584         calculate D2E/DX2 analytically  !
 ! A9    A(1,2,13)             109.9935         calculate D2E/DX2 analytically  !
 ! A10   A(3,2,8)              110.5723         calculate D2E/DX2 analytically  !
 ! A11   A(3,2,13)             111.1772         calculate D2E/DX2 analytically  !
 ! A12   A(8,2,13)             108.1854         calculate D2E/DX2 analytically  !
 ! A13   A(2,3,4)              114.0422         calculate D2E/DX2 analytically  !
 ! A14   A(3,4,5)              107.3247         calculate D2E/DX2 analytically  !
 ! A15   A(3,4,14)             111.4695         calculate D2E/DX2 analytically  !
 ! A16   A(3,4,15)             110.552          calculate D2E/DX2 analytically  !
 ! A17   A(5,4,14)             109.9294         calculate D2E/DX2 analytically  !
 ! A18   A(5,4,15)             110.222          calculate D2E/DX2 analytically  !
 ! A19   A(14,4,15)            107.3632         calculate D2E/DX2 analytically  !
 ! A20   A(4,5,6)              112.1289         calculate D2E/DX2 analytically  !
 ! A21   A(4,5,16)             108.524          calculate D2E/DX2 analytically  !
 ! A22   A(4,5,17)             108.6741         calculate D2E/DX2 analytically  !
 ! A23   A(6,5,16)             110.4331         calculate D2E/DX2 analytically  !
 ! A24   A(6,5,17)             110.3927         calculate D2E/DX2 analytically  !
 ! A25   A(16,5,17)            106.5017         calculate D2E/DX2 analytically  !
 ! A26   A(2,8,9)              124.5941         calculate D2E/DX2 analytically  !
 ! A27   A(2,8,19)             113.0113         calculate D2E/DX2 analytically  !
 ! A28   A(9,8,19)             122.3579         calculate D2E/DX2 analytically  !
 ! A29   L(5,6,7,15,-1)        178.6648         calculate D2E/DX2 analytically  !
 ! A30   L(6,7,18,9,-1)        180.7275         calculate D2E/DX2 analytically  !
 ! A31   L(5,6,7,15,-2)        180.728          calculate D2E/DX2 analytically  !
 ! A32   L(6,7,18,9,-2)        180.413          calculate D2E/DX2 analytically  !
 ! D1    D(10,1,2,3)            58.522          calculate D2E/DX2 analytically  !
 ! D2    D(10,1,2,8)           178.6347         calculate D2E/DX2 analytically  !
 ! D3    D(10,1,2,13)          -62.8714         calculate D2E/DX2 analytically  !
 ! D4    D(11,1,2,3)           178.8259         calculate D2E/DX2 analytically  !
 ! D5    D(11,1,2,8)           -61.0613         calculate D2E/DX2 analytically  !
 ! D6    D(11,1,2,13)           57.4326         calculate D2E/DX2 analytically  !
 ! D7    D(12,1,2,3)           -60.7292         calculate D2E/DX2 analytically  !
 ! D8    D(12,1,2,8)            59.3836         calculate D2E/DX2 analytically  !
 ! D9    D(12,1,2,13)          177.8774         calculate D2E/DX2 analytically  !
 ! D10   D(1,2,3,4)           -165.985          calculate D2E/DX2 analytically  !
 ! D11   D(8,2,3,4)             74.8612         calculate D2E/DX2 analytically  !
 ! D12   D(13,2,3,4)           -45.3308         calculate D2E/DX2 analytically  !
 ! D13   D(1,2,8,9)             88.0725         calculate D2E/DX2 analytically  !
 ! D14   D(1,2,8,19)           -89.7629         calculate D2E/DX2 analytically  !
 ! D15   D(3,2,8,9)           -153.5152         calculate D2E/DX2 analytically  !
 ! D16   D(3,2,8,19)            28.6493         calculate D2E/DX2 analytically  !
 ! D17   D(13,2,8,9)           -31.5476         calculate D2E/DX2 analytically  !
 ! D18   D(13,2,8,19)          150.617          calculate D2E/DX2 analytically  !
 ! D19   D(2,3,4,5)            179.7645         calculate D2E/DX2 analytically  !
 ! D20   D(2,3,4,14)           -59.8132         calculate D2E/DX2 analytically  !
 ! D21   D(2,3,4,15)            59.5227         calculate D2E/DX2 analytically  !
 ! D22   D(3,4,5,6)           -179.2658         calculate D2E/DX2 analytically  !
 ! D23   D(3,4,5,16)           -57.0088         calculate D2E/DX2 analytically  !
 ! D24   D(3,4,5,17)            58.4241         calculate D2E/DX2 analytically  !
 ! D25   D(14,4,5,6)            59.3399         calculate D2E/DX2 analytically  !
 ! D26   D(14,4,5,16)         -178.4031         calculate D2E/DX2 analytically  !
 ! D27   D(14,4,5,17)          -62.9702         calculate D2E/DX2 analytically  !
 ! D28   D(15,4,5,6)           -58.8145         calculate D2E/DX2 analytically  !
 ! D29   D(15,4,5,16)           63.4425         calculate D2E/DX2 analytically  !
 ! D30   D(15,4,5,17)          178.8754         calculate D2E/DX2 analytically  !
 --------------------------------------------------------------------------------
 Trust Radius=3.00D-01 FncErr=1.00D-07 GrdErr=1.00D-07
 Number of steps in this run=      2 maximum allowed number of steps=      2.
 GradGradGradGradGradGradGradGradGradGradGradGradGradGradGradGradGradGrad

                          Input orientation:                          
 ---------------------------------------------------------------------
 Center     Atomic      Atomic             Coordinates (Angstroms)
 Number     Number       Type             X           Y           Z
 ---------------------------------------------------------------------
      1          6           0        6.374792   -0.727620   -2.716718
      2          6           0        4.847220   -0.683153   -2.775915
      3          8           0        4.380118   -0.184915   -1.537817
      4          6           0        2.993410   -0.377533   -1.324553
      5          6           0        2.657690    0.208074    0.050566
      6          6           0        1.249354    0.049424    0.385385
      7          6           0        0.082953   -0.095588    0.634933
      8          6           0        4.418703    0.234622   -3.920170
      9          8           0        4.260806   -0.120827   -5.057648
     10          1           0        6.690244   -1.362873   -1.885469
     11          1           0        6.777207   -1.128080   -3.650340
     12          1           0        6.781630    0.275552   -2.556210
     13          1           0        4.448937   -1.689488   -2.975232
     14          1           0        2.393371    0.120705   -2.101152
     15          1           0        2.743292   -1.448767   -1.353147
     16          1           0        3.287405   -0.283358    0.801623
     17          1           0        2.934907    1.268829    0.057580
     18          1           0       -0.945853   -0.216873    0.867984
     19          1           0        4.298852    1.298322   -3.604717
 ---------------------------------------------------------------------
                    Distance matrix (angstroms):
                    1          2          3          4          5
     1  C    0.000000
     2  C    1.529365   0.000000
     3  O    2.379718   1.413971   0.000000
     4  C    3.673476   2.374125   1.416172   0.000000
     5  C    4.727603   3.684742   2.375744   1.531860   0.000000
     6  C    6.041271   4.845114   3.681753   2.479498   1.456257
     7  C    7.156833   5.888748   4.816061   3.519920   2.657624
     8  C    2.490079   1.528154   2.419319   3.023809   4.343802
     9  O    3.212022   2.422064   3.522436   3.950720   5.363955
    10  H    1.092717   2.156769   2.616319   3.866794   4.741054
    11  H    1.092683   2.165047   3.331418   4.504412   5.696704
    12  H    1.094365   2.170099   2.648852   4.036596   4.879213
    13  H    2.168165   1.100485   2.081980   2.562134   3.995593
    14  H    4.117073   2.668870   2.087561   1.100633   2.169652
    15  H    3.945526   2.652725   2.076205   1.100418   2.173215
    16  H    4.701919   3.923218   2.583929   2.148470   1.096418
    17  H    4.849262   3.936479   2.597556   2.150400   1.096403
    18  H    8.167177   6.859673   5.844216   4.511188   3.719445
    19  H    3.033564   2.216723   2.545323   3.116378   4.152487
                    6          7          8          9         10
     6  C    0.000000
     7  C    1.201580   0.000000
     8  C    5.349474   6.297358   0.000000
     9  O    6.222897   7.061201   1.202137   0.000000
    10  H    6.062561   7.184339   3.442658   4.184204   0.000000
    11  H    6.944836   8.015150   2.737208   3.054070   1.782543
    12  H    6.269785   7.429227   2.728641   3.573354   1.772761
    13  H    4.955290   5.885204   2.143834   2.613914   2.513507
    14  H    2.738015   3.587614   2.724660   3.505213   4.550894
    15  H    2.738416   3.586218   3.497200   4.217772   3.983613
    16  H    2.106573   3.214274   4.882977   5.941799   4.468235
    17  H    2.106061   3.213816   4.369637   5.463946   4.980346
    18  H    2.263349   1.061821   7.204771   7.888703   8.197852
    19  H    5.174949   6.139334   1.115944   2.031364   3.969448
                   11         12         13         14         15
    11  H    0.000000
    12  H    1.779698   0.000000
    13  H    2.488331   3.078705   0.000000
    14  H    4.814298   4.414507   2.875094   0.000000
    15  H    4.653215   4.552891   2.366079   1.773471   0.000000
    16  H    5.719462   4.878220   4.194161   3.064093   2.509437
    17  H    5.852957   4.755605   4.499097   2.504311   3.067930
    18  H    8.993953   8.466498   6.785474   4.481087   4.478925
    19  H    3.468681   2.882639   3.057088   2.697841   3.877606
                   16         17         18         19
    16  H    0.000000
    17  H    1.757026   0.000000
    18  H    4.234300   4.233717   0.000000
    19  H    4.789631   3.908150   7.057464   0.000000
 Stoichiometry    C7H10O2
 Framework group  C1[X(C7H10O2)]
 Deg. of freedom    51
 Full point group                 C1      NOp   1
 Largest Abelian subgroup         C1      NOp   1
 Largest concise Abelian subgroup C1      NOp   1
                         Standard orientation:                         
 ---------------------------------------------------------------------
 Center     Atomic      Atomic             Coordinates (Angstroms)
 Number     Number       Type             X           Y           Z
 ---------------------------------------------------------------------
      1          6           0        2.598229   -1.400539   -0.138434
      2          6           0        1.554072   -0.301878   -0.342485
      3          8           0        0.323935   -0.772551    0.171854
      4          6           0       -0.798072   -0.003157   -0.221433
      5          6           0       -2.036398   -0.646259    0.410678
      6          6           0       -3.261131    0.057765    0.057035
      7          6           0       -4.255176    0.658179   -0.251461
      8          6           0        2.001159    0.955822    0.401532
      9          8           0        2.709135    1.808700   -0.063765
     10          1           0        2.274563   -2.311761   -0.647299
     11          1           0        3.562866   -1.084250   -0.542654
     12          1           0        2.715805   -1.624768    0.926241
     13          1           0        1.470018   -0.056619   -1.411994
     14          1           0       -0.706670    1.041875    0.111655
     15          1           0       -0.893277    0.008709   -1.317660
     16          1           0       -2.089201   -1.692474    0.086980
     17          1           0       -1.906205   -0.663245    1.499191
     18          1           0       -5.141437    1.179728   -0.516022
     19          1           0        1.632874    0.994022    1.454260
 ---------------------------------------------------------------------
 Rotational constants (GHZ):      3.5874833      0.6618492      0.5813165
 Standard basis: 6-31G(2df,p) (6D, 7F)
 There are   329 symmetry adapted cartesian basis functions of A   symmetry.
 There are   302 symmetry adapted basis functions of A   symmetry.
   302 basis functions,   466 primitive gaussians,   329 cartesian basis functions
    34 alpha electrons       34 beta electrons
       nuclear repulsion energy       414.1548733453 Hartrees.
 NAtoms=   19 NActive=   19 NUniq=   19 SFac= 1.00D+00 NAtFMM=   60 NAOKFM=F Big=F
 Integral buffers will be    131072 words long.
 Raffenetti 2 integral format.
 Two-electron integral symmetry is turned on.
 One-electron integrals computed using PRISM.
 NBasis=   302 RedAO= T EigKep=  1.64D-04  NBF=   302
 NBsUse=   302 1.00D-06 EigRej= -1.00D+00 NBFU=   302
 Initial guess from the checkpoint file:  "/scratch/puck/g09_8051f811-6f0e-46c6-bb4f-ca3fa66fa768/Gau-165014.chk"
 B after Tr=     0.000000    0.000000    0.000000
         Rot=    1.000000    0.000000    0.000000    0.000000 Ang=   0.00 deg.
 Requested convergence on RMS density matrix=1.00D-08 within 128 cycles.
 Requested convergence on MAX density matrix=1.00D-06.
 Requested convergence on             energy=1.00D-06.
 No special actions if energy rises.
 SCF Done:  E(RB3LYP) =  -423.147875870     A.U. after    1 cycles
            NFock=  1  Conv=0.43D-08     -V/T= 2.0075
 DoSCS=F DFT=T ScalE2(SS,OS)=  1.000000  1.000000
 Range of M.O.s used for correlation:     1   302
 NBasis=   302 NAE=    34 NBE=    34 NFC=     0 NFV=     0
 NROrb=    302 NOA=    34 NOB=    34 NVA=   268 NVB=   268

 **** Warning!!: The largest alpha MO coefficient is  0.22759820D+02

 Symmetrizing basis deriv contribution to polar:
 IMax=3 JMax=2 DiffMx= 0.00D+00
 G2DrvN: will do    20 centers at a time, making    1 passes.
 Calling FoFCou, ICntrl=  3107 FMM=F I1Cent=   0 AccDes= 0.00D+00.
 End of G2Drv F.D. properties file   721 does not exist.
 End of G2Drv F.D. properties file   722 does not exist.
 End of G2Drv F.D. properties file   788 does not exist.
          IDoAtm=1111111111111111111
          Differentiating once with respect to electric field.
                with respect to dipole field.
          Differentiating once with respect to nuclear coordinates.
          There are    60 degrees of freedom in the 1st order CPHF.  IDoFFX=6 NUNeed=     3.
     57 vectors produced by pass  0 Test12= 1.52D-14 1.67D-09 XBig12= 6.96D+01 4.08D+00.
 AX will form    57 AO Fock derivatives at one time.
     57 vectors produced by pass  1 Test12= 1.52D-14 1.67D-09 XBig12= 2.37D+01 1.56D+00.
     57 vectors produced by pass  2 Test12= 1.52D-14 1.67D-09 XBig12= 4.28D-01 8.62D-02.
     57 vectors produced by pass  3 Test12= 1.52D-14 1.67D-09 XBig12= 1.26D-03 4.45D-03.
     57 vectors produced by pass  4 Test12= 1.52D-14 1.67D-09 XBig12= 2.06D-06 1.39D-04.
     38 vectors produced by pass  5 Test12= 1.52D-14 1.67D-09 XBig12= 2.51D-09 4.95D-06.
      7 vectors produced by pass  6 Test12= 1.52D-14 1.67D-09 XBig12= 2.59D-12 1.99D-07.
      2 vectors produced by pass  7 Test12= 1.52D-14 1.67D-09 XBig12= 3.43D-15 7.49D-09.
 InvSVY:  IOpt=1 It=  1 EMax= 4.44D-15
 Solved reduced A of dimension   332 with    60 vectors.
 Isotropic polarizability for W=    0.000000       79.28 Bohr**3.
 End of Minotr F.D. properties file   721 does not exist.
 End of Minotr F.D. properties file   722 does not exist.
 End of Minotr F.D. properties file   788 does not exist.

 **********************************************************************

            Population analysis using the SCF density.

 **********************************************************************

 Orbital symmetries:
       Occupied  (A) (A) (A) (A) (A) (A) (A) (A) (A) (A) (A) (A)
                 (A) (A) (A) (A) (A) (A) (A) (A) (A) (A) (A) (A)
[...]
 5,0.01753453,-0.21187803,-0.02108559,0.02048949,0.47214149,0.00113104,
 -0.00172093,-0.00373205,0.01550562,-0.00408265,-0.00274021,-0.03877729
 ,-0.07489265,-0.00224981,-0.00503245,0.57811763,0.00078330,-0.00090320
 ,-0.00469829,0.04110338,0.00409293,-0.01357566,-0.01048379,-0.01298653
 ,-0.08650328,0.04196353,-0.01860253,0.52804686,-0.00022176,0.00058032,
 0.00182957,-0.00516147,-0.00201966,-0.00075052,-0.02225949,0.01492654,
 0.04232281,-0.06705072,0.00136994,-0.00165229,0.54130551,-0.00007004,0
 .00057301,0.00037688,-0.00110925,-0.00108915,-0.00037644,-0.00135552,0
 .00385782,0.00393432,0.00870895,-0.09608895,-0.04141652,0.00772162,0.5
 4522168,-0.00036513,-0.00008334,0.00023536,0.00002273,0.00040853,0.000
 21258,0.00921170,-0.00330476,-0.00800064,0.01357932,-0.03835106,-0.164
 06410,0.02600507,-0.03588463,0.47300883,-0.00008285,0.00001913,-0.0000
 6244,-0.00019695,0.00010188,0.00057964,-0.00054966,0.00051527,0.001849
 44,-0.01799544,0.00324417,0.01384174,-0.26556472,-0.02237544,0.0474188
 8,1.36961464,0.00001771,-0.00009960,-0.00024066,0.00040308,0.00111550,
 0.00017276,0.00143575,-0.00049711,-0.00366511,0.01201361,0.00078012,0.
 00228519,-0.02344695,-0.06921223,0.00532525,0.15340695,0.10867591,0.00
 011930,-0.00023666,-0.00064614,0.00124482,0.00050264,0.00094397,0.0034
 9868,-0.00321577,-0.00751155,0.03217324,0.00641893,-0.00488098,0.04523
 186,0.00488168,-0.07779798,-0.28585169,-0.03215921,0.15740341,-0.00001
 621,0.00007284,0.00028921,0.00016342,-0.00068958,-0.00118659,-0.000534
 73,0.00114420,0.00273211,0.00041900,-0.00349312,-0.00730655,-0.0027973
 4,-0.00145072,0.00035270,-1.05141414,-0.12541335,0.22369213,1.45798730
 ,0.00000171,0.00000738,0.00003600,-0.00003201,-0.00014289,-0.00010587,
 0.00014417,0.00046469,0.00038915,-0.00063834,-0.00048602,-0.00157630,-
 0.00081218,0.00420848,0.00048956,-0.12597348,-0.04190305,0.02644448,0.
 17280651,0.06036868,-0.00001282,-0.00001880,-0.00004894,-0.00014214,0.
 00015705,0.00026886,0.00064635,-0.00007024,-0.00022476,-0.00132291,-0.
 00020293,0.00060835,0.00159970,0.00076543,0.00504274,0.22253260,0.0261
 8549,-0.07676495,-0.31094230,-0.03623119,0.11008736,-0.01643620,0.0221
 2884,-0.02530145,-0.08804876,0.01653959,-0.01764575,-0.00004620,-0.005
 11538,0.01765543,0.00991642,-0.00193430,0.00348430,-0.00108769,0.00037
 902,-0.00012442,-0.00000920,0.00024585,0.00020880,-0.00025041,-0.00001
 698,0.00001436,0.23682919,0.00790841,0.00126861,-0.00136632,0.01315131
 ,-0.14447843,0.05648053,0.00206129,0.00838638,-0.02594264,-0.00667753,
 0.00092376,-0.00116080,0.00092062,0.00056148,-0.00001632,-0.00001536,-
 0.00041458,-0.00025988,0.00030564,-0.00005281,-0.00005566,-0.03153121,
 0.57207775,-0.01673175,0.00172230,0.00215274,-0.00433491,0.03320695,-0
 .09371909,-0.00142782,0.01259858,-0.04691997,-0.00049218,0.00176339,-0
 .00268904,-0.00032094,0.00002524,0.00003164,0.00040531,0.00004105,0.00
 021472,-0.00053435,-0.00006886,0.00003838,0.10724268,0.17911200,0.9210
 5267,0.00007225,-0.00107294,0.00243735,0.01766655,-0.00301665,-0.01361
 316,0.00143994,0.00213280,-0.00660259,-0.00465259,0.00033138,-0.000456
 03,0.00050954,-0.00005610,0.00004867,-0.00003859,-0.00011959,-0.000114
 94,0.00018027,0.00002324,0.00000978,-0.07473040,-0.01971395,-0.0931395
 9,0.03824404,0.00130483,-0.00062167,0.00070235,0.00087536,0.02311488,0
 .00999989,0.00029022,0.00021463,0.00982007,0.00137080,-0.00043930,0.00
 031693,-0.00020898,-0.00020386,-0.00003936,-0.00004888,0.00011610,0.00
 006455,-0.00002436,0.00004230,0.00000800,-0.02074822,-0.16862663,-0.19
 988911,0.02278563,0.14732725,0.00576630,0.00178512,-0.00393600,-0.0163
 4133,-0.00507353,-0.04158954,0.00214079,0.00237019,-0.01060621,-0.0054
 9658,-0.00099560,0.00151543,0.00055748,0.00002736,0.00013392,-0.000301
 59,-0.00021436,-0.00022354,0.00061972,0.00007955,-0.00009642,-0.094015
 33,-0.19717979,-0.72488320,0.11154147,0.22792354,0.80061094,-0.0638997
 6,0.04323162,-0.05591755,-0.01750792,0.02239248,-0.02886514,0.00407365
 ,-0.00153102,0.00048307,-0.00012472,-0.00017469,-0.00010170,0.00008217
 ,-0.00001601,0.00006976,-0.00000439,-0.00002384,-0.00002990,0.00004078
 ,-0.00000213,0.00000144,-0.00574851,-0.00294106,0.00438566,0.00076405,
 0.00023878,-0.00250578,0.07280711,0.04360985,-0.13928864,0.12069060,0.
 00002180,-0.00025307,-0.00040384,-0.00033512,0.00010518,-0.00022757,0.
 00015692,0.00013714,-0.00024573,0.00002827,-0.00003769,0.00002480,0.00
 000688,0.00000822,-0.00001587,-0.00003314,-0.00000530,0.00000285,-0.00
 009746,0.00104706,0.00039977,-0.00018403,-0.00011874,-0.00014208,-0.04
 712256,0.14670093,-0.05789345,0.12037123,-0.20255087,0.00070049,0.0004
 6441,-0.00184827,0.00002392,-0.00013330,0.00143839,0.00040381,0.000039
 21,0.00016256,-0.00006141,-0.00001480,0.00000002,0.00001129,0.00001944
 ,0.00002236,-0.00003675,-0.00000881,0.00000933,-0.00041511,-0.00108508
 ,-0.00056948,-0.00013908,0.00044479,0.00068567,0.06395486,-0.13208202,
 0.21690104,-0.08266158,0.03526819,0.08095620,-0.00714136,0.01274206,0.
 02758329,-0.00940605,-0.00019564,0.00064019,0.00076001,0.00134480,0.00
 119258,-0.00065453,-0.00019158,-0.00006761,0.00003423,0.00010207,0.000
 24436,-0.00012911,-0.00001712,0.00002453,0.00019338,0.00085029,0.00253
 650,0.00081642,-0.00076761,-0.00122359,0.00323636,-0.00463684,-0.00804
 562,0.08980626,0.03623456,-0.08327824,-0.08471683,0.00000043,-0.002635
 13,0.00069665,-0.00005104,0.00109640,0.00005887,-0.00020846,0.00055187
 ,-0.00012479,-0.00001330,-0.00000517,0.00002599,-0.00000092,-0.0000013
 5,-0.00000149,0.00000749,-0.00000227,-0.00000122,0.00044976,-0.0005094
 0,-0.00164096,-0.00049511,0.00020879,0.00086552,-0.00837363,0.00755043
 ,0.01623102,-0.03996162,0.08637172,0.08457974,-0.08544619,-0.24492423,
 -0.00104845,0.00118931,0.00091712,-0.00024538,0.00046673,0.00070602,-0
 .00056978,-0.00022888,0.00061767,-0.00008464,-0.00000202,0.00001780,-0
 .00001676,-0.00000295,0.00001955,0.00003017,0.00000427,-0.00000978,-0.
 00010873,0.00034146,-0.00037310,-0.00009984,0.00025795,0.00053269,0.00
 884694,-0.01000738,-0.01839139,-0.09235211,0.09329118,0.26330891,-0.08
 092216,-0.08610481,-0.01334799,-0.01477439,-0.03276064,-0.00677619,0.0
 0321117,0.00086187,-0.00080609,-0.00008986,-0.00002495,0.00011318,0.00
 003429,0.00009640,0.00002706,0.00002342,0.00000592,-0.00002408,-0.0000
 0037,0.00000497,0.00000479,0.00145608,-0.00266320,0.00096976,-0.000199
 64,0.00062519,-0.00026377,0.00310257,0.00859100,0.00200980,0.00456425,
 0.01199138,0.00067433,0.09015355,-0.08723308,-0.27206328,-0.03501415,-
 0.00014700,0.00227641,-0.00080569,-0.00036209,0.00071665,0.00074433,0.
 00013249,0.00029825,0.00015348,-0.00006551,-0.00004135,-0.00000515,0.0
 0000166,0.00001448,0.00003114,-0.00000623,0.00000476,0.00000526,0.0000
 8606,0.00035561,0.00135836,-0.00016060,-0.00003113,-0.00078412,-0.0064
 5566,-0.01665252,-0.00408154,-0.00349971,-0.00962544,-0.00001448,0.097
 14211,0.29342119,-0.01459708,-0.03473572,-0.05294269,-0.00073809,-0.00
 202049,-0.00206404,-0.00012688,0.00061636,0.00073152,0.00024139,0.0000
 9368,-0.00008235,-0.00001124,0.00000388,-0.00000840,0.00001283,-0.0000
 0167,0.00000399,-0.00004126,-0.00000419,0.00000766,-0.00013120,-0.0015
 0635,0.00001807,-0.00012668,0.00044724,-0.00012340,0.00973624,0.022982
 48,0.00432464,-0.01124136,-0.02497001,-0.00279452,0.01751148,0.0388412
 8,0.05206221,-0.01480062,-0.03054425,-0.00375920,-0.07991447,-0.085428
 21,-0.01347264,0.00263160,0.01172602,0.00650151,0.00296345,0.00408602,
 0.00006017,0.00003223,0.00015868,0.00003799,-0.00002334,-0.00007323,0.
 00000562,-0.00000577,-0.00000087,-0.00000382,0.00389312,0.01095827,-0.
 00257731,-0.00064048,-0.00065391,0.00185017,0.00191246,0.00040066,-0.0
 0029272,0.00106690,0.00021015,0.00039349,-0.00635819,0.00075585,-0.000
 46221,0.08983223,0.00122558,0.00313323,0.00101662,-0.08505067,-0.25163
 594,-0.02915531,0.00189609,-0.01111037,-0.01278208,-0.00263660,0.00130
 482,0.00095111,0.00044460,0.00049831,0.00012563,0.00005744,-0.00002278
 ,-0.00015208,0.00007397,0.00002395,-0.00001195,-0.00907358,-0.02286873
 ,-0.00352856,0.00132695,0.00454456,-0.00021005,-0.00037975,0.00063679,
 -0.00027934,-0.00072822,0.00021629,0.00017421,0.00118243,0.00104230,0.
 00013270,0.08803797,0.27638467,-0.00150305,-0.00127966,0.00094840,-0.0
 1042097,-0.02766626,-0.05406324,-0.00196628,-0.03592765,-0.01999933,-0
 .00636864,-0.00219001,0.00170431,0.00009878,0.00020568,0.00004782,-0.0
 0000065,0.00006246,-0.00011473,0.00015366,0.00001733,-0.00004214,0.008
 05684,0.02362032,0.00436705,-0.00061805,-0.00304201,0.00187298,0.00028
 619,-0.00065102,0.00002461,-0.00006697,0.00022471,0.00036708,0.0000483
 3,-0.00003608,0.00092219,0.01306133,0.04218097,0.06624062,-0.00037445,
 0.00007496,0.00070320,0.00305998,-0.00175519,-0.00606025,-0.04008404,0
 .01291365,-0.01829584,-0.10863587,0.05703224,-0.08503631,0.00507481,-0
 .00341270,0.00535849,0.00119855,-0.00034912,-0.00012046,-0.00011818,0.
 00001082,-0.00008243,-0.00100398,0.00157030,0.00064207,0.00036821,-0.0
 0059960,0.00091114,0.00034866,-0.00015942,0.00002398,-0.00022255,-0.00
 005696,0.00016591,0.00008452,0.00002234,-0.00007928,-0.00028422,0.0003
 8502,0.00068529,0.13527669,0.00004715,-0.00003555,-0.00014403,0.000350
 84,0.00073017,0.00086862,-0.00290684,0.00765458,-0.00724490,0.05832177
 ,-0.11032944,0.08491206,-0.00582642,0.00589166,-0.01145180,-0.00072475
 ,0.00023807,0.00038735,0.00000399,-0.00004016,0.00000887,0.00095176,0.
 00040988,-0.00039445,-0.00049609,-0.00026702,-0.00013183,-0.00007218,-
 0.00002726,-0.00000713,0.00005904,-0.00002426,0.00001713,-0.00005730,0
 .00000500,-0.00000162,-0.00014365,-0.00041543,0.00025375,-0.06404960,0
 .11068027,0.00004602,-0.00001111,0.00016806,-0.00065800,-0.00174306,0.
 00175298,0.00345561,-0.00376347,0.00886643,-0.08592262,0.08225750,-0.1
 7457742,-0.01373953,0.01406326,-0.02330025,-0.00217095,-0.00003587,0.0
 0083960,0.00119335,0.00003621,0.00029891,-0.00219607,0.00113468,0.0009
 9633,0.00097881,-0.00016853,-0.00013575,0.00005500,0.00000889,-0.00012
 604,-0.00007864,0.00004160,-0.00002426,0.00000745,0.00000101,-0.000010
 86,0.00022237,0.00000925,0.00005157,0.09697457,-0.08841170,0.18759604,
 -0.00001755,0.00016008,0.00013945,0.00205932,-0.00464564,-0.00635123,-
 0.02885212,-0.03704642,0.00615596,-0.05537466,-0.03797729,-0.00162009,
 0.00240625,0.00720903,-0.00029997,0.00103492,0.00049877,-0.00043167,-0
 .00026981,-0.00018766,-0.00002434,-0.00058222,0.00104135,0.00052532,0.
 00033400,-0.00027748,0.00043995,-0.00002880,-0.00003773,-0.00005531,-0
 .00008065,0.00014012,0.00002334,0.00019261,0.00013451,-0.00002130,0.00
 069417,0.00158584,0.00078980,0.00550328,0.01522024,-0.00037639,0.07297
 190,0.00016293,0.00058754,0.00038796,0.00134395,0.00142415,-0.00158418
 ,-0.01125633,0.00013140,0.00066427,-0.04093844,-0.28508809,-0.00339683
 ,-0.00112810,-0.01146084,-0.00041486,-0.00082905,0.00017216,0.00014218
 ,0.00073857,0.00039934,0.00001933,-0.00009572,-0.00068888,-0.00029825,
 0.00018301,0.00026938,0.00041060,0.00001828,-0.00005547,-0.00004445,-0
 .00013775,-0.00002674,0.00003673,0.00027841,-0.00005608,-0.00007441,-0
 .00099166,0.00033255,0.00159144,-0.00180457,-0.01548998,-0.00060186,0.
 05444970,0.30789075,0.00014615,-0.00010973,0.00002378,0.00015692,0.003
 52244,0.00223424,0.00564782,0.00311131,0.00112846,-0.00238112,-0.00163
 051,-0.05246473,-0.00401576,-0.03077736,-0.00264633,-0.00201730,-0.000
 22534,0.00110090,0.00068483,0.00043922,-0.00001802,-0.00054086,0.00027
 297,0.00020361,0.00005805,-0.00014582,-0.00020138,-0.00002575,0.000002
 91,-0.00001889,0.00002179,-0.00002667,-0.00001105,-0.00005461,-0.00007
 643,-0.00008172,-0.00062545,-0.00083472,0.00014928,0.00254508,0.023494
 90,0.00085648,-0.00075621,0.00532226,0.05321348,0.00001749,-0.00000066
 ,-0.00007176,0.00004176,-0.00004782,0.00016526,0.00103520,-0.00004301,
 -0.00015603,0.00365160,-0.00308456,0.00426828,-0.12636061,0.06716158,-
 0.10126431,-0.02704744,0.01371416,-0.01978173,0.00011369,-0.00056918,0
 .00080800,-0.00002586,-0.00005993,-0.00002592,-0.00000066,0.00003601,-
 0.00001432,-0.00002555,0.00001460,0.00000413,0.00001938,0.00000153,-0.
 00000800,-0.00000758,-0.00000597,0.00000873,0.00000969,-0.00003916,-0.
 00003994,-0.00018206,0.00026372,0.00168530,0.00004583,-0.00026098,-0.0
 0044795,0.14332296,0.00000234,0.00000211,0.00006281,-0.00022534,-0.000
 01364,0.00000775,-0.00063055,-0.00006099,0.00124942,-0.00767338,0.0059
 8231,-0.01125846,0.06672239,-0.10166791,0.08230254,-0.00174862,0.00216
 987,-0.00527321,-0.00111133,0.00033255,0.00067068,-0.00007977,-0.00008
 503,-0.00004842,0.00002628,0.00003025,0.00003608,0.00002355,0.00002623
 ,0.00000312,-0.00002255,-0.00000572,-0.00001197,-0.00000294,-0.0000165
 4,0.00001894,0.00000449,0.00000513,-0.00006215,0.00092298,0.00003515,-
 0.00282413,-0.00070110,0.00096896,0.00045788,-0.07330836,0.10706636,-0
 .00002429,-0.00000390,0.00001294,0.00019279,-0.00032639,0.00007895,-0.
 00052017,0.00012552,0.00336897,-0.01781475,0.01399773,-0.02611479,-0.0
 9799489,0.08108998,-0.16399950,0.00360751,-0.00621526,0.00851058,0.002
 04677,0.00084764,-0.00062027,-0.00041529,0.00027337,0.00008310,0.00019
 486,-0.00008254,0.00019874,0.00007212,-0.00002823,-0.00000884,-0.00000
 633,-0.00000581,0.00001640,0.00001536,0.00000350,-0.00000985,-0.000038
 11,0.00010294,0.00006030,0.00211825,-0.00292632,-0.00466423,-0.0000137
 1,0.00000425,0.00171077,0.10858708,-0.08710550,0.18200787,0.00000797,0
 .00000167,-0.00002852,-0.00002928,0.00018400,0.00015496,0.00084625,0.0
 0011138,-0.00043233,0.00150493,0.00642676,-0.00019133,-0.05946585,-0.0
 6059847,-0.00128220,-0.01527583,-0.03350705,0.00148697,-0.00098286,0.0
 0089943,0.00039212,0.00004232,-0.00007483,-0.00000251,-0.00002976,0.00
 002809,-0.00003830,-0.00000145,0.00000868,0.00000306,0.00000772,-0.000
 01363,-0.00000524,-0.00002564,-0.00001333,0.00001546,-0.00010836,-0.00
 015217,-0.00003374,-0.00006928,-0.00054195,-0.00022417,-0.00010132,0.0
 0043993,0.00141781,0.00495972,0.01770149,0.00015451,0.06873336,0.00001
 722,0.00001630,-0.00000017,0.00021213,0.00026189,-0.00010091,0.0000668
 3,0.00135306,0.00101874,-0.00306718,-0.01481529,-0.00154538,-0.0581241
 5,-0.28768466,0.00099870,-0.00619614,0.00015693,0.00173456,0.00218713,
 0.00022477,-0.00054071,-0.00002491,-0.00017071,-0.00008975,0.00003429,
 0.00007337,0.00009613,-0.00000773,-0.00001261,-0.00000781,0.00000139,0
 .00000488,0.00000480,0.00003426,0.00001281,-0.00002240,-0.00011202,0.0
 0013873,0.00022254,0.00001183,0.00115735,0.00000771,0.00040426,0.00060
 714,-0.00255982,-0.00312217,-0.01470469,0.00008368,0.06771954,0.313355
 86,0.00004131,0.00013674,0.00005153,-0.00012930,-0.00015483,-0.0002230
 4,-0.00146555,0.00190889,0.00203853,-0.00720214,-0.03359581,-0.0029163
 5,-0.00018837,0.00323985,-0.04495717,0.00267149,0.00826651,-0.00133626
 ,0.00074651,-0.00036294,0.00056561,0.00002538,-0.00033252,-0.00011122,
 0.00002933,0.00014800,0.00013081,-0.00001120,0.00000067,-0.00000628,-0
 .00003242,-0.00000590,-0.00000303,0.00005772,-0.00000999,0.00000852,0.
 00003669,0.00030921,0.00014062,-0.00044676,0.00051946,0.00168759,0.002
 12821,-0.00210087,-0.00517041,0.00526392,0.02152651,-0.00027988,-0.001
 49195,0.00073105,0.05031186,0.00000498,-0.00000884,-0.00003422,-0.0000
 8418,0.00011399,0.00020882,0.00024412,-0.00005321,-0.00026397,-0.00029
 078,0.00003797,0.00034661,0.00111425,-0.00070090,0.00126061,0.00628620
 ,0.00110083,-0.00154590,-0.40239433,-0.04563671,0.08650814,0.00003109,
 -0.00003788,0.00010023,-0.00002262,-0.00000067,-0.00011664,-0.00000839
 ,0.00000568,0.00000569,0.00001849,-0.00000302,-0.00000945,0.00000010,0
 .00000220,0.00000694,-0.00000213,-0.00000832,-0.00002075,-0.00000524,0
 .00001366,-0.00001204,0.00000007,-0.00000122,0.00000548,0.00041711,0.0
 0007509,-0.00019635,-0.00002397,-0.00003488,-0.00000255,0.39471746,-0.
 00000171,0.00000482,0.00000956,-0.00002458,-0.00003853,0.00002162,-0.0
 0007975,-0.00002551,0.00015042,-0.00045682,0.00011925,-0.00008667,-0.0
 0075629,0.00666308,-0.00010063,0.00059862,-0.00136682,0.00062823,-0.04
 511205,-0.02347156,0.00932725,-0.00001799,0.00006652,0.00001861,0.0000
 0372,-0.00003134,-0.00000751,0.00000342,0.00000085,0.00000178,-0.00000
 273,0.00000019,-0.00000232,-0.00000375,-0.00000358,0.00000107,0.000002
 78,-0.00001025,-0.00001011,0.00001269,-0.00001443,0.00001202,0.0000108
 1,-0.00003442,-0.00001199,-0.00068836,-0.00005228,0.00027672,0.0013676
 4,-0.00003323,-0.00035216,0.04514114,0.01824594,0.00000320,0.00001550,
 0.00004220,-0.00004061,-0.00004169,-0.00009383,-0.00030349,0.00013406,
 0.00034495,-0.00069154,-0.00032397,-0.00007536,0.00113645,-0.00012705,
 0.00607225,-0.00251681,0.00039660,0.00022870,0.08753635,0.00956901,-0.
 03911867,0.00000158,0.00001825,0.00000376,-0.00001525,-0.00000675,0.00
 000891,-0.00000252,0.00000288,-0.00000371,-0.00001670,-0.00000041,-0.0
 0000050,-0.00000261,-0.00000470,-0.00000047,0.00000211,0.00000199,0.00
 000892,0.00000980,0.00000592,-0.00003195,0.00001380,0.00000367,-0.0000
 1699,0.00102692,0.00024661,-0.00034446,0.00010034,-0.00002025,0.000080
 66,-0.08624600,-0.00987165,0.03289818,0.00138285,-0.00285935,0.0031615
 9,0.01836509,0.01364831,0.00039585,-0.00054747,-0.00071755,-0.00229577
 ,-0.00146012,-0.00001128,-0.00030899,0.00006513,-0.00009856,0.00001065
 ,0.00001060,-0.00001157,-0.00000542,0.00000882,-0.00000418,-0.00001107
 ,-0.06439217,0.02494747,0.00277975,0.01991947,-0.00422520,-0.00350979,
 0.00098167,-0.00023803,-0.00020158,-0.00022757,0.00014227,-0.00016554,
 -0.00044474,-0.00032803,0.00004350,-0.00089828,0.00185258,-0.00214118,
 0.00006516,-0.00041339,0.00075994,0.00006479,-0.00017094,0.00018106,0.
 00001534,0.00002533,0.00003464,0.00001134,0.00000030,-0.00003031,-0.00
 000223,0.00000322,0.00000497,0.02708231,-0.00064028,-0.00162656,0.0017
 6571,0.00478239,-0.01852904,-0.01194210,-0.00236772,0.00418558,0.00096
 074,0.00101148,-0.00027184,0.00059204,-0.00031274,0.00001627,-0.000049
 10,-0.00003935,0.00007016,0.00007843,-0.00000646,0.00002717,-0.0000175
 2,0.02795465,-0.24720187,-0.02428789,-0.00153221,-0.00560182,-0.028855
 23,0.00119213,0.00023846,0.00016929,-0.00020646,0.00011314,-0.00006760
 ,0.00080365,0.00034244,0.00019923,0.00160689,-0.00219783,0.00248574,-0
 .00076965,-0.00015860,-0.00001242,0.00001863,0.00011713,-0.00022550,0.
 00003857,-0.00001213,-0.00011138,0.00001282,0.00005809,0.00012815,-0.0
 0000492,-0.00001871,0.00000199,-0.03154141,0.27044993,0.00040888,0.000
 47188,-0.00046194,-0.00427001,0.01953893,0.00387725,-0.00070431,-0.001
 91560,0.00495899,0.00130349,0.00027291,-0.00001284,0.00003787,-0.00001
 475,-0.00002861,0.00000745,0.00000568,-0.00001165,-0.00002972,0.000005
 74,0.00001678,0.00420484,-0.03234822,-0.05989696,-0.00037311,-0.046759
 17,-0.02389463,-0.00043176,-0.00031212,-0.00004485,-0.00006810,0.00005
 856,0.00002861,-0.00016392,-0.00030603,0.00003950,-0.00093999,0.001949
 47,-0.00268631,-0.00001646,0.00024571,-0.00024323,-0.00026561,-0.00006
 698,0.00000854,-0.00000767,0.00000150,-0.00000679,0.00000507,-0.000010
 71,-0.00001210,0.00000535,-0.00000421,-0.00000259,0.00129770,0.0591874
 2,0.07837283\\0.00002524,-0.00000628,-0.00001040,-0.00002226,0.0000034
 8,-0.00000579,0.00002300,0.00000422,0.00000876,-0.00002691,-0.00001111
 ,-0.00000511,-0.00000424,0.00000113,0.00001000,0.00000484,0.00000107,-
 0.00000508,0.00001953,0.00000112,0.00000329,0.00000983,-0.00001077,0.0
 0002518,-0.00000227,-0.00000485,-0.00001831,-0.00000097,0.00000328,-0.
 00000082,-0.00000493,0.00000310,0.00000244,-0.00000621,0.00000272,-0.0
 0000001,-0.00000146,0.00000923,-0.00000021,0.00000384,-0.00000168,0.00
 000423,0.00000379,0.00000470,-0.00000081,0.00000011,0.00000089,-0.0000
 0484,0.00000011,-0.00000389,-0.00000245,-0.00001712,-0.00000390,0.0000
 0408,-0.00000390,0.00000754,-0.00000414\\\@


 I take a simple view of life: keep your eyes open and get on with it.
 -- Laurence Olivier
 Job cpu time:       0 days  0 hours 35 minutes 13.8 seconds.
 File lengths (MBytes):  RWF=    152 Int=      0 D2E=      0 Chk=      8 Scr=      1
 Normal termination of Gaussian 09 at Mon Jan 27 16:25:33 2020.
