 Entering Gaussian System, Link 0=/home/puck/opt/gaussian_09/g09
 Input=dsC7O2H10nsd_4585.com
 Output=dsC7O2H10nsd_4585.log
 Initial command:
 /home/puck/opt/gaussian_09/l1.exe "/scratch/puck/g09_ee86a778-472a-4579-af5d-52aa84cd2b99/Gau-79775.inp" -scrdir="/scratch/puck/g09_ee86a778-472a-4579-af5d-52aa84cd2b99/"
 Entering Link 1 = /home/puck/opt/gaussian_09/l1.exe PID=     79822.
  
 Copyright (c) 1988,1990,1992,1993,1995,1998,2003,2009,2013,
            Gaussian, Inc.  All Rights Reserved.
  
 This is part of the Gaussian(R) 09 program.  It is based on
 the Gaussian(R) 03 system (copyright 2003, Gaussian, Inc.),
 the Gaussian(R) 98 system (copyright 1998, Gaussian, Inc.),
 the Gaussian(R) 94 system (copyright 1995, Gaussian, Inc.),
 the Gaussian 92(TM) system (copyright 1992, Gaussian, Inc.),
 the Gaussian 90(TM) system (copyright 1990, Gaussian, Inc.),
 the Gaussian 88(TM) system (copyright 1988, Gaussian, Inc.),
 the Gaussian 86(TM) system (copyright 1986, Carnegie Mellon
 University), and the Gaussian 82(TM) system (copyright 1983,
 Carnegie Mellon University). Gaussian is a federally registered
 trademark of Gaussian, Inc.
  
 This software contains proprietary and confidential information,
 including trade secrets, belonging to Gaussian, Inc.
  
 This software is provided under written license and may be
 used, copied, transmitted, or stored only in accord with that
 written license.
  
 The following legend is applicable only to US Government
 contracts under FAR:
  
                    RESTRICTED RIGHTS LEGEND
  
 Use, reproduction and disclosure by the US Government is
 subject to restrictions as set forth in subparagraphs (a)
 and (c) of the Commercial Computer Software - Restricted
 Rights clause in FAR 52.227-19.
  
 Gaussian, Inc.
 340 Quinnipiac St., Bldg. 40, Wallingford CT 06492
  
  
 ---------------------------------------------------------------
 Warning -- This program may not be used in any manner that
 competes with the business of Gaussian, Inc. or will provide
 assistance to any competitor of Gaussian, Inc.  The licensee
 of this program is prohibited from giving any competitor of
 Gaussian, Inc. access to this program.  By using this program,
 the user acknowledges that Gaussian, Inc. is engaged in the
 business of creating and licensing software in the field of
 computational chemistry and represents and warrants to the
 licensee that it is not a competitor of Gaussian, Inc. and that
 it will not use this program in any manner prohibited above.
 ---------------------------------------------------------------
  

 Cite this work as:
 Gaussian 09, Revision D.01,
 M. J. Frisch, G. W. Trucks, H. B. Schlegel, G. E. Scuseria, 
 M. A. Robb, J. R. Cheeseman, G. Scalmani, V. Barone, B. Mennucci, 
 G. A. Petersson, H. Nakatsuji, M. Caricato, X. Li, H. P. Hratchian, 
 A. F. Izmaylov, J. Bloino, G. Zheng, J. L. Sonnenberg, M. Hada, 
 M. Ehara, K. Toyota, R. Fukuda, J. Hasegawa, M. Ishida, T. Nakajima, 
 Y. Honda, O. Kitao, H. Nakai, T. Vreven, J. A. Montgomery, Jr., 
 J. E. Peralta, F. Ogliaro, M. Bearpark, J. J. Heyd, E. Brothers, 
 K. N. Kudin, V. N. Staroverov, T. Keith, R. Kobayashi, J. Normand, 
 K. Raghavachari, A. Rendell, J. C. Burant, S. S. Iyengar, J. Tomasi, 
 M. Cossi, N. Rega, J. M. Millam, M. Klene, J. E. Knox, J. B. Cross, 
 V. Bakken, C. Adamo, J. Jaramillo, R. Gomperts, R. E. Stratmann, 
 O. Yazyev, A. J. Austin, R. Cammi, C. Pomelli, J. W. Ochterski, 
 R. L. Martin, K. Morokuma, V. G. Zakrzewski, G. A. Voth, 
 P. Salvador, J. J. Dannenberg, S. Dapprich, A. D. Daniels, 
 O. Farkas, J. B. Foresman, J. V. Ortiz, J. Cioslowski, 
 and D. J. Fox, Gaussian, Inc., Wallingford CT, 2013.
 
 ******************************************
 Gaussian 09:  ES64L-G09RevD.01 24-Apr-2013
                28-Jan-2020 
 ******************************************
 -----------------------------
 # b3lyp 6-31G(2df,p) opt Freq
 -----------------------------
 1/14=-1,18=20,19=15,26=3,38=1/1,3;
 2/9=110,12=2,17=6,18=5,40=1/2;
 3/5=1,6=6,7=104,11=2,16=1,25=1,30=1,71=1,74=-5/1,2,3;
 4//1;
 5/5=2,38=5/2;
 6/7=2,8=2,9=2,10=2,28=1/1;
 7//1,2,3,16;
 1/14=-1,18=20,19=15,26=3/3(2);
 2/9=110/2;
 99//99;
 2/9=110/2;
 3/5=1,6=6,7=104,11=2,16=1,25=1,30=1,71=1,74=-5/1,2,3;
 4/5=5,16=3,69=1/1;
 5/5=2,38=5/2;
 7//1,2,3,16;
 1/14=-1,18=20,19=15,26=3/3(-5);
 2/9=110/2;
 6/7=2,8=2,9=2,10=2,19=2,28=1/1;
 99/9=1/99;
 -----
 titel
 -----
 Symbolic Z-matrix:
 Charge =  0 Multiplicity = 1
 O                    -1.68098  -1.99314   3.30868 
 C                    -1.18301  -0.84549   2.64897 
 C                    -0.35205   0.04878   3.5761 
 C                     0.1281    1.30341   2.84257 
 O                    -0.95976   2.02608   2.29129 
 C                    -1.67825   1.26515   1.34651 
 C                    -2.30112  -0.00378   1.98353 
 C                    -3.05541  -0.75796   0.99243 
 C                    -3.65676  -1.34955   0.13612 
 H                    -2.25984  -1.70082   4.0217 
 H                    -0.53964  -1.23918   1.8525 
 H                    -0.96995   0.35246   4.43227 
 H                     0.49876  -0.51864   3.96735 
 H                     0.63992   1.98854   3.52364 
 H                     0.83899   1.02535   2.04563 
 H                    -2.46425   1.91084   0.94853 
 H                    -1.02804   0.96201   0.50925 
 H                    -2.98074   0.33495   2.7799 
 H                    -4.19587  -1.88548  -0.60523 
 

 GradGradGradGradGradGradGradGradGradGradGradGradGradGradGradGradGradGrad
 Berny optimization.
 Initialization pass.
                           ----------------------------
                           !    Initial Parameters    !
                           ! (Angstroms and Degrees)  !
 --------------------------                            --------------------------
 ! Name  Definition              Value          Derivative Info.                !
 --------------------------------------------------------------------------------
 ! R1    R(1,2)                  1.4143         estimate D2E/DX2                !
 ! R2    R(1,10)                 0.9638         estimate D2E/DX2                !
 ! R3    R(2,3)                  1.5329         estimate D2E/DX2                !
 ! R4    R(2,7)                  1.5497         estimate D2E/DX2                !
 ! R5    R(2,11)                 1.0969         estimate D2E/DX2                !
 ! R6    R(3,4)                  1.5306         estimate D2E/DX2                !
 ! R7    R(3,12)                 1.0987         estimate D2E/DX2                !
 ! R8    R(3,13)                 1.095          estimate D2E/DX2                !
 ! R9    R(4,5)                  1.4176         estimate D2E/DX2                !
 ! R10   R(4,14)                 1.0933         estimate D2E/DX2                !
 ! R11   R(4,15)                 1.1035         estimate D2E/DX2                !
 ! R12   R(5,6)                  1.4099         estimate D2E/DX2                !
 ! R13   R(6,7)                  1.5505         estimate D2E/DX2                !
 ! R14   R(6,16)                 1.0923         estimate D2E/DX2                !
 ! R15   R(6,17)                 1.1026         estimate D2E/DX2                !
 ! R16   R(7,8)                  1.456          estimate D2E/DX2                !
 ! R17   R(7,18)                 1.1004         estimate D2E/DX2                !
 ! R18   R(8,9)                  1.202          estimate D2E/DX2                !
 ! R19   R(9,19)                 1.0618         estimate D2E/DX2                !
 ! A1    A(2,1,10)             108.0856         estimate D2E/DX2                !
 ! A2    A(1,2,3)              112.4655         estimate D2E/DX2                !
 ! A3    A(1,2,7)              112.7681         estimate D2E/DX2                !
 ! A4    A(1,2,11)             104.7121         estimate D2E/DX2                !
 ! A5    A(3,2,7)              109.51           estimate D2E/DX2                !
 ! A6    A(3,2,11)             109.3039         estimate D2E/DX2                !
 ! A7    A(7,2,11)             107.8388         estimate D2E/DX2                !
 ! A8    A(2,3,4)              111.0018         estimate D2E/DX2                !
 ! A9    A(2,3,12)             109.1299         estimate D2E/DX2                !
 ! A10   A(2,3,13)             109.5736         estimate D2E/DX2                !
 ! A11   A(4,3,12)             108.8636         estimate D2E/DX2                !
 ! A12   A(4,3,13)             110.6265         estimate D2E/DX2                !
 ! A13   A(12,3,13)            107.5652         estimate D2E/DX2                !
 ! A14   A(3,4,5)              111.316          estimate D2E/DX2                !
 ! A15   A(3,4,14)             111.2238         estimate D2E/DX2                !
 ! A16   A(3,4,15)             109.9767         estimate D2E/DX2                !
 ! A17   A(5,4,14)             106.3825         estimate D2E/DX2                !
 ! A18   A(5,4,15)             109.9961         estimate D2E/DX2                !
 ! A19   A(14,4,15)            107.8309         estimate D2E/DX2                !
 ! A20   A(4,5,6)              112.1184         estimate D2E/DX2                !
 ! A21   A(5,6,7)              111.7839         estimate D2E/DX2                !
 ! A22   A(5,6,16)             106.9667         estimate D2E/DX2                !
 ! A23   A(5,6,17)             110.8983         estimate D2E/DX2                !
 ! A24   A(7,6,16)             110.1459         estimate D2E/DX2                !
 ! A25   A(7,6,17)             108.8983         estimate D2E/DX2                !
 ! A26   A(16,6,17)            108.0717         estimate D2E/DX2                !
 ! A27   A(2,7,6)              109.3354         estimate D2E/DX2                !
 ! A28   A(2,7,8)              112.627          estimate D2E/DX2                !
 ! A29   A(2,7,18)             107.581          estimate D2E/DX2                !
 ! A30   A(6,7,8)              110.6323         estimate D2E/DX2                !
 ! A31   A(6,7,18)             107.0693         estimate D2E/DX2                !
 ! A32   A(8,7,18)             109.3978         estimate D2E/DX2                !
 ! A33   L(7,8,9,1,-1)         181.9047         estimate D2E/DX2                !
 ! A34   L(8,9,19,1,-1)        179.0927         estimate D2E/DX2                !
 ! A35   L(7,8,9,1,-2)         182.0723         estimate D2E/DX2                !
 ! A36   L(8,9,19,1,-2)        178.8529         estimate D2E/DX2                !
 ! D1    D(10,1,2,3)            61.6286         estimate D2E/DX2                !
 ! D2    D(10,1,2,7)           -62.8078         estimate D2E/DX2                !
 ! D3    D(10,1,2,11)         -179.7886         estimate D2E/DX2                !
 ! D4    D(1,2,3,4)           -177.9982         estimate D2E/DX2                !
 ! D5    D(1,2,3,12)           -58.0162         estimate D2E/DX2                !
 ! D6    D(1,2,3,13)            59.523          estimate D2E/DX2                !
 ! D7    D(7,2,3,4)            -51.7839         estimate D2E/DX2                !
 ! D8    D(7,2,3,12)            68.1981         estimate D2E/DX2                !
 ! D9    D(7,2,3,13)          -174.2627         estimate D2E/DX2                !
 ! D10   D(11,2,3,4)            66.1509         estimate D2E/DX2                !
 ! D11   D(11,2,3,12)         -173.867          estimate D2E/DX2                !
 ! D12   D(11,2,3,13)          -56.3278         estimate D2E/DX2                !
 ! D13   D(1,2,7,6)            177.2423         estimate D2E/DX2                !
 ! D14   D(1,2,7,8)            -59.3339         estimate D2E/DX2                !
 ! D15   D(1,2,7,18)            61.298          estimate D2E/DX2                !
 ! D16   D(3,2,7,6)             51.2007         estimate D2E/DX2                !
 ! D17   D(3,2,7,8)            174.6245         estimate D2E/DX2                !
 ! D18   D(3,2,7,18)           -64.7436         estimate D2E/DX2                !
 ! D19   D(11,2,7,6)           -67.645          estimate D2E/DX2                !
 ! D20   D(11,2,7,8)            55.7788         estimate D2E/DX2                !
 ! D21   D(11,2,7,18)          176.4107         estimate D2E/DX2                !
 ! D22   D(2,3,4,5)             56.1789         estimate D2E/DX2                !
 ! D23   D(2,3,4,14)           174.6246         estimate D2E/DX2                !
 ! D24   D(2,3,4,15)           -65.9896         estimate D2E/DX2                !
 ! D25   D(12,3,4,5)           -63.9615         estimate D2E/DX2                !
 ! D26   D(12,3,4,14)           54.4842         estimate D2E/DX2                !
 ! D27   D(12,3,4,15)          173.87           estimate D2E/DX2                !
 ! D28   D(13,3,4,5)           178.0451         estimate D2E/DX2                !
 ! D29   D(13,3,4,14)          -63.5092         estimate D2E/DX2                !
 ! D30   D(13,3,4,15)           55.8766         estimate D2E/DX2                !
 ! D31   D(3,4,5,6)            -61.0318         estimate D2E/DX2                !
 ! D32   D(14,4,5,6)           177.6524         estimate D2E/DX2                !
 ! D33   D(15,4,5,6)            61.1254         estimate D2E/DX2                !
 ! D34   D(4,5,6,7)             61.6545         estimate D2E/DX2                !
 ! D35   D(4,5,6,16)          -177.7013         estimate D2E/DX2                !
 ! D36   D(4,5,6,17)           -60.078          estimate D2E/DX2                !
 ! D37   D(5,6,7,2)            -56.3786         estimate D2E/DX2                !
 ! D38   D(5,6,7,8)            179.0253         estimate D2E/DX2                !
 ! D39   D(5,6,7,18)            59.8915         estimate D2E/DX2                !
 ! D40   D(16,6,7,2)          -175.1521         estimate D2E/DX2                !
 ! D41   D(16,6,7,8)            60.2518         estimate D2E/DX2                !
 ! D42   D(16,6,7,18)          -58.8821         estimate D2E/DX2                !
 ! D43   D(17,6,7,2)            66.4989         estimate D2E/DX2                !
 ! D44   D(17,6,7,8)           -58.0972         estimate D2E/DX2                !
 ! D45   D(17,6,7,18)         -177.231          estimate D2E/DX2                !
 --------------------------------------------------------------------------------
 Trust Radius=3.00D-01 FncErr=1.00D-07 GrdErr=1.00D-06
 Number of steps in this run=    110 maximum allowed number of steps=    114.
 GradGradGradGradGradGradGradGradGradGradGradGradGradGradGradGradGradGrad

                          Input orientation:                          
 ---------------------------------------------------------------------
 Center     Atomic      Atomic             Coordinates (Angstroms)
 Number     Number       Type             X           Y           Z
 ---------------------------------------------------------------------
      1          8           0       -1.680979   -1.993139    3.308679
      2          6           0       -1.183010   -0.845492    2.648966
      3          6           0       -0.352046    0.048776    3.576098
      4          6           0        0.128100    1.303409    2.842574
      5          8           0       -0.959757    2.026081    2.291294
      6          6           0       -1.678252    1.265148    1.346508
      7          6           0       -2.301122   -0.003782    1.983529
      8          6           0       -3.055410   -0.757964    0.992434
      9          6           0       -3.656764   -1.349547    0.136121
     10          1           0       -2.259843   -1.700821    4.021696
     11          1           0       -0.539635   -1.239181    1.852502
     12          1           0       -0.969945    0.352463    4.432271
     13          1           0        0.498761   -0.518643    3.967353
     14          1           0        0.639922    1.988540    3.523636
     15          1           0        0.838988    1.025352    2.045630
     16          1           0       -2.464252    1.910842    0.948533
     17          1           0       -1.028036    0.962011    0.509247
     18          1           0       -2.980737    0.334952    2.779902
     19          1           0       -4.195869   -1.885484   -0.605234
 ---------------------------------------------------------------------
                    Distance matrix (angstroms):
                    1          2          3          4          5
     1  O    0.000000
     2  C    1.414315   0.000000
     3  C    2.450916   1.532903   0.000000
     4  C    3.789096   2.524732   1.530589   0.000000
     5  O    4.208249   2.902361   2.435112   1.417603   0.000000
     6  C    3.803492   2.529122   2.865215   2.345759   1.409920
     7  C    2.469441   1.549663   2.517525   2.889260   2.452411
     8  C    2.963057   2.501527   3.825483   4.219835   3.718830
     9  C    3.792501   3.562011   4.970906   5.356142   4.828404
    10  H    0.963809   1.943077   2.626658   4.014723   4.309793
    11  H    1.997890   1.096939   2.159816   2.809070   3.321291
    12  H    2.696271   2.158859   1.098662   2.153402   2.717515
    13  H    2.712794   2.161788   1.094951   2.173106   3.378175
    14  H    4.613736   3.481360   2.179321   1.093258   2.019666
    15  H    4.129989   2.820026   2.171312   1.103539   2.072991
    16  H    4.628701   3.482877   3.851338   3.267516   2.019850
    17  H    4.122628   2.805259   3.270556   2.626332   2.076679
    18  H    2.718269   2.154627   2.761493   3.256794   2.680115
    19  H    4.653491   4.555076   5.999989   6.383818   5.844881
                    6          7          8          9         10
     6  C    0.000000
     7  C    1.550466   0.000000
     8  C    2.472835   1.456025   0.000000
     9  C    3.495165   2.657399   1.202028   0.000000
    10  H    4.036316   2.652503   3.270831   4.143969   0.000000
    11  H    2.797167   2.155508   2.701927   3.560146   2.806711
    12  H    3.294940   2.809854   4.173091   5.345348   2.459346
    13  H    3.845793   3.469868   4.641071   5.712891   3.001732
    14  H    3.261459   3.871823   5.254117   6.409337   4.718908
    15  H    2.623504   3.305036   4.410869   5.431221   4.575982
    16  H    1.092292   2.182570   2.733846   3.565422   4.746601
    17  H    1.102578   2.174169   2.702226   3.520331   4.576606
    18  H    2.148569   1.100376   2.096445   3.206888   2.491207
    19  H    4.480421   3.719216   2.263734   1.061823   5.019042
                   11         12         13         14         15
    11  H    0.000000
    12  H    3.061651   0.000000
    13  H    2.463744   1.769766   0.000000
    14  H    3.821286   2.468611   2.550055   0.000000
    15  H    2.658197   3.069377   2.488512   1.775348   0.000000
    16  H    3.800521   4.098528   4.878024   4.033992   3.591534
    17  H    2.624522   3.970522   4.059796   3.594772   2.418732
    18  H    3.049089   2.602675   3.774331   4.049280   3.950457
    19  H    4.452664   6.386818   6.694502   7.445838   6.391387
                   16         17         18         19
    16  H    0.000000
    17  H    1.776505   0.000000
    18  H    2.470647   3.059758   0.000000
    19  H    4.452502   4.402892   4.226823   0.000000
 Stoichiometry    C7H10O2
 Framework group  C1[X(C7H10O2)]
 Deg. of freedom    51
 Full point group                 C1      NOp   1
 Largest Abelian subgroup         C1      NOp   1
 Largest concise Abelian subgroup C1      NOp   1
                         Standard orientation:                         
 ---------------------------------------------------------------------
 Center     Atomic      Atomic             Coordinates (Angstroms)
 Number     Number       Type             X           Y           Z
 ---------------------------------------------------------------------
      1          8           0       -0.662263    2.177999   -0.086471
      2          6           0        0.004770    0.985377    0.278233
      3          6           0        1.509002    1.043578   -0.011057
      4          6           0        2.188588   -0.279575    0.349681
      5          8           0        1.588828   -1.369168   -0.330520
      6          6           0        0.227264   -1.518918    0.003531
      7          6           0       -0.603298   -0.271503   -0.394047
      8          6           0       -2.007431   -0.461980   -0.059174
      9          6           0       -3.152804   -0.662820    0.245217
     10          1           0       -0.556261    2.301609   -1.036424
     11          1           0       -0.153292    0.897460    1.360158
     12          1           0        1.662523    1.241697   -1.080747
     13          1           0        1.957938    1.872296    0.546259
     14          1           0        3.242093   -0.275940    0.057576
     15          1           0        2.140804   -0.442971    1.440010
     16          1           0       -0.137024   -2.399308   -0.530613
     17          1           0        0.105038   -1.699708    1.084297
     18          1           0       -0.500630   -0.148665   -1.482715
     19          1           0       -4.170269   -0.822073    0.503814
 ---------------------------------------------------------------------
 Rotational constants (GHZ):      2.4539589      1.3950575      0.9470541
 Standard basis: 6-31G(2df,p) (6D, 7F)
 There are   329 symmetry adapted cartesian basis functions of A   symmetry.
 There are   302 symmetry adapted basis functions of A   symmetry.
   302 basis functions,   466 primitive gaussians,   329 cartesian basis functions
    34 alpha electrons       34 beta electrons
       nuclear repulsion energy       454.0294864121 Hartrees.
 NAtoms=   19 NActive=   19 NUniq=   19 SFac= 1.00D+00 NAtFMM=   60 NAOKFM=F Big=F
 Integral buffers will be    131072 words long.
 Raffenetti 2 integral format.
 Two-electron integral symmetry is turned on.
 One-electron integrals computed using PRISM.
 NBasis=   302 RedAO= T EigKep=  1.34D-04  NBF=   302
 NBsUse=   302 1.00D-06 EigRej= -1.00D+00 NBFU=   302
 ExpMin= 1.61D-01 ExpMax= 5.48D+03 ExpMxC= 8.25D+02 IAcc=1 IRadAn=         1 AccDes= 0.00D+00
 Harris functional with IExCor=  402 and IRadAn=       1 diagonalized for initial guess.
 HarFok:  IExCor=  402 AccDes= 0.00D+00 IRadAn=         1 IDoV= 1 UseB2=F ITyADJ=14
 ICtDFT=  3500011 ScaDFX=  1.000000  1.000000  1.000000  1.000000
 FoFCou: FMM=F IPFlag=           0 FMFlag=      100000 FMFlg1=           0
         NFxFlg=           0 DoJE=T BraDBF=F KetDBF=T FulRan=T
         wScrn=  0.000000 ICntrl=     500 IOpCl=  0 I1Cent=   200000004 NGrid=           0
         NMat0=    1 NMatS0=      1 NMatT0=    0 NMatD0=    1 NMtDS0=    0 NMtDT0=    0
 Petite list used in FoFCou.
 Requested convergence on RMS density matrix=1.00D-08 within 128 cycles.
 Requested convergence on MAX density matrix=1.00D-06.
 Requested convergence on             energy=1.00D-06.
 No special actions if energy rises.
 Integral accuracy reduced to 1.0D-05 until final iterations.
 Initial convergence to 1.0D-05 achieved.  Increase integral accuracy.
 SCF Done:  E(RB3LYP) =  -423.155365579     A.U. after   13 cycles
            NFock= 13  Conv=0.55D-08     -V/T= 2.0074

 **********************************************************************

            Population analysis using the SCF density.

 **********************************************************************

 Orbital symmetries:
       Occupied  (A) (A) (A) (A) (A) (A) (A) (A) (A) (A) (A) (A)
                 (A) (A) (A) (A) (A) (A) (A) (A) (A) (A) (A) (A)
                 (A) (A) (A) (A) (A) (A) (A) (A) (A) (A)
       Virtual   (A) (A) (A) (A) (A) (A) (A) (A) (A) (A) (A) (A)
                 (A) (A) (A) (A) (A) (A) (A) (A) (A) (A) (A) (A)
                 (A) (A) (A) (A) (A) (A) (A) (A) (A) (A) (A) (A)
                 (A) (A) (A) (A) (A) (A) (A) (A) (A) (A) (A) (A)
                 (A) (A) (A) (A) (A) (A) (A) (A) (A) (A) (A) (A)
                 (A) (A) (A) (A) (A) (A) (A) (A) (A) (A) (A) (A)
                 (A) (A) (A) (A) (A) (A) (A) (A) (A) (A) (A) (A)
                 (A) (A) (A) (A) (A) (A) (A) (A) (A) (A) (A) (A)
                 (A) (A) (A) (A) (A) (A) (A) (A) (A) (A) (A) (A)
                 (A) (A) (A) (A) (A) (A) (A) (A) (A) (A) (A) (A)
                 (A) (A) (A) (A) (A) (A) (A) (A) (A) (A) (A) (A)
                 (A) (A) (A) (A) (A) (A) (A) (A) (A) (A) (A) (A)
                 (A) (A) (A) (A) (A) (A) (A) (A) (A) (A) (A) (A)
                 (A) (A) (A) (A) (A) (A) (A) (A) (A) (A) (A) (A)
                 (A) (A) (A) (A) (A) (A) (A) (A) (A) (A) (A) (A)
                 (A) (A) (A) (A) (A) (A) (A) (A) (A) (A) (A) (A)
                 (A) (A) (A) (A) (A) (A) (A) (A) (A) (A) (A) (A)
                 (A) (A) (A) (A) (A) (A) (A) (A) (A) (A) (A) (A)
                 (A) (A) (A) (A) (A) (A) (A) (A) (A) (A) (A) (A)
                 (A) (A) (A) (A) (A) (A) (A) (A) (A) (A) (A) (A)
                 (A) (A) (A) (A) (A) (A) (A) (A) (A) (A) (A) (A)
                 (A) (A) (A) (A) (A) (A) (A) (A) (A) (A) (A) (A)
                 (A) (A) (A) (A)
 The electronic state is 1-A.
 Alpha  occ. eigenvalues --  -19.14653 -19.14000 -10.24113 -10.23635 -10.23478
 Alpha  occ. eigenvalues --  -10.21229 -10.18821 -10.18001 -10.17137  -1.04300
 Alpha  occ. eigenvalues --   -1.02395  -0.81309  -0.77921  -0.72693  -0.65519
 Alpha  occ. eigenvalues --   -0.64572  -0.59019  -0.53792  -0.51197  -0.48582
 Alpha  occ. eigenvalues --   -0.47605  -0.46212  -0.45129  -0.44724  -0.40494
 Alpha  occ. eigenvalues --   -0.38752  -0.37059  -0.36036  -0.33869  -0.31287
 Alpha  occ. eigenvalues --   -0.28241  -0.27423  -0.25946  -0.25057
 Alpha virt. eigenvalues --    0.04995   0.05302   0.07593   0.08942   0.11065
 Alpha virt. eigenvalues --    0.12816   0.13138   0.13841   0.15509   0.16405
 Alpha virt. eigenvalues --    0.17109   0.17436   0.18313   0.21945   0.23685
 Alpha virt. eigenvalues --    0.24384   0.25261   0.26400   0.27544   0.29052
 Alpha virt. eigenvalues --    0.38844   0.43683   0.44829   0.45052   0.47072
 Alpha virt. eigenvalues --    0.48015   0.50193   0.50627   0.52212   0.54176
 Alpha virt. eigenvalues --    0.54487   0.56908   0.58154   0.60022   0.61046
 Alpha virt. eigenvalues --    0.63168   0.63808   0.67648   0.69281   0.69609
 Alpha virt. eigenvalues --    0.71471   0.72215   0.73410   0.74264   0.74373
 Alpha virt. eigenvalues --    0.76479   0.76903   0.78489   0.78944   0.80202
 Alpha virt. eigenvalues --    0.81292   0.82373   0.84141   0.85186   0.86793
 Alpha virt. eigenvalues --    0.87447   0.90381   0.91410   0.93636   0.94964
 Alpha virt. eigenvalues --    0.97518   0.99014   1.03716   1.04330   1.07382
 Alpha virt. eigenvalues --    1.08233   1.09854   1.13056   1.13809   1.16306
 Alpha virt. eigenvalues --    1.19035   1.22604   1.23504   1.24975   1.26207
 Alpha virt. eigenvalues --    1.29042   1.30082   1.32927   1.33801   1.36894
 Alpha virt. eigenvalues --    1.38241   1.41204   1.45369   1.47174   1.47822
 Alpha virt. eigenvalues --    1.48038   1.50839   1.55248   1.55736   1.58451
 Alpha virt. eigenvalues --    1.59286   1.61985   1.64334   1.66003   1.68103
 Alpha virt. eigenvalues --    1.70629   1.73038   1.76156   1.76630   1.81038
 Alpha virt. eigenvalues --    1.81332   1.84466   1.86722   1.89731   1.91344
 Alpha virt. eigenvalues --    1.97281   1.99716   2.02830   2.06634   2.13909
 Alpha virt. eigenvalues --    2.18744   2.24130   2.25600   2.31456   2.32627
 Alpha virt. eigenvalues --    2.33768   2.37957   2.42082   2.45303   2.46637
 Alpha virt. eigenvalues --    2.49590   2.54573   2.54719   2.56609   2.57703
 Alpha virt. eigenvalues --    2.62514   2.63337   2.65973   2.67853   2.68183
 Alpha virt. eigenvalues --    2.69410   2.72562   2.74810   2.75644   2.77461
 Alpha virt. eigenvalues --    2.80461   2.82886   2.83897   2.84669   2.85428
 Alpha virt. eigenvalues --    2.89974   2.92853   2.95586   2.96351   2.98568
 Alpha virt. eigenvalues --    2.99366   3.03901   3.07082   3.08498   3.09321
 Alpha virt. eigenvalues --    3.10417   3.11936   3.14986   3.16880   3.18257
 Alpha virt. eigenvalues --    3.23280   3.27857   3.29382   3.31146   3.34005
 Alpha virt. eigenvalues --    3.37421   3.41497   3.42595   3.44943   3.45903
 Alpha virt. eigenvalues --    3.48210   3.49843   3.51921   3.53458   3.57998
 Alpha virt. eigenvalues --    3.58531   3.59713   3.63016   3.68388   3.69632
 Alpha virt. eigenvalues --    3.73102   3.74740   3.76075   3.81630   3.82986
 Alpha virt. eigenvalues --    3.88526   3.90314   3.94381   3.97201   4.02918
 Alpha virt. eigenvalues --    4.07981   4.08976   4.15364   4.17709   4.21241
 Alpha virt. eigenvalues --    4.21822   4.23774   4.27885   4.30716   4.34896
 Alpha virt. eigenvalues --    4.35671   4.38367   4.39485   4.40883   4.43157
 Alpha virt. eigenvalues --    4.44839   4.48879   4.51038   4.53206   4.55274
 Alpha virt. eigenvalues --    4.57301   4.57830   4.59231   4.61207   4.62063
 Alpha virt. eigenvalues --    4.63725   4.65612   4.68309   4.71523   4.74293
 Alpha virt. eigenvalues --    4.75667   4.77546   4.78409   4.82949   4.83606
 Alpha virt. eigenvalues --    4.84802   4.85512   4.86368   4.89752   4.91265
 Alpha virt. eigenvalues --    4.95440   5.00925   5.01618   5.04892   5.05137
 Alpha virt. eigenvalues --    5.12039   5.18526   5.20082   5.25382   5.29452
 Alpha virt. eigenvalues --    5.31685   5.33315   5.35454   5.38660   5.40464
 Alpha virt. eigenvalues --    5.46676   5.49193   5.52641   5.54936   5.63510
 Alpha virt. eigenvalues --    5.68731   5.80749   5.90500   5.96857   6.00162
 Alpha virt. eigenvalues --    6.08173   6.09150   6.12286   6.22834   6.27896
 Alpha virt. eigenvalues --    6.42280   7.06596   7.10303   7.46467   9.71580
 Alpha virt. eigenvalues --   10.97190  11.31947  11.74860  11.94639  12.48108
 Alpha virt. eigenvalues --   12.80294  13.28966  13.43099
          Condensed to atoms (all electrons):
               1          2          3          4          5          6
     1  O    7.813958   0.391980  -0.037917   0.002462   0.000009   0.002432
     2  C    0.391980   4.646987   0.388868  -0.023162  -0.007034  -0.017466
     3  C   -0.037917   0.388868   5.111440   0.308134  -0.049199   0.000618
     4  C    0.002462  -0.023162   0.308134   4.815972   0.392261  -0.099955
     5  O    0.000009  -0.007034  -0.049199   0.392261   7.651159   0.385845
     6  C    0.002432  -0.017466   0.000618  -0.099955   0.385845   4.873102
     7  C   -0.046685   0.376034  -0.041362   0.001512  -0.042158   0.307666
     8  C    0.004163  -0.037186   0.002924   0.000645   0.001808  -0.031167
     9  C   -0.001691  -0.004370  -0.000082   0.000053  -0.000003  -0.000881
    10  H    0.314520  -0.077674  -0.002865  -0.000032   0.000017   0.000097
    11  H   -0.013334   0.340380  -0.045289  -0.000816  -0.000345  -0.002683
    12  H   -0.000523  -0.029818   0.342274  -0.022009   0.000441   0.000477
    13  H    0.001247  -0.021274   0.345759  -0.017441   0.002595  -0.000226
    14  H   -0.000050   0.002236  -0.025988   0.367126  -0.018677   0.004608
    15  H    0.000086  -0.009239  -0.052203   0.360013  -0.034617  -0.003433
    16  H   -0.000045   0.003043  -0.000206   0.005523  -0.013641   0.357486
    17  H    0.000080  -0.012064  -0.001801  -0.004674  -0.031892   0.352555
    18  H   -0.000962  -0.044004  -0.006026   0.001226   0.001905  -0.034203
    19  H   -0.000010   0.000024   0.000000   0.000000   0.000000   0.000049
               7          8          9         10         11         12
     1  O   -0.046685   0.004163  -0.001691   0.314520  -0.013334  -0.000523
     2  C    0.376034  -0.037186  -0.004370  -0.077674   0.340380  -0.029818
     3  C   -0.041362   0.002924  -0.000082  -0.002865  -0.045289   0.342274
     4  C    0.001512   0.000645   0.000053  -0.000032  -0.000816  -0.022009
     5  O   -0.042158   0.001808  -0.000003   0.000017  -0.000345   0.000441
     6  C    0.307666  -0.031167  -0.000881   0.000097  -0.002683   0.000477
     7  C    5.184925   0.348102  -0.053177  -0.002479  -0.048504  -0.007495
     8  C    0.348102   4.495947   0.904818  -0.000432  -0.000636   0.000940
     9  C   -0.053177   0.904818   5.208040   0.000079   0.002331   0.000033
    10  H   -0.002479  -0.000432   0.000079   0.471923   0.008119   0.005872
    11  H   -0.048504  -0.000636   0.002331   0.008119   0.644525   0.006344
    12  H   -0.007495   0.000940   0.000033   0.005872   0.006344   0.638872
    13  H    0.004495  -0.000107  -0.000003  -0.000206  -0.005528  -0.036449
    14  H    0.000042  -0.000022   0.000000   0.000000  -0.000190  -0.005693
    15  H   -0.001920   0.000694   0.000025   0.000024   0.004193   0.006439
    16  H   -0.020563  -0.001234   0.001527   0.000001  -0.000215  -0.000048
    17  H   -0.058095   0.011891   0.004500   0.000023   0.005183   0.000258
    18  H    0.325533  -0.017202   0.000552   0.005205   0.006964   0.005235
    19  H   -0.000240  -0.000519   0.374927   0.000000   0.000002   0.000000
              13         14         15         16         17         18
     1  O    0.001247  -0.000050   0.000086  -0.000045   0.000080  -0.000962
     2  C   -0.021274   0.002236  -0.009239   0.003043  -0.012064  -0.044004
     3  C    0.345759  -0.025988  -0.052203  -0.000206  -0.001801  -0.006026
     4  C   -0.017441   0.367126   0.360013   0.005523  -0.004674   0.001226
     5  O    0.002595  -0.018677  -0.034617  -0.013641  -0.031892   0.001905
     6  C   -0.000226   0.004608  -0.003433   0.357486   0.352555  -0.034203
     7  C    0.004495   0.000042  -0.001920  -0.020563  -0.058095   0.325533
     8  C   -0.000107  -0.000022   0.000694  -0.001234   0.011891  -0.017202
     9  C   -0.000003   0.000000   0.000025   0.001527   0.004500   0.000552
    10  H   -0.000206   0.000000   0.000024   0.000001   0.000023   0.005205
    11  H   -0.005528  -0.000190   0.004193  -0.000215   0.005183   0.006964
    12  H   -0.036449  -0.005693   0.006439  -0.000048   0.000258   0.005235
    13  H    0.619289  -0.000029  -0.000104   0.000022   0.000035  -0.000143
    14  H   -0.000029   0.606970  -0.042154  -0.000290  -0.000040  -0.000034
    15  H   -0.000104  -0.042154   0.666562  -0.000036   0.013361   0.000248
    16  H    0.000022  -0.000290  -0.000036   0.592731  -0.040823  -0.005888
    17  H    0.000035  -0.000040   0.013361  -0.040823   0.654785   0.006906
    18  H   -0.000143  -0.000034   0.000248  -0.005888   0.006906   0.657104
    19  H    0.000000   0.000000   0.000000   0.000007   0.000024  -0.000055
              19
     1  O   -0.000010
     2  C    0.000024
     3  C    0.000000
     4  C    0.000000
     5  O    0.000000
     6  C    0.000049
     7  C   -0.000240
     8  C   -0.000519
     9  C    0.374927
    10  H    0.000000
    11  H    0.000002
    12  H    0.000000
    13  H    0.000000
    14  H    0.000000
    15  H    0.000000
    16  H    0.000007
    17  H    0.000024
    18  H   -0.000055
    19  H    0.431319
 Mulliken charges:
               1
     1  O   -0.429720
     2  C    0.133740
     3  C   -0.237079
     4  C   -0.086837
     5  O   -0.238475
     6  C   -0.094921
     7  C   -0.225629
     8  C    0.316573
     9  C   -0.436678
    10  H    0.277806
    11  H    0.099501
    12  H    0.094850
    13  H    0.108070
    14  H    0.112185
    15  H    0.092062
    16  H    0.122650
    17  H    0.099790
    18  H    0.097639
    19  H    0.194471
 Sum of Mulliken charges =   0.00000
 Mulliken charges with hydrogens summed into heavy atoms:
               1
     1  O   -0.151913
     2  C    0.233241
     3  C   -0.034158
     4  C    0.117410
     5  O   -0.238475
     6  C    0.127519
     7  C   -0.127991
     8  C    0.316573
     9  C   -0.242206
 Electronic spatial extent (au):  <R**2>=           1227.7282
 Charge=              0.0000 electrons
 Dipole moment (field-independent basis, Debye):
    X=              0.7508    Y=              0.1371    Z=             -0.3359  Tot=              0.8339
 Quadrupole moment (field-independent basis, Debye-Ang):
   XX=            -50.9577   YY=            -57.2289   ZZ=            -50.8812
   XY=              5.1573   XZ=              1.1221   YZ=             -3.7650
 Traceless Quadrupole moment (field-independent basis, Debye-Ang):
   XX=              2.0649   YY=             -4.2063   ZZ=              2.1414
   XY=              5.1573   XZ=              1.1221   YZ=             -3.7650
 Octapole moment (field-independent basis, Debye-Ang**2):
  XXX=            -12.9904  YYY=             -0.1547  ZZZ=             -4.4857  XYY=              2.3334
  XXY=              0.0857  XXZ=              8.1445  XZZ=              2.5670  YZZ=              7.1123
  YYZ=             -7.7270  XYZ=              1.3669
 Hexadecapole moment (field-independent basis, Debye-Ang**3):
 XXXX=           -790.8804 YYYY=           -521.5698 ZZZZ=           -107.6931 XXXY=             26.7732
 XXXZ=            -32.1057 YYYX=             -2.9121 YYYZ=            -17.0284 ZZZX=              1.3133
 ZZZY=             -5.4224 XXYY=           -262.6812 XXZZ=           -185.6863 YYZZ=            -91.5347
 XXYZ=             -9.7676 YYXZ=              7.4055 ZZXY=             -7.4373
 N-N= 4.540294864121D+02 E-N=-1.894872616422D+03  KE= 4.200596065174D+02
 Calling FoFJK, ICntrl=      2127 FMM=F ISym2X=0 I1Cent= 0 IOpClX= 0 NMat=1 NMatS=1 NMatT=0.
 ***** Axes restored to original set *****
 -------------------------------------------------------------------
 Center     Atomic                   Forces (Hartrees/Bohr)
 Number     Number              X              Y              Z
 -------------------------------------------------------------------
      1        8          -0.000000449   -0.000001734    0.000002980
      2        6           0.000004042    0.000005403   -0.000002638
      3        6          -0.000005257   -0.000014715    0.000000011
      4        6           0.000006151    0.000003633   -0.000001484
      5        8           0.000003882    0.000015621    0.000018325
      6        6          -0.000013267   -0.000032050   -0.000010135
      7        6           0.000011487    0.000015372    0.000002322
      8        6           0.000001567   -0.000007826    0.000002069
      9        6          -0.000006867   -0.000004285   -0.000009821
     10        1          -0.000004925   -0.000002212    0.000004063
     11        1          -0.000000491    0.000000264   -0.000002944
     12        1          -0.000000418    0.000004885   -0.000001000
     13        1          -0.000000523    0.000003535    0.000000678
     14        1           0.000001962    0.000003498   -0.000001736
     15        1          -0.000002528    0.000001752   -0.000001290
     16        1           0.000004158    0.000003586   -0.000001857
     17        1           0.000000801    0.000002914   -0.000002544
     18        1          -0.000003559    0.000000680   -0.000000810
     19        1           0.000004234    0.000001679    0.000005810
 -------------------------------------------------------------------
 Cartesian Forces:  Max     0.000032050 RMS     0.000007383

 GradGradGradGradGradGradGradGradGradGradGradGradGradGradGradGradGradGrad
 Berny optimization.
 FormGI is forming the generalized inverse of G from B-inverse, IUseBI=4.
 Internal  Forces:  Max     0.000021206 RMS     0.000003511
 Search for a local minimum.
 Step number   1 out of a maximum of  110
 All quantities printed in internal units (Hartrees-Bohrs-Radians)
 Mixed Optimization -- En-DIIS/RFO-DIIS
 Second derivative matrix not updated -- first step.
 ITU=  0
     Eigenvalues ---    0.00516   0.00599   0.00608   0.00608   0.01340
     Eigenvalues ---    0.01502   0.02664   0.03215   0.04182   0.04708
     Eigenvalues ---    0.04708   0.04799   0.04877   0.05032   0.05245
     Eigenvalues ---    0.05751   0.06129   0.06371   0.06665   0.07920
     Eigenvalues ---    0.08022   0.08870   0.10579   0.11016   0.11652
     Eigenvalues ---    0.11727   0.13784   0.15700   0.16000   0.17418
     Eigenvalues ---    0.18115   0.22151   0.26901   0.27179   0.28481
     Eigenvalues ---    0.28915   0.33294   0.33399   0.33641   0.33831
     Eigenvalues ---    0.34023   0.34247   0.34439   0.34549   0.37466
     Eigenvalues ---    0.38283   0.41316   0.42423   0.43328   0.54662
     Eigenvalues ---    1.03811
 RFO step:  Lambda= 0.00000000D+00 EMin= 5.15751347D-03
 Linear search not attempted -- first point.
 Iteration  1 RMS(Cart)=  0.00004631 RMS(Int)=  0.00000000
 Iteration  2 RMS(Cart)=  0.00000000 RMS(Int)=  0.00000000
 Variable       Old X    -DE/DX   Delta X   Delta X   Delta X     New X
                                 (Linear)    (Quad)   (Total)
    R1        2.67267   0.00001   0.00000   0.00002   0.00002   2.67269
    R2        1.82134   0.00000   0.00000   0.00001   0.00001   1.82134
    R3        2.89677   0.00000   0.00000   0.00000   0.00000   2.89676
    R4        2.92844   0.00000   0.00000  -0.00001  -0.00001   2.92843
    R5        2.07291   0.00000   0.00000   0.00001   0.00001   2.07292
    R6        2.89239   0.00001   0.00000   0.00003   0.00003   2.89242
    R7        2.07617   0.00000   0.00000   0.00000   0.00000   2.07617
    R8        2.06916   0.00000   0.00000   0.00000   0.00000   2.06915
    R9        2.67888   0.00000   0.00000   0.00000   0.00000   2.67888
   R10        2.06596   0.00000   0.00000   0.00001   0.00001   2.06596
   R11        2.08539   0.00000   0.00000   0.00000   0.00000   2.08538
   R12        2.66436   0.00002   0.00000   0.00005   0.00005   2.66441
   R13        2.92996  -0.00001   0.00000  -0.00003  -0.00003   2.92992
   R14        2.06413   0.00000   0.00000   0.00000   0.00000   2.06413
   R15        2.08357   0.00000   0.00000   0.00000   0.00000   2.08357
   R16        2.75149   0.00001   0.00000   0.00002   0.00002   2.75151
   R17        2.07941   0.00000   0.00000   0.00001   0.00001   2.07942
   R18        2.27150   0.00001   0.00000   0.00000   0.00000   2.27151
   R19        2.00656  -0.00001   0.00000  -0.00002  -0.00002   2.00654
    A1        1.88645   0.00001   0.00000   0.00005   0.00005   1.88650
    A2        1.96289   0.00000   0.00000   0.00001   0.00001   1.96290
    A3        1.96818   0.00000   0.00000   0.00000   0.00000   1.96817
    A4        1.82757   0.00000   0.00000   0.00001   0.00001   1.82758
    A5        1.91131   0.00000   0.00000   0.00000   0.00000   1.91131
    A6        1.90771   0.00000   0.00000   0.00001   0.00001   1.90772
    A7        1.88214   0.00000   0.00000  -0.00002  -0.00002   1.88212
    A8        1.93735   0.00000   0.00000   0.00001   0.00001   1.93736
    A9        1.90468   0.00000   0.00000   0.00001   0.00001   1.90468
   A10        1.91242   0.00000   0.00000   0.00002   0.00002   1.91244
   A11        1.90003   0.00000   0.00000  -0.00004  -0.00004   1.89998
   A12        1.93080   0.00000   0.00000   0.00000   0.00000   1.93079
   A13        1.87737   0.00000   0.00000   0.00001   0.00001   1.87737
   A14        1.94283   0.00000   0.00000  -0.00003  -0.00003   1.94280
   A15        1.94122   0.00000   0.00000   0.00004   0.00004   1.94126
   A16        1.91946   0.00000   0.00000   0.00001   0.00001   1.91947
   A17        1.85673   0.00000   0.00000   0.00001   0.00001   1.85673
   A18        1.91979   0.00000   0.00000  -0.00003  -0.00003   1.91977
   A19        1.88200   0.00000   0.00000   0.00000   0.00000   1.88200
   A20        1.95684  -0.00001   0.00000  -0.00005  -0.00005   1.95679
   A21        1.95100   0.00000   0.00000  -0.00001  -0.00001   1.95099
   A22        1.86692   0.00000   0.00000  -0.00004  -0.00004   1.86688
   A23        1.93554   0.00000   0.00000   0.00000   0.00000   1.93554
   A24        1.92241   0.00000   0.00000   0.00003   0.00003   1.92244
   A25        1.90063   0.00000   0.00000   0.00004   0.00004   1.90068
   A26        1.88621   0.00000   0.00000  -0.00002  -0.00002   1.88618
   A27        1.90826   0.00000   0.00000   0.00000   0.00000   1.90827
   A28        1.96571   0.00000   0.00000  -0.00002  -0.00002   1.96569
   A29        1.87764   0.00000   0.00000   0.00002   0.00002   1.87767
   A30        1.93090   0.00000   0.00000   0.00002   0.00002   1.93091
   A31        1.86871   0.00000   0.00000   0.00000   0.00000   1.86871
   A32        1.90935   0.00000   0.00000  -0.00002  -0.00002   1.90933
   A33        3.17484   0.00000   0.00000   0.00009   0.00009   3.17493
   A34        3.12576   0.00000   0.00000  -0.00024  -0.00024   3.12551
   A35        3.17776   0.00000   0.00000  -0.00004  -0.00004   3.17772
   A36        3.12157   0.00000   0.00000  -0.00007  -0.00007   3.12151
    D1        1.07562   0.00000   0.00000   0.00006   0.00006   1.07568
    D2       -1.09620   0.00000   0.00000   0.00005   0.00005  -1.09615
    D3       -3.13790   0.00000   0.00000   0.00008   0.00008  -3.13783
    D4       -3.10665   0.00000   0.00000   0.00003   0.00003  -3.10663
    D5       -1.01257   0.00000   0.00000  -0.00002  -0.00002  -1.01259
    D6        1.03887   0.00000   0.00000   0.00001   0.00001   1.03888
    D7       -0.90380   0.00000   0.00000   0.00003   0.00003  -0.90377
    D8        1.19028   0.00000   0.00000  -0.00001  -0.00001   1.19027
    D9       -3.04146   0.00000   0.00000   0.00001   0.00001  -3.04144
   D10        1.15455   0.00000   0.00000   0.00001   0.00001   1.15456
   D11       -3.03455   0.00000   0.00000  -0.00004  -0.00004  -3.03459
   D12       -0.98311   0.00000   0.00000  -0.00001  -0.00001  -0.98311
   D13        3.09346   0.00000   0.00000  -0.00002  -0.00002   3.09344
   D14       -1.03557   0.00000   0.00000  -0.00001  -0.00001  -1.03558
   D15        1.06985   0.00000   0.00000  -0.00003  -0.00003   1.06982
   D16        0.89362   0.00000   0.00000  -0.00003  -0.00003   0.89359
   D17        3.04777   0.00000   0.00000  -0.00002  -0.00002   3.04775
   D18       -1.12999   0.00000   0.00000  -0.00004  -0.00004  -1.13003
   D19       -1.18063   0.00000   0.00000  -0.00003  -0.00003  -1.18065
   D20        0.97352   0.00000   0.00000  -0.00002  -0.00002   0.97351
   D21        3.07895   0.00000   0.00000  -0.00004  -0.00004   3.07891
   D22        0.98051   0.00000   0.00000   0.00003   0.00003   0.98053
   D23        3.04777   0.00000   0.00000   0.00004   0.00004   3.04781
   D24       -1.15174   0.00000   0.00000   0.00007   0.00007  -1.15166
   D25       -1.11634   0.00000   0.00000   0.00004   0.00004  -1.11630
   D26        0.95093   0.00000   0.00000   0.00005   0.00005   0.95098
   D27        3.03460   0.00000   0.00000   0.00009   0.00009   3.03469
   D28        3.10747   0.00000   0.00000   0.00006   0.00006   3.10754
   D29       -1.10844   0.00000   0.00000   0.00007   0.00007  -1.10837
   D30        0.97523   0.00000   0.00000   0.00011   0.00011   0.97534
   D31       -1.06521   0.00000   0.00000  -0.00007  -0.00007  -1.06528
   D32        3.10062   0.00000   0.00000  -0.00010  -0.00010   3.10052
   D33        1.06684   0.00000   0.00000  -0.00009  -0.00009   1.06675
   D34        1.07607   0.00000   0.00000   0.00009   0.00009   1.07617
   D35       -3.10147   0.00001   0.00000   0.00010   0.00010  -3.10137
   D36       -1.04856   0.00000   0.00000   0.00005   0.00005  -1.04851
   D37       -0.98399   0.00000   0.00000  -0.00004  -0.00004  -0.98403
   D38        3.12458   0.00000   0.00000  -0.00002  -0.00002   3.12456
   D39        1.04530   0.00000   0.00000  -0.00001  -0.00001   1.04530
   D40       -3.05698   0.00000   0.00000   0.00000   0.00000  -3.05698
   D41        1.05159   0.00000   0.00000   0.00002   0.00002   1.05161
   D42       -1.02769   0.00000   0.00000   0.00003   0.00003  -1.02766
   D43        1.16062   0.00000   0.00000  -0.00002  -0.00002   1.16061
   D44       -1.01399   0.00000   0.00000   0.00000   0.00000  -1.01399
   D45       -3.09327   0.00000   0.00000   0.00001   0.00001  -3.09325
         Item               Value     Threshold  Converged?
 Maximum Force            0.000021     0.000450     YES
 RMS     Force            0.000004     0.000300     YES
 Maximum Displacement     0.000155     0.001800     YES
 RMS     Displacement     0.000046     0.001200     YES
 Predicted change in Energy=-3.681406D-09
 Optimization completed.
    -- Stationary point found.
                           ----------------------------
                           !   Optimized Parameters   !
                           ! (Angstroms and Degrees)  !
 --------------------------                            --------------------------
 ! Name  Definition              Value          Derivative Info.                !
 --------------------------------------------------------------------------------
 ! R1    R(1,2)                  1.4143         -DE/DX =    0.0                 !
 ! R2    R(1,10)                 0.9638         -DE/DX =    0.0                 !
 ! R3    R(2,3)                  1.5329         -DE/DX =    0.0                 !
 ! R4    R(2,7)                  1.5497         -DE/DX =    0.0                 !
 ! R5    R(2,11)                 1.0969         -DE/DX =    0.0                 !
 ! R6    R(3,4)                  1.5306         -DE/DX =    0.0                 !
 ! R7    R(3,12)                 1.0987         -DE/DX =    0.0                 !
 ! R8    R(3,13)                 1.095          -DE/DX =    0.0                 !
 ! R9    R(4,5)                  1.4176         -DE/DX =    0.0                 !
 ! R10   R(4,14)                 1.0933         -DE/DX =    0.0                 !
 ! R11   R(4,15)                 1.1035         -DE/DX =    0.0                 !
 ! R12   R(5,6)                  1.4099         -DE/DX =    0.0                 !
 ! R13   R(6,7)                  1.5505         -DE/DX =    0.0                 !
 ! R14   R(6,16)                 1.0923         -DE/DX =    0.0                 !
 ! R15   R(6,17)                 1.1026         -DE/DX =    0.0                 !
 ! R16   R(7,8)                  1.456          -DE/DX =    0.0                 !
 ! R17   R(7,18)                 1.1004         -DE/DX =    0.0                 !
 ! R18   R(8,9)                  1.202          -DE/DX =    0.0                 !
 ! R19   R(9,19)                 1.0618         -DE/DX =    0.0                 !
 ! A1    A(2,1,10)             108.0856         -DE/DX =    0.0                 !
 ! A2    A(1,2,3)              112.4655         -DE/DX =    0.0                 !
 ! A3    A(1,2,7)              112.7681         -DE/DX =    0.0                 !
 ! A4    A(1,2,11)             104.7121         -DE/DX =    0.0                 !
 ! A5    A(3,2,7)              109.51           -DE/DX =    0.0                 !
 ! A6    A(3,2,11)             109.3039         -DE/DX =    0.0                 !
 ! A7    A(7,2,11)             107.8388         -DE/DX =    0.0                 !
 ! A8    A(2,3,4)              111.0018         -DE/DX =    0.0                 !
 ! A9    A(2,3,12)             109.1299         -DE/DX =    0.0                 !
 ! A10   A(2,3,13)             109.5736         -DE/DX =    0.0                 !
 ! A11   A(4,3,12)             108.8636         -DE/DX =    0.0                 !
 ! A12   A(4,3,13)             110.6265         -DE/DX =    0.0                 !
 ! A13   A(12,3,13)            107.5652         -DE/DX =    0.0                 !
 ! A14   A(3,4,5)              111.316          -DE/DX =    0.0                 !
 ! A15   A(3,4,14)             111.2238         -DE/DX =    0.0                 !
 ! A16   A(3,4,15)             109.9767         -DE/DX =    0.0                 !
 ! A17   A(5,4,14)             106.3825         -DE/DX =    0.0                 !
 ! A18   A(5,4,15)             109.9961         -DE/DX =    0.0                 !
 ! A19   A(14,4,15)            107.8309         -DE/DX =    0.0                 !
 ! A20   A(4,5,6)              112.1184         -DE/DX =    0.0                 !
 ! A21   A(5,6,7)              111.7839         -DE/DX =    0.0                 !
 ! A22   A(5,6,16)             106.9667         -DE/DX =    0.0                 !
 ! A23   A(5,6,17)             110.8983         -DE/DX =    0.0                 !
 ! A24   A(7,6,16)             110.1459         -DE/DX =    0.0                 !
 ! A25   A(7,6,17)             108.8983         -DE/DX =    0.0                 !
 ! A26   A(16,6,17)            108.0717         -DE/DX =    0.0                 !
 ! A27   A(2,7,6)              109.3354         -DE/DX =    0.0                 !
 ! A28   A(2,7,8)              112.627          -DE/DX =    0.0                 !
 ! A29   A(2,7,18)             107.581          -DE/DX =    0.0                 !
 ! A30   A(6,7,8)              110.6323         -DE/DX =    0.0                 !
 ! A31   A(6,7,18)             107.0693         -DE/DX =    0.0                 !
 ! A32   A(8,7,18)             109.3978         -DE/DX =    0.0                 !
 ! A33   L(7,8,9,1,-1)         181.9047         -DE/DX =    0.0                 !
 ! A34   L(8,9,19,1,-1)        179.0927         -DE/DX =    0.0                 !
 ! A35   L(7,8,9,1,-2)         182.0723         -DE/DX =    0.0                 !
 ! A36   L(8,9,19,1,-2)        178.8529         -DE/DX =    0.0                 !
 ! D1    D(10,1,2,3)            61.6286         -DE/DX =    0.0                 !
 ! D2    D(10,1,2,7)           -62.8078         -DE/DX =    0.0                 !
 ! D3    D(10,1,2,11)         -179.7886         -DE/DX =    0.0                 !
 ! D4    D(1,2,3,4)           -177.9982         -DE/DX =    0.0                 !
 ! D5    D(1,2,3,12)           -58.0162         -DE/DX =    0.0                 !
 ! D6    D(1,2,3,13)            59.523          -DE/DX =    0.0                 !
 ! D7    D(7,2,3,4)            -51.7839         -DE/DX =    0.0                 !
 ! D8    D(7,2,3,12)            68.1981         -DE/DX =    0.0                 !
 ! D9    D(7,2,3,13)          -174.2627         -DE/DX =    0.0                 !
 ! D10   D(11,2,3,4)            66.1509         -DE/DX =    0.0                 !
 ! D11   D(11,2,3,12)         -173.867          -DE/DX =    0.0                 !
 ! D12   D(11,2,3,13)          -56.3278         -DE/DX =    0.0                 !
 ! D13   D(1,2,7,6)            177.2423         -DE/DX =    0.0                 !
 ! D14   D(1,2,7,8)            -59.3339         -DE/DX =    0.0                 !
 ! D15   D(1,2,7,18)            61.298          -DE/DX =    0.0                 !
 ! D16   D(3,2,7,6)             51.2007         -DE/DX =    0.0                 !
 ! D17   D(3,2,7,8)            174.6245         -DE/DX =    0.0                 !
 ! D18   D(3,2,7,18)           -64.7436         -DE/DX =    0.0                 !
 ! D19   D(11,2,7,6)           -67.645          -DE/DX =    0.0                 !
 ! D20   D(11,2,7,8)            55.7788         -DE/DX =    0.0                 !
 ! D21   D(11,2,7,18)          176.4107         -DE/DX =    0.0                 !
 ! D22   D(2,3,4,5)             56.1789         -DE/DX =    0.0                 !
 ! D23   D(2,3,4,14)           174.6246         -DE/DX =    0.0                 !
 ! D24   D(2,3,4,15)           -65.9896         -DE/DX =    0.0                 !
 ! D25   D(12,3,4,5)           -63.9615         -DE/DX =    0.0                 !
 ! D26   D(12,3,4,14)           54.4842         -DE/DX =    0.0                 !
 ! D27   D(12,3,4,15)          173.87           -DE/DX =    0.0                 !
 ! D28   D(13,3,4,5)           178.0451         -DE/DX =    0.0                 !
 ! D29   D(13,3,4,14)          -63.5092         -DE/DX =    0.0                 !
 ! D30   D(13,3,4,15)           55.8766         -DE/DX =    0.0                 !
 ! D31   D(3,4,5,6)            -61.0318         -DE/DX =    0.0                 !
 ! D32   D(14,4,5,6)           177.6524         -DE/DX =    0.0                 !
 ! D33   D(15,4,5,6)            61.1254         -DE/DX =    0.0                 !
 ! D34   D(4,5,6,7)             61.6545         -DE/DX =    0.0                 !
 ! D35   D(4,5,6,16)          -177.7013         -DE/DX =    0.0                 !
 ! D36   D(4,5,6,17)           -60.078          -DE/DX =    0.0                 !
 ! D37   D(5,6,7,2)            -56.3786         -DE/DX =    0.0                 !
 ! D38   D(5,6,7,8)            179.0253         -DE/DX =    0.0                 !
 ! D39   D(5,6,7,18)            59.8915         -DE/DX =    0.0                 !
 ! D40   D(16,6,7,2)          -175.1521         -DE/DX =    0.0                 !
 ! D41   D(16,6,7,8)            60.2518         -DE/DX =    0.0                 !
 ! D42   D(16,6,7,18)          -58.8821         -DE/DX =    0.0                 !
 ! D43   D(17,6,7,2)            66.4989         -DE/DX =    0.0                 !
 ! D44   D(17,6,7,8)           -58.0972         -DE/DX =    0.0                 !
 ! D45   D(17,6,7,18)         -177.231          -DE/DX =    0.0                 !
 --------------------------------------------------------------------------------
 GradGradGradGradGradGradGradGradGradGradGradGradGradGradGradGradGradGrad

                          Input orientation:                          
 ---------------------------------------------------------------------
 Center     Atomic      Atomic             Coordinates (Angstroms)
 Number     Number       Type             X           Y           Z
 ---------------------------------------------------------------------
      1          8           0       -1.680979   -1.993139    3.308679
      2          6           0       -1.183010   -0.845492    2.648966
      3          6           0       -0.352046    0.048776    3.576098
      4          6           0        0.128100    1.303409    2.842574
      5          8           0       -0.959757    2.026081    2.291294
      6          6           0       -1.678252    1.265148    1.346508
      7          6           0       -2.301122   -0.003782    1.983529
      8          6           0       -3.055410   -0.757964    0.992434
      9          6           0       -3.656764   -1.349547    0.136121
     10          1           0       -2.259843   -1.700821    4.021696
     11          1           0       -0.539635   -1.239181    1.852502
     12          1           0       -0.969945    0.352463    4.432271
     13          1           0        0.498761   -0.518643    3.967353
     14          1           0        0.639922    1.988540    3.523636
     15          1           0        0.838988    1.025352    2.045630
     16          1           0       -2.464252    1.910842    0.948533
     17          1           0       -1.028036    0.962011    0.509247
     18          1           0       -2.980737    0.334952    2.779902
     19          1           0       -4.195869   -1.885484   -0.605234
 ---------------------------------------------------------------------
                    Distance matrix (angstroms):
                    1          2          3          4          5
     1  O    0.000000
     2  C    1.414315   0.000000
     3  C    2.450916   1.532903   0.000000
     4  C    3.789096   2.524732   1.530589   0.000000
     5  O    4.208249   2.902361   2.435112   1.417603   0.000000
     6  C    3.803492   2.529122   2.865215   2.345759   1.409920
     7  C    2.469441   1.549663   2.517525   2.889260   2.452411
     8  C    2.963057   2.501527   3.825483   4.219835   3.718830
     9  C    3.792501   3.562011   4.970906   5.356142   4.828404
    10  H    0.963809   1.943077   2.626658   4.014723   4.309793
    11  H    1.997890   1.096939   2.159816   2.809070   3.321291
    12  H    2.696271   2.158859   1.098662   2.153402   2.717515
    13  H    2.712794   2.161788   1.094951   2.173106   3.378175
    14  H    4.613736   3.481360   2.179321   1.093258   2.019666
    15  H    4.129989   2.820026   2.171312   1.103539   2.072991
    16  H    4.628701   3.482877   3.851338   3.267516   2.019850
    17  H    4.122628   2.805259   3.270556   2.626332   2.076679
    18  H    2.718269   2.154627   2.761493   3.256794   2.680115
    19  H    4.653491   4.555076   5.999989   6.383818   5.844881
                    6          7          8          9         10
     6  C    0.000000
     7  C    1.550466   0.000000
     8  C    2.472835   1.456025   0.000000
     9  C    3.495165   2.657399   1.202028   0.000000
    10  H    4.036316   2.652503   3.270831   4.143969   0.000000
    11  H    2.797167   2.155508   2.701927   3.560146   2.806711
    12  H    3.294940   2.809854   4.173091   5.345348   2.459346
    13  H    3.845793   3.469868   4.641071   5.712891   3.001732
    14  H    3.261459   3.871823   5.254117   6.409337   4.718908
    15  H    2.623504   3.305036   4.410869   5.431221   4.575982
    16  H    1.092292   2.182570   2.733846   3.565422   4.746601
    17  H    1.102578   2.174169   2.702226   3.520331   4.576606
    18  H    2.148569   1.100376   2.096445   3.206888   2.491207
    19  H    4.480421   3.719216   2.263734   1.061823   5.019042
                   11         12         13         14         15
    11  H    0.000000
    12  H    3.061651   0.000000
    13  H    2.463744   1.769766   0.000000
    14  H    3.821286   2.468611   2.550055   0.000000
    15  H    2.658197   3.069377   2.488512   1.775348   0.000000
    16  H    3.800521   4.098528   4.878024   4.033992   3.591534
    17  H    2.624522   3.970522   4.059796   3.594772   2.418732
    18  H    3.049089   2.602675   3.774331   4.049280   3.950457
    19  H    4.452664   6.386818   6.694502   7.445838   6.391387
                   16         17         18         19
    16  H    0.000000
    17  H    1.776505   0.000000
    18  H    2.470647   3.059758   0.000000
    19  H    4.452502   4.402892   4.226823   0.000000
 Stoichiometry    C7H10O2
 Framework group  C1[X(C7H10O2)]
 Deg. of freedom    51
 Full point group                 C1      NOp   1
 Largest Abelian subgroup         C1      NOp   1
 Largest concise Abelian subgroup C1      NOp   1
                         Standard orientation:                         
 ---------------------------------------------------------------------
 Center     Atomic      Atomic             Coordinates (Angstroms)
 Number     Number       Type             X           Y           Z
 ---------------------------------------------------------------------
      1          8           0       -0.662263    2.177999   -0.086471
      2          6           0        0.004770    0.985377    0.278233
      3          6           0        1.509002    1.043578   -0.011057
      4          6           0        2.188588   -0.279575    0.349681
      5          8           0        1.588828   -1.369168   -0.330520
      6          6           0        0.227264   -1.518918    0.003531
      7          6           0       -0.603298   -0.271503   -0.394047
      8          6           0       -2.007431   -0.461980   -0.059174
      9          6           0       -3.152804   -0.662820    0.245217
     10          1           0       -0.556261    2.301609   -1.036424
     11          1           0       -0.153292    0.897460    1.360158
     12          1           0        1.662523    1.241697   -1.080747
     13          1           0        1.957938    1.872296    0.546259
     14          1           0        3.242093   -0.275940    0.057576
     15          1           0        2.140804   -0.442971    1.440010
     16          1           0       -0.137024   -2.399308   -0.530613
     17          1           0        0.105038   -1.699708    1.084297
     18          1           0       -0.500630   -0.148665   -1.482715
     19          1           0       -4.170269   -0.822073    0.503814
 ---------------------------------------------------------------------
 Rotational constants (GHZ):      2.4539589      1.3950575      0.9470541
 1\1\GINC-ALCHEMY-F\FOpt\RB3LYP\6-31G(2df,p)\C7H10O2\PUCK\28-Jan-2020\0
 \\# b3lyp 6-31G(2df,p) opt Freq\\titel\\0,1\O,-1.6809785069,-1.9931389
 67,3.3086787162\C,-1.1830100849,-0.8454921084,2.6489655597\C,-0.352046
 3724,0.0487756035,3.5760982153\C,0.1280998779,1.3034089108,2.842574179
 6\O,-0.9597570742,2.0260807129,2.2912935316\C,-1.6782521685,1.26514772
 23,1.3465082659\C,-2.3011220896,-0.0037820016,1.9835293664\C,-3.055409
 7745,-0.7579637212,0.9924343569\C,-3.6567639401,-1.3495474372,0.136120
 7262\H,-2.2598430545,-1.7008209578,4.0216964036\H,-0.5396353253,-1.239
 1811654,1.8525024964\H,-0.9699451675,0.3524627501,4.4322714296\H,0.498
 7610556,-0.5186431902,3.9673526523\H,0.6399221193,1.9885403925,3.52363
 57119\H,0.8389880304,1.0253515627,2.0456301531\H,-2.4642524582,1.91084
 16509,0.948532715\H,-1.0280361474,0.9620106057,0.5092470746\H,-2.98073
 73035,0.3349523388,2.7799023121\H,-4.1958690958,-1.8854844413,-0.60523
 36062\\Version=ES64L-G09RevD.01\State=1-A\HF=-423.1553656\RMSD=5.486e-
 09\RMSF=7.383e-06\Dipole=0.1174568,0.1694015,0.2552259\Quadrupole=2.44
 55826,-6.1247114,3.6791288,0.8405198,0.4105194,1.0861719\PG=C01 [X(C7H
 10O2)]\\@


 ALL MY ATTEMPTS TO ADAPT THE THEORETICAL FOUNDATIONS OF PHYSICS
 TO THESE NEW NOTIONS FAILED COMPLETELY. IT WAS AS IF THE GROUND HAD
 BEEN PULLED OUT FROM UNDER ONE WITH NO FIRM FOUNDATION TO BE SEEN ANYWHERE,
 UPON WHICH ONE COULD HAVE BUILT.  -- A.EINSTEIN
 Job cpu time:       0 days  0 hours  6 minutes  9.5 seconds.
 File lengths (MBytes):  RWF=     52 Int=      0 D2E=      0 Chk=      7 Scr=      1
 Normal termination of Gaussian 09 at Tue Jan 28 08:20:04 2020.
 Link1:  Proceeding to internal job step number  2.
 ----------------------------------------------------------------------
 #N Geom=AllCheck Guess=TCheck SCRF=Check GenChk RB3LYP/6-31G(2df,p) Fr
 eq
 ----------------------------------------------------------------------
 1/10=4,29=7,30=1,38=1,40=1/1,3;
 2/12=2,40=1/2;
 3/5=1,6=6,7=104,11=2,14=-4,16=1,25=1,30=1,70=2,71=2,74=-5,116=1,140=1/1,2,3;
 4/5=101/1;
 5/5=2,98=1/2;
 8/6=4,10=90,11=11/1;
 11/6=1,8=1,9=11,15=111,16=1/1,2,10;
 10/6=1/2;
 6/7=2,8=2,9=2,10=2,18=1,28=1/1;
 7/8=1,10=1,25=1/1,2,3,16;
 1/10=4,30=1/3;
 99//99;
 Structure from the checkpoint file:  "/scratch/puck/g09_ee86a778-472a-4579-af5d-52aa84cd2b99/Gau-79822.chk"
 -----
 titel
 -----
 Charge =  0 Multiplicity = 1
 Redundant internal coordinates found in file.
 O,0,-1.6809785069,-1.993138967,3.3086787162
 C,0,-1.1830100849,-0.8454921084,2.6489655597
 C,0,-0.3520463724,0.0487756035,3.5760982153
 C,0,0.1280998779,1.3034089108,2.8425741796
 O,0,-0.9597570742,2.0260807129,2.2912935316
 C,0,-1.6782521685,1.2651477223,1.3465082659
 C,0,-2.3011220896,-0.0037820016,1.9835293664
 C,0,-3.0554097745,-0.7579637212,0.9924343569
 C,0,-3.6567639401,-1.3495474372,0.1361207262
 H,0,-2.2598430545,-1.7008209578,4.0216964036
 H,0,-0.5396353253,-1.2391811654,1.8525024964
 H,0,-0.9699451675,0.3524627501,4.4322714296
 H,0,0.4987610556,-0.5186431902,3.9673526523
 H,0,0.6399221193,1.9885403925,3.5236357119
 H,0,0.8389880304,1.0253515627,2.0456301531
 H,0,-2.4642524582,1.9108416509,0.948532715
 H,0,-1.0280361474,0.9620106057,0.5092470746
 H,0,-2.9807373035,0.3349523388,2.7799023121
 H,0,-4.1958690958,-1.8854844413,-0.6052336062
 Recover connectivity data from disk.

 GradGradGradGradGradGradGradGradGradGradGradGradGradGradGradGradGradGrad
 Berny optimization.
 Initialization pass.
                           ----------------------------
                           !    Initial Parameters    !
                           ! (Angstroms and Degrees)  !
 --------------------------                            --------------------------
 ! Name  Definition              Value          Derivative Info.                !
 --------------------------------------------------------------------------------
 ! R1    R(1,2)                  1.4143         calculate D2E/DX2 analytically  !
 ! R2    R(1,10)                 0.9638         calculate D2E/DX2 analytically  !
 ! R3    R(2,3)                  1.5329         calculate D2E/DX2 analytically  !
 ! R4    R(2,7)                  1.5497         calculate D2E/DX2 analytically  !
 ! R5    R(2,11)                 1.0969         calculate D2E/DX2 analytically  !
 ! R6    R(3,4)                  1.5306         calculate D2E/DX2 analytically  !
 ! R7    R(3,12)                 1.0987         calculate D2E/DX2 analytically  !
 ! R8    R(3,13)                 1.095          calculate D2E/DX2 analytically  !
 ! R9    R(4,5)                  1.4176         calculate D2E/DX2 analytically  !
 ! R10   R(4,14)                 1.0933         calculate D2E/DX2 analytically  !
 ! R11   R(4,15)                 1.1035         calculate D2E/DX2 analytically  !
 ! R12   R(5,6)                  1.4099         calculate D2E/DX2 analytically  !
 ! R13   R(6,7)                  1.5505         calculate D2E/DX2 analytically  !
 ! R14   R(6,16)                 1.0923         calculate D2E/DX2 analytically  !
 ! R15   R(6,17)                 1.1026         calculate D2E/DX2 analytically  !
 ! R16   R(7,8)                  1.456          calculate D2E/DX2 analytically  !
 ! R17   R(7,18)                 1.1004         calculate D2E/DX2 analytically  !
 ! R18   R(8,9)                  1.202          calculate D2E/DX2 analytically  !
 ! R19   R(9,19)                 1.0618         calculate D2E/DX2 analytically  !
 ! A1    A(2,1,10)             108.0856         calculate D2E/DX2 analytically  !
 ! A2    A(1,2,3)              112.4655         calculate D2E/DX2 analytically  !
 ! A3    A(1,2,7)              112.7681         calculate D2E/DX2 analytically  !
 ! A4    A(1,2,11)             104.7121         calculate D2E/DX2 analytically  !
 ! A5    A(3,2,7)              109.51           calculate D2E/DX2 analytically  !
 ! A6    A(3,2,11)             109.3039         calculate D2E/DX2 analytically  !
 ! A7    A(7,2,11)             107.8388         calculate D2E/DX2 analytically  !
 ! A8    A(2,3,4)              111.0018         calculate D2E/DX2 analytically  !
 ! A9    A(2,3,12)             109.1299         calculate D2E/DX2 analytically  !
 ! A10   A(2,3,13)             109.5736         calculate D2E/DX2 analytically  !
 ! A11   A(4,3,12)             108.8636         calculate D2E/DX2 analytically  !
 ! A12   A(4,3,13)             110.6265         calculate D2E/DX2 analytically  !
 ! A13   A(12,3,13)            107.5652         calculate D2E/DX2 analytically  !
 ! A14   A(3,4,5)              111.316          calculate D2E/DX2 analytically  !
 ! A15   A(3,4,14)             111.2238         calculate D2E/DX2 analytically  !
 ! A16   A(3,4,15)             109.9767         calculate D2E/DX2 analytically  !
 ! A17   A(5,4,14)             106.3825         calculate D2E/DX2 analytically  !
 ! A18   A(5,4,15)             109.9961         calculate D2E/DX2 analytically  !
 ! A19   A(14,4,15)            107.8309         calculate D2E/DX2 analytically  !
 ! A20   A(4,5,6)              112.1184         calculate D2E/DX2 analytically  !
 ! A21   A(5,6,7)              111.7839         calculate D2E/DX2 analytically  !
 ! A22   A(5,6,16)             106.9667         calculate D2E/DX2 analytically  !
 ! A23   A(5,6,17)             110.8983         calculate D2E/DX2 analytically  !
 ! A24   A(7,6,16)             110.1459         calculate D2E/DX2 analytically  !
 ! A25   A(7,6,17)             108.8983         calculate D2E/DX2 analytically  !
 ! A26   A(16,6,17)            108.0717         calculate D2E/DX2 analytically  !
 ! A27   A(2,7,6)              109.3354         calculate D2E/DX2 analytically  !
 ! A28   A(2,7,8)              112.627          calculate D2E/DX2 analytically  !
 ! A29   A(2,7,18)             107.581          calculate D2E/DX2 analytically  !
 ! A30   A(6,7,8)              110.6323         calculate D2E/DX2 analytically  !
 ! A31   A(6,7,18)             107.0693         calculate D2E/DX2 analytically  !
 ! A32   A(8,7,18)             109.3978         calculate D2E/DX2 analytically  !
 ! A33   L(7,8,9,1,-1)         181.9047         calculate D2E/DX2 analytically  !
 ! A34   L(8,9,19,1,-1)        179.0927         calculate D2E/DX2 analytically  !
 ! A35   L(7,8,9,1,-2)         182.0723         calculate D2E/DX2 analytically  !
 ! A36   L(8,9,19,1,-2)        178.8529         calculate D2E/DX2 analytically  !
 ! D1    D(10,1,2,3)            61.6286         calculate D2E/DX2 analytically  !
 ! D2    D(10,1,2,7)           -62.8078         calculate D2E/DX2 analytically  !
 ! D3    D(10,1,2,11)         -179.7886         calculate D2E/DX2 analytically  !
 ! D4    D(1,2,3,4)           -177.9982         calculate D2E/DX2 analytically  !
 ! D5    D(1,2,3,12)           -58.0162         calculate D2E/DX2 analytically  !
 ! D6    D(1,2,3,13)            59.523          calculate D2E/DX2 analytically  !
 ! D7    D(7,2,3,4)            -51.7839         calculate D2E/DX2 analytically  !
 ! D8    D(7,2,3,12)            68.1981         calculate D2E/DX2 analytically  !
 ! D9    D(7,2,3,13)          -174.2627         calculate D2E/DX2 analytically  !
 ! D10   D(11,2,3,4)            66.1509         calculate D2E/DX2 analytically  !
 ! D11   D(11,2,3,12)         -173.867          calculate D2E/DX2 analytically  !
 ! D12   D(11,2,3,13)          -56.3278         calculate D2E/DX2 analytically  !
 ! D13   D(1,2,7,6)            177.2423         calculate D2E/DX2 analytically  !
 ! D14   D(1,2,7,8)            -59.3339         calculate D2E/DX2 analytically  !
 ! D15   D(1,2,7,18)            61.298          calculate D2E/DX2 analytically  !
 ! D16   D(3,2,7,6)             51.2007         calculate D2E/DX2 analytically  !
 ! D17   D(3,2,7,8)            174.6245         calculate D2E/DX2 analytically  !
 ! D18   D(3,2,7,18)           -64.7436         calculate D2E/DX2 analytically  !
 ! D19   D(11,2,7,6)           -67.645          calculate D2E/DX2 analytically  !
 ! D20   D(11,2,7,8)            55.7788         calculate D2E/DX2 analytically  !
 ! D21   D(11,2,7,18)          176.4107         calculate D2E/DX2 analytically  !
 ! D22   D(2,3,4,5)             56.1789         calculate D2E/DX2 analytically  !
 ! D23   D(2,3,4,14)           174.6246         calculate D2E/DX2 analytically  !
 ! D24   D(2,3,4,15)           -65.9896         calculate D2E/DX2 analytically  !
 ! D25   D(12,3,4,5)           -63.9615         calculate D2E/DX2 analytically  !
 ! D26   D(12,3,4,14)           54.4842         calculate D2E/DX2 analytically  !
 ! D27   D(12,3,4,15)          173.87           calculate D2E/DX2 analytically  !
 ! D28   D(13,3,4,5)           178.0451         calculate D2E/DX2 analytically  !
 ! D29   D(13,3,4,14)          -63.5092         calculate D2E/DX2 analytically  !
 ! D30   D(13,3,4,15)           55.8766         calculate D2E/DX2 analytically  !
 ! D31   D(3,4,5,6)            -61.0318         calculate D2E/DX2 analytically  !
 ! D32   D(14,4,5,6)           177.6524         calculate D2E/DX2 analytically  !
 ! D33   D(15,4,5,6)            61.1254         calculate D2E/DX2 analytically  !
 ! D34   D(4,5,6,7)             61.6545         calculate D2E/DX2 analytically  !
 ! D35   D(4,5,6,16)          -177.7013         calculate D2E/DX2 analytically  !
 ! D36   D(4,5,6,17)           -60.078          calculate D2E/DX2 analytically  !
 ! D37   D(5,6,7,2)            -56.3786         calculate D2E/DX2 analytically  !
 ! D38   D(5,6,7,8)            179.0253         calculate D2E/DX2 analytically  !
 ! D39   D(5,6,7,18)            59.8915         calculate D2E/DX2 analytically  !
 ! D40   D(16,6,7,2)          -175.1521         calculate D2E/DX2 analytically  !
 ! D41   D(16,6,7,8)            60.2518         calculate D2E/DX2 analytically  !
 ! D42   D(16,6,7,18)          -58.8821         calculate D2E/DX2 analytically  !
 ! D43   D(17,6,7,2)            66.4989         calculate D2E/DX2 analytically  !
 ! D44   D(17,6,7,8)           -58.0972         calculate D2E/DX2 analytically  !
 ! D45   D(17,6,7,18)         -177.231          calculate D2E/DX2 analytically  !
 --------------------------------------------------------------------------------
 Trust Radius=3.00D-01 FncErr=1.00D-07 GrdErr=1.00D-07
 Number of steps in this run=      2 maximum allowed number of steps=      2.
 GradGradGradGradGradGradGradGradGradGradGradGradGradGradGradGradGradGrad

                          Input orientation:                          
 ---------------------------------------------------------------------
 Center     Atomic      Atomic             Coordinates (Angstroms)
 Number     Number       Type             X           Y           Z
 ---------------------------------------------------------------------
      1          8           0       -1.680979   -1.993139    3.308679
      2          6           0       -1.183010   -0.845492    2.648966
      3          6           0       -0.352046    0.048776    3.576098
      4          6           0        0.128100    1.303409    2.842574
      5          8           0       -0.959757    2.026081    2.291294
      6          6           0       -1.678252    1.265148    1.346508
      7          6           0       -2.301122   -0.003782    1.983529
      8          6           0       -3.055410   -0.757964    0.992434
      9          6           0       -3.656764   -1.349547    0.136121
     10          1           0       -2.259843   -1.700821    4.021696
     11          1           0       -0.539635   -1.239181    1.852502
     12          1           0       -0.969945    0.352463    4.432271
     13          1           0        0.498761   -0.518643    3.967353
     14          1           0        0.639922    1.988540    3.523636
     15          1           0        0.838988    1.025352    2.045630
     16          1           0       -2.464252    1.910842    0.948533
     17          1           0       -1.028036    0.962011    0.509247
     18          1           0       -2.980737    0.334952    2.779902
     19          1           0       -4.195869   -1.885484   -0.605234
 ---------------------------------------------------------------------
                    Distance matrix (angstroms):
                    1          2          3          4          5
     1  O    0.000000
     2  C    1.414315   0.000000
     3  C    2.450916   1.532903   0.000000
     4  C    3.789096   2.524732   1.530589   0.000000
     5  O    4.208249   2.902361   2.435112   1.417603   0.000000
     6  C    3.803492   2.529122   2.865215   2.345759   1.409920
     7  C    2.469441   1.549663   2.517525   2.889260   2.452411
     8  C    2.963057   2.501527   3.825483   4.219835   3.718830
     9  C    3.792501   3.562011   4.970906   5.356142   4.828404
    10  H    0.963809   1.943077   2.626658   4.014723   4.309793
    11  H    1.997890   1.096939   2.159816   2.809070   3.321291
    12  H    2.696271   2.158859   1.098662   2.153402   2.717515
    13  H    2.712794   2.161788   1.094951   2.173106   3.378175
    14  H    4.613736   3.481360   2.179321   1.093258   2.019666
    15  H    4.129989   2.820026   2.171312   1.103539   2.072991
    16  H    4.628701   3.482877   3.851338   3.267516   2.019850
    17  H    4.122628   2.805259   3.270556   2.626332   2.076679
    18  H    2.718269   2.154627   2.761493   3.256794   2.680115
    19  H    4.653491   4.555076   5.999989   6.383818   5.844881
                    6          7          8          9         10
     6  C    0.000000
     7  C    1.550466   0.000000
     8  C    2.472835   1.456025   0.000000
     9  C    3.495165   2.657399   1.202028   0.000000
    10  H    4.036316   2.652503   3.270831   4.143969   0.000000
    11  H    2.797167   2.155508   2.701927   3.560146   2.806711
    12  H    3.294940   2.809854   4.173091   5.345348   2.459346
    13  H    3.845793   3.469868   4.641071   5.712891   3.001732
    14  H    3.261459   3.871823   5.254117   6.409337   4.718908
    15  H    2.623504   3.305036   4.410869   5.431221   4.575982
    16  H    1.092292   2.182570   2.733846   3.565422   4.746601
    17  H    1.102578   2.174169   2.702226   3.520331   4.576606
    18  H    2.148569   1.100376   2.096445   3.206888   2.491207
    19  H    4.480421   3.719216   2.263734   1.061823   5.019042
[...]
 .51928271,-0.00068206,-0.00059768,0.00015461,-0.01342032,-0.02353647,0
 .00506237,-0.04024937,-0.13828779,0.03386164,0.04583894,0.50422422,-0.
 00720270,-0.00825856,-0.00272268,0.00059540,-0.01051704,0.01898633,0.0
 2073227,0.03215477,-0.10663379,0.00266417,0.09633095,0.56021976,0.0033
 2994,0.00043650,0.00257692,-0.00514572,0.00088905,-0.00530700,0.000501
 38,0.00818663,-0.00394511,-0.15154026,0.07128872,-0.03355592,0.3327765
 5,-0.00031563,0.00071446,0.00016813,0.00241138,0.00499527,-0.00261784,
 0.03258387,-0.02361719,0.01860539,0.04332278,-0.12620827,0.00374592,-0
 .03952358,0.30056766,0.00286195,-0.00005738,0.00236860,-0.00533456,-0.
 00213716,-0.00344070,-0.02290694,0.01856027,-0.00800106,-0.04870538,0.
 02516150,-0.09069796,0.16659505,0.05645695,0.27113355,-0.00562763,0.00
 792904,-0.00717074,0.01940086,0.01449205,-0.00407273,0.00417374,-0.001
 05296,0.00108019,-0.03673661,-0.01275408,-0.03407510,-0.10917280,-0.01
 335546,-0.04222265,0.56754881,-0.00040135,-0.00053018,0.00016241,-0.00
 082747,-0.02259054,0.01589509,0.00376279,0.00123039,0.00149806,0.00368
 732,0.01401425,0.00957169,-0.03855985,-0.13269927,-0.06819822,-0.10945
 232,0.48380035,-0.00374814,0.00231243,-0.00282615,0.00868082,0.0157024
 2,-0.00536142,0.00142232,-0.00190357,-0.00041614,-0.02203011,-0.004873
 26,-0.02520141,-0.05964566,-0.04708894,-0.13893545,0.00866947,-0.00954
 069,0.52524589,0.01149026,-0.00987369,0.00871090,-0.12505404,0.0314628
 8,-0.02068841,-0.01829703,0.00904762,-0.01104512,0.00051744,-0.0019096
 5,0.00144577,-0.01165552,-0.02227279,-0.00101587,-0.08662357,-0.014164
 08,0.01444803,0.48860654,0.01688636,-0.03158567,0.02217733,0.02786945,
 -0.08729395,0.00883803,-0.01227374,0.01257870,-0.00715962,0.00261668,0
 .00106809,0.00065349,-0.01915840,-0.02404339,-0.00494265,-0.01355587,-
 0.11266759,0.03373451,0.00610041,0.44145517,-0.00761071,0.02354622,-0.
 01281616,-0.01316158,0.00061856,-0.08156727,-0.02161413,0.00955197,-0.
 01017511,0.00174778,-0.00274217,0.00299374,-0.01709989,-0.02617096,0.0
 0559168,0.01921960,0.04137891,-0.09818328,-0.02231465,0.06998260,0.531
 64740,0.00176556,-0.00197315,0.00210013,-0.02296903,-0.01174663,-0.023
 54189,-0.00226627,0.00332729,-0.00163265,0.00008747,0.00039843,0.00006
 265,0.00023707,-0.00295882,0.00090726,-0.01410590,-0.01404009,-0.00964
 329,-0.11585267,-0.05395116,-0.06939617,0.43765776,-0.00079980,-0.0011
 1256,0.00078708,0.00243682,0.01769515,0.00652096,0.00349707,-0.0032302
 0,0.00114907,0.00115086,-0.00181233,0.00116837,-0.00599643,-0.00615789
 ,0.00110333,-0.01752357,-0.02060721,-0.02209432,-0.05174122,-0.1208534
 0,-0.07105371,0.34008048,0.43071616,0.00004632,-0.00294854,0.00154785,
 -0.01727526,-0.00244633,-0.01892849,-0.00170242,0.00121224,-0.00080979
 ,-0.00167436,0.00109535,-0.00087138,0.00353784,0.00420239,0.00165127,-
 0.00117439,-0.00718203,0.01049800,-0.06790448,-0.07467070,-0.16187663,
 0.48036702,0.47176656,0.75815826,0.00034055,0.00116399,-0.00054988,0.0
 0215633,-0.00263251,0.00114956,-0.00034191,0.00071954,-0.00016419,0.00
 060788,0.00000050,0.00016489,-0.00067035,-0.00096915,0.00001428,0.0017
 1831,0.00285093,-0.00190133,0.00229741,-0.00130415,-0.00318812,-0.3007
 8854,-0.26955373,-0.38599105,0.42107483,0.00119867,0.00199898,-0.00022
 283,0.00182579,-0.00594679,0.00119075,-0.00078227,0.00135943,0.0000794
 8,0.00068240,-0.00017602,0.00021478,-0.00073131,-0.00040440,-0.0000777
 3,0.00144704,0.00273719,-0.00101351,-0.00265594,0.00345673,-0.00497314
 ,-0.27025507,-0.29294479,-0.37970457,0.37620949,0.41286536,-0.00006788
 ,0.00138914,-0.00062800,0.00300866,-0.00475960,0.00149518,-0.00073222,
 0.00129868,0.00014097,0.00115535,0.00004183,0.00010646,-0.00134673,-0.
 00154926,0.00056944,0.00215377,0.00530382,-0.00437278,-0.00272007,-0.0
 0267476,-0.00000453,-0.38763270,-0.38024787,-0.57131635,0.53477827,0.5
 2732450,0.78990930,-0.18249416,0.07619304,0.22234108,-0.01278278,0.006
 42567,0.01354197,-0.00001696,0.00230951,-0.00006362,0.00103873,-0.0009
 6113,0.00060279,-0.00084500,-0.00000983,-0.00067753,-0.00001247,0.0010
 1026,0.00024265,0.00300381,-0.00041816,-0.00214269,-0.00005290,-0.0000
 8372,-0.00000779,-0.00024496,-0.00009540,-0.00003497,0.19236529,0.1088
 6403,-0.09415558,-0.13226261,-0.02604553,0.00451212,0.03219986,-0.0009
 6812,0.00180368,0.00186205,0.00010612,-0.00071675,0.00003068,-0.000005
 26,0.00013900,-0.00014847,-0.00000691,-0.00053554,0.00002421,-0.001320
 40,0.00167700,0.00136757,0.00032850,0.00003407,0.00009209,-0.00027003,
 -0.00021481,-0.00022475,-0.08035283,0.09235972,0.22099248,-0.09210327,
 -0.27488662,0.01496373,-0.00743378,-0.02064739,-0.00163334,-0.00010523
 ,0.00339482,-0.00001738,-0.00073132,-0.00027567,-0.00056753,0.00001586
 ,-0.00056018,0.00087617,0.00081785,0.00088553,-0.00022199,-0.00207709,
 0.00059992,-0.00034861,-0.00023557,-0.00063053,0.00002782,0.00014296,0
 .00031032,-0.23412340,0.09687050,0.29206728,-0.00968645,-0.00141895,0.
 01492372,-0.13243626,0.05468170,0.10248091,0.00998237,-0.00768249,-0.0
 1423226,0.00074515,0.00098223,-0.00015281,0.00013780,0.00007584,0.0000
 4417,-0.00016030,-0.00121517,0.00091350,-0.01749922,0.01250690,0.01545
 872,0.00130140,0.00062465,0.00186920,-0.00001702,-0.00063312,-0.000725
 35,-0.00000026,-0.00227517,0.00079535,0.14989154,-0.02275590,0.0043284
 4,0.02839391,0.06178807,-0.08533169,-0.07607140,0.01015992,-0.00680857
 ,-0.01375137,0.00162295,0.00090550,-0.00084161,-0.00051647,-0.00037913
 ,0.00060391,0.00062964,0.00080246,-0.00186505,0.01169844,-0.00676926,-
 0.01119740,-0.00121084,0.00017647,-0.00047385,0.00010852,0.00028417,0.
 00044039,-0.00348503,-0.00375996,0.00441016,-0.05638119,0.09892843,0.0
 1537805,0.00191216,-0.01733520,0.10334025,-0.06840961,-0.17655333,0.01
 070376,-0.01030199,-0.01556507,0.00064773,0.00080171,-0.00030683,0.000
 01380,0.00000688,0.00012867,0.00000335,-0.00082665,0.00060616,-0.00957
 822,0.00543455,0.00851974,0.00007762,0.00048664,0.00150076,0.00011653,
 -0.00005270,-0.00004344,0.00079875,0.00282916,-0.00056058,-0.11604094,
 0.06848744,0.20005458,0.00174123,0.00236764,-0.00109248,0.00896567,-0.
 00681154,-0.01440883,-0.12858120,0.04019241,0.10839719,-0.00977755,0.0
 0396781,0.00983422,0.00251529,0.00013489,-0.00108915,-0.00042627,-0.00
 053826,-0.00038301,0.00123327,-0.00013680,-0.00003066,-0.00001289,-0.0
 0010990,0.00017863,0.00000675,0.00011089,0.00004786,-0.00003159,0.0003
 5710,0.00081605,-0.00116515,-0.00234702,-0.00215921,0.13892462,0.00112
 588,0.00218403,0.00086050,0.01123780,-0.00790246,-0.01707950,0.0427437
 5,-0.06653531,-0.05588941,-0.01838523,0.00606566,0.02410717,0.00017208
 ,0.00203781,-0.00252418,-0.00004920,-0.00006311,0.00013131,0.00058495,
 0.00005283,0.00095791,-0.00006338,0.00000895,0.00032703,-0.00003959,0.
 00002219,-0.00002095,-0.00116204,-0.00077403,-0.00000835,-0.00284220,-
 0.00165463,-0.00217959,-0.04081141,0.07367437,-0.00061728,0.00157360,0
 .00270107,0.01364170,-0.00623604,-0.01995954,0.10751982,-0.05501398,-0
 .19607695,0.01051642,-0.00376899,-0.01311892,-0.00105344,-0.00083679,0
 .00164286,-0.00013786,-0.00002247,-0.00036015,0.00148776,-0.00047061,0
 .00034439,-0.00037664,0.00002380,0.00036226,-0.00001375,0.00009655,0.0
 0007402,-0.00065084,-0.00111556,0.00018700,-0.00280578,-0.00210175,-0.
 00164727,-0.12054473,0.06158699,0.21622873,0.00199418,0.00003138,0.001
 68607,-0.01481325,0.01037097,-0.00676298,-0.20599295,0.10632526,-0.069
 18102,0.00893480,-0.00459261,0.00372384,0.00168717,-0.00304027,0.00207
 722,-0.00054505,-0.00100989,0.00005931,-0.00038109,-0.00305462,-0.0020
 1145,-0.00052971,0.00095710,-0.00066376,-0.00019584,-0.00026620,-0.000
 28302,-0.00035337,0.00022455,-0.00017067,0.00105071,-0.00038752,0.0001
 8027,-0.01373348,0.00889475,-0.00641008,0.22156318,0.00166545,0.001895
 86,0.00018000,-0.01688265,0.00984775,-0.00782298,0.10675565,-0.1180776
 6,0.04899779,0.02332363,-0.00976401,0.00589381,-0.00046559,-0.00578622
 ,0.00580983,-0.00147079,-0.00182905,-0.00134512,-0.00234107,-0.0020819
 9,-0.00240425,-0.00084628,0.00083838,-0.00063194,-0.00010663,-0.000215
 98,-0.00018484,-0.00009545,-0.00008026,0.00006056,0.00048262,0.0008256
 5,0.00066603,0.00602673,-0.00460520,0.00293045,-0.11574023,0.12726663,
 0.00207275,0.00017886,0.00126172,-0.01777336,0.01157803,-0.00989839,-0
 .06851118,0.04706873,-0.07782341,-0.01305875,0.00550369,-0.00570484,0.
 00051618,0.00360288,-0.00120081,0.00047066,-0.00006535,0.00086635,-0.0
 0130639,-0.00349357,-0.00167983,-0.00071531,0.00100916,0.00003492,-0.0
 0018750,-0.00028963,-0.00033637,0.00000625,-0.00021368,-0.00004075,0.0
 0041593,0.00064191,0.00054627,0.01944765,-0.01320666,0.00891272,0.0783
 2763,-0.05170054,0.08454791,-0.00038445,-0.00086847,-0.00019571,0.0007
 8652,-0.00034314,0.00187945,-0.00409664,-0.00872366,-0.00575602,-0.097
 72989,-0.07032425,-0.06639545,-0.02175204,-0.01353973,-0.02493183,-0.0
 0256874,0.00434105,0.00017711,0.00018779,0.00013847,-0.00011310,0.0000
 4626,-0.00019882,0.00017941,-0.00006386,-0.00006117,-0.00009145,0.0000
 7405,0.00005414,-0.00011574,-0.00001644,-0.00018469,-0.00033018,0.0000
 9940,0.00042190,-0.00044119,0.00022890,-0.00020122,0.00025735,0.115430
 59,-0.00199814,-0.00214350,-0.00054674,0.00070688,-0.00146574,0.005437
 03,-0.01220273,-0.01692851,-0.01752726,-0.07937444,-0.15935389,-0.1115
 6385,0.01280951,0.01327512,0.01564937,0.00286208,-0.00132314,0.0013718
 9,0.00044971,0.00006298,0.00025108,0.00006115,0.00026423,-0.00008315,-
 0.00005783,0.00000031,-0.00006570,0.00016348,-0.00001337,-0.00014839,0
 .00028322,0.00022472,0.00005803,0.00018061,0.00148172,0.00024917,0.000
 64775,0.00032440,0.00000494,0.07851567,0.16874161,0.00111572,0.0014874
 7,0.00048796,0.00011132,0.00179493,-0.00267567,0.00987241,0.01207777,0
 .01198852,-0.07153489,-0.10503870,-0.15130048,-0.01227095,-0.00568359,
 -0.01185020,-0.00136184,0.00303741,0.00068374,0.00000776,0.00003092,-0
 .00012560,0.00001901,-0.00015935,0.00012387,-0.00002439,-0.00004400,-0
 .00001960,-0.00017246,-0.00003026,0.00003267,-0.00003246,0.00018157,0.
 00032381,-0.00023520,-0.00059267,0.00098385,-0.00051491,-0.00093174,0.
 00037747,0.08502459,0.11025167,0.16472671,0.00031777,-0.00024977,-0.00
 034129,-0.00044366,0.00130173,0.00078223,-0.00530418,0.00141937,0.0100
 1806,-0.13578028,0.02868412,0.10500308,-0.03364212,0.01777654,0.008302
 28,0.00278075,0.00359872,0.00617191,-0.00032037,-0.00050007,-0.0005953
 8,0.00003527,-0.00020198,0.00016186,-0.00007138,-0.00010035,-0.0001587
 6,0.00015796,0.00015038,-0.00006028,-0.00011103,-0.00056872,-0.0005573
 4,0.00041841,-0.00149042,0.00085674,0.00045616,-0.00049013,0.00021445,
 0.01026957,-0.00349866,-0.00933560,0.16023424,0.00008015,-0.00018660,-
 0.00054881,0.00017217,0.00138409,0.00151352,-0.01783870,0.00591896,0.0
 2090386,0.03041172,-0.06319077,-0.04254732,0.02438892,-0.00829297,-0.0
 0773059,-0.00308998,-0.00130771,-0.00193609,-0.00006362,-0.00001416,0.
 00035049,-0.00004026,0.00018934,-0.00015232,0.00004351,0.00005557,0.00
 003563,0.00037860,0.00016973,-0.00002856,0.00008269,-0.00030150,-0.000
 48929,-0.00263940,-0.00435833,0.00270122,0.00070980,0.00116347,-0.0006
 9417,0.01195513,-0.00370453,-0.01599470,-0.04459045,0.07178651,-0.0001
 0858,0.00046417,0.00055455,-0.00057785,-0.00098596,-0.00037251,0.01071
 888,-0.00394117,-0.01282032,0.10751471,-0.04485635,-0.18510319,-0.0130
 3495,0.00397464,0.01231856,-0.00120375,0.00216562,0.00414599,0.0000332
 3,-0.00008605,-0.00032746,0.00003440,-0.00015049,0.00002579,0.00002030
 ,0.00003614,0.00007721,-0.00031719,-0.00033102,-0.00007227,0.00018373,
 0.00057954,0.00081401,0.00119186,0.00342440,-0.00044533,-0.00034507,0.
 00005452,0.00014772,0.01240588,-0.00409612,-0.01388798,-0.11832248,0.0
 4347418,0.19450805,0.00080109,-0.00121669,0.00100908,-0.00226128,-0.00
 168819,0.00033376,-0.00015717,-0.00004081,0.00011400,0.00075046,-0.003
 61461,-0.00164216,-0.01825242,0.00640163,-0.01262324,-0.18460867,0.116
 25670,-0.06347312,0.01061731,-0.01020353,0.00632578,0.00106947,0.00039
 820,0.00049762,-0.00006190,0.00011602,0.00003768,-0.00002292,0.0000201
 3,-0.00016753,0.00027253,-0.00014817,-0.00007097,0.00006253,0.00006816
 ,-0.00002050,0.00008172,0.00015834,-0.00000686,-0.00069230,0.00057615,
 -0.00078117,0.00035199,-0.00010275,0.00007700,0.20383102,0.00105395,-0
 .00191877,0.00186174,-0.00508967,-0.00169138,0.00029413,-0.00041459,0.
 00012278,-0.00045744,-0.00171005,-0.00161472,-0.00264865,-0.01969042,0
 .01294868,-0.01102998,0.12311726,-0.14847918,0.05800963,0.01822882,-0.
 01715786,0.00889495,0.00112898,0.00105778,0.00119217,-0.00053328,0.000
 02882,-0.00081023,0.00011243,-0.00001972,-0.00017675,-0.00009565,0.000
 20691,-0.00022435,0.00006333,0.00004730,0.00005684,0.00015409,0.000168
 35,-0.00001085,-0.00078780,0.00052843,-0.00051310,-0.00017387,0.000009
 70,0.00010702,-0.12029862,0.15797581,-0.00052590,0.00104953,-0.0004987
 6,0.00249402,0.00067755,0.00001374,-0.00005807,-0.00011322,0.00019421,
 -0.00020824,-0.00360129,-0.00196950,-0.02492457,0.01074848,-0.01450943
 ,-0.05865381,0.05086967,-0.07777420,-0.00893171,0.01188465,-0.00496165
 ,-0.00030633,-0.00088861,-0.00024915,0.00024908,0.00016403,0.00027243,
 -0.00009316,-0.00006701,0.00014138,-0.00034492,0.00020656,0.00008319,0
 .00001171,-0.00000873,-0.00001739,0.00005031,0.00013641,-0.00005454,-0
 .00110519,0.00059129,-0.00032625,-0.00051395,0.00019685,0.00024818,0.0
 7658783,-0.05736308,0.08999282,0.00036274,-0.00038011,-0.00014540,-0.0
 0028755,0.00080033,-0.00068017,-0.00042787,0.00014657,0.00009980,0.005
 08147,-0.00262845,-0.00169606,0.01023684,-0.00764181,-0.02041696,-0.14
 623322,0.04223777,0.10886658,-0.00831029,0.00302416,0.01079687,0.00070
 578,0.00085712,0.00100827,-0.00009110,-0.00024049,-0.00084395,-0.00012
 648,0.00025332,-0.00021419,0.00069890,-0.00050398,-0.00001094,-0.00020
 566,-0.00005283,-0.00003983,0.00007592,0.00019447,0.00003743,0.0001776
 8,-0.00007002,0.00011062,0.00042497,0.00007980,0.00186561,-0.01260846,
 0.00509811,0.01689829,0.15076733,0.00052055,-0.00014319,-0.00013624,-0
 .00150788,0.00150117,-0.00004071,-0.00038153,-0.00004384,0.00011668,0.
 00279891,-0.00126816,0.00266424,0.00345594,-0.00948050,-0.02616280,0.0
 4075290,-0.06509711,-0.04257536,-0.01780941,0.00392758,0.02053610,0.00
 081913,0.00181965,0.00156635,0.00003427,-0.00019386,-0.00060276,-0.000
 04981,0.00012435,-0.00034863,0.00032446,-0.00028565,-0.00014130,0.0001
 0701,-0.00013238,-0.00005593,0.00010758,0.00021898,-0.00000502,-0.0002
 0847,0.00002336,0.00015110,-0.00124799,0.00085179,0.00013546,0.0128308
 7,-0.00354070,-0.01392243,-0.03834340,0.07594167,-0.00035809,0.0002918
 6,0.00044541,0.00087310,-0.00160423,-0.00033932,-0.00063687,0.00040264
 ,-0.00022458,0.00539746,-0.00267968,0.00171020,0.00085166,-0.01688560,
 -0.02875996,0.10694615,-0.04121000,-0.17527890,0.01171061,-0.00125814,
 -0.01031766,-0.00073658,-0.00033974,-0.00032829,0.00019172,0.00028441,
 0.00074509,0.00000097,-0.00020610,0.00020716,-0.00065670,0.00066595,-0
 .00000874,0.00001105,-0.00011492,0.00026154,-0.00001914,0.00021412,-0.
 00009399,-0.00046057,0.00019000,0.00042177,-0.00154397,0.00103343,0.00
 038232,-0.00576583,0.00307028,0.00912863,-0.11665909,0.05617379,0.2025
 4423,0.00227836,-0.00202842,-0.00053797,-0.01931979,0.00895573,0.01863
 410,0.00079399,0.00027231,0.00140610,-0.00052149,-0.00000054,-0.000101
 32,0.00119079,0.00071004,-0.00097051,-0.00895475,0.00263517,0.01098186
 ,-0.13901967,0.04689052,0.10781802,0.01231316,-0.00578520,-0.01459280,
 -0.00166823,-0.00121817,-0.00126228,0.00032734,0.00086101,-0.00080687,
 -0.00295583,0.00245389,-0.00252717,-0.00003289,-0.00037672,-0.00095698
 ,0.00042982,-0.00001397,-0.00027665,-0.00000841,-0.00006888,-0.0000029
 5,0.00022838,0.00006849,-0.00013477,0.00085275,-0.00015810,-0.00061700
 ,-0.00020732,-0.00219575,0.00085263,0.15495999,-0.00127148,0.00202618,
 -0.00092492,0.01526147,-0.00807999,-0.01264385,-0.00132646,0.00020480,
 -0.00044084,-0.00027644,0.00007508,-0.00001450,0.00255909,0.00205588,-
 0.00048676,-0.01904102,0.00512250,0.02226452,0.04802034,-0.06647207,-0
 .05707214,0.00858955,-0.00817206,-0.01618030,-0.00078329,0.00026336,-0
 .00024672,0.00012138,-0.00060049,0.00111795,0.00248792,-0.00138206,0.0
 0193495,-0.00012129,0.00044713,0.00040615,-0.00029332,-0.00004465,0.00
 012267,-0.00001009,0.00002126,-0.00004962,0.00015308,-0.00014319,0.000
 02913,0.00048966,0.00136860,-0.00055300,-0.00282278,-0.00421282,0.0019
 9508,-0.05115770,0.07733901,-0.00090087,-0.00176913,0.00201327,-0.0082
 7124,0.00579813,0.00773528,0.00009034,0.00004244,0.00082805,-0.0001100
 6,0.00033560,-0.00016605,-0.00132105,-0.00059317,0.00252510,0.01110315
 ,-0.00322484,-0.01376077,0.10983578,-0.05429317,-0.17123893,0.00862324
 ,-0.01020424,-0.02124225,-0.00036054,-0.00017560,0.00051663,0.00079457
 ,-0.00068173,-0.00009052,-0.00207842,0.00170684,-0.00051405,0.00000577
 ,0.00022740,-0.00005474,0.00020358,0.00006088,0.00010443,0.00000301,-0
 .00004624,0.00003151,-0.00009036,-0.00008513,-0.00017258,-0.00042335,-
 0.00025033,0.00028583,0.00100011,0.00265543,-0.00048844,-0.11743134,0.
 06037634,0.19317075,-0.00006053,-0.00009159,0.00008088,0.00035335,0.00
 076813,0.00027162,0.00013132,-0.00023529,0.00005734,-0.00004705,-0.000
 02368,-0.00000754,0.00006341,0.00021010,0.00009242,0.00015350,-0.00017
 222,0.00019111,0.00505963,-0.00147646,-0.00208826,0.00135871,0.0019920
 4,0.00314015,-0.12398696,-0.10455081,-0.14528222,0.00001667,0.00002498
 ,-0.00002406,-0.00003244,0.00002810,0.00001485,-0.00000049,0.00002376,
 0.00004645,0.00004217,0.00004710,0.00006972,0.00001203,0.00001449,0.00
 000538,-0.00000245,-0.00000583,-0.00000096,-0.00002576,-0.00000491,-0.
 00000839,-0.00003369,-0.00000736,0.00000150,-0.00068621,-0.00057861,-0
 .00067231,0.11768479,0.00006975,-0.00020964,0.00014803,-0.00051359,-0.
 00058340,-0.00078860,-0.00018211,0.00017158,-0.00003334,-0.00020446,0.
 00017406,-0.00014433,0.00046087,0.00033536,0.00015076,0.00012215,0.000
 02250,0.00068502,-0.00144129,0.00466026,-0.00182258,0.00235219,0.00209
 024,0.00301957,-0.10488055,-0.12297546,-0.14444655,-0.00000095,0.00005
 084,-0.00003889,0.00001171,-0.00001031,0.00000791,0.00000720,0.0000034
 7,-0.00000263,-0.00003859,-0.00006443,-0.00003139,0.00002514,-0.000015
 49,0.00002490,0.00002848,-0.00002936,0.00000233,-0.00000250,-0.0000408
 2,-0.00000765,-0.00000777,-0.00001033,-0.00002315,0.00015630,0.0001835
 2,0.00012052,0.10403804,0.11624741,0.00013411,0.00005047,0.00005824,-0
 .00023942,0.00026048,0.00012040,0.00010581,-0.00005655,0.00001850,-0.0
 0005228,-0.00005748,0.00005621,-0.00001864,-0.00010137,0.00002602,-0.0
 0044964,-0.00043028,-0.00046103,-0.00195294,-0.00160971,0.00357723,0.0
 0213885,0.00135892,0.00234989,-0.14433170,-0.14297986,-0.21749598,-0.0
 0004537,0.00000507,-0.00006156,-0.00001558,-0.00001572,-0.00004267,0.0
 0000128,0.00000225,-0.00001814,0.00005387,0.00001701,0.00003342,0.0000
 0964,0.00002299,0.00000388,0.00000878,-0.00000220,-0.00002074,-0.00000
 800,-0.00000200,0.00000047,0.00002301,-0.00000797,-0.00000647,0.000525
 92,0.00036586,0.00051749,0.14411231,0.14318009,0.21134482\\0.00000045,
 0.00000165,-0.00000298,-0.00000398,-0.00000521,0.00000259,0.00000517,0
 .00001472,-0.00000003,-0.00000610,-0.00000369,0.00000154,-0.00000388,-
 0.00001561,-0.00001834,0.00001320,0.00003201,0.00001009,-0.00001141,-0
 .00001530,-0.00000217,-0.00000149,0.00000790,-0.00000193,0.00000674,0.
 00000417,0.00000964,0.00000489,0.00000221,-0.00000402,0.00000049,-0.00
 000029,0.00000294,0.00000045,-0.00000490,0.00000097,0.00000054,-0.0000
 0354,-0.00000067,-0.00000197,-0.00000350,0.00000172,0.00000251,-0.0000
 0174,0.00000129,-0.00000414,-0.00000359,0.00000187,-0.00000079,-0.0000
 0290,0.00000256,0.00000358,-0.00000070,0.00000076,-0.00000424,-0.00000
 169,-0.00000582\\\@


 STEINBACH'S GUIDELINES FOR SYSTEMS PROGRAMMING:
 NEVER TEST FOR AN ERROR CONDITION YOU DON'T KNOW HOW
 TO HANDLE.
 Job cpu time:       0 days  0 hours 42 minutes  3.8 seconds.
 File lengths (MBytes):  RWF=    152 Int=      0 D2E=      0 Chk=      8 Scr=      1
 Normal termination of Gaussian 09 at Tue Jan 28 09:12:26 2020.
