 Entering Gaussian System, Link 0=/home/puck/opt/gaussian_09/g09
 Input=dsC7O2H10nsd_0247.com
 Output=dsC7O2H10nsd_0247.log
 Initial command:
 /home/puck/opt/gaussian_09/l1.exe "/scratch/puck/g09_176b5e16-84ab-4b96-a86a-e83434f5749e/Gau-149609.inp" -scrdir="/scratch/puck/g09_176b5e16-84ab-4b96-a86a-e83434f5749e/"
 Entering Link 1 = /home/puck/opt/gaussian_09/l1.exe PID=    149626.
  
 Copyright (c) 1988,1990,1992,1993,1995,1998,2003,2009,2013,
            Gaussian, Inc.  All Rights Reserved.
  
 This is part of the Gaussian(R) 09 program.  It is based on
 the Gaussian(R) 03 system (copyright 2003, Gaussian, Inc.),
 the Gaussian(R) 98 system (copyright 1998, Gaussian, Inc.),
 the Gaussian(R) 94 system (copyright 1995, Gaussian, Inc.),
 the Gaussian 92(TM) system (copyright 1992, Gaussian, Inc.),
 the Gaussian 90(TM) system (copyright 1990, Gaussian, Inc.),
 the Gaussian 88(TM) system (copyright 1988, Gaussian, Inc.),
 the Gaussian 86(TM) system (copyright 1986, Carnegie Mellon
 University), and the Gaussian 82(TM) system (copyright 1983,
 Carnegie Mellon University). Gaussian is a federally registered
 trademark of Gaussian, Inc.
  
 This software contains proprietary and confidential information,
 including trade secrets, belonging to Gaussian, Inc.
  
 This software is provided under written license and may be
 used, copied, transmitted, or stored only in accord with that
 written license.
  
 The following legend is applicable only to US Government
 contracts under FAR:
  
                    RESTRICTED RIGHTS LEGEND
  
 Use, reproduction and disclosure by the US Government is
 subject to restrictions as set forth in subparagraphs (a)
 and (c) of the Commercial Computer Software - Restricted
 Rights clause in FAR 52.227-19.
  
 Gaussian, Inc.
 340 Quinnipiac St., Bldg. 40, Wallingford CT 06492
  
  
 ---------------------------------------------------------------
 Warning -- This program may not be used in any manner that
 competes with the business of Gaussian, Inc. or will provide
 assistance to any competitor of Gaussian, Inc.  The licensee
 of this program is prohibited from giving any competitor of
 Gaussian, Inc. access to this program.  By using this program,
 the user acknowledges that Gaussian, Inc. is engaged in the
 business of creating and licensing software in the field of
 computational chemistry and represents and warrants to the
 licensee that it is not a competitor of Gaussian, Inc. and that
 it will not use this program in any manner prohibited above.
 ---------------------------------------------------------------
  

 Cite this work as:
 Gaussian 09, Revision D.01,
 M. J. Frisch, G. W. Trucks, H. B. Schlegel, G. E. Scuseria, 
 M. A. Robb, J. R. Cheeseman, G. Scalmani, V. Barone, B. Mennucci, 
 G. A. Petersson, H. Nakatsuji, M. Caricato, X. Li, H. P. Hratchian, 
 A. F. Izmaylov, J. Bloino, G. Zheng, J. L. Sonnenberg, M. Hada, 
 M. Ehara, K. Toyota, R. Fukuda, J. Hasegawa, M. Ishida, T. Nakajima, 
 Y. Honda, O. Kitao, H. Nakai, T. Vreven, J. A. Montgomery, Jr., 
 J. E. Peralta, F. Ogliaro, M. Bearpark, J. J. Heyd, E. Brothers, 
 K. N. Kudin, V. N. Staroverov, T. Keith, R. Kobayashi, J. Normand, 
 K. Raghavachari, A. Rendell, J. C. Burant, S. S. Iyengar, J. Tomasi, 
 M. Cossi, N. Rega, J. M. Millam, M. Klene, J. E. Knox, J. B. Cross, 
 V. Bakken, C. Adamo, J. Jaramillo, R. Gomperts, R. E. Stratmann, 
 O. Yazyev, A. J. Austin, R. Cammi, C. Pomelli, J. W. Ochterski, 
 R. L. Martin, K. Morokuma, V. G. Zakrzewski, G. A. Voth, 
 P. Salvador, J. J. Dannenberg, S. Dapprich, A. D. Daniels, 
 O. Farkas, J. B. Foresman, J. V. Ortiz, J. Cioslowski, 
 and D. J. Fox, Gaussian, Inc., Wallingford CT, 2013.
 
 ******************************************
 Gaussian 09:  ES64L-G09RevD.01 24-Apr-2013
                27-Jan-2020 
 ******************************************
 -----------------------------
 # b3lyp 6-31G(2df,p) opt Freq
 -----------------------------
 1/14=-1,18=20,19=15,26=3,38=1/1,3;
 2/9=110,12=2,17=6,18=5,40=1/2;
 3/5=1,6=6,7=104,11=2,16=1,25=1,30=1,71=1,74=-5/1,2,3;
 4//1;
 5/5=2,38=5/2;
 6/7=2,8=2,9=2,10=2,28=1/1;
 7//1,2,3,16;
 1/14=-1,18=20,19=15,26=3/3(2);
 2/9=110/2;
 99//99;
 2/9=110/2;
 3/5=1,6=6,7=104,11=2,16=1,25=1,30=1,71=1,74=-5/1,2,3;
 4/5=5,16=3,69=1/1;
 5/5=2,38=5/2;
 7//1,2,3,16;
 1/14=-1,18=20,19=15,26=3/3(-5);
 2/9=110/2;
 6/7=2,8=2,9=2,10=2,19=2,28=1/1;
 99/9=1/99;
 -----
 titel
 -----
 Symbolic Z-matrix:
 Charge =  0 Multiplicity = 1
 C                    -0.49703   1.09028  -0.78576 
 C                    -0.04824  -0.12928   0.02463 
 C                     1.40519   0.2351    0.37366 
 C                     1.54907   1.14406   1.6298 
 C                     2.40271   2.31214   1.18592 
 O                     3.63799   1.91314   0.57349 
 C                     2.54851   2.30284  -0.27375 
 C                     1.83339   1.09798  -0.85314 
 O                     0.6434    1.47855  -1.54627 
 H                    -1.31253   0.8802   -1.48395 
 H                    -0.82202   1.90872  -0.12343 
 H                    -0.66899  -0.30963   0.90661 
 H                    -0.07852  -1.02553  -0.60304 
 H                     2.03434  -0.64953   0.47124 
 H                     0.57331   1.51795   1.96461 
 H                     1.99584   0.60854   2.47295 
 H                     2.45263   3.22414   1.77612 
 H                     2.69765   3.19489  -0.87616 
 H                     2.47494   0.55615  -1.55752 
 

 GradGradGradGradGradGradGradGradGradGradGradGradGradGradGradGradGradGrad
 Berny optimization.
 Initialization pass.
                           ----------------------------
                           !    Initial Parameters    !
                           ! (Angstroms and Degrees)  !
 --------------------------                            --------------------------
 ! Name  Definition              Value          Derivative Info.                !
 --------------------------------------------------------------------------------
 ! R1    R(1,2)                  1.5315         estimate D2E/DX2                !
 ! R2    R(1,9)                  1.4247         estimate D2E/DX2                !
 ! R3    R(1,10)                 1.0939         estimate D2E/DX2                !
 ! R4    R(1,11)                 1.1019         estimate D2E/DX2                !
 ! R5    R(2,3)                  1.5385         estimate D2E/DX2                !
 ! R6    R(2,12)                 1.0935         estimate D2E/DX2                !
 ! R7    R(2,13)                 1.0946         estimate D2E/DX2                !
 ! R8    R(3,4)                  1.5572         estimate D2E/DX2                !
 ! R9    R(3,8)                  1.5598         estimate D2E/DX2                !
 ! R10   R(3,14)                 1.0899         estimate D2E/DX2                !
 ! R11   R(4,5)                  1.5133         estimate D2E/DX2                !
 ! R12   R(4,15)                 1.0973         estimate D2E/DX2                !
 ! R13   R(4,16)                 1.0942         estimate D2E/DX2                !
 ! R14   R(5,6)                  1.4353         estimate D2E/DX2                !
 ! R15   R(5,7)                  1.467          estimate D2E/DX2                !
 ! R16   R(5,17)                 1.0875         estimate D2E/DX2                !
 ! R17   R(6,7)                  1.4341         estimate D2E/DX2                !
 ! R18   R(7,8)                  1.5162         estimate D2E/DX2                !
 ! R19   R(7,18)                 1.0867         estimate D2E/DX2                !
 ! R20   R(8,9)                  1.4288         estimate D2E/DX2                !
 ! R21   R(8,19)                 1.096          estimate D2E/DX2                !
 ! A1    A(2,1,9)              105.3621         estimate D2E/DX2                !
 ! A2    A(2,1,10)             113.7824         estimate D2E/DX2                !
 ! A3    A(2,1,11)             111.0907         estimate D2E/DX2                !
 ! A4    A(9,1,10)             107.9617         estimate D2E/DX2                !
 ! A5    A(9,1,11)             110.765          estimate D2E/DX2                !
 ! A6    A(10,1,11)            107.843          estimate D2E/DX2                !
 ! A7    A(1,2,3)              102.0213         estimate D2E/DX2                !
 ! A8    A(1,2,12)             113.0651         estimate D2E/DX2                !
 ! A9    A(1,2,13)             109.9062         estimate D2E/DX2                !
 ! A10   A(3,2,12)             113.1011         estimate D2E/DX2                !
 ! A11   A(3,2,13)             110.4963         estimate D2E/DX2                !
 ! A12   A(12,2,13)            108.1656         estimate D2E/DX2                !
 ! A13   A(2,3,4)              114.113          estimate D2E/DX2                !
 ! A14   A(2,3,8)              102.2352         estimate D2E/DX2                !
 ! A15   A(2,3,14)             111.9252         estimate D2E/DX2                !
 ! A16   A(4,3,8)              106.6298         estimate D2E/DX2                !
 ! A17   A(4,3,14)             110.3785         estimate D2E/DX2                !
 ! A18   A(8,3,14)             111.1592         estimate D2E/DX2                !
 ! A19   A(3,4,5)              105.4302         estimate D2E/DX2                !
 ! A20   A(3,4,15)             111.2769         estimate D2E/DX2                !
 ! A21   A(3,4,16)             111.9402         estimate D2E/DX2                !
 ! A22   A(5,4,15)             109.1542         estimate D2E/DX2                !
 ! A23   A(5,4,16)             111.9291         estimate D2E/DX2                !
 ! A24   A(15,4,16)            107.1416         estimate D2E/DX2                !
 ! A25   A(4,5,6)              113.3315         estimate D2E/DX2                !
 ! A26   A(4,5,7)              110.0614         estimate D2E/DX2                !
 ! A27   A(4,5,17)             120.9326         estimate D2E/DX2                !
 ! A28   A(6,5,17)             115.1629         estimate D2E/DX2                !
 ! A29   A(7,5,17)             122.7374         estimate D2E/DX2                !
 ! A30   A(5,7,8)              109.7797         estimate D2E/DX2                !
 ! A31   A(5,7,18)             124.058          estimate D2E/DX2                !
 ! A32   A(6,7,8)              111.6012         estimate D2E/DX2                !
 ! A33   A(6,7,18)             116.5064         estimate D2E/DX2                !
 ! A34   A(8,7,18)             120.3464         estimate D2E/DX2                !
 ! A35   A(3,8,7)              105.5768         estimate D2E/DX2                !
 ! A36   A(3,8,9)              107.4739         estimate D2E/DX2                !
 ! A37   A(3,8,19)             113.121          estimate D2E/DX2                !
 ! A38   A(7,8,9)              111.5032         estimate D2E/DX2                !
 ! A39   A(7,8,19)             111.2443         estimate D2E/DX2                !
 ! A40   A(9,8,19)             107.9045         estimate D2E/DX2                !
 ! A41   A(1,9,8)              109.5816         estimate D2E/DX2                !
 ! D1    D(9,1,2,3)             36.8365         estimate D2E/DX2                !
 ! D2    D(9,1,2,12)           158.6181         estimate D2E/DX2                !
 ! D3    D(9,1,2,13)           -80.4125         estimate D2E/DX2                !
 ! D4    D(10,1,2,3)           154.9069         estimate D2E/DX2                !
 ! D5    D(10,1,2,12)          -83.3116         estimate D2E/DX2                !
 ! D6    D(10,1,2,13)           37.6579         estimate D2E/DX2                !
 ! D7    D(11,1,2,3)           -83.1655         estimate D2E/DX2                !
 ! D8    D(11,1,2,12)           38.6161         estimate D2E/DX2                !
 ! D9    D(11,1,2,13)          159.5855         estimate D2E/DX2                !
 ! D10   D(2,1,9,8)            -28.0649         estimate D2E/DX2                !
 ! D11   D(10,1,9,8)          -149.9822         estimate D2E/DX2                !
 ! D12   D(11,1,9,8)            92.1519         estimate D2E/DX2                !
 ! D13   D(1,2,3,4)             83.8273         estimate D2E/DX2                !
 ! D14   D(1,2,3,8)            -30.8745         estimate D2E/DX2                !
 ! D15   D(1,2,3,14)          -149.9152         estimate D2E/DX2                !
 ! D16   D(12,2,3,4)           -37.9295         estimate D2E/DX2                !
 ! D17   D(12,2,3,8)          -152.6313         estimate D2E/DX2                !
 ! D18   D(12,2,3,14)           88.328          estimate D2E/DX2                !
 ! D19   D(13,2,3,4)          -159.3492         estimate D2E/DX2                !
 ! D20   D(13,2,3,8)            85.9491         estimate D2E/DX2                !
 ! D21   D(13,2,3,14)          -33.0917         estimate D2E/DX2                !
 ! D22   D(2,3,4,5)           -127.8983         estimate D2E/DX2                !
 ! D23   D(2,3,4,15)            -9.6844         estimate D2E/DX2                !
 ! D24   D(2,3,4,16)           110.1736         estimate D2E/DX2                !
 ! D25   D(8,3,4,5)            -15.8117         estimate D2E/DX2                !
 ! D26   D(8,3,4,15)           102.4022         estimate D2E/DX2                !
 ! D27   D(8,3,4,16)          -137.7398         estimate D2E/DX2                !
 ! D28   D(14,3,4,5)           105.0401         estimate D2E/DX2                !
 ! D29   D(14,3,4,15)         -136.7461         estimate D2E/DX2                !
 ! D30   D(14,3,4,16)          -16.888          estimate D2E/DX2                !
 ! D31   D(2,3,8,7)            134.82           estimate D2E/DX2                !
 ! D32   D(2,3,8,9)             15.6964         estimate D2E/DX2                !
 ! D33   D(2,3,8,19)          -103.307          estimate D2E/DX2                !
 ! D34   D(4,3,8,7)             14.7505         estimate D2E/DX2                !
 ! D35   D(4,3,8,9)           -104.3731         estimate D2E/DX2                !
 ! D36   D(4,3,8,19)           136.6235         estimate D2E/DX2                !
 ! D37   D(14,3,8,7)          -105.6006         estimate D2E/DX2                !
 ! D38   D(14,3,8,9)           135.2758         estimate D2E/DX2                !
 ! D39   D(14,3,8,19)           16.2724         estimate D2E/DX2                !
 ! D40   D(3,4,5,6)            -53.03           estimate D2E/DX2                !
 ! D41   D(3,4,5,7)             11.1249         estimate D2E/DX2                !
 ! D42   D(3,4,5,17)           164.001          estimate D2E/DX2                !
 ! D43   D(15,4,5,6)          -172.6587         estimate D2E/DX2                !
 ! D44   D(15,4,5,7)          -108.5038         estimate D2E/DX2                !
 ! D45   D(15,4,5,17)           44.3723         estimate D2E/DX2                !
 ! D46   D(16,4,5,6)            68.9053         estimate D2E/DX2                !
 ! D47   D(16,4,5,7)           133.0602         estimate D2E/DX2                !
 ! D48   D(16,4,5,17)          -74.0637         estimate D2E/DX2                !
 ! D49   D(4,5,7,8)             -1.8836         estimate D2E/DX2                !
 ! D50   D(4,5,7,18)           151.1362         estimate D2E/DX2                !
 ! D51   D(17,5,7,8)          -154.1785         estimate D2E/DX2                !
 ! D52   D(17,5,7,18)           -1.1586         estimate D2E/DX2                !
 ! D53   D(5,7,8,3)             -8.1632         estimate D2E/DX2                !
 ! D54   D(5,7,8,9)            108.2517         estimate D2E/DX2                !
 ! D55   D(5,7,8,19)          -131.2386         estimate D2E/DX2                !
 ! D56   D(6,7,8,3)             55.6549         estimate D2E/DX2                !
 ! D57   D(6,7,8,9)            172.0698         estimate D2E/DX2                !
 ! D58   D(6,7,8,19)           -67.4205         estimate D2E/DX2                !
 ! D59   D(18,7,8,3)          -162.3438         estimate D2E/DX2                !
 ! D60   D(18,7,8,9)           -45.9289         estimate D2E/DX2                !
 ! D61   D(18,7,8,19)           74.5808         estimate D2E/DX2                !
 ! D62   D(3,8,9,1)              7.4988         estimate D2E/DX2                !
 ! D63   D(7,8,9,1)           -107.7534         estimate D2E/DX2                !
 ! D64   D(19,8,9,1)           129.7971         estimate D2E/DX2                !
 --------------------------------------------------------------------------------
 Trust Radius=3.00D-01 FncErr=1.00D-07 GrdErr=1.00D-06
 Number of steps in this run=    114 maximum allowed number of steps=    114.
 GradGradGradGradGradGradGradGradGradGradGradGradGradGradGradGradGradGrad

                          Input orientation:                          
 ---------------------------------------------------------------------
 Center     Atomic      Atomic             Coordinates (Angstroms)
 Number     Number       Type             X           Y           Z
 ---------------------------------------------------------------------
      1          6           0       -0.497030    1.090280   -0.785762
      2          6           0       -0.048238   -0.129284    0.024629
      3          6           0        1.405195    0.235101    0.373660
      4          6           0        1.549071    1.144061    1.629797
      5          6           0        2.402707    2.312140    1.185918
      6          8           0        3.637989    1.913144    0.573485
      7          6           0        2.548509    2.302837   -0.273749
      8          6           0        1.833387    1.097977   -0.853145
      9          8           0        0.643397    1.478553   -1.546270
     10          1           0       -1.312530    0.880204   -1.483954
     11          1           0       -0.822024    1.908722   -0.123431
     12          1           0       -0.668986   -0.309630    0.906612
     13          1           0       -0.078523   -1.025528   -0.603044
     14          1           0        2.034344   -0.649534    0.471245
     15          1           0        0.573308    1.517945    1.964607
     16          1           0        1.995845    0.608542    2.472953
     17          1           0        2.452631    3.224140    1.776118
     18          1           0        2.697653    3.194890   -0.876161
     19          1           0        2.474943    0.556154   -1.557520
 ---------------------------------------------------------------------
                    Distance matrix (angstroms):
                    1          2          3          4          5
     1  C    0.000000
     2  C    1.531497   0.000000
     3  C    2.386220   1.538527   0.000000
     4  C    3.166125   2.597955   1.557174   0.000000
     5  C    3.713346   3.649147   2.443130   1.513318   0.000000
     6  O    4.429790   4.249827   2.800201   2.463912   1.435337
     7  C    3.317794   3.570341   2.449865   2.442361   1.466960
     8  C    2.331404   2.411881   1.559793   2.499592   2.440510
     9  O    1.424676   2.351856   2.410942   3.319569   3.354831
    10  H    1.093912   2.212085   3.354536   4.237195   4.793917
    11  H    1.101885   2.184979   2.829949   3.046409   3.503717
    12  H    2.203053   1.093502   2.209750   2.748816   4.048084
    13  H    2.164527   1.094598   2.178200   3.513084   4.527351
    14  H    3.318865   2.192549   1.089922   2.189684   3.068869
    15  H    2.982122   2.619771   2.206544   1.097269   2.140981
    16  H    4.131067   3.273675   2.212545   1.094211   2.173532
    17  H    4.451638   4.535141   3.463865   2.272566   1.087462
    18  H    3.826690   4.404711   3.463070   3.435836   2.262390
    19  H    3.116653   3.056054   2.230895   3.370736   3.258090
                    6          7          8          9         10
     6  O    0.000000
     7  C    1.434097   0.000000
     8  C    2.440565   1.516174   0.000000
     9  O    3.694566   2.434791   1.428755   0.000000
    10  H    5.459639   4.289067   3.215920   2.046351   0.000000
    11  H    4.514137   3.396824   2.870714   2.087337   1.774674
    12  H    4.858161   4.309351   3.367487   3.307050   2.746754
    13  H    4.881851   4.252969   2.868314   2.771510   2.435280
    14  H    3.024805   3.088021   2.201859   3.245590   4.167068
    15  H    3.388756   3.086699   3.115108   3.511798   3.981918
    16  H    2.829594   3.274209   3.365837   4.328994   5.164906
    17  H    2.137782   2.249433   3.437594   4.166373   5.504411
    18  H    2.151413   1.086693   2.268155   2.759498   4.669984
    19  H    2.781237   2.168958   1.096043   2.050734   3.802022
                   11         12         13         14         15
    11  H    0.000000
    12  H    2.450611   0.000000
    13  H    3.064742   1.772066   0.000000
    14  H    3.880354   2.759179   2.399932   0.000000
    15  H    2.541567   2.450036   3.672461   3.010435   0.000000
    16  H    4.046241   3.224559   4.054003   2.364545   1.763247
    17  H    4.007740   4.794586   5.488791   4.108893   2.545286
    18  H    3.822167   5.176311   5.059019   4.127357   3.923640
    19  H    3.841360   4.087275   3.151656   2.400770   4.116629
                   16         17         18         19
    16  H    0.000000
    17  H    2.745102   0.000000
    18  H    4.289323   2.663733   0.000000
    19  H    4.059186   4.269869   2.734369   0.000000
 Stoichiometry    C7H10O2
 Framework group  C1[X(C7H10O2)]
 Deg. of freedom    51
 Full point group                 C1      NOp   1
 Largest Abelian subgroup         C1      NOp   1
 Largest concise Abelian subgroup C1      NOp   1
                         Standard orientation:                         
 ---------------------------------------------------------------------
 Center     Atomic      Atomic             Coordinates (Angstroms)
 Number     Number       Type             X           Y           Z
 ---------------------------------------------------------------------
      1          6           0       -2.008165   -0.274467   -0.638172
      2          6           0       -1.805550    0.894348    0.330487
      3          6           0       -0.316881    0.755462    0.693312
      4          6           0        0.651997    1.414943   -0.331943
      5          6           0        1.653889    0.338477   -0.689103
      6          8           0        2.284257   -0.253996    0.456238
      7          6           0        1.204647   -0.958678   -0.171855
      8          6           0       -0.094038   -0.784939    0.591046
      9          8           0       -1.200991   -1.331758   -0.127970
     10          1           0       -3.040722   -0.632225   -0.687964
     11          1           0       -1.695612   -0.002101   -1.659092
     12          1           0       -2.050854    1.864181   -0.111097
     13          1           0       -2.430930    0.755523    1.218052
     14          1           0       -0.107874    1.117237    1.699973
     15          1           0        0.119581    1.726614   -1.239354
     16          1           0        1.137749    2.305236    0.078815
     17          1           0        2.287312    0.433754   -1.567891
     18          1           0        1.449562   -1.913854   -0.628537
     19          1           0       -0.049733   -1.279215    1.568307
 ---------------------------------------------------------------------
 Rotational constants (GHZ):      3.3321349      1.5626387      1.2900203
 Standard basis: 6-31G(2df,p) (6D, 7F)
 There are   329 symmetry adapted cartesian basis functions of A   symmetry.
 There are   302 symmetry adapted basis functions of A   symmetry.
   302 basis functions,   466 primitive gaussians,   329 cartesian basis functions
    34 alpha electrons       34 beta electrons
       nuclear repulsion energy       483.4369380335 Hartrees.
 NAtoms=   19 NActive=   19 NUniq=   19 SFac= 1.00D+00 NAtFMM=   60 NAOKFM=F Big=F
 Integral buffers will be    131072 words long.
 Raffenetti 2 integral format.
 Two-electron integral symmetry is turned on.
 One-electron integrals computed using PRISM.
 NBasis=   302 RedAO= T EigKep=  3.76D-04  NBF=   302
 NBsUse=   302 1.00D-06 EigRej= -1.00D+00 NBFU=   302
 ExpMin= 1.61D-01 ExpMax= 5.48D+03 ExpMxC= 8.25D+02 IAcc=1 IRadAn=         1 AccDes= 0.00D+00
 Harris functional with IExCor=  402 and IRadAn=       1 diagonalized for initial guess.
 HarFok:  IExCor=  402 AccDes= 0.00D+00 IRadAn=         1 IDoV= 1 UseB2=F ITyADJ=14
 ICtDFT=  3500011 ScaDFX=  1.000000  1.000000  1.000000  1.000000
 FoFCou: FMM=F IPFlag=           0 FMFlag=      100000 FMFlg1=           0
         NFxFlg=           0 DoJE=T BraDBF=F KetDBF=T FulRan=T
         wScrn=  0.000000 ICntrl=     500 IOpCl=  0 I1Cent=   200000004 NGrid=           0
         NMat0=    1 NMatS0=      1 NMatT0=    0 NMatD0=    1 NMtDS0=    0 NMtDT0=    0
 Petite list used in FoFCou.
 Requested convergence on RMS density matrix=1.00D-08 within 128 cycles.
 Requested convergence on MAX density matrix=1.00D-06.
 Requested convergence on             energy=1.00D-06.
 No special actions if energy rises.
 Integral accuracy reduced to 1.0D-05 until final iterations.
 Initial convergence to 1.0D-05 achieved.  Increase integral accuracy.
 SCF Done:  E(RB3LYP) =  -423.189433966     A.U. after   14 cycles
            NFock= 14  Conv=0.42D-08     -V/T= 2.0074

 **********************************************************************

            Population analysis using the SCF density.

 **********************************************************************

 Orbital symmetries:
       Occupied  (A) (A) (A) (A) (A) (A) (A) (A) (A) (A) (A) (A)
                 (A) (A) (A) (A) (A) (A) (A) (A) (A) (A) (A) (A)
                 (A) (A) (A) (A) (A) (A) (A) (A) (A) (A)
       Virtual   (A) (A) (A) (A) (A) (A) (A) (A) (A) (A) (A) (A)
                 (A) (A) (A) (A) (A) (A) (A) (A) (A) (A) (A) (A)
                 (A) (A) (A) (A) (A) (A) (A) (A) (A) (A) (A) (A)
                 (A) (A) (A) (A) (A) (A) (A) (A) (A) (A) (A) (A)
                 (A) (A) (A) (A) (A) (A) (A) (A) (A) (A) (A) (A)
                 (A) (A) (A) (A) (A) (A) (A) (A) (A) (A) (A) (A)
                 (A) (A) (A) (A) (A) (A) (A) (A) (A) (A) (A) (A)
                 (A) (A) (A) (A) (A) (A) (A) (A) (A) (A) (A) (A)
                 (A) (A) (A) (A) (A) (A) (A) (A) (A) (A) (A) (A)
                 (A) (A) (A) (A) (A) (A) (A) (A) (A) (A) (A) (A)
                 (A) (A) (A) (A) (A) (A) (A) (A) (A) (A) (A) (A)
                 (A) (A) (A) (A) (A) (A) (A) (A) (A) (A) (A) (A)
                 (A) (A) (A) (A) (A) (A) (A) (A) (A) (A) (A) (A)
                 (A) (A) (A) (A) (A) (A) (A) (A) (A) (A) (A) (A)
                 (A) (A) (A) (A) (A) (A) (A) (A) (A) (A) (A) (A)
                 (A) (A) (A) (A) (A) (A) (A) (A) (A) (A) (A) (A)
                 (A) (A) (A) (A) (A) (A) (A) (A) (A) (A) (A) (A)
                 (A) (A) (A) (A) (A) (A) (A) (A) (A) (A) (A) (A)
                 (A) (A) (A) (A) (A) (A) (A) (A) (A) (A) (A) (A)
                 (A) (A) (A) (A) (A) (A) (A) (A) (A) (A) (A) (A)
                 (A) (A) (A) (A) (A) (A) (A) (A) (A) (A) (A) (A)
                 (A) (A) (A) (A) (A) (A) (A) (A) (A) (A) (A) (A)
                 (A) (A) (A) (A)
 The electronic state is 1-A.
 Alpha  occ. eigenvalues --  -19.14790 -19.13626 -10.23435 -10.22968 -10.22869
 Alpha  occ. eigenvalues --  -10.22824 -10.19393 -10.18966 -10.18820  -1.07067
 Alpha  occ. eigenvalues --   -1.03158  -0.81163  -0.75874  -0.71781  -0.65987
 Alpha  occ. eigenvalues --   -0.60650  -0.57399  -0.56237  -0.51487  -0.50367
 Alpha  occ. eigenvalues --   -0.47386  -0.45058  -0.43718  -0.41748  -0.39645
 Alpha  occ. eigenvalues --   -0.38225  -0.37439  -0.35514  -0.33742  -0.33492
 Alpha  occ. eigenvalues --   -0.31077  -0.29282  -0.27129  -0.24458
 Alpha virt. eigenvalues --    0.07860   0.10045   0.10284   0.11223   0.12121
 Alpha virt. eigenvalues --    0.13853   0.14253   0.14935   0.16161   0.16323
 Alpha virt. eigenvalues --    0.17816   0.18731   0.19877   0.20622   0.21343
 Alpha virt. eigenvalues --    0.22237   0.24158   0.28362   0.30486   0.31000
 Alpha virt. eigenvalues --    0.34780   0.43069   0.45085   0.45830   0.46528
 Alpha virt. eigenvalues --    0.47979   0.48517   0.49749   0.50584   0.53099
 Alpha virt. eigenvalues --    0.53551   0.54436   0.55866   0.57703   0.59024
 Alpha virt. eigenvalues --    0.60176   0.62213   0.64439   0.67295   0.67621
 Alpha virt. eigenvalues --    0.70490   0.72240   0.73513   0.74759   0.75117
 Alpha virt. eigenvalues --    0.76568   0.77318   0.78218   0.79630   0.80696
 Alpha virt. eigenvalues --    0.81578   0.82517   0.83544   0.85111   0.87293
 Alpha virt. eigenvalues --    0.91448   0.92235   0.95617   0.97202   0.99179
 Alpha virt. eigenvalues --    1.04913   1.06731   1.08584   1.10200   1.14446
 Alpha virt. eigenvalues --    1.15384   1.16958   1.19320   1.22548   1.23262
 Alpha virt. eigenvalues --    1.25587   1.30434   1.32633   1.33715   1.36219
 Alpha virt. eigenvalues --    1.36805   1.39065   1.40180   1.41313   1.44127
 Alpha virt. eigenvalues --    1.44268   1.45009   1.46303   1.48159   1.51489
 Alpha virt. eigenvalues --    1.52006   1.53349   1.54914   1.57358   1.59025
 Alpha virt. eigenvalues --    1.60788   1.62638   1.63432   1.66623   1.67940
 Alpha virt. eigenvalues --    1.70959   1.73740   1.74180   1.77107   1.78478
 Alpha virt. eigenvalues --    1.81395   1.85208   1.86076   1.92047   1.93014
 Alpha virt. eigenvalues --    1.94343   1.97014   2.00614   2.07144   2.12287
 Alpha virt. eigenvalues --    2.14495   2.18234   2.22025   2.25231   2.30221
 Alpha virt. eigenvalues --    2.34311   2.37830   2.39109   2.40877   2.43458
 Alpha virt. eigenvalues --    2.45398   2.48957   2.50450   2.54599   2.55866
 Alpha virt. eigenvalues --    2.59784   2.62455   2.64886   2.66078   2.68860
 Alpha virt. eigenvalues --    2.73393   2.76375   2.78103   2.85390   2.86932
 Alpha virt. eigenvalues --    2.87331   2.88515   2.90986   2.91964   2.93381
 Alpha virt. eigenvalues --    2.94288   2.99014   3.03119   3.04923   3.07114
 Alpha virt. eigenvalues --    3.08910   3.09374   3.11912   3.14048   3.16463
 Alpha virt. eigenvalues --    3.17913   3.20102   3.22499   3.24896   3.27634
 Alpha virt. eigenvalues --    3.29677   3.33086   3.35598   3.36056   3.38647
 Alpha virt. eigenvalues --    3.41490   3.43996   3.46049   3.47406   3.48854
 Alpha virt. eigenvalues --    3.50399   3.57986   3.58736   3.62669   3.62870
 Alpha virt. eigenvalues --    3.65883   3.67291   3.73097   3.75055   3.79253
 Alpha virt. eigenvalues --    3.84042   3.85967   3.93500   3.98509   4.00639
 Alpha virt. eigenvalues --    4.04773   4.06787   4.10689   4.13768   4.17551
 Alpha virt. eigenvalues --    4.22094   4.26389   4.27283   4.30149   4.33472
 Alpha virt. eigenvalues --    4.36033   4.38092   4.38412   4.43017   4.45166
 Alpha virt. eigenvalues --    4.45539   4.46305   4.47663   4.52015   4.52855
 Alpha virt. eigenvalues --    4.54928   4.57355   4.58741   4.60429   4.61330
 Alpha virt. eigenvalues --    4.62039   4.63664   4.64588   4.66152   4.69230
 Alpha virt. eigenvalues --    4.70175   4.72046   4.74503   4.75944   4.77050
 Alpha virt. eigenvalues --    4.77685   4.79690   4.83244   4.84393   4.87968
 Alpha virt. eigenvalues --    4.88693   4.93196   4.95291   4.96308   5.00717
 Alpha virt. eigenvalues --    5.03362   5.03798   5.07094   5.13253   5.15884
 Alpha virt. eigenvalues --    5.16672   5.22538   5.26066   5.29109   5.30675
 Alpha virt. eigenvalues --    5.33743   5.35792   5.43121   5.45627   5.49835
 Alpha virt. eigenvalues --    5.52519   5.54091   5.58165   5.63738   5.79124
 Alpha virt. eigenvalues --    5.83767   5.91994   5.95721   5.98912   6.01420
 Alpha virt. eigenvalues --    6.06590   6.06970   6.10518   6.13407   6.18910
 Alpha virt. eigenvalues --    6.34809   6.85755   6.93081   7.33732  10.67286
 Alpha virt. eigenvalues --   11.30922  11.63732  11.78839  12.25253  12.37362
 Alpha virt. eigenvalues --   12.91471  13.23622  13.59593
          Condensed to atoms (all electrons):
               1          2          3          4          5          6
     1  C    4.770657   0.373537  -0.048778   0.001374   0.000658  -0.000085
     2  C    0.373537   4.992182   0.398161  -0.023386   0.003943   0.000508
     3  C   -0.048778   0.398161   4.845318   0.363426  -0.052241   0.010961
     4  C    0.001374  -0.023386   0.363426   5.032115   0.379463  -0.031876
     5  C    0.000658   0.003943  -0.052241   0.379463   4.708140   0.278903
     6  O   -0.000085   0.000508   0.010961  -0.031876   0.278903   7.845116
     7  C    0.002321   0.002305  -0.019239  -0.022842   0.310743   0.224086
     8  C   -0.109753  -0.053673   0.332507  -0.031632   0.002524  -0.023670
     9  O    0.389905  -0.058569  -0.028333  -0.000947   0.002675   0.001463
    10  H    0.371212  -0.021557   0.003834  -0.000046   0.000070   0.000002
    11  H    0.361444  -0.044551  -0.006746   0.001150  -0.001635  -0.000043
    12  H   -0.023931   0.356594  -0.021676  -0.009273   0.000169  -0.000004
    13  H   -0.025541   0.359566  -0.025903   0.004012  -0.000206  -0.000001
    14  H    0.005227  -0.043306   0.368236  -0.038954   0.000673   0.001265
    15  H    0.001060  -0.011594  -0.023311   0.343572  -0.024502   0.002675
    16  H   -0.000101   0.003184  -0.022686   0.355292  -0.019642  -0.003291
    17  H   -0.000026  -0.000019   0.005943  -0.064665   0.380242  -0.023798
    18  H   -0.000218   0.000012   0.006549   0.002709  -0.037514  -0.020937
    19  H    0.006266   0.004232  -0.045195   0.006975   0.005584   0.001983
               7          8          9         10         11         12
     1  C    0.002321  -0.109753   0.389905   0.371212   0.361444  -0.023931
     2  C    0.002305  -0.053673  -0.058569  -0.021557  -0.044551   0.356594
     3  C   -0.019239   0.332507  -0.028333   0.003834  -0.006746  -0.021676
     4  C   -0.022842  -0.031632  -0.000947  -0.000046   0.001150  -0.009273
     5  C    0.310743   0.002524   0.002675   0.000070  -0.001635   0.000169
     6  O    0.224086  -0.023670   0.001463   0.000002  -0.000043  -0.000004
     7  C    4.875638   0.349577  -0.033058  -0.000275   0.002411   0.000062
     8  C    0.349577   4.799912   0.342676   0.003495   0.007237   0.003947
     9  O   -0.033058   0.342676   7.731655  -0.021481  -0.035491   0.002887
    10  H   -0.000275   0.003495  -0.021481   0.616005  -0.054497   0.002637
    11  H    0.002411   0.007237  -0.035491  -0.054497   0.674896  -0.003263
    12  H    0.000062   0.003947   0.002887   0.002637  -0.003263   0.621781
    13  H    0.000156   0.002820   0.000749  -0.007878   0.006043  -0.038567
    14  H    0.002889  -0.027689   0.002605  -0.000174  -0.000104   0.002430
    15  H    0.001730  -0.002609   0.000199  -0.000144   0.003500   0.003663
    16  H    0.003331   0.003955  -0.000063  -0.000003   0.000037   0.000459
    17  H   -0.029068   0.001527   0.000081   0.000000   0.000027   0.000000
    18  H    0.384688  -0.061212   0.002464   0.000002   0.000117   0.000006
    19  H   -0.064658   0.365210  -0.027415  -0.000015  -0.000539  -0.000213
              13         14         15         16         17         18
     1  C   -0.025541   0.005227   0.001060  -0.000101  -0.000026  -0.000218
     2  C    0.359566  -0.043306  -0.011594   0.003184  -0.000019   0.000012
     3  C   -0.025903   0.368236  -0.023311  -0.022686   0.005943   0.006549
     4  C    0.004012  -0.038954   0.343572   0.355292  -0.064665   0.002709
     5  C   -0.000206   0.000673  -0.024502  -0.019642   0.380242  -0.037514
     6  O   -0.000001   0.001265   0.002675  -0.003291  -0.023798  -0.020937
     7  C    0.000156   0.002889   0.001730   0.003331  -0.029068   0.384688
     8  C    0.002820  -0.027689  -0.002609   0.003955   0.001527  -0.061212
     9  O    0.000749   0.002605   0.000199  -0.000063   0.000081   0.002464
    10  H   -0.007878  -0.000174  -0.000144  -0.000003   0.000000   0.000002
    11  H    0.006043  -0.000104   0.003500   0.000037   0.000027   0.000117
    12  H   -0.038567   0.002430   0.003663   0.000459   0.000000   0.000006
    13  H    0.624091  -0.007084   0.000195  -0.000173   0.000003   0.000006
    14  H   -0.007084   0.656470   0.005435  -0.008193  -0.000150  -0.000142
    15  H    0.000195   0.005435   0.638074  -0.039425   0.000581   0.000176
    16  H   -0.000173  -0.008193  -0.039425   0.613527   0.001178  -0.000132
    17  H    0.000003  -0.000150   0.000581   0.001178   0.635471  -0.001473
    18  H    0.000006  -0.000142   0.000176  -0.000132  -0.001473   0.626118
    19  H   -0.000185  -0.006289  -0.000235  -0.000055  -0.000161  -0.000666
              19
     1  C    0.006266
     2  C    0.004232
     3  C   -0.045195
     4  C    0.006975
     5  C    0.005584
     6  O    0.001983
     7  C   -0.064658
     8  C    0.365210
     9  O   -0.027415
    10  H   -0.000015
    11  H   -0.000539
    12  H   -0.000213
    13  H   -0.000185
    14  H   -0.006289
    15  H   -0.000235
    16  H   -0.000055
    17  H   -0.000161
    18  H   -0.000666
    19  H    0.669418
 Mulliken charges:
               1
     1  C   -0.075229
     2  C   -0.237568
     3  C   -0.040827
     4  C   -0.266466
     5  C    0.061954
     6  O   -0.263256
     7  C    0.009204
     8  C    0.094850
     9  O   -0.272002
    10  H    0.108814
    11  H    0.090008
    12  H    0.102294
    13  H    0.107897
    14  H    0.086853
    15  H    0.100960
    16  H    0.112802
    17  H    0.094306
    18  H    0.099449
    19  H    0.085958
 Sum of Mulliken charges =   0.00000
 Mulliken charges with hydrogens summed into heavy atoms:
               1
     1  C    0.123593
     2  C   -0.027378
     3  C    0.046027
     4  C   -0.052704
     5  C    0.156260
     6  O   -0.263256
     7  C    0.108652
     8  C    0.180809
     9  O   -0.272002
 Electronic spatial extent (au):  <R**2>=           1008.9780
 Charge=              0.0000 electrons
 Dipole moment (field-independent basis, Debye):
    X=             -1.2243    Y=              1.5621    Z=             -0.8747  Tot=              2.1689
 Quadrupole moment (field-independent basis, Debye-Ang):
   XX=            -55.9696   YY=            -53.4430   ZZ=            -51.4437
   XY=             -1.7068   XZ=             -2.9395   YZ=             -0.4929
 Traceless Quadrupole moment (field-independent basis, Debye-Ang):
   XX=             -2.3508   YY=              0.1757   ZZ=              2.1751
   XY=             -1.7068   XZ=             -2.9395   YZ=             -0.4929
 Octapole moment (field-independent basis, Debye-Ang**2):
  XXX=            -16.1727  YYY=             -2.9539  ZZZ=              1.8861  XYY=              8.5972
  XXY=              1.5201  XXZ=             -8.8893  XZZ=              0.9618  YZZ=             -1.8070
  YYZ=              1.1325  XYZ=              0.7488
 Hexadecapole moment (field-independent basis, Debye-Ang**3):
 XXXX=           -775.9124 YYYY=           -348.7257 ZZZZ=           -176.1644 XXXY=             13.9378
 XXXZ=            -11.9434 YYYX=             -6.7995 YYYZ=              0.5463 ZZZX=              0.1199
 ZZZY=             -1.4285 XXYY=           -184.3896 XXZZ=           -152.7574 YYZZ=            -86.6306
 XXYZ=              2.4472 YYXZ=              1.7834 ZZXY=              1.8571
 N-N= 4.834369380335D+02 E-N=-1.953682076703D+03  KE= 4.200621510448D+02
 Calling FoFJK, ICntrl=      2127 FMM=F ISym2X=0 I1Cent= 0 IOpClX= 0 NMat=1 NMatS=1 NMatT=0.
 ***** Axes restored to original set *****
 -------------------------------------------------------------------
 Center     Atomic                   Forces (Hartrees/Bohr)
 Number     Number              X              Y              Z
 -------------------------------------------------------------------
      1        6          -0.000009849   -0.000015528   -0.000002089
      2        6           0.000011548    0.000020837   -0.000005803
      3        6          -0.000010154   -0.000013751   -0.000014949
      4        6           0.000012898    0.000006512   -0.000024453
      5        6          -0.000055112    0.000011210    0.000041702
      6        8           0.000006690    0.000012812    0.000008088
      7        6           0.000032566   -0.000015731    0.000001072
      8        6           0.000024342    0.000022611    0.000027492
      9        8           0.000001125    0.000004361   -0.000026668
     10        1           0.000010245   -0.000004263   -0.000015041
     11        1          -0.000001301   -0.000010381   -0.000006345
     12        1           0.000002590   -0.000014727   -0.000012060
     13        1           0.000007840   -0.000005256   -0.000014610
     14        1           0.000009881    0.000002542    0.000008004
     15        1          -0.000015775   -0.000010306    0.000004354
     16        1          -0.000013595   -0.000006778    0.000013916
     17        1          -0.000015172   -0.000004508    0.000005864
     18        1          -0.000006871    0.000007286    0.000006900
     19        1           0.000008102    0.000013059    0.000004624
 -------------------------------------------------------------------
 Cartesian Forces:  Max     0.000055112 RMS     0.000015767

 GradGradGradGradGradGradGradGradGradGradGradGradGradGradGradGradGradGrad
 Berny optimization.
 FormGI is forming the generalized inverse of G from B-inverse, IUseBI=4.
 Internal  Forces:  Max     0.000024116 RMS     0.000004960
 Search for a local minimum.
 Step number   1 out of a maximum of  114
 All quantities printed in internal units (Hartrees-Bohrs-Radians)
 Mixed Optimization -- En-DIIS/RFO-DIIS
 Second derivative matrix not updated -- first step.
 ITU=  0
     Eigenvalues ---    0.00416   0.00747   0.01105   0.02000   0.02127
     Eigenvalues ---    0.02613   0.03364   0.03756   0.04304   0.04621
     Eigenvalues ---    0.04634   0.05078   0.05333   0.05555   0.06005
     Eigenvalues ---    0.06266   0.06596   0.06889   0.07230   0.07949
     Eigenvalues ---    0.08324   0.09693   0.11202   0.11684   0.13202
     Eigenvalues ---    0.14366   0.16233   0.17249   0.19344   0.19907
     Eigenvalues ---    0.23487   0.25576   0.26349   0.27560   0.27710
     Eigenvalues ---    0.28549   0.29723   0.30816   0.33474   0.33986
     Eigenvalues ---    0.34123   0.34287   0.34330   0.34364   0.34411
     Eigenvalues ---    0.34822   0.35108   0.35198   0.38733   0.39007
     Eigenvalues ---    0.39565
 RFO step:  Lambda=-2.92405518D-08 EMin= 4.16229561D-03
 Linear search not attempted -- first point.
 Iteration  1 RMS(Cart)=  0.00009924 RMS(Int)=  0.00000001
 Iteration  2 RMS(Cart)=  0.00000001 RMS(Int)=  0.00000000
 Variable       Old X    -DE/DX   Delta X   Delta X   Delta X     New X
                                 (Linear)    (Quad)   (Total)
    R1        2.89411  -0.00001   0.00000  -0.00003  -0.00003   2.89408
    R2        2.69225   0.00002   0.00000   0.00005   0.00005   2.69229
    R3        2.06719   0.00000   0.00000   0.00000   0.00000   2.06719
    R4        2.08226   0.00000   0.00000   0.00000   0.00000   2.08226
    R5        2.90739   0.00000   0.00000  -0.00002  -0.00002   2.90738
    R6        2.06642   0.00000   0.00000   0.00001   0.00001   2.06642
    R7        2.06849   0.00000   0.00000   0.00001   0.00001   2.06850
    R8        2.94263   0.00000   0.00000  -0.00002  -0.00002   2.94262
    R9        2.94758   0.00000   0.00000   0.00000   0.00000   2.94758
   R10        2.05965   0.00000   0.00000   0.00001   0.00001   2.05966
   R11        2.85976  -0.00001   0.00000  -0.00003  -0.00003   2.85972
   R12        2.07354   0.00000   0.00000   0.00001   0.00001   2.07355
   R13        2.06776   0.00001   0.00000   0.00003   0.00003   2.06779
   R14        2.71239   0.00002   0.00000   0.00005   0.00005   2.71245
   R15        2.77215   0.00001   0.00000   0.00005   0.00005   2.77220
   R16        2.05500  -0.00001   0.00000  -0.00002  -0.00002   2.05498
   R17        2.71005   0.00000   0.00000  -0.00002  -0.00002   2.71003
   R18        2.86515  -0.00001   0.00000  -0.00002  -0.00002   2.86514
   R19        2.05355   0.00000   0.00000   0.00001   0.00001   2.05356
   R20        2.69996   0.00002   0.00000   0.00006   0.00006   2.70002
   R21        2.07122   0.00000   0.00000  -0.00001  -0.00001   2.07121
    A1        1.83891   0.00000   0.00000  -0.00002  -0.00002   1.83890
    A2        1.98588   0.00000   0.00000   0.00002   0.00002   1.98590
    A3        1.93890   0.00000   0.00000  -0.00004  -0.00004   1.93886
    A4        1.88429   0.00000   0.00000   0.00001   0.00001   1.88429
    A5        1.93321   0.00000   0.00000   0.00002   0.00002   1.93324
    A6        1.88222   0.00000   0.00000   0.00001   0.00001   1.88222
    A7        1.78061   0.00001   0.00000   0.00002   0.00002   1.78063
    A8        1.97336   0.00000   0.00000   0.00004   0.00004   1.97340
    A9        1.91823   0.00000   0.00000  -0.00003  -0.00003   1.91819
   A10        1.97399   0.00000   0.00000  -0.00002  -0.00002   1.97397
   A11        1.92852   0.00000   0.00000   0.00003   0.00003   1.92856
   A12        1.88785   0.00000   0.00000  -0.00004  -0.00004   1.88781
   A13        1.99165  -0.00001   0.00000  -0.00007  -0.00007   1.99158
   A14        1.78434   0.00001   0.00000   0.00003   0.00003   1.78437
   A15        1.95346   0.00000   0.00000   0.00007   0.00007   1.95353
   A16        1.86104   0.00000   0.00000  -0.00004  -0.00004   1.86100
   A17        1.92647   0.00000   0.00000  -0.00003  -0.00003   1.92643
   A18        1.94009   0.00000   0.00000   0.00005   0.00005   1.94014
   A19        1.84010   0.00000   0.00000   0.00004   0.00004   1.84014
   A20        1.94215   0.00000   0.00000  -0.00003  -0.00003   1.94212
   A21        1.95372   0.00000   0.00000   0.00002   0.00002   1.95375
   A22        1.90510   0.00000   0.00000   0.00002   0.00002   1.90512
   A23        1.95353   0.00000   0.00000   0.00004   0.00004   1.95357
   A24        1.86997   0.00000   0.00000  -0.00008  -0.00008   1.86990
   A25        1.97801   0.00001   0.00000  -0.00007  -0.00007   1.97794
   A26        1.92093   0.00000   0.00000   0.00003   0.00003   1.92097
   A27        2.11067   0.00000   0.00000   0.00003   0.00003   2.11070
   A28        2.00997  -0.00001   0.00000  -0.00003  -0.00003   2.00994
   A29        2.14217   0.00000   0.00000   0.00001   0.00001   2.14218
   A30        1.91602  -0.00001   0.00000  -0.00007  -0.00007   1.91595
   A31        2.16522   0.00001   0.00000   0.00001   0.00001   2.16523
   A32        1.94781   0.00001   0.00000   0.00015   0.00015   1.94796
   A33        2.03342   0.00000   0.00000   0.00003   0.00003   2.03345
   A34        2.10044  -0.00001   0.00000  -0.00006  -0.00006   2.10038
   A35        1.84266   0.00000   0.00000   0.00005   0.00005   1.84272
   A36        1.87577   0.00000   0.00000  -0.00003  -0.00003   1.87574
   A37        1.97433   0.00000   0.00000   0.00000   0.00000   1.97433
   A38        1.94610   0.00000   0.00000   0.00003   0.00003   1.94613
   A39        1.94158   0.00000   0.00000  -0.00001  -0.00001   1.94156
   A40        1.88329   0.00000   0.00000  -0.00004  -0.00004   1.88325
   A41        1.91256  -0.00001   0.00000   0.00000   0.00000   1.91256
    D1        0.64292   0.00000   0.00000   0.00002   0.00002   0.64294
    D2        2.76841   0.00000   0.00000   0.00003   0.00003   2.76844
    D3       -1.40346   0.00000   0.00000  -0.00001  -0.00001  -1.40348
    D4        2.70363   0.00000   0.00000   0.00002   0.00002   2.70366
    D5       -1.45406   0.00000   0.00000   0.00004   0.00004  -1.45402
    D6        0.65725   0.00000   0.00000  -0.00001  -0.00001   0.65725
    D7       -1.45151   0.00000   0.00000   0.00002   0.00002  -1.45149
    D8        0.67398   0.00000   0.00000   0.00003   0.00003   0.67401
    D9        2.78529   0.00000   0.00000  -0.00001  -0.00001   2.78528
   D10       -0.48982   0.00000   0.00000  -0.00006  -0.00006  -0.48988
   D11       -2.61768   0.00000   0.00000  -0.00007  -0.00007  -2.61776
   D12        1.60835   0.00000   0.00000  -0.00010  -0.00010   1.60826
   D13        1.46306   0.00000   0.00000  -0.00005  -0.00005   1.46302
   D14       -0.53886   0.00000   0.00000   0.00001   0.00001  -0.53885
   D15       -2.61651   0.00000   0.00000  -0.00009  -0.00009  -2.61660
   D16       -0.66200   0.00000   0.00000  -0.00010  -0.00010  -0.66209
   D17       -2.66392   0.00000   0.00000  -0.00004  -0.00004  -2.66396
   D18        1.54161  -0.00001   0.00000  -0.00014  -0.00014   1.54147
   D19       -2.78117   0.00000   0.00000  -0.00006  -0.00006  -2.78123
   D20        1.50009   0.00000   0.00000   0.00000   0.00000   1.50009
   D21       -0.57756   0.00000   0.00000  -0.00011  -0.00011  -0.57766
   D22       -2.23225   0.00000   0.00000   0.00015   0.00015  -2.23210
   D23       -0.16903   0.00000   0.00000   0.00017   0.00017  -0.16885
   D24        1.92289   0.00000   0.00000   0.00007   0.00007   1.92296
   D25       -0.27597   0.00000   0.00000   0.00013   0.00013  -0.27584
   D26        1.78726   0.00000   0.00000   0.00015   0.00015   1.78740
   D27       -2.40401   0.00000   0.00000   0.00004   0.00004  -2.40397
   D28        1.83329   0.00000   0.00000   0.00014   0.00014   1.83344
   D29       -2.38667   0.00000   0.00000   0.00016   0.00016  -2.38650
   D30       -0.29475   0.00000   0.00000   0.00006   0.00006  -0.29469
   D31        2.35305   0.00000   0.00000  -0.00001  -0.00001   2.35304
   D32        0.27395  -0.00001   0.00000  -0.00006  -0.00006   0.27389
   D33       -1.80305   0.00000   0.00000   0.00001   0.00001  -1.80304
   D34        0.25744   0.00000   0.00000   0.00006   0.00006   0.25751
   D35       -1.82165   0.00000   0.00000   0.00001   0.00001  -1.82164
   D36        2.38453   0.00000   0.00000   0.00008   0.00008   2.38461
   D37       -1.84308   0.00000   0.00000   0.00010   0.00010  -1.84298
   D38        2.36101   0.00000   0.00000   0.00005   0.00005   2.36106
   D39        0.28401   0.00000   0.00000   0.00012   0.00012   0.28413
   D40       -0.92555   0.00000   0.00000  -0.00023  -0.00023  -0.92578
   D41        0.19417  -0.00001   0.00000  -0.00027  -0.00027   0.19390
   D42        2.86236   0.00000   0.00000  -0.00012  -0.00012   2.86224
   D43       -3.01346   0.00000   0.00000  -0.00022  -0.00022  -3.01368
   D44       -1.89375  -0.00001   0.00000  -0.00026  -0.00026  -1.89400
   D45        0.77444   0.00000   0.00000  -0.00010  -0.00010   0.77434
   D46        1.20263   0.00000   0.00000  -0.00016  -0.00016   1.20247
   D47        2.32234   0.00000   0.00000  -0.00019  -0.00019   2.32214
   D48       -1.29266   0.00000   0.00000  -0.00004  -0.00004  -1.29270
   D49       -0.03288   0.00001   0.00000   0.00032   0.00032  -0.03255
   D50        2.63782   0.00000   0.00000   0.00005   0.00005   2.63788
   D51       -2.69092   0.00000   0.00000   0.00016   0.00016  -2.69076
   D52       -0.02022  -0.00001   0.00000  -0.00011  -0.00011  -0.02033
   D53       -0.14248  -0.00001   0.00000  -0.00024  -0.00024  -0.14271
   D54        1.88935  -0.00001   0.00000  -0.00022  -0.00022   1.88912
   D55       -2.29055  -0.00001   0.00000  -0.00026  -0.00026  -2.29081
   D56        0.97136   0.00000   0.00000  -0.00020  -0.00020   0.97116
   D57        3.00318   0.00000   0.00000  -0.00019  -0.00019   3.00299
   D58       -1.17671   0.00000   0.00000  -0.00023  -0.00023  -1.17694
   D59       -2.83343   0.00000   0.00000   0.00000   0.00000  -2.83344
   D60       -0.80161   0.00000   0.00000   0.00001   0.00001  -0.80160
   D61        1.30168   0.00000   0.00000  -0.00003  -0.00003   1.30165
   D62        0.13088   0.00000   0.00000   0.00008   0.00008   0.13095
   D63       -1.88065   0.00000   0.00000   0.00001   0.00001  -1.88064
   D64        2.26539   0.00000   0.00000   0.00004   0.00004   2.26542
         Item               Value     Threshold  Converged?
 Maximum Force            0.000024     0.000450     YES
 RMS     Force            0.000005     0.000300     YES
 Maximum Displacement     0.000546     0.001800     YES
 RMS     Displacement     0.000099     0.001200     YES
 Predicted change in Energy=-1.462040D-08
 Optimization completed.
    -- Stationary point found.
                           ----------------------------
                           !   Optimized Parameters   !
                           ! (Angstroms and Degrees)  !
 --------------------------                            --------------------------
 ! Name  Definition              Value          Derivative Info.                !
 --------------------------------------------------------------------------------
 ! R1    R(1,2)                  1.5315         -DE/DX =    0.0                 !
 ! R2    R(1,9)                  1.4247         -DE/DX =    0.0                 !
 ! R3    R(1,10)                 1.0939         -DE/DX =    0.0                 !
 ! R4    R(1,11)                 1.1019         -DE/DX =    0.0                 !
 ! R5    R(2,3)                  1.5385         -DE/DX =    0.0                 !
 ! R6    R(2,12)                 1.0935         -DE/DX =    0.0                 !
 ! R7    R(2,13)                 1.0946         -DE/DX =    0.0                 !
 ! R8    R(3,4)                  1.5572         -DE/DX =    0.0                 !
 ! R9    R(3,8)                  1.5598         -DE/DX =    0.0                 !
 ! R10   R(3,14)                 1.0899         -DE/DX =    0.0                 !
 ! R11   R(4,5)                  1.5133         -DE/DX =    0.0                 !
 ! R12   R(4,15)                 1.0973         -DE/DX =    0.0                 !
 ! R13   R(4,16)                 1.0942         -DE/DX =    0.0                 !
 ! R14   R(5,6)                  1.4353         -DE/DX =    0.0                 !
 ! R15   R(5,7)                  1.467          -DE/DX =    0.0                 !
 ! R16   R(5,17)                 1.0875         -DE/DX =    0.0                 !
 ! R17   R(6,7)                  1.4341         -DE/DX =    0.0                 !
 ! R18   R(7,8)                  1.5162         -DE/DX =    0.0                 !
 ! R19   R(7,18)                 1.0867         -DE/DX =    0.0                 !
 ! R20   R(8,9)                  1.4288         -DE/DX =    0.0                 !
 ! R21   R(8,19)                 1.096          -DE/DX =    0.0                 !
 ! A1    A(2,1,9)              105.3621         -DE/DX =    0.0                 !
 ! A2    A(2,1,10)             113.7824         -DE/DX =    0.0                 !
 ! A3    A(2,1,11)             111.0907         -DE/DX =    0.0                 !
 ! A4    A(9,1,10)             107.9617         -DE/DX =    0.0                 !
 ! A5    A(9,1,11)             110.765          -DE/DX =    0.0                 !
 ! A6    A(10,1,11)            107.843          -DE/DX =    0.0                 !
 ! A7    A(1,2,3)              102.0213         -DE/DX =    0.0                 !
 ! A8    A(1,2,12)             113.0651         -DE/DX =    0.0                 !
 ! A9    A(1,2,13)             109.9062         -DE/DX =    0.0                 !
 ! A10   A(3,2,12)             113.1011         -DE/DX =    0.0                 !
 ! A11   A(3,2,13)             110.4963         -DE/DX =    0.0                 !
 ! A12   A(12,2,13)            108.1656         -DE/DX =    0.0                 !
 ! A13   A(2,3,4)              114.113          -DE/DX =    0.0                 !
 ! A14   A(2,3,8)              102.2352         -DE/DX =    0.0                 !
 ! A15   A(2,3,14)             111.9252         -DE/DX =    0.0                 !
 ! A16   A(4,3,8)              106.6298         -DE/DX =    0.0                 !
 ! A17   A(4,3,14)             110.3785         -DE/DX =    0.0                 !
 ! A18   A(8,3,14)             111.1592         -DE/DX =    0.0                 !
 ! A19   A(3,4,5)              105.4302         -DE/DX =    0.0                 !
 ! A20   A(3,4,15)             111.2769         -DE/DX =    0.0                 !
 ! A21   A(3,4,16)             111.9402         -DE/DX =    0.0                 !
 ! A22   A(5,4,15)             109.1542         -DE/DX =    0.0                 !
 ! A23   A(5,4,16)             111.9291         -DE/DX =    0.0                 !
 ! A24   A(15,4,16)            107.1416         -DE/DX =    0.0                 !
 ! A25   A(4,5,6)              113.3315         -DE/DX =    0.0                 !
 ! A26   A(4,5,7)              110.0614         -DE/DX =    0.0                 !
 ! A27   A(4,5,17)             120.9326         -DE/DX =    0.0                 !
 ! A28   A(6,5,17)             115.1629         -DE/DX =    0.0                 !
 ! A29   A(7,5,17)             122.7374         -DE/DX =    0.0                 !
 ! A30   A(5,7,8)              109.7797         -DE/DX =    0.0                 !
 ! A31   A(5,7,18)             124.058          -DE/DX =    0.0                 !
 ! A32   A(6,7,8)              111.6012         -DE/DX =    0.0                 !
 ! A33   A(6,7,18)             116.5064         -DE/DX =    0.0                 !
 ! A34   A(8,7,18)             120.3464         -DE/DX =    0.0                 !
 ! A35   A(3,8,7)              105.5768         -DE/DX =    0.0                 !
 ! A36   A(3,8,9)              107.4739         -DE/DX =    0.0                 !
 ! A37   A(3,8,19)             113.121          -DE/DX =    0.0                 !
 ! A38   A(7,8,9)              111.5032         -DE/DX =    0.0                 !
 ! A39   A(7,8,19)             111.2443         -DE/DX =    0.0                 !
 ! A40   A(9,8,19)             107.9045         -DE/DX =    0.0                 !
 ! A41   A(1,9,8)              109.5816         -DE/DX =    0.0                 !
 ! D1    D(9,1,2,3)             36.8365         -DE/DX =    0.0                 !
 ! D2    D(9,1,2,12)           158.6181         -DE/DX =    0.0                 !
 ! D3    D(9,1,2,13)           -80.4125         -DE/DX =    0.0                 !
 ! D4    D(10,1,2,3)           154.9069         -DE/DX =    0.0                 !
 ! D5    D(10,1,2,12)          -83.3116         -DE/DX =    0.0                 !
 ! D6    D(10,1,2,13)           37.6579         -DE/DX =    0.0                 !
 ! D7    D(11,1,2,3)           -83.1655         -DE/DX =    0.0                 !
 ! D8    D(11,1,2,12)           38.6161         -DE/DX =    0.0                 !
 ! D9    D(11,1,2,13)          159.5855         -DE/DX =    0.0                 !
 ! D10   D(2,1,9,8)            -28.0649         -DE/DX =    0.0                 !
 ! D11   D(10,1,9,8)          -149.9822         -DE/DX =    0.0                 !
 ! D12   D(11,1,9,8)            92.1519         -DE/DX =    0.0                 !
 ! D13   D(1,2,3,4)             83.8273         -DE/DX =    0.0                 !
 ! D14   D(1,2,3,8)            -30.8745         -DE/DX =    0.0                 !
 ! D15   D(1,2,3,14)          -149.9152         -DE/DX =    0.0                 !
 ! D16   D(12,2,3,4)           -37.9295         -DE/DX =    0.0                 !
 ! D17   D(12,2,3,8)          -152.6313         -DE/DX =    0.0                 !
 ! D18   D(12,2,3,14)           88.328          -DE/DX =    0.0                 !
 ! D19   D(13,2,3,4)          -159.3492         -DE/DX =    0.0                 !
 ! D20   D(13,2,3,8)            85.9491         -DE/DX =    0.0                 !
 ! D21   D(13,2,3,14)          -33.0917         -DE/DX =    0.0                 !
 ! D22   D(2,3,4,5)           -127.8983         -DE/DX =    0.0                 !
 ! D23   D(2,3,4,15)            -9.6844         -DE/DX =    0.0                 !
 ! D24   D(2,3,4,16)           110.1736         -DE/DX =    0.0                 !
 ! D25   D(8,3,4,5)            -15.8117         -DE/DX =    0.0                 !
 ! D26   D(8,3,4,15)           102.4022         -DE/DX =    0.0                 !
 ! D27   D(8,3,4,16)          -137.7398         -DE/DX =    0.0                 !
 ! D28   D(14,3,4,5)           105.0401         -DE/DX =    0.0                 !
 ! D29   D(14,3,4,15)         -136.7461         -DE/DX =    0.0                 !
 ! D30   D(14,3,4,16)          -16.888          -DE/DX =    0.0                 !
 ! D31   D(2,3,8,7)            134.82           -DE/DX =    0.0                 !
 ! D32   D(2,3,8,9)             15.6964         -DE/DX =    0.0                 !
 ! D33   D(2,3,8,19)          -103.307          -DE/DX =    0.0                 !
 ! D34   D(4,3,8,7)             14.7505         -DE/DX =    0.0                 !
 ! D35   D(4,3,8,9)           -104.3731         -DE/DX =    0.0                 !
 ! D36   D(4,3,8,19)           136.6235         -DE/DX =    0.0                 !
 ! D37   D(14,3,8,7)          -105.6006         -DE/DX =    0.0                 !
 ! D38   D(14,3,8,9)           135.2758         -DE/DX =    0.0                 !
 ! D39   D(14,3,8,19)           16.2724         -DE/DX =    0.0                 !
 ! D40   D(3,4,5,6)            -53.03           -DE/DX =    0.0                 !
 ! D41   D(3,4,5,7)             11.1249         -DE/DX =    0.0                 !
 ! D42   D(3,4,5,17)           164.001          -DE/DX =    0.0                 !
 ! D43   D(15,4,5,6)          -172.6587         -DE/DX =    0.0                 !
 ! D44   D(15,4,5,7)          -108.5038         -DE/DX =    0.0                 !
 ! D45   D(15,4,5,17)           44.3723         -DE/DX =    0.0                 !
 ! D46   D(16,4,5,6)            68.9053         -DE/DX =    0.0                 !
 ! D47   D(16,4,5,7)           133.0602         -DE/DX =    0.0                 !
 ! D48   D(16,4,5,17)          -74.0637         -DE/DX =    0.0                 !
 ! D49   D(4,5,7,8)             -1.8836         -DE/DX =    0.0                 !
 ! D50   D(4,5,7,18)           151.1362         -DE/DX =    0.0                 !
 ! D51   D(17,5,7,8)          -154.1785         -DE/DX =    0.0                 !
 ! D52   D(17,5,7,18)           -1.1586         -DE/DX =    0.0                 !
 ! D53   D(5,7,8,3)             -8.1632         -DE/DX =    0.0                 !
 ! D54   D(5,7,8,9)            108.2517         -DE/DX =    0.0                 !
 ! D55   D(5,7,8,19)          -131.2386         -DE/DX =    0.0                 !
 ! D56   D(6,7,8,3)             55.6549         -DE/DX =    0.0                 !
 ! D57   D(6,7,8,9)            172.0698         -DE/DX =    0.0                 !
 ! D58   D(6,7,8,19)           -67.4205         -DE/DX =    0.0                 !
 ! D59   D(18,7,8,3)          -162.3438         -DE/DX =    0.0                 !
 ! D60   D(18,7,8,9)           -45.9289         -DE/DX =    0.0                 !
 ! D61   D(18,7,8,19)           74.5808         -DE/DX =    0.0                 !
 ! D62   D(3,8,9,1)              7.4988         -DE/DX =    0.0                 !
 ! D63   D(7,8,9,1)           -107.7534         -DE/DX =    0.0                 !
 ! D64   D(19,8,9,1)           129.7971         -DE/DX =    0.0                 !
 --------------------------------------------------------------------------------
 GradGradGradGradGradGradGradGradGradGradGradGradGradGradGradGradGradGrad

                          Input orientation:                          
 ---------------------------------------------------------------------
 Center     Atomic      Atomic             Coordinates (Angstroms)
 Number     Number       Type             X           Y           Z
 ---------------------------------------------------------------------
      1          6           0       -0.497030    1.090280   -0.785762
      2          6           0       -0.048238   -0.129284    0.024629
      3          6           0        1.405195    0.235101    0.373660
      4          6           0        1.549071    1.144061    1.629797
      5          6           0        2.402707    2.312140    1.185918
      6          8           0        3.637989    1.913144    0.573485
      7          6           0        2.548509    2.302837   -0.273749
      8          6           0        1.833387    1.097977   -0.853145
      9          8           0        0.643397    1.478553   -1.546270
     10          1           0       -1.312530    0.880204   -1.483954
     11          1           0       -0.822024    1.908722   -0.123431
     12          1           0       -0.668986   -0.309630    0.906612
     13          1           0       -0.078523   -1.025528   -0.603044
     14          1           0        2.034344   -0.649534    0.471245
     15          1           0        0.573308    1.517945    1.964607
     16          1           0        1.995845    0.608542    2.472953
     17          1           0        2.452631    3.224140    1.776118
     18          1           0        2.697653    3.194890   -0.876161
     19          1           0        2.474943    0.556154   -1.557520
 ---------------------------------------------------------------------
                    Distance matrix (angstroms):
                    1          2          3          4          5
     1  C    0.000000
     2  C    1.531497   0.000000
     3  C    2.386220   1.538527   0.000000
     4  C    3.166125   2.597955   1.557174   0.000000
     5  C    3.713346   3.649147   2.443130   1.513318   0.000000
     6  O    4.429790   4.249827   2.800201   2.463912   1.435337
     7  C    3.317794   3.570341   2.449865   2.442361   1.466960
     8  C    2.331404   2.411881   1.559793   2.499592   2.440510
     9  O    1.424676   2.351856   2.410942   3.319569   3.354831
    10  H    1.093912   2.212085   3.354536   4.237195   4.793917
    11  H    1.101885   2.184979   2.829949   3.046409   3.503717
    12  H    2.203053   1.093502   2.209750   2.748816   4.048084
    13  H    2.164527   1.094598   2.178200   3.513084   4.527351
    14  H    3.318865   2.192549   1.089922   2.189684   3.068869
    15  H    2.982122   2.619771   2.206544   1.097269   2.140981
    16  H    4.131067   3.273675   2.212545   1.094211   2.173532
    17  H    4.451638   4.535141   3.463865   2.272566   1.087462
    18  H    3.826690   4.404711   3.463070   3.435836   2.262390
    19  H    3.116653   3.056054   2.230895   3.370736   3.258090
                    6          7          8          9         10
     6  O    0.000000
     7  C    1.434097   0.000000
     8  C    2.440565   1.516174   0.000000
     9  O    3.694566   2.434791   1.428755   0.000000
    10  H    5.459639   4.289067   3.215920   2.046351   0.000000
    11  H    4.514137   3.396824   2.870714   2.087337   1.774674
    12  H    4.858161   4.309351   3.367487   3.307050   2.746754
    13  H    4.881851   4.252969   2.868314   2.771510   2.435280
    14  H    3.024805   3.088021   2.201859   3.245590   4.167068
    15  H    3.388756   3.086699   3.115108   3.511798   3.981918
    16  H    2.829594   3.274209   3.365837   4.328994   5.164906
    17  H    2.137782   2.249433   3.437594   4.166373   5.504411
    18  H    2.151413   1.086693   2.268155   2.759498   4.669984
    19  H    2.781237   2.168958   1.096043   2.050734   3.802022
                   11         12         13         14         15
    11  H    0.000000
    12  H    2.450611   0.000000
    13  H    3.064742   1.772066   0.000000
    14  H    3.880354   2.759179   2.399932   0.000000
    15  H    2.541567   2.450036   3.672461   3.010435   0.000000
    16  H    4.046241   3.224559   4.054003   2.364545   1.763247
    17  H    4.007740   4.794586   5.488791   4.108893   2.545286
    18  H    3.822167   5.176311   5.059019   4.127357   3.923640
    19  H    3.841360   4.087275   3.151656   2.400770   4.116629
                   16         17         18         19
    16  H    0.000000
    17  H    2.745102   0.000000
    18  H    4.289323   2.663733   0.000000
    19  H    4.059186   4.269869   2.734369   0.000000
 Stoichiometry    C7H10O2
 Framework group  C1[X(C7H10O2)]
 Deg. of freedom    51
 Full point group                 C1      NOp   1
 Largest Abelian subgroup         C1      NOp   1
 Largest concise Abelian subgroup C1      NOp   1
                         Standard orientation:                         
 ---------------------------------------------------------------------
 Center     Atomic      Atomic             Coordinates (Angstroms)
 Number     Number       Type             X           Y           Z
 ---------------------------------------------------------------------
      1          6           0       -2.008165   -0.274467   -0.638172
      2          6           0       -1.805550    0.894348    0.330487
      3          6           0       -0.316881    0.755462    0.693312
      4          6           0        0.651997    1.414943   -0.331943
      5          6           0        1.653889    0.338477   -0.689103
      6          8           0        2.284257   -0.253996    0.456238
      7          6           0        1.204647   -0.958678   -0.171855
      8          6           0       -0.094038   -0.784939    0.591046
      9          8           0       -1.200991   -1.331758   -0.127970
     10          1           0       -3.040722   -0.632225   -0.687964
     11          1           0       -1.695612   -0.002101   -1.659092
     12          1           0       -2.050854    1.864181   -0.111097
     13          1           0       -2.430930    0.755523    1.218052
     14          1           0       -0.107874    1.117237    1.699973
     15          1           0        0.119581    1.726614   -1.239354
     16          1           0        1.137749    2.305236    0.078815
     17          1           0        2.287312    0.433754   -1.567891
     18          1           0        1.449562   -1.913854   -0.628537
     19          1           0       -0.049733   -1.279215    1.568307
 ---------------------------------------------------------------------
 Rotational constants (GHZ):      3.3321349      1.5626387      1.2900203
 1\1\GINC-ALCHEMY-MN\FOpt\RB3LYP\6-31G(2df,p)\C7H10O2\PUCK\27-Jan-2020\
 0\\# b3lyp 6-31G(2df,p) opt Freq\\titel\\0,1\C,-0.4970296915,1.0902795
 76,-0.7857619651\C,-0.0482381031,-0.1292840031,0.0246291431\C,1.405194
 6727,0.2351011972,0.3736597653\C,1.5490710571,1.1440609516,1.629797155
 8\C,2.4027069991,2.3121397057,1.1859176601\O,3.6379892414,1.9131436568
 ,0.5734854281\C,2.5485090356,2.3028366543,-0.2737493812\C,1.8333873574
 ,1.0979771954,-0.8531445155\O,0.6433965148,1.4785533954,-1.546270346\H
 ,-1.3125295078,0.8802036394,-1.4839538557\H,-0.8220242338,1.9087217031
 ,-0.1234312651\H,-0.6689856894,-0.3096295434,0.9066120092\H,-0.0785225
 262,-1.0255283185,-0.6030439172\H,2.0343436595,-0.6495336136,0.4712447
 615\H,0.573308338,1.5179451614,1.9646070498\H,1.99584472,0.6085419185,
 2.4729527023\H,2.4526306938,3.2241396635,1.7761179681\H,2.6976534898,3
 .1948899732,-0.8761608387\H,2.4749433323,0.5561543969,-1.5575200187\\V
 ersion=ES64L-G09RevD.01\State=1-A\HF=-423.189434\RMSD=4.247e-09\RMSF=1
 .577e-05\Dipole=-0.6980697,-0.192631,0.4513569\Quadrupole=-2.1786895,2
 .3651823,-0.1864927,0.3593021,-1.752373,0.9881052\PG=C01 [X(C7H10O2)]\
 \@


 AND THIS OUR LIFE, EXEMPT FROM PUBLIC HAUNT,
 FINDS TONGUES IN TREES, BOOKS IN THE RUNNING BROOKS,
 SERMONS IN STONES, AND GOOD IN EVERYTHING.
 I WOULD NOT CHANGE IT. -- W. SHAKESPEARE
 AS YOU LIKE IT, ACT II, SCENE 1.
 Job cpu time:       0 days  0 hours  8 minutes 14.9 seconds.
 File lengths (MBytes):  RWF=     52 Int=      0 D2E=      0 Chk=      7 Scr=      1
 Normal termination of Gaussian 09 at Mon Jan 27 11:16:23 2020.
 Link1:  Proceeding to internal job step number  2.
 ----------------------------------------------------------------------
 #N Geom=AllCheck Guess=TCheck SCRF=Check GenChk RB3LYP/6-31G(2df,p) Fr
 eq
 ----------------------------------------------------------------------
 1/10=4,29=7,30=1,38=1,40=1/1,3;
 2/12=2,40=1/2;
 3/5=1,6=6,7=104,11=2,14=-4,16=1,25=1,30=1,70=2,71=2,74=-5,116=1,140=1/1,2,3;
 4/5=101/1;
 5/5=2,98=1/2;
 8/6=4,10=90,11=11/1;
 11/6=1,8=1,9=11,15=111,16=1/1,2,10;
 10/6=1/2;
 6/7=2,8=2,9=2,10=2,18=1,28=1/1;
 7/8=1,10=1,25=1/1,2,3,16;
 1/10=4,30=1/3;
 99//99;
 Structure from the checkpoint file:  "/scratch/puck/g09_176b5e16-84ab-4b96-a86a-e83434f5749e/Gau-149626.chk"
 -----
 titel
 -----
 Charge =  0 Multiplicity = 1
 Redundant internal coordinates found in file.
 C,0,-0.4970296915,1.090279576,-0.7857619651
 C,0,-0.0482381031,-0.1292840031,0.0246291431
 C,0,1.4051946727,0.2351011972,0.3736597653
 C,0,1.5490710571,1.1440609516,1.6297971558
 C,0,2.4027069991,2.3121397057,1.1859176601
 O,0,3.6379892414,1.9131436568,0.5734854281
 C,0,2.5485090356,2.3028366543,-0.2737493812
 C,0,1.8333873574,1.0979771954,-0.8531445155
 O,0,0.6433965148,1.4785533954,-1.546270346
 H,0,-1.3125295078,0.8802036394,-1.4839538557
 H,0,-0.8220242338,1.9087217031,-0.1234312651
 H,0,-0.6689856894,-0.3096295434,0.9066120092
 H,0,-0.0785225262,-1.0255283185,-0.6030439172
 H,0,2.0343436595,-0.6495336136,0.4712447615
 H,0,0.573308338,1.5179451614,1.9646070498
 H,0,1.99584472,0.6085419185,2.4729527023
 H,0,2.4526306938,3.2241396635,1.7761179681
 H,0,2.6976534898,3.1948899732,-0.8761608387
 H,0,2.4749433323,0.5561543969,-1.5575200187
 Recover connectivity data from disk.

 GradGradGradGradGradGradGradGradGradGradGradGradGradGradGradGradGradGrad
 Berny optimization.
 Initialization pass.
                           ----------------------------
                           !    Initial Parameters    !
                           ! (Angstroms and Degrees)  !
 --------------------------                            --------------------------
 ! Name  Definition              Value          Derivative Info.                !
 --------------------------------------------------------------------------------
 ! R1    R(1,2)                  1.5315         calculate D2E/DX2 analytically  !
 ! R2    R(1,9)                  1.4247         calculate D2E/DX2 analytically  !
 ! R3    R(1,10)                 1.0939         calculate D2E/DX2 analytically  !
 ! R4    R(1,11)                 1.1019         calculate D2E/DX2 analytically  !
 ! R5    R(2,3)                  1.5385         calculate D2E/DX2 analytically  !
 ! R6    R(2,12)                 1.0935         calculate D2E/DX2 analytically  !
 ! R7    R(2,13)                 1.0946         calculate D2E/DX2 analytically  !
 ! R8    R(3,4)                  1.5572         calculate D2E/DX2 analytically  !
 ! R9    R(3,8)                  1.5598         calculate D2E/DX2 analytically  !
 ! R10   R(3,14)                 1.0899         calculate D2E/DX2 analytically  !
 ! R11   R(4,5)                  1.5133         calculate D2E/DX2 analytically  !
 ! R12   R(4,15)                 1.0973         calculate D2E/DX2 analytically  !
 ! R13   R(4,16)                 1.0942         calculate D2E/DX2 analytically  !
 ! R14   R(5,6)                  1.4353         calculate D2E/DX2 analytically  !
 ! R15   R(5,7)                  1.467          calculate D2E/DX2 analytically  !
 ! R16   R(5,17)                 1.0875         calculate D2E/DX2 analytically  !
 ! R17   R(6,7)                  1.4341         calculate D2E/DX2 analytically  !
 ! R18   R(7,8)                  1.5162         calculate D2E/DX2 analytically  !
 ! R19   R(7,18)                 1.0867         calculate D2E/DX2 analytically  !
 ! R20   R(8,9)                  1.4288         calculate D2E/DX2 analytically  !
 ! R21   R(8,19)                 1.096          calculate D2E/DX2 analytically  !
 ! A1    A(2,1,9)              105.3621         calculate D2E/DX2 analytically  !
 ! A2    A(2,1,10)             113.7824         calculate D2E/DX2 analytically  !
 ! A3    A(2,1,11)             111.0907         calculate D2E/DX2 analytically  !
 ! A4    A(9,1,10)             107.9617         calculate D2E/DX2 analytically  !
 ! A5    A(9,1,11)             110.765          calculate D2E/DX2 analytically  !
 ! A6    A(10,1,11)            107.843          calculate D2E/DX2 analytically  !
 ! A7    A(1,2,3)              102.0213         calculate D2E/DX2 analytically  !
 ! A8    A(1,2,12)             113.0651         calculate D2E/DX2 analytically  !
 ! A9    A(1,2,13)             109.9062         calculate D2E/DX2 analytically  !
 ! A10   A(3,2,12)             113.1011         calculate D2E/DX2 analytically  !
 ! A11   A(3,2,13)             110.4963         calculate D2E/DX2 analytically  !
 ! A12   A(12,2,13)            108.1656         calculate D2E/DX2 analytically  !
 ! A13   A(2,3,4)              114.113          calculate D2E/DX2 analytically  !
 ! A14   A(2,3,8)              102.2352         calculate D2E/DX2 analytically  !
 ! A15   A(2,3,14)             111.9252         calculate D2E/DX2 analytically  !
 ! A16   A(4,3,8)              106.6298         calculate D2E/DX2 analytically  !
 ! A17   A(4,3,14)             110.3785         calculate D2E/DX2 analytically  !
 ! A18   A(8,3,14)             111.1592         calculate D2E/DX2 analytically  !
 ! A19   A(3,4,5)              105.4302         calculate D2E/DX2 analytically  !
 ! A20   A(3,4,15)             111.2769         calculate D2E/DX2 analytically  !
 ! A21   A(3,4,16)             111.9402         calculate D2E/DX2 analytically  !
 ! A22   A(5,4,15)             109.1542         calculate D2E/DX2 analytically  !
 ! A23   A(5,4,16)             111.9291         calculate D2E/DX2 analytically  !
 ! A24   A(15,4,16)            107.1416         calculate D2E/DX2 analytically  !
 ! A25   A(4,5,6)              113.3315         calculate D2E/DX2 analytically  !
 ! A26   A(4,5,7)              110.0614         calculate D2E/DX2 analytically  !
 ! A27   A(4,5,17)             120.9326         calculate D2E/DX2 analytically  !
 ! A28   A(6,5,17)             115.1629         calculate D2E/DX2 analytically  !
 ! A29   A(7,5,17)             122.7374         calculate D2E/DX2 analytically  !
 ! A30   A(5,7,8)              109.7797         calculate D2E/DX2 analytically  !
 ! A31   A(5,7,18)             124.058          calculate D2E/DX2 analytically  !
 ! A32   A(6,7,8)              111.6012         calculate D2E/DX2 analytically  !
 ! A33   A(6,7,18)             116.5064         calculate D2E/DX2 analytically  !
 ! A34   A(8,7,18)             120.3464         calculate D2E/DX2 analytically  !
 ! A35   A(3,8,7)              105.5768         calculate D2E/DX2 analytically  !
 ! A36   A(3,8,9)              107.4739         calculate D2E/DX2 analytically  !
 ! A37   A(3,8,19)             113.121          calculate D2E/DX2 analytically  !
 ! A38   A(7,8,9)              111.5032         calculate D2E/DX2 analytically  !
 ! A39   A(7,8,19)             111.2443         calculate D2E/DX2 analytically  !
 ! A40   A(9,8,19)             107.9045         calculate D2E/DX2 analytically  !
 ! A41   A(1,9,8)              109.5816         calculate D2E/DX2 analytically  !
 ! D1    D(9,1,2,3)             36.8365         calculate D2E/DX2 analytically  !
 ! D2    D(9,1,2,12)           158.6181         calculate D2E/DX2 analytically  !
 ! D3    D(9,1,2,13)           -80.4125         calculate D2E/DX2 analytically  !
 ! D4    D(10,1,2,3)           154.9069         calculate D2E/DX2 analytically  !
 ! D5    D(10,1,2,12)          -83.3116         calculate D2E/DX2 analytically  !
 ! D6    D(10,1,2,13)           37.6579         calculate D2E/DX2 analytically  !
 ! D7    D(11,1,2,3)           -83.1655         calculate D2E/DX2 analytically  !
 ! D8    D(11,1,2,12)           38.6161         calculate D2E/DX2 analytically  !
 ! D9    D(11,1,2,13)          159.5855         calculate D2E/DX2 analytically  !
 ! D10   D(2,1,9,8)            -28.0649         calculate D2E/DX2 analytically  !
 ! D11   D(10,1,9,8)          -149.9822         calculate D2E/DX2 analytically  !
 ! D12   D(11,1,9,8)            92.1519         calculate D2E/DX2 analytically  !
 ! D13   D(1,2,3,4)             83.8273         calculate D2E/DX2 analytically  !
 ! D14   D(1,2,3,8)            -30.8745         calculate D2E/DX2 analytically  !
 ! D15   D(1,2,3,14)          -149.9152         calculate D2E/DX2 analytically  !
[...]
 28786,-0.07628799,0.00304619,-0.00338269,0.54533050,-0.00032943,0.0008
 1343,0.00064368,-0.00537999,-0.00871933,-0.00871120,0.00310825,-0.0995
 8179,-0.03368032,-0.06339541,0.46412137,-0.00029192,0.00151358,-0.0004
 8070,-0.00345368,-0.00438552,-0.00556720,-0.00444613,-0.03726024,-0.12
 234618,-0.01171901,-0.06181222,0.53155046,0.00035802,-0.00016533,-0.00
 116951,-0.00053432,-0.00065383,-0.00005400,-0.00346659,-0.00846070,-0.
 00775327,-0.09896815,-0.05255383,0.01662294,0.33015909,0.00039596,0.00
 023520,-0.00039546,0.00053642,-0.00230593,-0.00136727,-0.01523029,-0.0
 2875778,-0.00948193,-0.05013524,-0.15914752,0.02248140,0.07617900,0.56
 970744,-0.00208264,-0.00132844,0.00127117,0.00081646,-0.00248290,-0.00
 354561,-0.01276810,-0.01523821,0.00532364,0.01406495,0.02955691,-0.084
 42337,-0.09347128,0.14034662,0.58331755,0.00163123,0.00077162,-0.00168
 202,0.00013501,0.00050657,0.00003266,0.00163812,0.00079019,0.00119885,
 -0.02840015,0.00832093,0.00865470,-0.17309703,0.03605310,0.08304414,0.
 36728790,0.00001284,-0.00049830,-0.00166015,0.00012287,0.00107625,0.00
 046144,-0.00035191,0.00117341,-0.00018891,-0.02180742,0.01452277,-0.00
 010901,0.04311360,-0.07698353,-0.03616244,-0.08444902,0.12806897,0.001
 88911,0.00012309,-0.00362217,-0.00016126,0.00037063,0.00023817,-0.0002
 7012,-0.00045084,-0.00128572,0.02603356,-0.00685557,-0.00519027,0.0417
 8697,-0.01777609,-0.05296024,0.02282838,-0.00869526,0.16999237,-0.0020
 0429,-0.00202254,-0.00210956,-0.00085208,0.00036835,-0.00007641,-0.002
 85941,-0.01301343,0.00508651,-0.00145508,-0.00949972,0.01776677,0.0034
 6015,-0.01935095,0.00113731,-0.14884041,0.03435840,-0.06342866,0.30512
 796,-0.00063295,-0.00017146,0.00420803,-0.00038972,-0.00206103,0.00127
 907,-0.01482525,-0.02694509,0.00567978,0.00819888,-0.01091032,0.021041
 04,-0.01976863,-0.04326463,0.00577133,0.02931696,-0.07450965,0.0238368
 0,0.09605659,0.56880899,0.00001205,0.00011666,-0.00007459,0.00030829,0
 .00099880,-0.00414708,0.01035162,0.01510410,0.00646450,0.00023741,0.01
 545161,-0.01888596,0.05645974,-0.00989610,-0.28056909,-0.10637456,0.04
 369323,-0.08330239,0.03450622,-0.12622925,0.61980263,-0.05942781,-0.00
 189737,-0.00401731,-0.01756822,-0.01606758,0.02029573,-0.07749850,-0.0
 0661541,0.01593203,0.00181996,0.00176132,0.00438873,0.00403018,0.01415
 662,0.00285412,-0.02026703,-0.01872701,-0.02504531,-0.07733065,-0.0443
 0750,-0.00292342,0.51749539,0.00055840,-0.00078257,-0.00938458,-0.0190
 7566,-0.00674036,0.00991090,-0.00919327,-0.09035021,0.02372208,0.00404
 281,0.00926290,-0.00608937,-0.00528443,-0.01253560,-0.02020312,0.01154
 675,0.01502477,0.01235758,-0.04159844,-0.17205655,-0.04008280,-0.01827
 566,0.47363805,0.00243700,-0.00935509,0.01155618,0.01568703,0.00447545
 ,0.00310167,0.02031122,0.01789787,-0.10741002,0.00518396,0.00290848,-0
 .03210403,-0.01232910,-0.02052552,-0.02370966,-0.00734870,-0.00157160,
 -0.00985410,-0.00664948,-0.03394905,-0.08664882,-0.07480711,0.08077680
 ,0.51538843,-0.14555911,-0.03228797,0.06660480,-0.01249066,-0.01083839
 ,0.01405801,-0.00605175,0.01093394,-0.01321392,-0.00064700,0.00123169,
 -0.00085970,-0.00258014,0.00001586,0.00226727,-0.00248634,-0.00614496,
 -0.00733902,-0.02548135,0.01033120,-0.01710037,-0.15052718,0.03427931,
 -0.05021870,0.42690203,-0.00886468,-0.06914631,0.02774644,-0.02121534,
 -0.01247238,0.03085477,0.01048026,-0.01053947,0.01763724,0.00057157,-0
 .00250264,0.00057677,-0.00019021,0.00221622,0.00275979,-0.00509971,-0.
 00393779,-0.00619747,-0.01607500,0.01572567,-0.00456563,0.01377739,-0.
 07169804,0.02426699,-0.00136024,0.13546835,0.03374489,0.02694333,-0.12
 063942,0.01415185,0.01739451,-0.02398458,-0.01826189,0.01751694,-0.019
 95766,0.00061935,0.00076690,-0.00083591,0.00103642,0.00245995,0.001919
 69,-0.00254391,-0.00360993,-0.00066804,-0.01682127,0.00438028,-0.00772
 050,-0.02219196,0.02839871,-0.10724787,-0.01473368,-0.10674633,0.26869
 609,-0.17949471,-0.03586163,-0.12135286,-0.00196496,-0.00072114,-0.004
 45158,-0.00072626,-0.00009736,0.00073509,0.00000492,-0.00006060,0.0000
 3374,-0.00021095,0.00001971,0.00021350,-0.00054005,-0.00052131,-0.0008
 2740,-0.00072176,0.00123527,0.00003644,-0.00100602,-0.00454099,0.00151
 568,-0.03169982,-0.00369347,-0.00994371,0.20958551,-0.03627627,-0.0596
 2742,-0.03647486,0.02020455,0.00622868,0.01587870,0.00195014,-0.003965
 59,0.00232322,0.00031638,-0.00012888,-0.00053124,-0.00001065,0.0000012
 4,0.00030364,-0.00027554,0.00011044,-0.00022882,0.00008205,0.00026912,
 -0.00035636,0.00139997,-0.00257093,0.00184340,-0.01233552,0.00096433,-
 0.00114107,0.04131257,0.06123637,-0.13161192,-0.03631927,-0.16679746,-
 0.01066024,-0.00550845,-0.00797297,-0.00005208,0.00303018,-0.00127242,
 0.00022239,0.00026646,0.00029349,0.00031308,0.00014275,-0.00015005,0.0
 0014409,0.00023350,0.00057434,0.00046825,-0.00078067,0.00003430,0.0029
 0718,0.00260736,-0.00131920,0.02085769,0.00369011,0.01407962,0.1314849
 9,0.03691046,0.17292484,-0.06559904,0.04484520,0.02750552,-0.00072953,
 0.00718225,0.00439911,0.00039545,0.00004328,0.00038005,-0.00054090,0.0
 0039510,0.00015898,-0.00047289,-0.00030888,-0.00022403,0.00023102,-0.0
 0021124,-0.00029386,0.00019750,0.00023757,0.00034075,0.00296958,0.0005
 7554,0.00402578,-0.02151138,0.01470607,0.02648791,0.00750451,-0.016733
 50,-0.01399932,0.07750730,0.04611052,-0.18939304,-0.10807387,0.0046309
 6,-0.02195077,-0.01539120,-0.00056223,0.00013726,-0.00070429,0.0006878
 4,0.00010380,-0.00061002,0.00017533,0.00026601,0.00003578,-0.00012516,
 0.00016459,0.00032891,0.00005789,-0.00036061,-0.00022444,0.00037343,0.
 00043503,0.00085690,-0.00329602,0.01456584,0.00773656,0.00214361,-0.00
 460347,-0.00415360,-0.05159386,0.20229134,0.02875391,-0.10790337,-0.13
 253290,-0.00436714,0.01434191,0.01104416,0.00051514,-0.00018371,0.0003
 5613,-0.00021055,-0.00005882,-0.00025935,0.00012387,-0.00003416,-0.000
 10221,0.00024678,0.00035262,0.00044971,0.00003601,-0.00063495,-0.00018
 510,-0.00260867,0.00025397,-0.00308820,0.02097873,-0.00523084,-0.01288
 388,0.00353517,-0.01885611,-0.01192124,-0.04602202,0.11593399,0.148200
 40,0.00669657,0.00022430,-0.00919493,-0.12789117,-0.02295240,0.1209301
 3,-0.01569836,-0.00645986,0.02384384,0.00137575,0.00191640,0.00106724,
 0.00006725,-0.00016067,0.00036835,0.00030001,-0.00012697,-0.00021518,0
 .00011403,-0.00028574,0.00140701,-0.00519130,-0.00023868,-0.00220896,0
 .00073505,0.00284805,-0.00234605,-0.00050803,-0.00023017,-0.00004339,0
 .00064385,-0.00056683,0.00051479,0.13907241,-0.01598159,-0.00044466,0.
 01647866,-0.02055774,-0.05382520,0.03118021,-0.00228358,-0.00169831,0.
 00358705,-0.00075994,0.00068171,0.00071664,-0.00009860,-0.00015056,0.0
 0018947,0.00006837,-0.00007981,-0.00030719,-0.00004518,0.00018325,0.00
 024918,0.00083886,-0.00165993,0.00233699,-0.00345332,-0.00454318,0.004
 27548,0.00072375,-0.00030238,0.00034788,-0.00024855,0.00091443,-0.0010
 0353,0.02688956,0.05676748,0.01029808,-0.00232582,-0.01095225,0.121866
 11,0.03443053,-0.22191072,-0.00640404,-0.00282886,0.00797745,-0.000478
 94,-0.00052993,0.00103629,-0.00007222,0.00031616,-0.00011836,0.0001121
 7,-0.00018645,0.00023006,-0.00009775,-0.00026639,0.00045586,-0.0038297
 7,-0.00016950,-0.00126106,0.00098157,0.00357336,-0.00095246,-0.0005094
 2,0.00046552,-0.00035827,-0.00024526,0.00004046,0.00127809,-0.13209391
 ,-0.03648266,0.23845176,-0.00237786,0.01216838,0.00732727,-0.04697008,
 -0.00641576,-0.00034301,-0.00222494,-0.02497204,-0.01988713,-0.0052429
 1,-0.00115982,0.00097466,0.00013516,-0.00066873,-0.00140844,0.00008934
 ,0.00002036,0.00015905,-0.00002077,0.00003641,-0.00028940,-0.00034921,
 0.00043191,-0.00080923,0.00121769,-0.00076689,0.00029625,0.00024196,-0
 .00037612,0.00073122,0.00034349,0.00265233,-0.00211344,0.00061751,0.01
 507174,0.00996814,0.05313686,0.00237699,-0.02292669,-0.01638675,-0.006
 99540,-0.22016961,-0.12187990,0.00048790,-0.00432609,-0.00311487,-0.00
 043196,0.00120342,0.00044918,0.00014690,0.00013208,-0.00005324,-0.0001
 0463,-0.00001566,0.00003832,-0.00002499,0.00002734,-0.00009523,0.00002
 695,-0.00001595,-0.00023348,-0.00054297,0.00210269,0.00099419,0.000016
 56,0.00168874,0.00004661,0.00098914,-0.00320527,0.00335566,0.00035012,
 0.00480165,0.00326645,0.00453670,0.23981620,-0.00023263,0.01666090,0.0
 1037335,-0.00043063,-0.12302080,-0.13709006,-0.00014779,-0.00597911,-0
 .00561504,-0.00200132,-0.00118116,0.00080421,-0.00002299,0.00010550,-0
 .00084744,-0.00019287,-0.00005505,0.00019934,0.00000108,-0.00003231,0.
 00003609,-0.00017463,-0.00021184,-0.00025435,-0.00069823,-0.00136768,0
 .00027512,0.00035410,-0.00056510,0.00140251,-0.00065937,0.00345428,-0.
 00094443,-0.00101699,-0.02136827,-0.01441822,0.00552972,0.13296488,0.1
 4506900,-0.00598002,-0.00286730,-0.00043747,-0.01687895,0.02470567,-0.
 00510567,-0.13498967,0.12903896,-0.01405084,0.00203893,-0.00315168,-0.
 00015335,0.00005903,-0.00031540,-0.00033448,-0.00060938,-0.00034958,-0
 .00016574,-0.00007365,-0.00070728,0.00111470,0.00520293,-0.00943285,0.
 00097598,0.00084494,-0.00152043,0.00140691,-0.00005933,0.00136767,-0.0
 0093730,0.00011297,0.00002924,0.00005236,-0.00063242,0.00001088,0.0003
 1049,0.00193424,-0.00029244,0.00015319,0.14726705,-0.00336033,-0.00055
 009,0.00066877,-0.00759968,0.00903420,-0.00247437,0.12857340,-0.227331
 12,0.02116421,0.00983399,-0.01242200,0.00085987,0.00113277,-0.00100031
 ,-0.00131565,-0.00117505,0.00113813,-0.00001527,0.00021675,-0.00105699
 ,0.00152149,0.00973097,-0.01150974,-0.00115586,0.00063766,-0.00076946,
 0.00133811,0.00009922,0.00040957,-0.00032485,-0.00004355,0.00015754,-0
 .00018698,0.00011676,0.00001986,0.00025484,0.00054829,0.00117341,0.000
 42479,-0.13588795,0.24182355,0.00048986,0.00139805,-0.00213666,-0.0025
 8540,0.00297393,-0.00065033,-0.01279529,0.02009780,-0.04683245,0.01486
 701,-0.02281545,-0.00115657,0.00143627,-0.00082278,-0.00221149,-0.0001
 6448,0.00015587,0.00093407,0.00001851,0.00058825,-0.00194619,-0.014134
 81,0.01809013,-0.00050539,-0.00291552,0.00270493,-0.00352858,-0.000258
 93,0.00023202,-0.00012413,-0.00020469,0.00012368,0.00013207,-0.0001606
 0,-0.00012657,-0.00005139,-0.00035203,0.00049006,0.00035079,0.01745353
 ,-0.01942755,0.05799376,-0.00026796,0.00017226,0.00010819,0.00035166,-
 0.00084765,-0.00104563,0.00463393,-0.00184926,-0.00174444,-0.24916930,
 0.07646699,0.06638718,-0.01645211,0.00939018,0.00400900,-0.00144306,-0
 .00438952,0.00266712,-0.00093369,0.00078620,0.00012732,-0.00081701,-0.
 00019591,-0.00029820,0.00071636,0.00011383,0.00017302,0.00005275,-0.00
 023555,0.00003553,0.00017942,-0.00021551,-0.00037327,0.00062026,0.0000
 4629,0.00017883,0.00014171,0.00001520,-0.00023007,0.00025616,-0.001055
 89,-0.00050825,0.27350562,-0.00026908,0.00027418,-0.00009576,0.0015871
 9,0.00117545,-0.00002625,0.01528919,-0.00894994,-0.00590706,0.07718717
 ,-0.07619017,-0.02361335,-0.02227525,0.01177538,0.00609128,-0.00504247
 ,-0.00419179,0.00445929,-0.00022107,0.00150322,-0.00090155,0.00042780,
 -0.00172996,-0.00005215,-0.00013684,0.00023506,-0.00000054,-0.00000706
 ,0.00010248,-0.00006475,0.00001796,0.00010779,0.00012767,-0.00070026,-
 0.00043099,0.00042279,-0.00002389,0.00001095,0.00043203,-0.00034942,-0
 .00128282,-0.00348044,-0.08196420,0.08194454,0.00113074,-0.00059295,-0
 .00100682,0.00113904,0.00033076,0.00117712,0.02053859,-0.00846420,-0.0
 0731518,0.06565647,-0.02415546,-0.06875527,0.00797645,-0.00350072,-0.0
 0325123,0.00109132,0.00180827,-0.00034603,-0.00020973,-0.00086140,0.00
 060184,0.00084427,-0.00170548,-0.00119122,-0.00101437,0.00016384,-0.00
 020990,-0.00020805,0.00025657,0.00031968,-0.00064022,0.00071365,-0.000
 15109,-0.00060863,-0.00011978,0.00049506,0.00008899,0.00019178,0.00038
 823,0.00002679,-0.00134509,-0.00288918,-0.07319093,0.02885166,0.074718
 00,-0.00044590,0.00026258,0.00051514,0.00012492,-0.00041840,-0.0005180
 8,-0.00127190,0.00183645,-0.00061057,-0.09328862,0.05513949,-0.0861540
 6,0.00790798,-0.01020696,0.01743570,0.00265664,0.00217817,-0.00284828,
 -0.00094675,-0.00412807,0.00276198,-0.00059700,-0.00091853,0.00066416,
 0.00045179,0.00000665,0.00000941,0.00010130,-0.00016380,-0.00011959,0.
 00022145,-0.00035457,-0.00011584,-0.00007644,0.00006541,-0.00002258,-0
 .00017501,-0.00020212,-0.00013652,0.00100038,-0.00031090,0.00054433,-0
 .01202935,0.01530690,-0.02242504,0.09702931,0.00041204,-0.00022382,0.0
 0002258,0.00074951,-0.00054534,-0.00124501,-0.00791850,0.00888771,-0.0
 1686454,0.05428451,-0.10902749,0.09985327,0.01099739,-0.01338107,0.022
 69196,-0.00050644,0.00350950,-0.00264216,-0.00070265,-0.00525326,-0.00
 085133,-0.00107998,-0.00266532,-0.00212043,-0.00019219,0.00093361,-0.0
 0041319,-0.00001531,0.00006618,0.00003414,-0.00009627,0.00012822,0.000
 06989,-0.00005070,-0.00007246,0.00022280,-0.00039757,-0.00024082,-0.00
 005288,-0.00013074,0.00140188,0.00044589,0.00432217,-0.00521731,0.0076
 1955,-0.05893862,0.12076039,0.00074788,-0.00005202,0.00005909,0.001037
 99,-0.00103953,-0.00152123,-0.00918285,0.01119421,-0.01679347,-0.08453
 477,0.09785486,-0.19789336,-0.00177991,0.00448620,-0.00623227,0.000085
 63,-0.00100121,0.00104530,-0.00041062,0.00127076,-0.00111421,-0.000198
 66,-0.00159995,-0.00151276,-0.00057254,0.00051726,-0.00035810,-0.00008
 045,0.00002401,0.00005110,-0.00014351,0.00013495,0.00006936,-0.0001979
 9,-0.00004262,0.00012252,-0.00055138,-0.00019830,-0.00012457,0.0002645
 4,0.00010119,0.00141965,0.00384956,-0.00512270,0.00759914,0.09052900,-
 0.10719266,0.21602549,0.00008252,-0.00024683,0.00012049,0.00017634,-0.
 00052287,-0.00046012,-0.00079358,-0.00268266,0.00042251,0.00271095,-0.
 00968618,-0.01040556,-0.04343102,-0.02491340,-0.01409830,-0.00319757,0
 .02841669,0.02496422,-0.00693292,-0.00734746,0.00014120,0.00064980,-0.
 00184848,-0.00065603,0.00027047,0.00051779,-0.00004025,0.00000618,0.00
 006053,-0.00004514,-0.00005895,0.00005746,0.00002701,0.00000923,0.0000
 2413,0.00002515,-0.00033780,-0.00001966,-0.00009377,-0.00016228,-0.000
 60072,-0.00056652,0.00051174,0.00099870,-0.00021537,-0.00005516,-0.000
 31290,0.00030496,0.05008723,-0.00002787,-0.00028270,0.00013771,0.00030
 786,-0.00073930,-0.00068856,-0.00199499,-0.00131414,0.00243835,0.00055
 167,-0.01079225,-0.01306288,-0.02413956,-0.24880921,-0.12564981,0.0060
 7158,-0.00441466,-0.00808089,0.00242656,0.00750082,0.00517207,-0.00153
 668,0.00029205,0.00199027,0.00000392,0.00006384,-0.00025288,-0.0000021
 7,0.00006095,-0.00005422,-0.00002442,0.00003935,0.00001597,0.00007967,
 0.00004549,0.00001567,-0.00041367,-0.00002415,-0.00019597,-0.00016478,
 -0.00025964,-0.00042813,-0.00053442,0.00049940,0.00027087,0.00026368,-
 0.00026658,0.00041438,0.01823631,0.25776178,0.00048222,0.00018472,-0.0
 0047587,-0.00019593,0.00031812,0.00060324,0.00194954,0.00129181,-0.002
 32787,0.00046694,0.01083285,0.00782701,-0.00825269,-0.12475455,-0.1262
 4785,0.00362355,-0.00074860,-0.00643043,0.00148449,-0.02321595,-0.0066
 2186,0.00377468,-0.00093445,-0.00141386,-0.00102175,0.00005521,0.00022
 065,-0.00010214,-0.00002054,0.00006808,-0.00014629,0.00002422,0.000111
 90,-0.00010637,-0.00005762,0.00000616,0.00021406,0.00003825,0.00013611
 ,-0.00006770,0.00004565,0.00031979,-0.00047989,-0.00091010,0.00026896,
 -0.00044433,-0.00017016,-0.00014951,0.00052224,0.13838438,0.13390025,-
 0.00013622,-0.00016830,0.00022967,-0.00001423,-0.00032028,0.00050488,-
 0.00090380,-0.00195072,0.00014205,0.00139207,-0.00171678,0.00135113,-0
 .00676228,-0.01177805,-0.00027192,0.00333527,0.02699398,-0.02314526,-0
 .04889628,-0.04574952,0.03033783,0.00078482,-0.00704939,0.00815582,0.0
 0145647,0.00149647,0.00055139,0.00001486,0.00002841,-0.00003274,-0.000
 04905,0.00001791,0.00001500,-0.00021936,-0.00001861,-0.00010380,-0.000
 06160,0.00000297,-0.00005199,-0.00024414,-0.00045959,0.00027276,0.0000
 9952,0.00018002,0.00005724,-0.00067071,-0.00071204,0.00060137,0.000670
 63,0.00050818,-0.00058471,0.05014480,-0.00004002,-0.00003031,-0.000042
 23,0.00018091,-0.00033909,0.00085009,-0.00105790,-0.00211252,-0.002748
 37,-0.00103933,0.00038437,-0.00211000,0.00286882,0.00759935,-0.0054016
 4,0.00431124,-0.00326350,0.00789170,-0.04555525,-0.24330754,0.12436886
 ,-0.00089618,-0.01200522,0.01558260,0.00007838,0.00197305,-0.00072907,
 -0.00009091,0.00005547,-0.00002715,-0.00003371,0.00000425,0.00002615,-
 0.00034689,-0.00001727,-0.00012043,-0.00002065,-0.00000331,-0.00001982
 ,-0.00035806,-0.00033356,0.00045036,-0.00004097,-0.00004243,0.00007473
 ,0.00048251,0.00074869,-0.00013627,0.00043742,-0.00013477,0.00068235,0
 .04090919,0.25096462,0.00023888,0.00025097,0.00001663,-0.00011742,-0.0
 0020250,0.00088116,-0.00166718,-0.00180553,-0.00256962,-0.00177231,0.0
 0074104,-0.00189868,-0.00183744,0.01982498,-0.00657064,-0.00194734,0.0
 0584764,-0.01142488,0.02357589,0.12371550,-0.12970158,-0.00206803,-0.0
 1165528,0.00934528,0.00160468,0.00074617,0.00054977,-0.00002019,0.0000
 0546,-0.00000539,-0.00002845,0.00001239,-0.00002141,-0.00036454,-0.000
 08538,-0.00005088,0.00012348,0.00001795,0.00004891,-0.00006658,-0.0001
 0367,0.00027032,0.00023823,0.00007493,0.00009771,0.00090585,0.00088113
 ,-0.00019458,0.00057852,-0.00058473,0.00077485,-0.01777809,-0.13807120
 ,0.14050206,-0.00011854,0.00512780,-0.00181468,-0.00008479,0.00034442,
 -0.00042753,-0.00155935,0.00444088,0.00465294,-0.00026703,-0.00140672,
 0.00007732,-0.00020139,-0.00367828,-0.00155161,0.00157649,0.00186204,0
 .00341169,0.00844945,-0.00805696,-0.01145480,-0.12237270,0.06621758,0.
 09636888,-0.03356008,0.01426788,0.00840533,-0.00058012,-0.00008515,0.0
 0033729,-0.00134480,-0.00022234,0.00101217,-0.00003486,-0.00029188,0.0
 0011715,-0.00009779,-0.00033524,0.00005170,0.00091321,-0.00039614,-0.0
 0043574,0.00004333,-0.00000540,-0.00003758,0.00006307,0.00028828,0.000
 23177,-0.00020583,0.00038913,-0.00111592,0.00005921,0.00021142,0.00040
 204,0.14932251,-0.00178872,-0.00266251,0.00120094,-0.00030366,-0.00021
 740,0.00048024,-0.00956412,0.00957988,0.01259751,-0.00172545,-0.001671
 38,0.00209209,-0.00101276,-0.00559678,0.00008866,-0.00097926,0.0031058
 9,0.00184322,0.01454262,-0.01412126,-0.02347333,0.06691007,-0.11233241
 ,-0.08397259,0.01307646,0.00136061,0.00068806,0.00006124,0.00000510,-0
 .00007650,0.00030187,0.00019772,-0.00038537,-0.00030568,-0.00018914,-0
 .00009854,-0.00025099,-0.00002892,0.00000760,0.00037549,0.00135759,-0.
 00065003,0.00001577,0.00040696,0.00046341,0.00010012,0.00045730,0.0003
 8744,-0.00056786,0.00077372,-0.00104559,-0.00021385,-0.00014027,0.0003
 9012,-0.07867129,0.11971529,-0.00104367,0.00296560,-0.00112203,0.00051
 240,-0.00005728,-0.00070537,0.00980958,-0.01097584,-0.01232548,0.00088
 025,0.00077733,-0.00171461,0.00098668,-0.00160899,-0.00089252,-0.00080
 839,0.00143604,0.00142090,0.00572248,-0.00580087,-0.00647784,0.1010029
 0,-0.08408116,-0.16187104,-0.01766494,0.00881507,0.01324596,-0.0001539
 7,-0.00006890,0.00017316,-0.00069107,-0.00023835,0.00044797,0.00042616
 ,0.00023205,0.00002035,0.00034124,0.00010843,0.00021046,-0.00043935,-0
 .00002963,0.00061189,0.00009668,-0.00028499,-0.00054982,0.00002933,-0.
 00028886,-0.00049756,-0.00052525,0.00015839,-0.00056977,-0.00025062,-0
 .00052067,-0.00004904,-0.09823043,0.08946266,0.17064439\\0.00000983,0.
 00001556,0.00000212,-0.00001159,-0.00002084,0.00000581,0.00001016,0.00
 001376,0.00001496,-0.00001293,-0.00000649,0.00002448,0.00005511,-0.000
 01118,-0.00004171,-0.00000667,-0.00001282,-0.00000809,-0.00003258,0.00
 001575,-0.00000107,-0.00002431,-0.00002258,-0.00002749,-0.00000112,-0.
 00000436,0.00002664,-0.00001025,0.00000426,0.00001503,0.00000131,0.000
 01037,0.00000634,-0.00000259,0.00001473,0.00001206,-0.00000783,0.00000
 523,0.00001460,-0.00000987,-0.00000257,-0.00000800,0.00001579,0.000010
 30,-0.00000436,0.00001360,0.00000676,-0.00001391,0.00001517,0.00000449
 ,-0.00000587,0.00000687,-0.00000730,-0.00000689,-0.00000810,-0.0000130
 7,-0.00000463\\\@


 LIFE IS SO UNCERTAIN - EAT DESSERT FIRST.
 Job cpu time:       0 days  0 hours 52 minutes 15.6 seconds.
 File lengths (MBytes):  RWF=    152 Int=      0 D2E=      0 Chk=      8 Scr=      1
 Normal termination of Gaussian 09 at Mon Jan 27 12:08:43 2020.
