 Entering Gaussian System, Link 0=/home/puck/opt/gaussian_09/g09
 Input=dsC7O2H10nsd_2294.com
 Output=dsC7O2H10nsd_2294.log
 Initial command:
 /home/puck/opt/gaussian_09/l1.exe "/scratch/puck/g09_e288cda6-8db9-47bd-87be-19eb6384b8a7/Gau-81852.inp" -scrdir="/scratch/puck/g09_e288cda6-8db9-47bd-87be-19eb6384b8a7/"
 Entering Link 1 = /home/puck/opt/gaussian_09/l1.exe PID=     81853.
  
 Copyright (c) 1988,1990,1992,1993,1995,1998,2003,2009,2013,
            Gaussian, Inc.  All Rights Reserved.
  
 This is part of the Gaussian(R) 09 program.  It is based on
 the Gaussian(R) 03 system (copyright 2003, Gaussian, Inc.),
 the Gaussian(R) 98 system (copyright 1998, Gaussian, Inc.),
 the Gaussian(R) 94 system (copyright 1995, Gaussian, Inc.),
 the Gaussian 92(TM) system (copyright 1992, Gaussian, Inc.),
 the Gaussian 90(TM) system (copyright 1990, Gaussian, Inc.),
 the Gaussian 88(TM) system (copyright 1988, Gaussian, Inc.),
 the Gaussian 86(TM) system (copyright 1986, Carnegie Mellon
 University), and the Gaussian 82(TM) system (copyright 1983,
 Carnegie Mellon University). Gaussian is a federally registered
 trademark of Gaussian, Inc.
  
 This software contains proprietary and confidential information,
 including trade secrets, belonging to Gaussian, Inc.
  
 This software is provided under written license and may be
 used, copied, transmitted, or stored only in accord with that
 written license.
  
 The following legend is applicable only to US Government
 contracts under FAR:
  
                    RESTRICTED RIGHTS LEGEND
  
 Use, reproduction and disclosure by the US Government is
 subject to restrictions as set forth in subparagraphs (a)
 and (c) of the Commercial Computer Software - Restricted
 Rights clause in FAR 52.227-19.
  
 Gaussian, Inc.
 340 Quinnipiac St., Bldg. 40, Wallingford CT 06492
  
  
 ---------------------------------------------------------------
 Warning -- This program may not be used in any manner that
 competes with the business of Gaussian, Inc. or will provide
 assistance to any competitor of Gaussian, Inc.  The licensee
 of this program is prohibited from giving any competitor of
 Gaussian, Inc. access to this program.  By using this program,
 the user acknowledges that Gaussian, Inc. is engaged in the
 business of creating and licensing software in the field of
 computational chemistry and represents and warrants to the
 licensee that it is not a competitor of Gaussian, Inc. and that
 it will not use this program in any manner prohibited above.
 ---------------------------------------------------------------
  

 Cite this work as:
 Gaussian 09, Revision D.01,
 M. J. Frisch, G. W. Trucks, H. B. Schlegel, G. E. Scuseria, 
 M. A. Robb, J. R. Cheeseman, G. Scalmani, V. Barone, B. Mennucci, 
 G. A. Petersson, H. Nakatsuji, M. Caricato, X. Li, H. P. Hratchian, 
 A. F. Izmaylov, J. Bloino, G. Zheng, J. L. Sonnenberg, M. Hada, 
 M. Ehara, K. Toyota, R. Fukuda, J. Hasegawa, M. Ishida, T. Nakajima, 
 Y. Honda, O. Kitao, H. Nakai, T. Vreven, J. A. Montgomery, Jr., 
 J. E. Peralta, F. Ogliaro, M. Bearpark, J. J. Heyd, E. Brothers, 
 K. N. Kudin, V. N. Staroverov, T. Keith, R. Kobayashi, J. Normand, 
 K. Raghavachari, A. Rendell, J. C. Burant, S. S. Iyengar, J. Tomasi, 
 M. Cossi, N. Rega, J. M. Millam, M. Klene, J. E. Knox, J. B. Cross, 
 V. Bakken, C. Adamo, J. Jaramillo, R. Gomperts, R. E. Stratmann, 
 O. Yazyev, A. J. Austin, R. Cammi, C. Pomelli, J. W. Ochterski, 
 R. L. Martin, K. Morokuma, V. G. Zakrzewski, G. A. Voth, 
 P. Salvador, J. J. Dannenberg, S. Dapprich, A. D. Daniels, 
 O. Farkas, J. B. Foresman, J. V. Ortiz, J. Cioslowski, 
 and D. J. Fox, Gaussian, Inc., Wallingford CT, 2013.
 
 ******************************************
 Gaussian 09:  ES64L-G09RevD.01 24-Apr-2013
                27-Jan-2020 
 ******************************************
 -----------------------------
 # b3lyp 6-31G(2df,p) opt Freq
 -----------------------------
 1/14=-1,18=20,19=15,26=3,38=1/1,3;
 2/9=110,12=2,17=6,18=5,40=1/2;
 3/5=1,6=6,7=104,11=2,16=1,25=1,30=1,71=1,74=-5/1,2,3;
 4//1;
 5/5=2,38=5/2;
 6/7=2,8=2,9=2,10=2,28=1/1;
 7//1,2,3,16;
 1/14=-1,18=20,19=15,26=3/3(2);
 2/9=110/2;
 99//99;
 2/9=110/2;
 3/5=1,6=6,7=104,11=2,16=1,25=1,30=1,71=1,74=-5/1,2,3;
 4/5=5,16=3,69=1/1;
 5/5=2,38=5/2;
 7//1,2,3,16;
 1/14=-1,18=20,19=15,26=3/3(-5);
 2/9=110/2;
 6/7=2,8=2,9=2,10=2,19=2,28=1/1;
 99/9=1/99;
 -----
 titel
 -----
 Symbolic Z-matrix:
 Charge =  0 Multiplicity = 1
 C                    -0.24807   2.5282    0.4793 
 C                    -0.93242   1.24031   0.07359 
 C                    -1.62289   1.25298  -1.31875 
 O                    -2.49323   0.11175  -1.31918 
 C                    -2.33287  -0.51379  -0.03622 
 C                    -0.96371  -1.21446  -0.01718 
 C                    -0.01961   0.00197   0.02311 
 O                     1.18308  -0.0042    0.01715 
 C                    -2.1109    0.67736   0.90945 
 H                     0.15728   2.45297   1.4925 
 H                     0.59088   2.74391  -0.18914 
 H                    -0.94301   3.37344   0.44911 
 H                    -2.21299   2.17107  -1.44421 
 H                    -0.91048   1.18354  -2.14946 
 H                    -3.19702  -1.15199   0.14578 
 H                    -0.81688  -1.83191   0.8764 
 H                    -0.7819   -1.83561  -0.89747 
 H                    -2.96935   1.35275   0.94834 
 H                    -1.82405   0.38799   1.92446 
 

 GradGradGradGradGradGradGradGradGradGradGradGradGradGradGradGradGradGrad
 Berny optimization.
 Initialization pass.
                           ----------------------------
                           !    Initial Parameters    !
                           ! (Angstroms and Degrees)  !
 --------------------------                            --------------------------
 ! Name  Definition              Value          Derivative Info.                !
 --------------------------------------------------------------------------------
 ! R1    R(1,2)                  1.5138         estimate D2E/DX2                !
 ! R2    R(1,10)                 1.0939         estimate D2E/DX2                !
 ! R3    R(1,11)                 1.0942         estimate D2E/DX2                !
 ! R4    R(1,12)                 1.0947         estimate D2E/DX2                !
 ! R5    R(2,3)                  1.5542         estimate D2E/DX2                !
 ! R6    R(2,7)                  1.5392         estimate D2E/DX2                !
 ! R7    R(2,9)                  1.5506         estimate D2E/DX2                !
 ! R8    R(3,4)                  1.4352         estimate D2E/DX2                !
 ! R9    R(3,13)                 1.0986         estimate D2E/DX2                !
 ! R10   R(3,14)                 1.0965         estimate D2E/DX2                !
 ! R11   R(4,5)                  1.4363         estimate D2E/DX2                !
 ! R12   R(5,6)                  1.5382         estimate D2E/DX2                !
 ! R13   R(5,9)                  1.537          estimate D2E/DX2                !
 ! R14   R(5,15)                 1.0896         estimate D2E/DX2                !
 ! R15   R(6,7)                  1.5403         estimate D2E/DX2                !
 ! R16   R(6,16)                 1.096          estimate D2E/DX2                !
 ! R17   R(6,17)                 1.0926         estimate D2E/DX2                !
 ! R18   R(7,8)                  1.2027         estimate D2E/DX2                !
 ! R19   R(9,18)                 1.093          estimate D2E/DX2                !
 ! R20   R(9,19)                 1.0937         estimate D2E/DX2                !
 ! A1    A(2,1,10)             110.9316         estimate D2E/DX2                !
 ! A2    A(2,1,11)             110.5254         estimate D2E/DX2                !
 ! A3    A(2,1,12)             111.2554         estimate D2E/DX2                !
 ! A4    A(10,1,11)            107.1751         estimate D2E/DX2                !
 ! A5    A(10,1,12)            108.2942         estimate D2E/DX2                !
 ! A6    A(11,1,12)            108.5245         estimate D2E/DX2                !
 ! A7    A(1,2,3)              115.7218         estimate D2E/DX2                !
 ! A8    A(1,2,7)              115.1604         estimate D2E/DX2                !
 ! A9    A(1,2,9)              120.5292         estimate D2E/DX2                !
 ! A10   A(3,2,7)              103.9242         estimate D2E/DX2                !
 ! A11   A(3,2,9)               98.5244         estimate D2E/DX2                !
 ! A12   A(7,2,9)              100.1547         estimate D2E/DX2                !
 ! A13   A(2,3,4)              105.2597         estimate D2E/DX2                !
 ! A14   A(2,3,13)             110.3505         estimate D2E/DX2                !
 ! A15   A(2,3,14)             112.925          estimate D2E/DX2                !
 ! A16   A(4,3,13)             109.8007         estimate D2E/DX2                !
 ! A17   A(4,3,14)             110.0838         estimate D2E/DX2                !
 ! A18   A(13,3,14)            108.3839         estimate D2E/DX2                !
 ! A19   A(3,4,5)              106.1608         estimate D2E/DX2                !
 ! A20   A(4,5,6)              107.9887         estimate D2E/DX2                !
 ! A21   A(4,5,9)              103.1898         estimate D2E/DX2                !
 ! A22   A(4,5,15)             108.4068         estimate D2E/DX2                !
 ! A23   A(6,5,9)              102.5243         estimate D2E/DX2                !
 ! A24   A(6,5,15)             115.9183         estimate D2E/DX2                !
 ! A25   A(9,5,15)             117.7548         estimate D2E/DX2                !
 ! A26   A(5,6,7)              100.7291         estimate D2E/DX2                !
 ! A27   A(5,6,16)             112.703          estimate D2E/DX2                !
 ! A28   A(5,6,17)             113.3978         estimate D2E/DX2                !
 ! A29   A(7,6,16)             109.9651         estimate D2E/DX2                !
 ! A30   A(7,6,17)             111.595          estimate D2E/DX2                !
 ! A31   A(16,6,17)            108.319          estimate D2E/DX2                !
 ! A32   A(2,7,6)              105.8263         estimate D2E/DX2                !
 ! A33   A(2,7,8)              126.6767         estimate D2E/DX2                !
 ! A34   A(6,7,8)              127.4969         estimate D2E/DX2                !
 ! A35   A(2,9,5)               93.4083         estimate D2E/DX2                !
 ! A36   A(2,9,18)             113.0647         estimate D2E/DX2                !
 ! A37   A(2,9,19)             113.3895         estimate D2E/DX2                !
 ! A38   A(5,9,18)             112.7895         estimate D2E/DX2                !
 ! A39   A(5,9,19)             113.8168         estimate D2E/DX2                !
 ! A40   A(18,9,19)            109.6616         estimate D2E/DX2                !
 ! D1    D(10,1,2,3)           176.5524         estimate D2E/DX2                !
 ! D2    D(10,1,2,7)           -62.0225         estimate D2E/DX2                !
 ! D3    D(10,1,2,9)            58.1859         estimate D2E/DX2                !
 ! D4    D(11,1,2,3)           -64.7107         estimate D2E/DX2                !
 ! D5    D(11,1,2,7)            56.7144         estimate D2E/DX2                !
 ! D6    D(11,1,2,9)           176.9228         estimate D2E/DX2                !
 ! D7    D(12,1,2,3)            55.9292         estimate D2E/DX2                !
 ! D8    D(12,1,2,7)           177.3543         estimate D2E/DX2                !
 ! D9    D(12,1,2,9)           -62.4373         estimate D2E/DX2                !
 ! D10   D(1,2,3,4)           -164.2419         estimate D2E/DX2                !
 ! D11   D(1,2,3,13)           -45.8373         estimate D2E/DX2                !
 ! D12   D(1,2,3,14)            75.6357         estimate D2E/DX2                !
 ! D13   D(7,2,3,4)             68.4836         estimate D2E/DX2                !
 ! D14   D(7,2,3,13)          -173.1118         estimate D2E/DX2                !
 ! D15   D(7,2,3,14)           -51.6388         estimate D2E/DX2                !
 ! D16   D(9,2,3,4)            -34.2744         estimate D2E/DX2                !
 ! D17   D(9,2,3,13)            84.1302         estimate D2E/DX2                !
 ! D18   D(9,2,3,14)          -154.3968         estimate D2E/DX2                !
 ! D19   D(1,2,7,6)            164.715          estimate D2E/DX2                !
 ! D20   D(1,2,7,8)            -15.2645         estimate D2E/DX2                !
 ! D21   D(3,2,7,6)            -67.6618         estimate D2E/DX2                !
 ! D22   D(3,2,7,8)            112.3587         estimate D2E/DX2                !
 ! D23   D(9,2,7,6)             33.8491         estimate D2E/DX2                !
 ! D24   D(9,2,7,8)           -146.1304         estimate D2E/DX2                !
 ! D25   D(1,2,9,5)            177.9726         estimate D2E/DX2                !
 ! D26   D(1,2,9,18)            61.4145         estimate D2E/DX2                !
 ! D27   D(1,2,9,19)           -64.2197         estimate D2E/DX2                !
 ! D28   D(3,2,9,5)             51.255          estimate D2E/DX2                !
 ! D29   D(3,2,9,18)           -65.3031         estimate D2E/DX2                !
 ! D30   D(3,2,9,19)           169.0626         estimate D2E/DX2                !
 ! D31   D(7,2,9,5)            -54.6501         estimate D2E/DX2                !
 ! D32   D(7,2,9,18)          -171.2082         estimate D2E/DX2                !
 ! D33   D(7,2,9,19)            63.1576         estimate D2E/DX2                !
 ! D34   D(2,3,4,5)              0.24           estimate D2E/DX2                !
 ! D35   D(13,3,4,5)          -118.5333         estimate D2E/DX2                !
 ! D36   D(14,3,4,5)           122.2218         estimate D2E/DX2                !
 ! D37   D(3,4,5,6)            -73.2329         estimate D2E/DX2                !
 ! D38   D(3,4,5,9)             34.8429         estimate D2E/DX2                !
 ! D39   D(3,4,5,15)           160.4404         estimate D2E/DX2                !
 ! D40   D(4,5,6,7)             70.6496         estimate D2E/DX2                !
 ! D41   D(4,5,6,16)          -172.2222         estimate D2E/DX2                !
 ! D42   D(4,5,6,17)           -48.7002         estimate D2E/DX2                !
 ! D43   D(9,5,6,7)            -37.8852         estimate D2E/DX2                !
 ! D44   D(9,5,6,16)            79.243          estimate D2E/DX2                !
 ! D45   D(9,5,6,17)          -157.235          estimate D2E/DX2                !
 ! D46   D(15,5,6,7)          -167.5534         estimate D2E/DX2                !
 ! D47   D(15,5,6,16)          -50.4252         estimate D2E/DX2                !
 ! D48   D(15,5,6,17)           73.0968         estimate D2E/DX2                !
 ! D49   D(4,5,9,2)            -54.2139         estimate D2E/DX2                !
 ! D50   D(4,5,9,18)            62.5759         estimate D2E/DX2                !
 ! D51   D(4,5,9,19)          -171.6649         estimate D2E/DX2                !
 ! D52   D(6,5,9,2)             57.9334         estimate D2E/DX2                !
 ! D53   D(6,5,9,18)           174.7232         estimate D2E/DX2                !
 ! D54   D(6,5,9,19)           -59.5176         estimate D2E/DX2                !
 ! D55   D(15,5,9,2)          -173.5419         estimate D2E/DX2                !
 ! D56   D(15,5,9,18)          -56.7521         estimate D2E/DX2                !
 ! D57   D(15,5,9,19)           69.0071         estimate D2E/DX2                !
 ! D58   D(5,6,7,2)              1.967          estimate D2E/DX2                !
 ! D59   D(5,6,7,8)           -178.0537         estimate D2E/DX2                !
 ! D60   D(16,6,7,2)          -117.1617         estimate D2E/DX2                !
 ! D61   D(16,6,7,8)            62.8176         estimate D2E/DX2                !
 ! D62   D(17,6,7,2)           122.6102         estimate D2E/DX2                !
 ! D63   D(17,6,7,8)           -57.4105         estimate D2E/DX2                !
 --------------------------------------------------------------------------------
 Trust Radius=3.00D-01 FncErr=1.00D-07 GrdErr=1.00D-06
 Number of steps in this run=    114 maximum allowed number of steps=    114.
 GradGradGradGradGradGradGradGradGradGradGradGradGradGradGradGradGradGrad

                          Input orientation:                          
 ---------------------------------------------------------------------
 Center     Atomic      Atomic             Coordinates (Angstroms)
 Number     Number       Type             X           Y           Z
 ---------------------------------------------------------------------
      1          6           0       -0.248067    2.528203    0.479296
      2          6           0       -0.932417    1.240310    0.073587
      3          6           0       -1.622889    1.252978   -1.318751
      4          8           0       -2.493231    0.111751   -1.319182
      5          6           0       -2.332873   -0.513795   -0.036225
      6          6           0       -0.963706   -1.214463   -0.017183
      7          6           0       -0.019609    0.001967    0.023108
      8          8           0        1.183076   -0.004203    0.017152
      9          6           0       -2.110899    0.677365    0.909452
     10          1           0        0.157277    2.452972    1.492497
     11          1           0        0.590885    2.743905   -0.189138
     12          1           0       -0.943014    3.373442    0.449112
     13          1           0       -2.212990    2.171069   -1.444213
     14          1           0       -0.910484    1.183539   -2.149455
     15          1           0       -3.197019   -1.151990    0.145784
     16          1           0       -0.816880   -1.831906    0.876404
     17          1           0       -0.781899   -1.835613   -0.897466
     18          1           0       -2.969350    1.352753    0.948339
     19          1           0       -1.824047    0.387989    1.924458
 ---------------------------------------------------------------------
                    Distance matrix (angstroms):
                    1          2          3          4          5
     1  C    0.000000
     2  C    1.513804   0.000000
     3  C    2.597943   1.554193   0.000000
     4  O    3.756930   2.376887   1.435233   0.000000
     5  C    3.723698   2.247269   2.295743   1.436315   0.000000
     6  C    3.842679   2.456650   2.866507   2.406967   1.538153
     7  C    2.577241   1.539240   2.436415   2.816487   2.370806
     8  O    2.945306   2.455058   3.352399   3.913370   3.553087
     9  C    2.660974   1.550613   2.352525   2.330860   1.537022
    10  H    1.093864   2.161316   3.537243   4.517969   4.164078
    11  H    1.094154   2.156448   2.898221   4.209157   4.379994
    12  H    1.094666   2.165960   2.843227   4.021027   4.156665
    13  H    2.772788   2.193147   1.098568   2.082056   3.034023
    14  H    3.026095   2.223875   1.096545   2.084027   3.061025
    15  H    4.727724   3.294956   3.225929   2.058758   1.089573
    16  H    4.414951   3.177480   3.871029   3.377656   2.206478
    17  H    4.606880   3.229072   3.228644   2.626544   2.212343
    18  H    3.001178   2.219670   2.638675   2.628388   2.204194
    19  H    3.025347   2.224226   3.362599   3.323449   2.217294
                    6          7          8          9         10
     6  C    0.000000
     7  C    1.540340   0.000000
     8  O    2.464667   1.202715   0.000000
     9  C    2.398691   2.369655   3.480087   0.000000
    10  H    4.121386   2.863184   3.044112   2.938936   0.000000
    11  H    4.256172   2.817087   2.818749   3.574511   1.760839
    12  H    4.611587   3.521506   4.014392   2.974004   1.773854
    13  H    3.880586   3.415985   4.289599   2.789501   3.784428
    14  H    3.209335   2.628650   3.238505   3.324774   4.001923
    15  H    2.240122   3.382692   4.529812   2.260395   5.104967
    16  H    1.096035   2.174131   2.842294   2.823476   4.437199
    17  H    1.092602   2.192087   2.837554   3.368420   4.998594
    18  H    3.397858   3.373670   4.466664   1.092978   3.358927
    19  H    2.660453   2.649555   3.582516   1.093736   2.894200
                   11         12         13         14         15
    11  H    0.000000
    12  H    1.776662   0.000000
    13  H    3.124910   2.577444   0.000000
    14  H    2.920906   3.398424   1.780197   0.000000
    15  H    5.444115   5.064788   3.813020   3.993878   0.000000
    16  H    4.904613   5.224379   4.833032   4.272879   2.580922
    17  H    4.833038   5.382703   4.289575   3.270977   2.718183
    18  H    3.988036   2.904901   2.639323   3.723424   2.640012
    19  H    3.981146   3.444676   3.831265   4.250208   2.724017
                   16         17         18         19
    16  H    0.000000
    17  H    1.774220   0.000000
    18  H    3.844523   4.284580   0.000000
    19  H    2.653438   3.740820   1.787540   0.000000
 Stoichiometry    C7H10O2
 Framework group  C1[X(C7H10O2)]
 Deg. of freedom    51
 Full point group                 C1      NOp   1
 Largest Abelian subgroup         C1      NOp   1
 Largest concise Abelian subgroup C1      NOp   1
                         Standard orientation:                         
 ---------------------------------------------------------------------
 Center     Atomic      Atomic             Coordinates (Angstroms)
 Number     Number       Type             X           Y           Z
 ---------------------------------------------------------------------
      1          6           0       -1.943357   -1.153899    0.274431
      2          6           0       -0.578473   -0.517522    0.120415
      3          6           0        0.288756   -1.056561   -1.051279
      4          8           0        1.621983   -0.603131   -0.774154
      5          6           0        1.546071    0.133184    0.456731
      6          6           0        0.855837    1.476444    0.164931
      7          6           0       -0.587613    1.006385   -0.096110
      8          8           0       -1.533118    1.682406   -0.405205
      9          6           0        0.473777   -0.626259    1.254145
     10          1           0       -2.460368   -0.761525    1.154931
     11          1           0       -2.570470   -0.931695   -0.594204
     12          1           0       -1.865035   -2.240844    0.377916
     13          1           0        0.265524   -2.154724   -1.070020
     14          1           0       -0.038796   -0.686965   -2.030320
     15          1           0        2.546866    0.194726    0.883103
     16          1           0        0.877975    2.158524    1.022584
     17          1           0        1.271275    1.998840   -0.700109
     18          1           0        0.761045   -1.657583    1.474255
     19          1           0        0.171074   -0.123580    2.177152
 ---------------------------------------------------------------------
 Rotational constants (GHZ):      2.3810964      1.8895594      1.4430133
 Standard basis: 6-31G(2df,p) (6D, 7F)
 There are   329 symmetry adapted cartesian basis functions of A   symmetry.
 There are   302 symmetry adapted basis functions of A   symmetry.
   302 basis functions,   466 primitive gaussians,   329 cartesian basis functions
    34 alpha electrons       34 beta electrons
       nuclear repulsion energy       482.7273276404 Hartrees.
 NAtoms=   19 NActive=   19 NUniq=   19 SFac= 1.00D+00 NAtFMM=   60 NAOKFM=F Big=F
 Integral buffers will be    131072 words long.
 Raffenetti 2 integral format.
 Two-electron integral symmetry is turned on.
 One-electron integrals computed using PRISM.
 NBasis=   302 RedAO= T EigKep=  4.54D-04  NBF=   302
 NBsUse=   302 1.00D-06 EigRej= -1.00D+00 NBFU=   302
 ExpMin= 1.61D-01 ExpMax= 5.48D+03 ExpMxC= 8.25D+02 IAcc=1 IRadAn=         1 AccDes= 0.00D+00
 Harris functional with IExCor=  402 and IRadAn=       1 diagonalized for initial guess.
 HarFok:  IExCor=  402 AccDes= 0.00D+00 IRadAn=         1 IDoV= 1 UseB2=F ITyADJ=14
 ICtDFT=  3500011 ScaDFX=  1.000000  1.000000  1.000000  1.000000
 FoFCou: FMM=F IPFlag=           0 FMFlag=      100000 FMFlg1=           0
         NFxFlg=           0 DoJE=T BraDBF=F KetDBF=T FulRan=T
         wScrn=  0.000000 ICntrl=     500 IOpCl=  0 I1Cent=   200000004 NGrid=           0
         NMat0=    1 NMatS0=      1 NMatT0=    0 NMatD0=    1 NMtDS0=    0 NMtDT0=    0
 Petite list used in FoFCou.
 Requested convergence on RMS density matrix=1.00D-08 within 128 cycles.
 Requested convergence on MAX density matrix=1.00D-06.
 Requested convergence on             energy=1.00D-06.
 No special actions if energy rises.
 Integral accuracy reduced to 1.0D-05 until final iterations.
 Initial convergence to 1.0D-05 achieved.  Increase integral accuracy.
 SCF Done:  E(RB3LYP) =  -423.223898224     A.U. after   14 cycles
            NFock= 14  Conv=0.46D-08     -V/T= 2.0074

 **********************************************************************

            Population analysis using the SCF density.

 **********************************************************************

 Orbital symmetries:
       Occupied  (A) (A) (A) (A) (A) (A) (A) (A) (A) (A) (A) (A)
                 (A) (A) (A) (A) (A) (A) (A) (A) (A) (A) (A) (A)
                 (A) (A) (A) (A) (A) (A) (A) (A) (A) (A)
       Virtual   (A) (A) (A) (A) (A) (A) (A) (A) (A) (A) (A) (A)
                 (A) (A) (A) (A) (A) (A) (A) (A) (A) (A) (A) (A)
                 (A) (A) (A) (A) (A) (A) (A) (A) (A) (A) (A) (A)
                 (A) (A) (A) (A) (A) (A) (A) (A) (A) (A) (A) (A)
                 (A) (A) (A) (A) (A) (A) (A) (A) (A) (A) (A) (A)
                 (A) (A) (A) (A) (A) (A) (A) (A) (A) (A) (A) (A)
                 (A) (A) (A) (A) (A) (A) (A) (A) (A) (A) (A) (A)
                 (A) (A) (A) (A) (A) (A) (A) (A) (A) (A) (A) (A)
                 (A) (A) (A) (A) (A) (A) (A) (A) (A) (A) (A) (A)
                 (A) (A) (A) (A) (A) (A) (A) (A) (A) (A) (A) (A)
                 (A) (A) (A) (A) (A) (A) (A) (A) (A) (A) (A) (A)
                 (A) (A) (A) (A) (A) (A) (A) (A) (A) (A) (A) (A)
                 (A) (A) (A) (A) (A) (A) (A) (A) (A) (A) (A) (A)
                 (A) (A) (A) (A) (A) (A) (A) (A) (A) (A) (A) (A)
                 (A) (A) (A) (A) (A) (A) (A) (A) (A) (A) (A) (A)
                 (A) (A) (A) (A) (A) (A) (A) (A) (A) (A) (A) (A)
                 (A) (A) (A) (A) (A) (A) (A) (A) (A) (A) (A) (A)
                 (A) (A) (A) (A) (A) (A) (A) (A) (A) (A) (A) (A)
                 (A) (A) (A) (A) (A) (A) (A) (A) (A) (A) (A) (A)
                 (A) (A) (A) (A) (A) (A) (A) (A) (A) (A) (A) (A)
                 (A) (A) (A) (A) (A) (A) (A) (A) (A) (A) (A) (A)
                 (A) (A) (A) (A) (A) (A) (A) (A) (A) (A) (A) (A)
                 (A) (A) (A) (A)
 The electronic state is 1-A.
 Alpha  occ. eigenvalues --  -19.14244 -19.13395 -10.26798 -10.24301 -10.23707
 Alpha  occ. eigenvalues --  -10.20690 -10.19629 -10.19141 -10.18364  -1.04955
 Alpha  occ. eigenvalues --   -1.03823  -0.84036  -0.77823  -0.70729  -0.69392
 Alpha  occ. eigenvalues --   -0.61554  -0.58903  -0.51909  -0.50183  -0.48647
 Alpha  occ. eigenvalues --   -0.47504  -0.44059  -0.42243  -0.41573  -0.40680
 Alpha  occ. eigenvalues --   -0.40515  -0.37939  -0.37668  -0.36151  -0.35809
 Alpha  occ. eigenvalues --   -0.34687  -0.30786  -0.25498  -0.23940
 Alpha virt. eigenvalues --   -0.01615   0.08027   0.09480   0.12347   0.12566
 Alpha virt. eigenvalues --    0.13359   0.14966   0.15271   0.16245   0.17013
 Alpha virt. eigenvalues --    0.17667   0.18569   0.18813   0.20338   0.21232
 Alpha virt. eigenvalues --    0.23049   0.23368   0.24917   0.28085   0.29896
 Alpha virt. eigenvalues --    0.32287   0.42871   0.43896   0.45740   0.46548
 Alpha virt. eigenvalues --    0.47624   0.49266   0.50330   0.51275   0.53041
 Alpha virt. eigenvalues --    0.55051   0.56291   0.57741   0.58069   0.61690
 Alpha virt. eigenvalues --    0.62574   0.63407   0.64440   0.66005   0.69020
 Alpha virt. eigenvalues --    0.70962   0.72178   0.72699   0.73797   0.75380
 Alpha virt. eigenvalues --    0.76045   0.77779   0.78306   0.79935   0.80558
 Alpha virt. eigenvalues --    0.82550   0.83688   0.83788   0.84414   0.88622
 Alpha virt. eigenvalues --    0.89740   0.92224   0.95062   0.96693   0.98107
 Alpha virt. eigenvalues --    1.00033   1.02467   1.04275   1.06188   1.12006
 Alpha virt. eigenvalues --    1.13770   1.16065   1.21479   1.23169   1.23696
 Alpha virt. eigenvalues --    1.24972   1.28850   1.30698   1.31387   1.34303
 Alpha virt. eigenvalues --    1.35537   1.36034   1.38691   1.40668   1.42079
 Alpha virt. eigenvalues --    1.43534   1.45467   1.47756   1.48314   1.50809
 Alpha virt. eigenvalues --    1.51687   1.52746   1.54515   1.56022   1.57500
 Alpha virt. eigenvalues --    1.60447   1.61640   1.66788   1.66835   1.69026
 Alpha virt. eigenvalues --    1.70250   1.71642   1.77385   1.78396   1.81286
 Alpha virt. eigenvalues --    1.83629   1.86817   1.88143   1.90070   1.91170
 Alpha virt. eigenvalues --    1.94810   1.97182   1.99365   2.03419   2.08086
 Alpha virt. eigenvalues --    2.13345   2.14519   2.17469   2.26658   2.28252
 Alpha virt. eigenvalues --    2.31306   2.32566   2.34010   2.38878   2.40201
 Alpha virt. eigenvalues --    2.41074   2.44022   2.51654   2.54392   2.56985
 Alpha virt. eigenvalues --    2.57882   2.64320   2.66067   2.73736   2.76914
 Alpha virt. eigenvalues --    2.77266   2.81183   2.82729   2.84020   2.85940
 Alpha virt. eigenvalues --    2.86480   2.88657   2.90303   2.90565   2.93735
 Alpha virt. eigenvalues --    2.95226   2.96759   2.98878   3.02838   3.03721
 Alpha virt. eigenvalues --    3.07022   3.08961   3.11659   3.14897   3.15921
 Alpha virt. eigenvalues --    3.18002   3.19920   3.20225   3.25060   3.28864
 Alpha virt. eigenvalues --    3.32285   3.34556   3.35376   3.37012   3.39374
 Alpha virt. eigenvalues --    3.44016   3.44926   3.47796   3.48810   3.50928
 Alpha virt. eigenvalues --    3.53291   3.59514   3.62277   3.64174   3.66224
 Alpha virt. eigenvalues --    3.71930   3.73125   3.75455   3.76924   3.81746
 Alpha virt. eigenvalues --    3.83220   3.89075   3.90931   3.93622   3.97232
 Alpha virt. eigenvalues --    4.01010   4.02199   4.05185   4.09753   4.14713
 Alpha virt. eigenvalues --    4.18170   4.20290   4.25539   4.26359   4.27968
 Alpha virt. eigenvalues --    4.30659   4.33540   4.35706   4.36857   4.39589
 Alpha virt. eigenvalues --    4.43591   4.45469   4.48064   4.49032   4.50526
 Alpha virt. eigenvalues --    4.51659   4.54340   4.57914   4.58484   4.60950
 Alpha virt. eigenvalues --    4.62092   4.64704   4.67221   4.67584   4.69949
 Alpha virt. eigenvalues --    4.70625   4.71297   4.74205   4.76269   4.77153
 Alpha virt. eigenvalues --    4.79887   4.80245   4.81478   4.82105   4.85329
 Alpha virt. eigenvalues --    4.87655   4.90751   4.95722   4.96717   4.99058
 Alpha virt. eigenvalues --    5.03487   5.06122   5.07433   5.08832   5.10515
 Alpha virt. eigenvalues --    5.13022   5.15453   5.17008   5.25022   5.32023
 Alpha virt. eigenvalues --    5.35658   5.39608   5.44833   5.47164   5.49259
 Alpha virt. eigenvalues --    5.58649   5.60526   5.62040   5.64522   5.76806
 Alpha virt. eigenvalues --    5.81368   5.84478   5.90272   5.96751   5.99232
 Alpha virt. eigenvalues --    6.07404   6.10370   6.23849   6.26131   6.46822
 Alpha virt. eigenvalues --    6.61080   6.88039   6.95635   7.40757  11.16902
 Alpha virt. eigenvalues --   11.57876  11.63046  11.94916  12.13962  12.57557
 Alpha virt. eigenvalues --   12.92335  13.30638  13.61620
          Condensed to atoms (all electrons):
               1          2          3          4          5          6
     1  C    5.168829   0.352556  -0.046917   0.002424  -0.000299   0.012380
     2  C    0.352556   4.817099   0.373547  -0.046031   0.008568  -0.148127
     3  C   -0.046917   0.373547   4.874148   0.367797  -0.097355  -0.006160
     4  O    0.002424  -0.046031   0.367797   7.738382   0.375609  -0.040256
     5  C   -0.000299   0.008568  -0.097355   0.375609   4.676583   0.305690
     6  C    0.012380  -0.148127  -0.006160  -0.040256   0.305690   5.367380
     7  C   -0.034702   0.322863  -0.006770  -0.003248  -0.013891   0.303866
     8  O    0.001585  -0.073629  -0.003524   0.000039   0.001423  -0.064492
     9  C   -0.053815   0.356613  -0.060811  -0.046270   0.347868  -0.031984
    10  H    0.366235  -0.013140   0.003936  -0.000063  -0.000007   0.000269
    11  H    0.361836  -0.014625  -0.002536   0.000017  -0.000154   0.000277
    12  H    0.360930  -0.012689  -0.005036   0.000046   0.000171  -0.000224
    13  H   -0.003496  -0.017751   0.349905  -0.025616   0.001145  -0.000983
    14  H    0.001387  -0.024646   0.355402  -0.025968   0.005235   0.001839
    15  H   -0.000194   0.001387   0.007682  -0.024669   0.376225  -0.050315
    16  H   -0.000238   0.001987  -0.000027   0.002796  -0.018175   0.334234
    17  H   -0.000094   0.003504  -0.000069   0.000371  -0.018242   0.347482
    18  H    0.000101  -0.021713  -0.003966  -0.000325  -0.017842   0.003137
    19  H   -0.000449  -0.025068   0.005735   0.002727  -0.023141   0.002379
               7          8          9         10         11         12
     1  C   -0.034702   0.001585  -0.053815   0.366235   0.361836   0.360930
     2  C    0.322863  -0.073629   0.356613  -0.013140  -0.014625  -0.012689
     3  C   -0.006770  -0.003524  -0.060811   0.003936  -0.002536  -0.005036
     4  O   -0.003248   0.000039  -0.046270  -0.000063   0.000017   0.000046
     5  C   -0.013891   0.001423   0.347868  -0.000007  -0.000154   0.000171
     6  C    0.303866  -0.064492  -0.031984   0.000269   0.000277  -0.000224
     7  C    4.275399   0.819401  -0.039099  -0.000988  -0.002841   0.003651
     8  O    0.819401   7.644185   0.000992   0.001430   0.005641   0.000152
     9  C   -0.039099   0.000992   5.124630  -0.004303   0.005137  -0.003254
    10  H   -0.000988   0.001430  -0.004303   0.579541  -0.029730  -0.032074
    11  H   -0.002841   0.005641   0.005137  -0.029730   0.571168  -0.031985
    12  H    0.003651   0.000152  -0.003254  -0.032074  -0.031985   0.600034
    13  H    0.002801  -0.000043  -0.005617  -0.000124  -0.000674   0.004841
    14  H   -0.007262   0.001241   0.006138  -0.000189   0.002269  -0.000252
    15  H    0.004383  -0.000046  -0.040678   0.000001   0.000004   0.000003
    16  H   -0.012280  -0.001187   0.001543  -0.000006  -0.000006   0.000005
    17  H   -0.013646  -0.000368   0.004389  -0.000001  -0.000013   0.000002
    18  H    0.002549  -0.000046   0.358499  -0.000142  -0.000110   0.001799
    19  H   -0.004540   0.000217   0.356338   0.002012  -0.000055  -0.000127
              13         14         15         16         17         18
     1  C   -0.003496   0.001387  -0.000194  -0.000238  -0.000094   0.000101
     2  C   -0.017751  -0.024646   0.001387   0.001987   0.003504  -0.021713
     3  C    0.349905   0.355402   0.007682  -0.000027  -0.000069  -0.003966
     4  O   -0.025616  -0.025968  -0.024669   0.002796   0.000371  -0.000325
     5  C    0.001145   0.005235   0.376225  -0.018175  -0.018242  -0.017842
     6  C   -0.000983   0.001839  -0.050315   0.334234   0.347482   0.003137
     7  C    0.002801  -0.007262   0.004383  -0.012280  -0.013646   0.002549
     8  O   -0.000043   0.001241  -0.000046  -0.001187  -0.000368  -0.000046
     9  C   -0.005617   0.006138  -0.040678   0.001543   0.004389   0.358499
    10  H   -0.000124  -0.000189   0.000001  -0.000006  -0.000001  -0.000142
    11  H   -0.000674   0.002269   0.000004  -0.000006  -0.000013  -0.000110
    12  H    0.004841  -0.000252   0.000003   0.000005   0.000002   0.001799
    13  H    0.644615  -0.054712  -0.000150   0.000033   0.000088   0.002044
    14  H   -0.054712   0.626199  -0.000197  -0.000092  -0.000520   0.000027
    15  H   -0.000150  -0.000197   0.643261  -0.000148   0.000466  -0.002150
    16  H    0.000033  -0.000092  -0.000148   0.589859  -0.025845   0.000027
    17  H    0.000088  -0.000520   0.000466  -0.025845   0.566283  -0.000185
    18  H    0.002044   0.000027  -0.002150   0.000027  -0.000185   0.602883
    19  H   -0.000222  -0.000134   0.001014   0.000016  -0.000109  -0.035871
              19
     1  C   -0.000449
     2  C   -0.025068
     3  C    0.005735
     4  O    0.002727
     5  C   -0.023141
     6  C    0.002379
     7  C   -0.004540
     8  O    0.000217
     9  C    0.356338
    10  H    0.002012
    11  H   -0.000055
    12  H   -0.000127
    13  H   -0.000222
    14  H   -0.000134
    15  H    0.001014
    16  H    0.000016
    17  H   -0.000109
    18  H   -0.035871
    19  H    0.612336
 Mulliken charges:
               1
     1  C   -0.488059
     2  C    0.159295
     3  C   -0.104982
     4  O   -0.277760
     5  C    0.090590
     6  C   -0.336393
     7  C    0.404354
     8  O   -0.332972
     9  C   -0.276316
    10  H    0.127346
    11  H    0.136378
    12  H    0.114006
    13  H    0.103917
    14  H    0.114235
    15  H    0.084122
    16  H    0.127505
    17  H    0.136505
    18  H    0.111284
    19  H    0.106944
 Sum of Mulliken charges =   0.00000
 Mulliken charges with hydrogens summed into heavy atoms:
               1
     1  C   -0.110328
     2  C    0.159295
     3  C    0.113170
     4  O   -0.277760
     5  C    0.174712
     6  C   -0.072383
     7  C    0.404354
     8  O   -0.332972
     9  C   -0.058087
 Electronic spatial extent (au):  <R**2>=            978.7353
 Charge=              0.0000 electrons
 Dipole moment (field-independent basis, Debye):
    X=              0.8525    Y=             -1.3297    Z=              1.5557  Tot=              2.2169
 Quadrupole moment (field-independent basis, Debye-Ang):
   XX=            -58.1782   YY=            -54.6019   ZZ=            -51.4538
   XY=              6.2974   XZ=              1.6056   YZ=              1.3393
 Traceless Quadrupole moment (field-independent basis, Debye-Ang):
   XX=             -3.4335   YY=              0.1427   ZZ=              3.2908
   XY=              6.2974   XZ=              1.6056   YZ=              1.3393
 Octapole moment (field-independent basis, Debye-Ang**2):
  XXX=              4.0052  YYY=             -5.0460  ZZZ=             -4.7408  XYY=              9.0637
  XXY=             -1.6150  XXZ=              6.2755  XZZ=             -1.6098  YZZ=              2.3818
  YYZ=              0.9480  XYZ=             -3.9159
 Hexadecapole moment (field-independent basis, Debye-Ang**3):
 XXXX=           -572.0671 YYYY=           -447.7419 ZZZZ=           -231.5186 XXXY=              4.8259
 XXXZ=              7.7086 YYYX=              3.3664 YYYZ=              4.5032 ZZZX=             -1.2277
 ZZZY=              1.9842 XXYY=           -183.5405 XXZZ=           -134.7441 YYZZ=           -111.1522
 XXYZ=              0.3349 YYXZ=             -4.0350 ZZXY=             -2.5210
 N-N= 4.827273276404D+02 E-N=-1.952107573180D+03  KE= 4.201222021128D+02
 Calling FoFJK, ICntrl=      2127 FMM=F ISym2X=0 I1Cent= 0 IOpClX= 0 NMat=1 NMatS=1 NMatT=0.
 ***** Axes restored to original set *****
 -------------------------------------------------------------------
 Center     Atomic                   Forces (Hartrees/Bohr)
 Number     Number              X              Y              Z
 -------------------------------------------------------------------
      1        6          -0.000004973   -0.000033393   -0.000018258
      2        6           0.000015758    0.000018768    0.000087471
      3        6          -0.000034871   -0.000020453   -0.000027997
      4        8          -0.000034936   -0.000011868   -0.000031095
      5        6           0.000035887    0.000018688    0.000040537
      6        6          -0.000009444    0.000030843   -0.000039735
      7        6          -0.000113310   -0.000046867   -0.000016525
      8        8           0.000086673    0.000003310    0.000005516
      9        6           0.000019618    0.000015466   -0.000055039
     10        1          -0.000000692    0.000007812    0.000005745
     11        1           0.000003665    0.000008377    0.000016716
     12        1           0.000005219    0.000007644   -0.000004500
     13        1           0.000018790    0.000000410    0.000001435
     14        1           0.000006311    0.000003241    0.000019783
     15        1           0.000007956    0.000003473   -0.000006655
     16        1          -0.000010747   -0.000002355    0.000002430
     17        1           0.000005037   -0.000011912    0.000018131
     18        1          -0.000001521    0.000004941   -0.000002657
     19        1           0.000005579    0.000003872    0.000004697
 -------------------------------------------------------------------
 Cartesian Forces:  Max     0.000113310 RMS     0.000029347

 GradGradGradGradGradGradGradGradGradGradGradGradGradGradGradGradGradGrad
 Berny optimization.
 FormGI is forming the generalized inverse of G from B-inverse, IUseBI=4.
 Internal  Forces:  Max     0.000087781 RMS     0.000012273
 Search for a local minimum.
 Step number   1 out of a maximum of  114
 All quantities printed in internal units (Hartrees-Bohrs-Radians)
 Mixed Optimization -- En-DIIS/RFO-DIIS
 Second derivative matrix not updated -- first step.
 ITU=  0
     Eigenvalues ---    0.00240   0.00534   0.00583   0.01166   0.01652
     Eigenvalues ---    0.03168   0.03564   0.03910   0.04185   0.05318
     Eigenvalues ---    0.05348   0.05547   0.05624   0.05715   0.05747
     Eigenvalues ---    0.05827   0.05908   0.07109   0.07764   0.07979
     Eigenvalues ---    0.08161   0.09096   0.10797   0.11057   0.12239
     Eigenvalues ---    0.13158   0.16000   0.16000   0.16000   0.18509
     Eigenvalues ---    0.23707   0.24540   0.25000   0.26086   0.26834
     Eigenvalues ---    0.27283   0.28620   0.30971   0.33841   0.34067
     Eigenvalues ---    0.34124   0.34279   0.34337   0.34370   0.34384
     Eigenvalues ---    0.34471   0.34514   0.34862   0.36257   0.38137
     Eigenvalues ---    1.03470
 RFO step:  Lambda=-1.08541879D-07 EMin= 2.39521690D-03
 Linear search not attempted -- first point.
 Iteration  1 RMS(Cart)=  0.00019483 RMS(Int)=  0.00000004
 Iteration  2 RMS(Cart)=  0.00000004 RMS(Int)=  0.00000001
 Variable       Old X    -DE/DX   Delta X   Delta X   Delta X     New X
                                 (Linear)    (Quad)   (Total)
    R1        2.86068  -0.00001   0.00000  -0.00002  -0.00002   2.86065
    R2        2.06710   0.00000   0.00000   0.00001   0.00001   2.06711
    R3        2.06765  -0.00001   0.00000  -0.00002  -0.00002   2.06763
    R4        2.06862   0.00001   0.00000   0.00002   0.00002   2.06863
    R5        2.93700   0.00002   0.00000   0.00014   0.00014   2.93713
    R6        2.90874   0.00001   0.00000   0.00003   0.00003   2.90878
    R7        2.93023  -0.00005   0.00000  -0.00020  -0.00020   2.93003
    R8        2.71220   0.00000   0.00000   0.00004   0.00004   2.71223
    R9        2.07599  -0.00001   0.00000  -0.00003  -0.00003   2.07597
   R10        2.07217  -0.00001   0.00000  -0.00004  -0.00004   2.07213
   R11        2.71424   0.00002   0.00000   0.00002   0.00002   2.71426
   R12        2.90669  -0.00001   0.00000  -0.00006  -0.00006   2.90663
   R13        2.90455  -0.00001   0.00000  -0.00004  -0.00004   2.90451
   R14        2.05899  -0.00001   0.00000  -0.00003  -0.00003   2.05897
   R15        2.91082  -0.00003   0.00000  -0.00010  -0.00010   2.91072
   R16        2.07121   0.00000   0.00000   0.00000   0.00000   2.07121
   R17        2.06472  -0.00001   0.00000  -0.00002  -0.00002   2.06470
   R18        2.27280   0.00009   0.00000   0.00008   0.00008   2.27289
   R19        2.06543   0.00000   0.00000   0.00001   0.00001   2.06544
   R20        2.06686   0.00001   0.00000   0.00002   0.00002   2.06688
    A1        1.93612   0.00001   0.00000   0.00004   0.00004   1.93616
    A2        1.92903   0.00002   0.00000   0.00016   0.00016   1.92919
    A3        1.94177   0.00000   0.00000  -0.00002  -0.00002   1.94176
    A4        1.87056  -0.00001   0.00000  -0.00005  -0.00005   1.87051
    A5        1.89009  -0.00001   0.00000  -0.00007  -0.00007   1.89002
    A6        1.89411  -0.00001   0.00000  -0.00007  -0.00007   1.89404
    A7        2.01973   0.00001   0.00000   0.00004   0.00004   2.01976
    A8        2.00993   0.00001   0.00000   0.00013   0.00013   2.01006
    A9        2.10363   0.00000   0.00000  -0.00005  -0.00005   2.10359
   A10        1.81382  -0.00001   0.00000  -0.00012  -0.00012   1.81370
   A11        1.71958   0.00000   0.00000  -0.00010  -0.00010   1.71947
   A12        1.74803   0.00000   0.00000   0.00006   0.00006   1.74809
   A13        1.83713   0.00001   0.00000   0.00011   0.00011   1.83724
   A14        1.92598  -0.00001   0.00000  -0.00007  -0.00007   1.92591
   A15        1.97091  -0.00001   0.00000  -0.00016  -0.00016   1.97075
   A16        1.91638   0.00000   0.00000   0.00010   0.00010   1.91649
   A17        1.92132   0.00001   0.00000   0.00005   0.00005   1.92138
   A18        1.89166   0.00000   0.00000  -0.00002  -0.00002   1.89163
   A19        1.85285  -0.00002   0.00000  -0.00018  -0.00018   1.85268
   A20        1.88476   0.00001   0.00000   0.00004   0.00004   1.88480
   A21        1.80100   0.00001   0.00000   0.00001   0.00001   1.80101
   A22        1.89205  -0.00001   0.00000  -0.00005  -0.00005   1.89201
   A23        1.78939   0.00000   0.00000   0.00009   0.00009   1.78948
   A24        2.02316  -0.00001   0.00000  -0.00009  -0.00009   2.02307
   A25        2.05521   0.00000   0.00000   0.00001   0.00001   2.05522
   A26        1.75805   0.00000   0.00000  -0.00001  -0.00001   1.75805
   A27        1.96704   0.00000   0.00000  -0.00014  -0.00014   1.96690
   A28        1.97916   0.00001   0.00000   0.00019   0.00019   1.97935
   A29        1.91925  -0.00001   0.00000  -0.00004  -0.00004   1.91921
   A30        1.94770   0.00001   0.00000   0.00009   0.00009   1.94779
   A31        1.89052  -0.00001   0.00000  -0.00010  -0.00010   1.89043
   A32        1.84702   0.00000   0.00000   0.00001   0.00001   1.84703
   A33        2.21093  -0.00001   0.00000  -0.00004  -0.00004   2.21088
   A34        2.22524   0.00001   0.00000   0.00003   0.00003   2.22527
   A35        1.63028   0.00001   0.00000   0.00005   0.00005   1.63033
   A36        1.97335   0.00000   0.00000   0.00001   0.00001   1.97336
   A37        1.97902  -0.00001   0.00000  -0.00009  -0.00009   1.97893
   A38        1.96855   0.00000   0.00000   0.00000   0.00000   1.96855
   A39        1.98648   0.00000   0.00000   0.00003   0.00003   1.98650
   A40        1.91396   0.00000   0.00000   0.00001   0.00001   1.91396
    D1        3.08142  -0.00001   0.00000  -0.00066  -0.00066   3.08076
    D2       -1.08250  -0.00001   0.00000  -0.00067  -0.00067  -1.08317
    D3        1.01553   0.00000   0.00000  -0.00050  -0.00050   1.01503
    D4       -1.12941   0.00000   0.00000  -0.00059  -0.00059  -1.13001
    D5        0.98985   0.00000   0.00000  -0.00061  -0.00061   0.98924
    D6        3.08789   0.00000   0.00000  -0.00044  -0.00044   3.08745
    D7        0.97615   0.00000   0.00000  -0.00059  -0.00059   0.97556
    D8        3.09542   0.00000   0.00000  -0.00060  -0.00060   3.09481
    D9       -1.08974   0.00000   0.00000  -0.00043  -0.00043  -1.09017
   D10       -2.86656   0.00001   0.00000   0.00019   0.00019  -2.86637
   D11       -0.80001   0.00001   0.00000   0.00034   0.00034  -0.79968
   D12        1.32009   0.00000   0.00000   0.00014   0.00014   1.32023
   D13        1.19526   0.00000   0.00000   0.00008   0.00008   1.19535
   D14       -3.02137   0.00000   0.00000   0.00023   0.00023  -3.02114
   D15       -0.90127  -0.00001   0.00000   0.00004   0.00004  -0.90123
   D16       -0.59820   0.00000   0.00000   0.00007   0.00007  -0.59813
   D17        1.46835   0.00001   0.00000   0.00022   0.00022   1.46857
   D18       -2.69473   0.00000   0.00000   0.00003   0.00003  -2.69470
   D19        2.87482   0.00000   0.00000   0.00004   0.00004   2.87485
   D20       -0.26642   0.00000   0.00000   0.00041   0.00041  -0.26600
   D21       -1.18092   0.00000   0.00000   0.00008   0.00008  -1.18084
   D22        1.96103   0.00001   0.00000   0.00046   0.00046   1.96149
   D23        0.59078   0.00000   0.00000  -0.00004  -0.00004   0.59074
   D24       -2.55046   0.00000   0.00000   0.00034   0.00034  -2.55011
   D25        3.10621   0.00000   0.00000  -0.00006  -0.00006   3.10615
   D26        1.07189   0.00000   0.00000  -0.00009  -0.00009   1.07179
   D27       -1.12085   0.00000   0.00000  -0.00003  -0.00003  -1.12088
   D28        0.89457   0.00000   0.00000   0.00000   0.00000   0.89457
   D29       -1.13975  -0.00001   0.00000  -0.00003  -0.00003  -1.13978
   D30        2.95070   0.00000   0.00000   0.00003   0.00003   2.95073
   D31       -0.95382   0.00001   0.00000   0.00014   0.00014  -0.95369
   D32       -2.98815   0.00001   0.00000   0.00010   0.00010  -2.98804
   D33        1.10231   0.00001   0.00000   0.00016   0.00016   1.10247
   D34        0.00419   0.00000   0.00000  -0.00015  -0.00015   0.00404
   D35       -2.06880   0.00000   0.00000  -0.00018  -0.00018  -2.06898
   D36        2.13317  -0.00001   0.00000  -0.00025  -0.00025   2.13292
   D37       -1.27815  -0.00001   0.00000   0.00003   0.00003  -1.27813
   D38        0.60812   0.00000   0.00000   0.00015   0.00015   0.60827
   D39        2.80021   0.00000   0.00000   0.00014   0.00014   2.80035
   D40        1.23307   0.00002   0.00000   0.00019   0.00019   1.23326
   D41       -3.00584   0.00001   0.00000   0.00008   0.00008  -3.00576
   D42       -0.84998   0.00001   0.00000  -0.00001  -0.00001  -0.84999
   D43       -0.66122   0.00001   0.00000   0.00013   0.00013  -0.66109
   D44        1.38305   0.00000   0.00000   0.00002   0.00002   1.38307
   D45       -2.74427   0.00000   0.00000  -0.00007  -0.00007  -2.74434
   D46       -2.92436   0.00001   0.00000   0.00010   0.00010  -2.92426
   D47       -0.88009   0.00000   0.00000  -0.00001  -0.00001  -0.88010
   D48        1.27578  -0.00001   0.00000  -0.00010  -0.00010   1.27568
   D49       -0.94621  -0.00001   0.00000  -0.00021  -0.00021  -0.94642
   D50        1.09216   0.00000   0.00000  -0.00018  -0.00018   1.09198
   D51       -2.99612   0.00000   0.00000  -0.00014  -0.00014  -2.99626
   D52        1.01113   0.00000   0.00000  -0.00013  -0.00013   1.01100
   D53        3.04950   0.00000   0.00000  -0.00010  -0.00010   3.04939
   D54       -1.03878   0.00000   0.00000  -0.00006  -0.00006  -1.03884
   D55       -3.02888  -0.00001   0.00000  -0.00016  -0.00016  -3.02904
   D56       -0.99051   0.00000   0.00000  -0.00013  -0.00013  -0.99064
   D57        1.20440   0.00000   0.00000  -0.00009  -0.00009   1.20431
   D58        0.03433   0.00000   0.00000  -0.00004  -0.00004   0.03430
   D59       -3.10762   0.00000   0.00000  -0.00042  -0.00042  -3.10804
   D60       -2.04486   0.00001   0.00000   0.00014   0.00014  -2.04472
   D61        1.09637   0.00000   0.00000  -0.00024  -0.00024   1.09613
   D62        2.13995   0.00002   0.00000   0.00022   0.00022   2.14018
   D63       -1.00200   0.00001   0.00000  -0.00016  -0.00016  -1.00216
         Item               Value     Threshold  Converged?
 Maximum Force            0.000088     0.000450     YES
 RMS     Force            0.000012     0.000300     YES
 Maximum Displacement     0.000968     0.001800     YES
 RMS     Displacement     0.000195     0.001200     YES
 Predicted change in Energy=-5.427147D-08
 Optimization completed.
    -- Stationary point found.
                           ----------------------------
                           !   Optimized Parameters   !
                           ! (Angstroms and Degrees)  !
 --------------------------                            --------------------------
 ! Name  Definition              Value          Derivative Info.                !
 --------------------------------------------------------------------------------
 ! R1    R(1,2)                  1.5138         -DE/DX =    0.0                 !
 ! R2    R(1,10)                 1.0939         -DE/DX =    0.0                 !
 ! R3    R(1,11)                 1.0942         -DE/DX =    0.0                 !
 ! R4    R(1,12)                 1.0947         -DE/DX =    0.0                 !
 ! R5    R(2,3)                  1.5542         -DE/DX =    0.0                 !
 ! R6    R(2,7)                  1.5392         -DE/DX =    0.0                 !
 ! R7    R(2,9)                  1.5506         -DE/DX =    0.0                 !
 ! R8    R(3,4)                  1.4352         -DE/DX =    0.0                 !
 ! R9    R(3,13)                 1.0986         -DE/DX =    0.0                 !
 ! R10   R(3,14)                 1.0965         -DE/DX =    0.0                 !
 ! R11   R(4,5)                  1.4363         -DE/DX =    0.0                 !
 ! R12   R(5,6)                  1.5382         -DE/DX =    0.0                 !
 ! R13   R(5,9)                  1.537          -DE/DX =    0.0                 !
 ! R14   R(5,15)                 1.0896         -DE/DX =    0.0                 !
 ! R15   R(6,7)                  1.5403         -DE/DX =    0.0                 !
 ! R16   R(6,16)                 1.096          -DE/DX =    0.0                 !
 ! R17   R(6,17)                 1.0926         -DE/DX =    0.0                 !
 ! R18   R(7,8)                  1.2027         -DE/DX =    0.0001              !
 ! R19   R(9,18)                 1.093          -DE/DX =    0.0                 !
 ! R20   R(9,19)                 1.0937         -DE/DX =    0.0                 !
 ! A1    A(2,1,10)             110.9316         -DE/DX =    0.0                 !
 ! A2    A(2,1,11)             110.5254         -DE/DX =    0.0                 !
 ! A3    A(2,1,12)             111.2554         -DE/DX =    0.0                 !
 ! A4    A(10,1,11)            107.1751         -DE/DX =    0.0                 !
 ! A5    A(10,1,12)            108.2942         -DE/DX =    0.0                 !
 ! A6    A(11,1,12)            108.5245         -DE/DX =    0.0                 !
 ! A7    A(1,2,3)              115.7218         -DE/DX =    0.0                 !
 ! A8    A(1,2,7)              115.1604         -DE/DX =    0.0                 !
 ! A9    A(1,2,9)              120.5292         -DE/DX =    0.0                 !
 ! A10   A(3,2,7)              103.9242         -DE/DX =    0.0                 !
 ! A11   A(3,2,9)               98.5244         -DE/DX =    0.0                 !
 ! A12   A(7,2,9)              100.1547         -DE/DX =    0.0                 !
 ! A13   A(2,3,4)              105.2597         -DE/DX =    0.0                 !
 ! A14   A(2,3,13)             110.3505         -DE/DX =    0.0                 !
 ! A15   A(2,3,14)             112.925          -DE/DX =    0.0                 !
 ! A16   A(4,3,13)             109.8007         -DE/DX =    0.0                 !
 ! A17   A(4,3,14)             110.0838         -DE/DX =    0.0                 !
 ! A18   A(13,3,14)            108.3839         -DE/DX =    0.0                 !
 ! A19   A(3,4,5)              106.1608         -DE/DX =    0.0                 !
 ! A20   A(4,5,6)              107.9887         -DE/DX =    0.0                 !
 ! A21   A(4,5,9)              103.1898         -DE/DX =    0.0                 !
 ! A22   A(4,5,15)             108.4068         -DE/DX =    0.0                 !
 ! A23   A(6,5,9)              102.5243         -DE/DX =    0.0                 !
 ! A24   A(6,5,15)             115.9183         -DE/DX =    0.0                 !
 ! A25   A(9,5,15)             117.7548         -DE/DX =    0.0                 !
 ! A26   A(5,6,7)              100.7291         -DE/DX =    0.0                 !
 ! A27   A(5,6,16)             112.703          -DE/DX =    0.0                 !
 ! A28   A(5,6,17)             113.3978         -DE/DX =    0.0                 !
 ! A29   A(7,6,16)             109.9651         -DE/DX =    0.0                 !
 ! A30   A(7,6,17)             111.595          -DE/DX =    0.0                 !
 ! A31   A(16,6,17)            108.319          -DE/DX =    0.0                 !
 ! A32   A(2,7,6)              105.8263         -DE/DX =    0.0                 !
 ! A33   A(2,7,8)              126.6767         -DE/DX =    0.0                 !
 ! A34   A(6,7,8)              127.4969         -DE/DX =    0.0                 !
 ! A35   A(2,9,5)               93.4083         -DE/DX =    0.0                 !
 ! A36   A(2,9,18)             113.0647         -DE/DX =    0.0                 !
 ! A37   A(2,9,19)             113.3895         -DE/DX =    0.0                 !
 ! A38   A(5,9,18)             112.7895         -DE/DX =    0.0                 !
 ! A39   A(5,9,19)             113.8168         -DE/DX =    0.0                 !
 ! A40   A(18,9,19)            109.6616         -DE/DX =    0.0                 !
 ! D1    D(10,1,2,3)           176.5524         -DE/DX =    0.0                 !
 ! D2    D(10,1,2,7)           -62.0225         -DE/DX =    0.0                 !
 ! D3    D(10,1,2,9)            58.1859         -DE/DX =    0.0                 !
 ! D4    D(11,1,2,3)           -64.7107         -DE/DX =    0.0                 !
 ! D5    D(11,1,2,7)            56.7144         -DE/DX =    0.0                 !
 ! D6    D(11,1,2,9)           176.9228         -DE/DX =    0.0                 !
 ! D7    D(12,1,2,3)            55.9292         -DE/DX =    0.0                 !
 ! D8    D(12,1,2,7)           177.3543         -DE/DX =    0.0                 !
 ! D9    D(12,1,2,9)           -62.4373         -DE/DX =    0.0                 !
 ! D10   D(1,2,3,4)           -164.2419         -DE/DX =    0.0                 !
 ! D11   D(1,2,3,13)           -45.8373         -DE/DX =    0.0                 !
 ! D12   D(1,2,3,14)            75.6357         -DE/DX =    0.0                 !
 ! D13   D(7,2,3,4)             68.4836         -DE/DX =    0.0                 !
 ! D14   D(7,2,3,13)          -173.1118         -DE/DX =    0.0                 !
 ! D15   D(7,2,3,14)           -51.6388         -DE/DX =    0.0                 !
 ! D16   D(9,2,3,4)            -34.2744         -DE/DX =    0.0                 !
 ! D17   D(9,2,3,13)            84.1302         -DE/DX =    0.0                 !
 ! D18   D(9,2,3,14)          -154.3968         -DE/DX =    0.0                 !
 ! D19   D(1,2,7,6)            164.715          -DE/DX =    0.0                 !
 ! D20   D(1,2,7,8)            -15.2645         -DE/DX =    0.0                 !
 ! D21   D(3,2,7,6)            -67.6618         -DE/DX =    0.0                 !
 ! D22   D(3,2,7,8)            112.3587         -DE/DX =    0.0                 !
 ! D23   D(9,2,7,6)             33.8491         -DE/DX =    0.0                 !
 ! D24   D(9,2,7,8)           -146.1304         -DE/DX =    0.0                 !
 ! D25   D(1,2,9,5)            177.9726         -DE/DX =    0.0                 !
 ! D26   D(1,2,9,18)            61.4145         -DE/DX =    0.0                 !
 ! D27   D(1,2,9,19)           -64.2197         -DE/DX =    0.0                 !
 ! D28   D(3,2,9,5)             51.255          -DE/DX =    0.0                 !
 ! D29   D(3,2,9,18)           -65.3031         -DE/DX =    0.0                 !
 ! D30   D(3,2,9,19)           169.0626         -DE/DX =    0.0                 !
 ! D31   D(7,2,9,5)            -54.6501         -DE/DX =    0.0                 !
 ! D32   D(7,2,9,18)          -171.2082         -DE/DX =    0.0                 !
 ! D33   D(7,2,9,19)            63.1576         -DE/DX =    0.0                 !
 ! D34   D(2,3,4,5)              0.24           -DE/DX =    0.0                 !
 ! D35   D(13,3,4,5)          -118.5333         -DE/DX =    0.0                 !
 ! D36   D(14,3,4,5)           122.2218         -DE/DX =    0.0                 !
 ! D37   D(3,4,5,6)            -73.2329         -DE/DX =    0.0                 !
 ! D38   D(3,4,5,9)             34.8429         -DE/DX =    0.0                 !
 ! D39   D(3,4,5,15)           160.4404         -DE/DX =    0.0                 !
 ! D40   D(4,5,6,7)             70.6496         -DE/DX =    0.0                 !
 ! D41   D(4,5,6,16)          -172.2222         -DE/DX =    0.0                 !
 ! D42   D(4,5,6,17)           -48.7002         -DE/DX =    0.0                 !
 ! D43   D(9,5,6,7)            -37.8852         -DE/DX =    0.0                 !
 ! D44   D(9,5,6,16)            79.243          -DE/DX =    0.0                 !
 ! D45   D(9,5,6,17)          -157.235          -DE/DX =    0.0                 !
 ! D46   D(15,5,6,7)          -167.5534         -DE/DX =    0.0                 !
 ! D47   D(15,5,6,16)          -50.4252         -DE/DX =    0.0                 !
 ! D48   D(15,5,6,17)           73.0968         -DE/DX =    0.0                 !
 ! D49   D(4,5,9,2)            -54.2139         -DE/DX =    0.0                 !
 ! D50   D(4,5,9,18)            62.5759         -DE/DX =    0.0                 !
 ! D51   D(4,5,9,19)          -171.6649         -DE/DX =    0.0                 !
 ! D52   D(6,5,9,2)             57.9334         -DE/DX =    0.0                 !
 ! D53   D(6,5,9,18)           174.7232         -DE/DX =    0.0                 !
 ! D54   D(6,5,9,19)           -59.5176         -DE/DX =    0.0                 !
 ! D55   D(15,5,9,2)          -173.5419         -DE/DX =    0.0                 !
 ! D56   D(15,5,9,18)          -56.7521         -DE/DX =    0.0                 !
 ! D57   D(15,5,9,19)           69.0071         -DE/DX =    0.0                 !
 ! D58   D(5,6,7,2)              1.967          -DE/DX =    0.0                 !
 ! D59   D(5,6,7,8)           -178.0537         -DE/DX =    0.0                 !
 ! D60   D(16,6,7,2)          -117.1617         -DE/DX =    0.0                 !
 ! D61   D(16,6,7,8)            62.8176         -DE/DX =    0.0                 !
 ! D62   D(17,6,7,2)           122.6102         -DE/DX =    0.0                 !
 ! D63   D(17,6,7,8)           -57.4105         -DE/DX =    0.0                 !
 --------------------------------------------------------------------------------
 GradGradGradGradGradGradGradGradGradGradGradGradGradGradGradGradGradGrad

                          Input orientation:                          
 ---------------------------------------------------------------------
 Center     Atomic      Atomic             Coordinates (Angstroms)
 Number     Number       Type             X           Y           Z
 ---------------------------------------------------------------------
      1          6           0       -0.248067    2.528203    0.479296
      2          6           0       -0.932417    1.240310    0.073587
      3          6           0       -1.622889    1.252978   -1.318751
      4          8           0       -2.493231    0.111751   -1.319182
      5          6           0       -2.332873   -0.513795   -0.036225
      6          6           0       -0.963706   -1.214463   -0.017183
      7          6           0       -0.019609    0.001967    0.023108
      8          8           0        1.183076   -0.004203    0.017152
      9          6           0       -2.110899    0.677365    0.909452
     10          1           0        0.157277    2.452972    1.492497
     11          1           0        0.590885    2.743905   -0.189138
     12          1           0       -0.943014    3.373442    0.449112
     13          1           0       -2.212990    2.171069   -1.444213
     14          1           0       -0.910484    1.183539   -2.149455
     15          1           0       -3.197019   -1.151990    0.145784
     16          1           0       -0.816880   -1.831906    0.876404
     17          1           0       -0.781899   -1.835613   -0.897466
     18          1           0       -2.969350    1.352753    0.948339
     19          1           0       -1.824047    0.387989    1.924458
 ---------------------------------------------------------------------
                    Distance matrix (angstroms):
                    1          2          3          4          5
     1  C    0.000000
     2  C    1.513804   0.000000
     3  C    2.597943   1.554193   0.000000
     4  O    3.756930   2.376887   1.435233   0.000000
     5  C    3.723698   2.247269   2.295743   1.436315   0.000000
     6  C    3.842679   2.456650   2.866507   2.406967   1.538153
     7  C    2.577241   1.539240   2.436415   2.816487   2.370806
     8  O    2.945306   2.455058   3.352399   3.913370   3.553087
     9  C    2.660974   1.550613   2.352525   2.330860   1.537022
    10  H    1.093864   2.161316   3.537243   4.517969   4.164078
    11  H    1.094154   2.156448   2.898221   4.209157   4.379994
    12  H    1.094666   2.165960   2.843227   4.021027   4.156665
    13  H    2.772788   2.193147   1.098568   2.082056   3.034023
    14  H    3.026095   2.223875   1.096545   2.084027   3.061025
    15  H    4.727724   3.294956   3.225929   2.058758   1.089573
    16  H    4.414951   3.177480   3.871029   3.377656   2.206478
    17  H    4.606880   3.229072   3.228644   2.626544   2.212343
    18  H    3.001178   2.219670   2.638675   2.628388   2.204194
    19  H    3.025347   2.224226   3.362599   3.323449   2.217294
                    6          7          8          9         10
     6  C    0.000000
     7  C    1.540340   0.000000
     8  O    2.464667   1.202715   0.000000
     9  C    2.398691   2.369655   3.480087   0.000000
    10  H    4.121386   2.863184   3.044112   2.938936   0.000000
    11  H    4.256172   2.817087   2.818749   3.574511   1.760839
    12  H    4.611587   3.521506   4.014392   2.974004   1.773854
    13  H    3.880586   3.415985   4.289599   2.789501   3.784428
    14  H    3.209335   2.628650   3.238505   3.324774   4.001923
    15  H    2.240122   3.382692   4.529812   2.260395   5.104967
    16  H    1.096035   2.174131   2.842294   2.823476   4.437199
    17  H    1.092602   2.192087   2.837554   3.368420   4.998594
    18  H    3.397858   3.373670   4.466664   1.092978   3.358927
    19  H    2.660453   2.649555   3.582516   1.093736   2.894200
                   11         12         13         14         15
    11  H    0.000000
    12  H    1.776662   0.000000
    13  H    3.124910   2.577444   0.000000
    14  H    2.920906   3.398424   1.780197   0.000000
    15  H    5.444115   5.064788   3.813020   3.993878   0.000000
    16  H    4.904613   5.224379   4.833032   4.272879   2.580922
    17  H    4.833038   5.382703   4.289575   3.270977   2.718183
    18  H    3.988036   2.904901   2.639323   3.723424   2.640012
    19  H    3.981146   3.444676   3.831265   4.250208   2.724017
                   16         17         18         19
    16  H    0.000000
    17  H    1.774220   0.000000
    18  H    3.844523   4.284580   0.000000
    19  H    2.653438   3.740820   1.787540   0.000000
 Stoichiometry    C7H10O2
 Framework group  C1[X(C7H10O2)]
 Deg. of freedom    51
 Full point group                 C1      NOp   1
 Largest Abelian subgroup         C1      NOp   1
 Largest concise Abelian subgroup C1      NOp   1
                         Standard orientation:                         
 ---------------------------------------------------------------------
 Center     Atomic      Atomic             Coordinates (Angstroms)
 Number     Number       Type             X           Y           Z
 ---------------------------------------------------------------------
      1          6           0       -1.943357   -1.153899    0.274431
      2          6           0       -0.578473   -0.517522    0.120415
      3          6           0        0.288756   -1.056561   -1.051279
      4          8           0        1.621983   -0.603131   -0.774154
      5          6           0        1.546071    0.133184    0.456731
      6          6           0        0.855837    1.476444    0.164931
      7          6           0       -0.587613    1.006385   -0.096110
      8          8           0       -1.533118    1.682406   -0.405205
      9          6           0        0.473777   -0.626259    1.254145
     10          1           0       -2.460368   -0.761525    1.154931
     11          1           0       -2.570470   -0.931695   -0.594204
     12          1           0       -1.865035   -2.240844    0.377916
     13          1           0        0.265524   -2.154724   -1.070020
     14          1           0       -0.038796   -0.686965   -2.030320
     15          1           0        2.546866    0.194726    0.883103
     16          1           0        0.877975    2.158524    1.022584
     17          1           0        1.271275    1.998840   -0.700109
     18          1           0        0.761045   -1.657583    1.474255
     19          1           0        0.171074   -0.123580    2.177152
 ---------------------------------------------------------------------
 Rotational constants (GHZ):      2.3810964      1.8895594      1.4430133
 1\1\GINC-ALCHEMY-MO\FOpt\RB3LYP\6-31G(2df,p)\C7H10O2\PUCK\27-Jan-2020\
 0\\# b3lyp 6-31G(2df,p) opt Freq\\titel\\0,1\C,-0.2480666601,2.5282030
 147,0.4792964759\C,-0.932416644,1.2403101332,0.0735868114\C,-1.6228886
 96,1.2529777095,-1.3187507389\O,-2.4932306964,0.1117513745,-1.31918208
 \C,-2.3328725407,-0.5137945293,-0.036224875\C,-0.9637062244,-1.2144633
 518,-0.0171832685\C,-0.0196086963,0.0019668649,0.0231076913\O,1.183076
 0631,-0.0042033012,0.017151733\C,-2.1108987432,0.6773645332,0.90945243
 81\H,0.157277256,2.452972486,1.4924966777\H,0.5908848393,2.7439051705,
 -0.1891383202\H,-0.9430143446,3.3734422097,0.4491120721\H,-2.212989793
 6,2.1710689681,-1.4442125138\H,-0.9104843608,1.1835392606,-2.149455226
 8\H,-3.1970191541,-1.1519897407,0.1457836743\H,-0.8168797168,-1.831905
 9897,0.8764044658\H,-0.7818985714,-1.8356134128,-0.8974664848\H,-2.969
 3503579,1.3527530437,0.9483386415\H,-1.8240470881,0.3879887768,1.92445
 76967\\Version=ES64L-G09RevD.01\State=1-A\HF=-423.2238982\RMSD=4.567e-
 09\RMSF=2.935e-05\Dipole=-0.7116681,0.2099931,0.458463\Quadrupole=-5.3
 413284,3.7722888,1.5690397,0.8061169,-2.3934823,-1.2667925\PG=C01 [X(C
 7H10O2)]\\@


 OF ALL THE WONDERS OF THE UNIVERSE, THE GREATEST IS MAN.

                                    -- ARISTOTLE
 Job cpu time:       0 days  0 hours  8 minutes 56.1 seconds.
 File lengths (MBytes):  RWF=     52 Int=      0 D2E=      0 Chk=      7 Scr=      1
 Normal termination of Gaussian 09 at Mon Jan 27 18:30:45 2020.
 Link1:  Proceeding to internal job step number  2.
 ----------------------------------------------------------------------
 #N Geom=AllCheck Guess=TCheck SCRF=Check GenChk RB3LYP/6-31G(2df,p) Fr
 eq
 ----------------------------------------------------------------------
 1/10=4,29=7,30=1,38=1,40=1/1,3;
 2/12=2,40=1/2;
 3/5=1,6=6,7=104,11=2,14=-4,16=1,25=1,30=1,70=2,71=2,74=-5,116=1,140=1/1,2,3;
 4/5=101/1;
 5/5=2,98=1/2;
 8/6=4,10=90,11=11/1;
 11/6=1,8=1,9=11,15=111,16=1/1,2,10;
 10/6=1/2;
 6/7=2,8=2,9=2,10=2,18=1,28=1/1;
 7/8=1,10=1,25=1/1,2,3,16;
 1/10=4,30=1/3;
 99//99;
 Structure from the checkpoint file:  "/scratch/puck/g09_e288cda6-8db9-47bd-87be-19eb6384b8a7/Gau-81853.chk"
 -----
 titel
 -----
 Charge =  0 Multiplicity = 1
 Redundant internal coordinates found in file.
 C,0,-0.2480666601,2.5282030147,0.4792964759
 C,0,-0.932416644,1.2403101332,0.0735868114
 C,0,-1.622888696,1.2529777095,-1.3187507389
 O,0,-2.4932306964,0.1117513745,-1.31918208
 C,0,-2.3328725407,-0.5137945293,-0.036224875
 C,0,-0.9637062244,-1.2144633518,-0.0171832685
 C,0,-0.0196086963,0.0019668649,0.0231076913
 O,0,1.1830760631,-0.0042033012,0.017151733
 C,0,-2.1108987432,0.6773645332,0.9094524381
 H,0,0.157277256,2.452972486,1.4924966777
 H,0,0.5908848393,2.7439051705,-0.1891383202
 H,0,-0.9430143446,3.3734422097,0.4491120721
 H,0,-2.2129897936,2.1710689681,-1.4442125138
 H,0,-0.9104843608,1.1835392606,-2.1494552268
 H,0,-3.1970191541,-1.1519897407,0.1457836743
 H,0,-0.8168797168,-1.8319059897,0.8764044658
 H,0,-0.7818985714,-1.8356134128,-0.8974664848
 H,0,-2.9693503579,1.3527530437,0.9483386415
 H,0,-1.8240470881,0.3879887768,1.9244576967
 Recover connectivity data from disk.

 GradGradGradGradGradGradGradGradGradGradGradGradGradGradGradGradGradGrad
 Berny optimization.
 Initialization pass.
                           ----------------------------
                           !    Initial Parameters    !
                           ! (Angstroms and Degrees)  !
 --------------------------                            --------------------------
 ! Name  Definition              Value          Derivative Info.                !
 --------------------------------------------------------------------------------
 ! R1    R(1,2)                  1.5138         calculate D2E/DX2 analytically  !
 ! R2    R(1,10)                 1.0939         calculate D2E/DX2 analytically  !
 ! R3    R(1,11)                 1.0942         calculate D2E/DX2 analytically  !
 ! R4    R(1,12)                 1.0947         calculate D2E/DX2 analytically  !
 ! R5    R(2,3)                  1.5542         calculate D2E/DX2 analytically  !
 ! R6    R(2,7)                  1.5392         calculate D2E/DX2 analytically  !
 ! R7    R(2,9)                  1.5506         calculate D2E/DX2 analytically  !
 ! R8    R(3,4)                  1.4352         calculate D2E/DX2 analytically  !
 ! R9    R(3,13)                 1.0986         calculate D2E/DX2 analytically  !
 ! R10   R(3,14)                 1.0965         calculate D2E/DX2 analytically  !
 ! R11   R(4,5)                  1.4363         calculate D2E/DX2 analytically  !
 ! R12   R(5,6)                  1.5382         calculate D2E/DX2 analytically  !
 ! R13   R(5,9)                  1.537          calculate D2E/DX2 analytically  !
 ! R14   R(5,15)                 1.0896         calculate D2E/DX2 analytically  !
 ! R15   R(6,7)                  1.5403         calculate D2E/DX2 analytically  !
 ! R16   R(6,16)                 1.096          calculate D2E/DX2 analytically  !
 ! R17   R(6,17)                 1.0926         calculate D2E/DX2 analytically  !
 ! R18   R(7,8)                  1.2027         calculate D2E/DX2 analytically  !
 ! R19   R(9,18)                 1.093          calculate D2E/DX2 analytically  !
 ! R20   R(9,19)                 1.0937         calculate D2E/DX2 analytically  !
 ! A1    A(2,1,10)             110.9316         calculate D2E/DX2 analytically  !
 ! A2    A(2,1,11)             110.5254         calculate D2E/DX2 analytically  !
 ! A3    A(2,1,12)             111.2554         calculate D2E/DX2 analytically  !
 ! A4    A(10,1,11)            107.1751         calculate D2E/DX2 analytically  !
 ! A5    A(10,1,12)            108.2942         calculate D2E/DX2 analytically  !
 ! A6    A(11,1,12)            108.5245         calculate D2E/DX2 analytically  !
 ! A7    A(1,2,3)              115.7218         calculate D2E/DX2 analytically  !
 ! A8    A(1,2,7)              115.1604         calculate D2E/DX2 analytically  !
 ! A9    A(1,2,9)              120.5292         calculate D2E/DX2 analytically  !
 ! A10   A(3,2,7)              103.9242         calculate D2E/DX2 analytically  !
 ! A11   A(3,2,9)               98.5244         calculate D2E/DX2 analytically  !
 ! A12   A(7,2,9)              100.1547         calculate D2E/DX2 analytically  !
 ! A13   A(2,3,4)              105.2597         calculate D2E/DX2 analytically  !
 ! A14   A(2,3,13)             110.3505         calculate D2E/DX2 analytically  !
 ! A15   A(2,3,14)             112.925          calculate D2E/DX2 analytically  !
 ! A16   A(4,3,13)             109.8007         calculate D2E/DX2 analytically  !
 ! A17   A(4,3,14)             110.0838         calculate D2E/DX2 analytically  !
 ! A18   A(13,3,14)            108.3839         calculate D2E/DX2 analytically  !
 ! A19   A(3,4,5)              106.1608         calculate D2E/DX2 analytically  !
 ! A20   A(4,5,6)              107.9887         calculate D2E/DX2 analytically  !
 ! A21   A(4,5,9)              103.1898         calculate D2E/DX2 analytically  !
 ! A22   A(4,5,15)             108.4068         calculate D2E/DX2 analytically  !
 ! A23   A(6,5,9)              102.5243         calculate D2E/DX2 analytically  !
 ! A24   A(6,5,15)             115.9183         calculate D2E/DX2 analytically  !
 ! A25   A(9,5,15)             117.7548         calculate D2E/DX2 analytically  !
 ! A26   A(5,6,7)              100.7291         calculate D2E/DX2 analytically  !
 ! A27   A(5,6,16)             112.703          calculate D2E/DX2 analytically  !
 ! A28   A(5,6,17)             113.3978         calculate D2E/DX2 analytically  !
 ! A29   A(7,6,16)             109.9651         calculate D2E/DX2 analytically  !
 ! A30   A(7,6,17)             111.595          calculate D2E/DX2 analytically  !
 ! A31   A(16,6,17)            108.319          calculate D2E/DX2 analytically  !
 ! A32   A(2,7,6)              105.8263         calculate D2E/DX2 analytically  !
 ! A33   A(2,7,8)              126.6767         calculate D2E/DX2 analytically  !
 ! A34   A(6,7,8)              127.4969         calculate D2E/DX2 analytically  !
 ! A35   A(2,9,5)               93.4083         calculate D2E/DX2 analytically  !
 ! A36   A(2,9,18)             113.0647         calculate D2E/DX2 analytically  !
 ! A37   A(2,9,19)             113.3895         calculate D2E/DX2 analytically  !
 ! A38   A(5,9,18)             112.7895         calculate D2E/DX2 analytically  !
 ! A39   A(5,9,19)             113.8168         calculate D2E/DX2 analytically  !
 ! A40   A(18,9,19)            109.6616         calculate D2E/DX2 analytically  !
 ! D1    D(10,1,2,3)           176.5524         calculate D2E/DX2 analytically  !
 ! D2    D(10,1,2,7)           -62.0225         calculate D2E/DX2 analytically  !
 ! D3    D(10,1,2,9)            58.1859         calculate D2E/DX2 analytically  !
 ! D4    D(11,1,2,3)           -64.7107         calculate D2E/DX2 analytically  !
 ! D5    D(11,1,2,7)            56.7144         calculate D2E/DX2 analytically  !
 ! D6    D(11,1,2,9)           176.9228         calculate D2E/DX2 analytically  !
 ! D7    D(12,1,2,3)            55.9292         calculate D2E/DX2 analytically  !
 ! D8    D(12,1,2,7)           177.3543         calculate D2E/DX2 analytically  !
 ! D9    D(12,1,2,9)           -62.4373         calculate D2E/DX2 analytically  !
 ! D10   D(1,2,3,4)           -164.2419         calculate D2E/DX2 analytically  !
 ! D11   D(1,2,3,13)           -45.8373         calculate D2E/DX2 analytically  !
 ! D12   D(1,2,3,14)            75.6357         calculate D2E/DX2 analytically  !
 ! D13   D(7,2,3,4)             68.4836         calculate D2E/DX2 analytically  !
 ! D14   D(7,2,3,13)          -173.1118         calculate D2E/DX2 analytically  !
 ! D15   D(7,2,3,14)           -51.6388         calculate D2E/DX2 analytically  !
 ! D16   D(9,2,3,4)            -34.2744         calculate D2E/DX2 analytically  !
 ! D17   D(9,2,3,13)            84.1302         calculate D2E/DX2 analytically  !
 ! D18   D(9,2,3,14)          -154.3968         calculate D2E/DX2 analytically  !
 ! D19   D(1,2,7,6)            164.715          calculate D2E/DX2 analytically  !
 ! D20   D(1,2,7,8)            -15.2645         calculate D2E/DX2 analytically  !
 ! D21   D(3,2,7,6)            -67.6618         calculate D2E/DX2 analytically  !
 ! D22   D(3,2,7,8)            112.3587         calculate D2E/DX2 analytically  !
 ! D23   D(9,2,7,6)             33.8491         calculate D2E/DX2 analytically  !
 ! D24   D(9,2,7,8)           -146.1304         calculate D2E/DX2 analytically  !
 ! D25   D(1,2,9,5)            177.9726         calculate D2E/DX2 analytically  !
 ! D26   D(1,2,9,18)            61.4145         calculate D2E/DX2 analytically  !
 ! D27   D(1,2,9,19)           -64.2197         calculate D2E/DX2 analytically  !
[...]
 ,-0.00166401,0.00295343,-0.00422238,-0.01703666,-0.01371536,-0.0138567
 5,-0.05634267,-0.13675020,-0.01127694,0.10883566,0.29530113,-0.0012688
 4,0.00167861,-0.00396457,-0.01351416,-0.01993906,-0.00564539,0.0002174
 3,0.01429865,-0.08495025,0.06667448,-0.07323268,0.32661383,-0.00518482
 ,0.00046593,0.00356560,-0.01574157,-0.03354788,-0.00752591,-0.00499860
 ,-0.01595268,0.02478172,-0.07713587,0.00046250,-0.04154388,0.60516758,
 -0.00121312,-0.00150177,0.00390672,-0.02576182,-0.03418683,-0.00096360
 ,-0.01134103,-0.03697921,0.02922554,-0.01164333,-0.08634652,0.02002565
 ,0.14987787,0.53139394,0.00135867,0.00094167,-0.00590642,-0.00805135,-
 0.00072263,0.00883346,0.02243860,0.02650618,-0.00743539,-0.01885943,0.
 04968994,-0.15572045,-0.02466198,-0.02241698,0.38903756,-0.00230298,0.
 00129639,0.00077994,0.00623409,0.00679772,0.00074995,0.00075552,-0.000
 67210,-0.00043680,-0.00328528,0.00961983,-0.01092705,-0.14958784,0.033
 66189,0.00701366,0.39413162,0.00489026,-0.00218832,0.00070993,-0.01252
 121,-0.03020994,-0.00445691,0.00158970,-0.00112067,-0.00035598,0.01824
 445,-0.01140175,0.01552350,0.02707850,-0.09545272,-0.00491024,-0.05982
 691,0.53077977,-0.00126115,-0.00007823,0.00141455,0.00377087,-0.001216
 24,0.02211644,-0.00156520,-0.00721937,0.00035188,-0.03067299,0.0314293
 1,-0.01944889,0.01010548,-0.00895720,-0.07195863,-0.00982269,0.0133154
 6,0.57489910,0.01582780,-0.00727224,-0.00040763,-0.07572315,0.00942958
 ,0.00153546,-0.01662400,0.00972896,-0.01442652,0.00323056,-0.00177660,
 0.00284486,-0.05019186,-0.01781683,0.00218817,-0.08434114,-0.00918410,
 -0.00152999,1.03213797,0.01439736,-0.03079037,-0.00153770,0.01584590,-
 0.13740644,-0.01052784,0.01368708,0.00936500,0.01571843,-0.00168339,-0
 .01025910,0.00307540,-0.00494613,0.02409077,-0.00221480,-0.02757967,-0
 .13673324,-0.00035569,0.00039303,0.41057979,0.00642381,-0.00833273,-0.
 00058279,0.00012335,-0.00318196,-0.07914214,-0.02462312,0.02823489,-0.
 00338321,0.00025912,-0.00153571,0.00066558,-0.00079942,-0.00283421,-0.
 00047482,-0.00367465,-0.00454920,-0.08545113,-0.00609904,0.00780244,0.
 24574109,-0.00170814,-0.00458336,-0.00037416,-0.04550374,0.01587953,-0
 .00204752,0.00023181,0.00367441,0.00777238,0.00015299,0.00031700,-0.00
 155680,0.00092305,-0.00682150,0.00117381,-0.03892934,-0.01870679,0.000
 14912,-0.78949169,0.00682985,0.00302412,0.87532497,-0.00061254,0.00283
 237,0.00120566,0.03308420,0.01196765,-0.00040105,0.00029615,-0.0051870
 5,-0.00266152,0.00086024,0.00375615,-0.00119865,-0.00331660,-0.0111061
 7,0.00136737,-0.03369788,0.01431940,-0.00041855,0.00433287,-0.10250283
 ,-0.00186829,-0.00678034,0.08100054,-0.00022761,0.00136028,-0.00099436
 ,-0.00014965,-0.00194807,0.02187315,0.00320069,-0.00445480,-0.00158430
 ,0.00002672,0.00031478,-0.00006603,-0.00037576,0.00103299,0.00210140,0
 .00002088,0.00084989,0.01608318,0.00451889,-0.00288289,-0.06655210,-0.
 00366311,0.00282585,0.02448007,-0.00879288,-0.00363934,0.00559269,-0.1
 0916013,-0.01666429,0.03446997,0.00791210,0.00074403,0.00194211,0.0018
 7619,-0.00532112,-0.01481341,-0.07586748,-0.00821407,-0.00793073,-0.00
 394053,0.02351458,0.01965794,-0.03683958,0.00603935,0.02463125,0.00139
 981,0.00335233,-0.00259930,0.50407536,-0.01993489,-0.00696662,0.016851
 01,-0.00993739,-0.08071668,0.00706582,-0.00588736,0.00316601,0.0160341
 7,-0.00181245,0.00481941,0.00799447,-0.00689514,-0.13172157,-0.0476292
 4,0.01242543,-0.02412066,-0.01797909,0.00951043,0.01079033,-0.01604847
 ,0.00636614,-0.00550911,0.00344410,-0.13946789,0.45655433,-0.00889024,
 -0.00118397,0.00828007,0.03000501,0.01395139,-0.08990823,0.01866008,0.
 00287693,-0.04467625,-0.00076380,-0.00885509,-0.05684704,-0.00411169,-
 0.03670666,-0.08981780,0.00592755,-0.00867119,0.00052882,0.00745643,-0
 .00397533,-0.00307603,-0.00269410,0.00072415,-0.00014346,0.02286076,-0
 .02195407,0.59114475,-0.08062155,0.00818256,-0.08956354,-0.00714917,0.
 00072063,-0.01454550,-0.00006863,-0.00225660,0.00061180,-0.00075062,-0
 .00118608,-0.00047683,0.00017391,0.00027881,-0.00079183,-0.00002343,-0
 .00005539,0.00005880,0.00014866,0.00062607,0.00059066,0.00033165,-0.00
 032472,-0.00041570,0.00045523,0.00125437,-0.00032515,0.08543626,0.0084
 9645,-0.04850572,0.02114423,-0.01077147,0.00134190,-0.02906679,-0.0006
 0363,-0.00490640,0.00116216,-0.00192006,-0.00124549,-0.00122164,0.0003
 3148,0.00073672,-0.00098065,0.00007843,0.00022288,0.00017865,-0.001595
 19,0.00119207,-0.00059919,0.00102683,0.00017963,0.00037277,0.00060365,
 0.00148339,0.00002975,-0.00574666,0.05226624,-0.09016995,0.01941863,-0
 .27460749,-0.00227425,-0.00036799,-0.00779216,0.00018141,-0.00131137,0
 .00154627,-0.00047881,-0.00034594,0.00001251,-0.00000435,0.00018077,-0
 .00046440,0.00014520,-0.00007659,-0.00010895,-0.00193257,0.00068268,-0
 .00001143,0.00133476,0.00028541,0.00055143,0.00023357,0.00008592,0.000
 89957,0.10016633,-0.02047034,0.29741171,-0.20020226,-0.03860505,0.1250
 0259,-0.01248293,-0.00444352,0.00868504,-0.00002719,0.00022060,0.00086
 581,0.00034383,0.00022848,-0.00038577,-0.00068552,-0.00040036,0.001212
 69,-0.00008200,0.00000466,0.00002190,-0.00103772,0.00086177,-0.0000716
 8,0.00110447,0.00032704,-0.00003301,0.00056068,-0.00187527,-0.00214417
 ,0.00975478,0.00282169,-0.00780385,0.21767300,-0.03740887,-0.05588625,
 0.02954163,-0.02277670,-0.00633829,0.01972652,-0.00005923,0.00062907,0
 .00063754,0.00051480,0.00016539,-0.00019324,-0.00161918,-0.00049965,0.
 00145267,-0.00005832,0.00036189,-0.00013959,-0.00242654,0.00090294,0.0
 0096326,0.00182986,0.00096137,-0.00055472,-0.00060963,-0.00424653,-0.0
 0327679,-0.00191211,-0.00120055,0.00198188,0.04560690,0.06002087,0.124
 84913,0.03085478,-0.14776773,-0.00864596,-0.00048414,0.00655827,-0.000
 48808,0.00021218,0.00089325,0.00020882,0.00043837,0.00011072,-0.000204
 62,-0.00055082,0.00027464,-0.00021515,0.00007619,-0.00005246,0.0016227
 5,-0.00008907,0.00032545,-0.00085592,-0.00075219,-0.00027841,-0.000604
 19,-0.00147046,-0.00001836,0.02361283,0.00527479,-0.01833313,-0.136843
 19,-0.03233709,0.15764618,-0.15555387,0.12937467,-0.00501373,0.0107390
 1,-0.01372903,0.00019312,0.00066440,-0.00018822,0.00036188,0.00024811,
 0.00023412,0.00016737,0.00037126,0.00004290,-0.00010130,0.00047391,-0.
 00081164,0.00010260,-0.00338264,-0.00240991,-0.00116144,0.00130209,0.0
 0088240,0.00027603,0.00097870,0.00043564,0.00016575,-0.00760057,0.0076
 2323,0.00080635,-0.01490947,0.01862248,-0.00262966,0.16684614,0.128823
 90,-0.19922308,0.00618358,0.01893209,-0.02422117,-0.00015353,0.0011074
 7,0.00035962,0.00123746,-0.00010930,0.00088336,-0.00015754,0.00058397,
 -0.00015449,0.00017911,0.00084771,-0.00141322,0.00023571,-0.00564504,-
 0.00168924,-0.00138370,0.00067550,0.00075608,0.00025560,0.00090699,0.0
 0102407,0.00018970,0.00103757,-0.00174731,0.00019605,-0.00438337,0.005
 43868,-0.00078772,-0.14041520,0.21987967,-0.00573561,0.00647463,-0.047
 32294,0.00662215,-0.00654530,-0.00133734,0.00120404,-0.00114608,0.0006
 0537,0.00012300,0.00063348,-0.00020744,0.00019975,-0.00001066,0.000373
 88,0.00036619,-0.00034308,0.00013362,-0.00141490,-0.00157486,-0.000149
 86,0.00007099,0.00016498,0.00022892,-0.00041989,0.00030789,0.00001552,
 -0.01936006,0.02359417,0.00031595,0.01243071,-0.01647590,0.00067520,0.
 00668629,-0.00529628,0.04661877,0.00048424,0.00085898,0.00069852,-0.00
 984326,0.01309817,-0.00303640,-0.13109381,0.12184604,-0.01296990,0.012
 09635,-0.02675396,0.00561679,-0.00069788,-0.00240579,-0.00284431,0.000
 14707,-0.00001329,0.00147916,-0.00019997,-0.00329449,-0.00313004,-0.00
 065875,0.00091833,0.00043607,0.00106613,-0.00036563,0.00087098,0.00019
 127,-0.00027175,0.00011275,-0.00017431,0.00007473,-0.00002445,0.000108
 03,-0.00078387,-0.00040091,0.13783887,-0.00019831,0.00082518,-0.000188
 59,0.00010200,0.00149094,-0.00023334,0.11778170,-0.20688768,0.01961577
 ,-0.00323506,-0.03312251,0.00839355,-0.00012552,-0.00167977,-0.0061923
 6,-0.00002140,0.00024134,0.00091862,-0.00016143,0.00007496,-0.00068239
 ,-0.00012798,0.00031206,0.00031939,0.00041398,0.00024018,0.00017503,-0
 .00012962,0.00022316,0.00010125,0.00003532,-0.00000248,0.00000497,0.00
 035848,0.00052644,0.00030645,-0.11989382,0.23915222,0.00067040,0.00126
 729,0.00157132,-0.02014048,0.02467970,-0.00728100,-0.01106590,0.021584
 21,-0.05369261,-0.00075248,0.00079996,0.00522257,0.00036618,0.00071590
 ,-0.00172278,0.00024520,-0.00019792,0.00156440,0.00120722,-0.00407922,
 -0.00613035,-0.00252941,0.00142851,0.00159731,-0.00066850,0.00010206,0
 .00205815,0.00041756,0.00004696,0.00012985,-0.00004418,-0.00017597,-0.
 00007475,0.00017856,-0.00090184,-0.00008070,0.01492975,-0.02490045,0.0
 5354015,0.00049024,0.00049770,0.00064371,0.01173316,-0.00018946,-0.011
 89265,-0.15271391,0.02054868,0.12291786,-0.01412275,-0.01460712,0.0140
 5725,-0.00387647,0.00170196,-0.00265951,-0.00003224,0.00014042,-0.0000
 0394,0.00117620,-0.00019915,-0.00022523,0.00050036,-0.00022245,0.00001
 448,-0.00160865,-0.00004508,-0.00349132,-0.00006343,0.00001476,0.00010
 184,0.00000050,-0.00005530,0.00029946,-0.00005452,-0.00010928,-0.00012
 513,-0.01035255,0.00510434,0.01590035,0.16741572,0.00048214,-0.0000073
 7,0.00028022,0.00195091,0.00054472,0.00130434,0.02351899,-0.05251568,-
 0.02406659,-0.02383691,-0.00647931,0.02458000,-0.00512600,-0.00017576,
 -0.00114925,0.00005851,0.00027095,-0.00005838,-0.00015651,0.00007811,0
 .00125228,-0.00003713,0.00015998,-0.00015786,-0.00075552,-0.00056758,-
 0.00036681,-0.00013526,0.00012147,0.00008116,-0.00022297,0.00002741,-0
 .00003273,0.00001563,0.00019485,-0.00000845,0.01715979,-0.00114849,-0.
 01960794,-0.01302126,0.06001276,0.00029908,0.00055789,-0.00015790,0.01
 588727,-0.00080982,-0.01775723,0.12355678,-0.01939442,-0.19531798,-0.0
 0061193,0.00314967,0.00486338,-0.00005272,-0.00081570,-0.00004338,0.00
 020261,0.00009914,-0.00049385,0.00347740,-0.00137602,-0.00041557,-0.00
 174381,0.00005459,0.00046772,-0.00288818,0.00056642,-0.00428678,-0.000
 47481,-0.00023732,0.00010467,-0.00053613,-0.00054763,0.00007318,-0.000
 07013,0.00001133,-0.00002320,-0.00207188,0.00097487,0.00342869,-0.1359
 6348,0.01638714,0.20981399,0.00023255,0.00019102,0.00014592,0.00089680
 ,-0.00000597,-0.00033909,0.00099850,0.00147219,-0.00149684,0.00700242,
 0.00320275,0.00022198,-0.22681841,-0.12843907,0.03533325,-0.01658999,-
 0.01616473,0.00230210,-0.00311565,0.00538703,0.00010453,-0.00169953,-0
 .00237961,-0.00000506,0.00053358,0.00114746,0.00015799,-0.00000934,0.0
 0002190,0.00001306,-0.00004599,0.00006601,0.00000478,-0.00001157,-0.00
 010352,-0.00002234,0.00014444,0.00014412,0.00008565,0.00019413,0.00020
 419,-0.00002464,0.23686791,-0.00120076,0.00018344,0.00096491,-0.000425
 19,-0.00310181,-0.00191088,-0.00061404,0.00036397,0.00222309,-0.009876
 48,-0.01108940,0.00587696,-0.12386727,-0.13919275,0.02287425,0.0135045
 8,0.01240772,-0.00263600,0.00327293,-0.00448101,-0.00020453,0.00136448
 ,0.00218813,0.00002017,-0.01564241,-0.00839859,0.00508180,0.00003307,0
 .00002190,-0.00003885,-0.00018713,-0.00048573,-0.00015875,0.00005835,0
 .00007072,0.00003695,-0.00025457,-0.00034624,0.00006123,-0.00032882,-0
 .00071975,0.00013465,0.13551657,0.15133867,-0.00102632,0.00004038,0.00
 159781,-0.00063853,-0.00379915,-0.00372154,-0.00026004,-0.00068541,-0.
 00574897,0.02267658,0.02630845,-0.01112246,0.02900208,0.01804019,-0.05
 295221,0.00169090,-0.00001440,0.00152404,-0.00076070,-0.00119539,0.000
 45794,0.00004858,0.00020354,0.00000491,-0.01689580,-0.00972493,0.00743
 133,0.00010483,0.00012451,0.00005727,-0.00037642,-0.00053524,-0.000109
 00,0.00004035,-0.00001870,-0.00004549,0.00048029,0.00064513,-0.0000428
 0,0.00091197,0.00132594,0.00008186,-0.03586662,-0.03227096,0.06177233,
 0.00072451,-0.00035740,-0.00002922,-0.00101391,-0.00173530,-0.00189453
 ,-0.00274403,-0.00182480,-0.00016172,-0.00599274,0.00743215,-0.0043307
 4,0.00292342,0.01329284,-0.02378344,-0.04981835,0.01925954,-0.02247369
 ,0.00392972,-0.00965974,0.02104124,-0.00061923,0.00078109,-0.00350961,
 0.00106397,-0.00140746,0.00021764,0.00002111,0.00001409,0.00001811,-0.
 00000205,0.00006049,0.00000131,-0.00007602,-0.00023857,-0.00012585,0.0
 0026966,0.00039763,0.00010275,0.00016192,0.00015171,-0.00014351,0.0008
 0675,-0.00131694,0.00019242,0.04920626,0.00107812,-0.00044189,0.000038
 90,-0.00315767,-0.00236812,-0.00366667,-0.00022256,0.00221449,-0.00052
 910,0.00222320,-0.00070112,0.00104515,-0.00145197,-0.00581760,0.008172
 21,0.02035385,-0.12540628,0.12550666,0.00504999,-0.01550305,0.01993280
 ,0.00002200,0.00213967,-0.00217870,0.00022816,-0.00000696,0.00032546,-
 0.00003543,-0.00004591,-0.00003103,-0.00000309,0.00004792,0.00001932,-
 0.00015454,-0.00036190,-0.00010898,-0.00017245,-0.00022348,-0.00022212
 ,-0.00000393,0.00003104,0.00015904,0.00020163,0.00039353,-0.00019412,-
 0.02202333,0.13518753,0.00004520,-0.00013109,0.00004767,-0.00027172,-0
 .00015787,-0.00100940,-0.00042081,-0.00073927,-0.00002883,-0.00119856,
 0.00111748,0.00126397,0.00083803,-0.00141533,-0.00133628,-0.02734001,0
 .12023438,-0.21784759,0.00022717,-0.00172952,0.00065161,0.00027311,0.0
 0024407,0.00085984,0.00029533,-0.00018125,-0.00051634,0.00002478,0.000
 04340,0.00002999,-0.00000161,0.00000011,-0.00000755,0.00000353,-0.0000
 4582,-0.00001187,0.00007241,0.00018878,-0.00005185,0.00009015,-0.00007
 953,-0.00004926,-0.00047038,0.00011078,0.00024033,0.03049407,-0.132385
 39,0.23690248,0.00047731,-0.00030178,-0.00004522,-0.00105342,-0.001973
 19,0.00228658,0.00098405,-0.00020493,-0.00027864,0.00299708,-0.0036800
 6,0.00043071,-0.00182312,0.01655112,0.02546612,-0.05330497,0.02278941,
 0.03124041,0.00512240,-0.00831515,-0.02028536,-0.00097291,0.00067163,0
 .00326312,-0.00656862,0.00319675,-0.00070413,-0.00003558,0.00003713,0.
 00000129,0.00004496,0.00013528,0.00000130,-0.00008120,-0.00025245,-0.0
 0002406,0.00006376,-0.00002896,0.00018256,-0.00003320,0.00005093,0.000
 04195,0.00021557,-0.00043258,-0.00022550,0.00083211,-0.00216080,-0.003
 04394,0.05258230,0.00053637,-0.00055322,0.00029284,-0.00068644,-0.0024
 0310,0.00143535,0.00005242,-0.00154870,-0.00049159,-0.00137119,0.00185
 887,0.00026535,0.00052744,-0.00663936,-0.00808179,0.02447093,-0.127553
 82,-0.12786520,0.00513105,-0.01398555,-0.01914750,0.00063752,0.0020027
 8,0.00215180,0.00181269,-0.00132319,0.00058574,0.00002834,0.00006347,-
 0.00001307,-0.00005838,-0.00001851,0.00001662,-0.00018001,-0.00026545,
 -0.00004595,0.00011624,0.00016345,0.00027926,0.00001605,-0.00024448,0.
 00020937,0.00015129,0.00013582,0.00016264,-0.00300302,0.01109980,0.015
 37932,-0.02759738,0.13943876,-0.00001770,0.00004274,-0.00000144,0.0000
 6261,0.00071792,-0.00096448,0.00006146,0.00028407,0.00015635,-0.000090
 50,-0.00009595,0.00149601,-0.00127933,0.00224146,-0.00005765,0.0362327
 5,-0.12583243,-0.22135921,0.00049034,0.00155618,0.00057557,-0.00053392
 ,-0.00008812,0.00065557,0.00002310,0.00061046,0.00037570,0.00000655,0.
 00000593,0.00000054,-0.00002115,-0.00001978,0.00000600,0.00000188,0.00
 003065,0.00001012,-0.00005857,-0.00002741,0.00004487,-0.00007202,0.000
 04285,0.00005680,0.00043472,-0.00026443,-0.00001229,0.00406499,-0.0148
 9305,-0.01984024,-0.03921195,0.13546838,0.23812831,0.00074841,0.000984
 66,-0.00038597,-0.01837801,0.01639733,0.00224019,0.00044706,0.00017133
 ,-0.00154699,0.00039861,-0.00009760,0.00128169,0.00696901,-0.00546113,
 -0.00056669,0.00063132,-0.00090786,-0.00204993,-0.00173201,-0.00528391
 ,0.00300948,-0.00164765,0.00190146,-0.00066700,-0.21023816,0.13146307,
 0.00451283,-0.00010963,-0.00005418,0.00000140,0.00018146,-0.00018341,0
 .00008798,0.00001875,-0.00078906,-0.00002982,0.00070506,-0.00035679,0.
 00076343,0.00009292,-0.00044934,-0.00019761,0.00048506,0.00051650,0.00
 066872,0.00012630,0.00005630,0.00001930,0.00063491,-0.00040383,-0.0001
 1892,0.22630324,0.00043472,0.00111034,-0.00037989,-0.01293767,0.010073
 67,0.00172532,0.00034899,0.00066745,-0.00090910,-0.00166798,0.00206321
 ,0.00167365,0.02227260,-0.01555994,0.00185635,-0.00112868,-0.00301893,
 -0.00551680,-0.00138961,-0.00400281,0.00238911,-0.00104035,0.00171534,
 -0.00075290,0.12950186,-0.14646557,-0.00442132,-0.00006310,-0.00007642
 ,-0.00001444,0.00019081,0.00002317,0.00005153,0.00028053,-0.00006284,0
 .00000718,0.00045052,-0.00012052,-0.00024096,-0.00002871,-0.00017061,-
 0.00018161,-0.00029652,0.00064780,0.00078531,-0.00026039,0.00029840,0.
 00008031,0.00184148,-0.00041423,0.00000959,-0.14191193,0.15768693,-0.0
 0050882,-0.00024996,0.00014117,0.01008793,-0.01002899,-0.00158940,0.00
 159316,-0.00076277,0.00103829,-0.00096332,0.00016492,0.00180578,0.0143
 9585,-0.00962895,-0.00147822,-0.00054605,-0.00207589,-0.00236047,0.001
 87686,0.00116066,-0.00235082,0.00124200,-0.00078796,0.00059014,0.00290
 478,-0.00115571,-0.04994357,-0.00002796,0.00011140,0.00001200,-0.00005
 142,-0.00003487,-0.00006937,-0.00002082,0.00024337,0.00016960,-0.00002
 785,0.00037999,-0.00010814,-0.00014399,0.00020030,0.00015438,-0.000370
 02,0.00061103,0.00046252,-0.00001541,-0.00027089,0.00024308,0.00098991
 ,-0.00047780,0.00041290,-0.00773797,0.00458458,0.05091082,0.00121396,0
 .00065828,-0.00030981,0.00733038,-0.00448663,0.02272503,-0.00489480,-0
 .00191745,0.00370598,0.00122067,-0.00186661,-0.00269506,-0.00391880,0.
 00411067,-0.00593439,-0.00013546,0.00068039,0.00049120,0.00110611,-0.0
 0069589,0.00086242,-0.00004023,-0.00007360,-0.00011107,-0.06690572,0.0
 2182928,-0.06771042,-0.00008092,-0.00010669,-0.00045230,-0.00001425,0.
 00019874,-0.00017713,-0.00008053,-0.00008554,-0.00004457,-0.00009435,-
 0.00005866,0.00015134,0.00109257,0.00014808,0.00131374,-0.00008723,-0.
 00012029,0.00023322,0.00020061,0.00017251,0.00036394,-0.00008142,-0.00
 018008,0.00002568,-0.00563666,0.00540343,-0.02267686,0.06980607,0.0009
 8278,0.00032120,0.00017519,0.00486940,-0.00392461,0.01236376,-0.004864
 86,-0.00209635,0.00106120,0.00005699,-0.00069023,-0.00848813,-0.004751
 93,0.01079271,-0.01874182,-0.00013031,0.00001561,0.00085593,0.00057525
 ,0.00027967,-0.00020691,-0.00052567,0.00001401,-0.00001769,0.02319665,
 -0.06803465,0.06547126,-0.00031647,-0.00012506,-0.00034414,-0.00011812
 ,0.00009928,-0.00028578,-0.00003988,0.00000522,0.00002984,-0.00031317,
 0.00028124,-0.00063867,0.00078665,0.00058775,0.00105842,-0.00031671,0.
 00006359,0.00080222,0.00043740,-0.00053607,-0.00053357,-0.00032644,0.0
 0018665,0.00021094,0.00440838,-0.00439442,0.01801755,-0.02360995,0.067
 15446,-0.00008599,-0.00024526,0.00046112,-0.00390877,0.00080118,-0.011
 10375,0.00074423,-0.00167374,-0.00175351,0.00111563,-0.00062492,-0.004
 08183,-0.00269502,0.00893089,-0.01125254,-0.00041243,0.00067532,0.0004
 6515,-0.00087420,0.00154255,-0.00069699,0.00090988,-0.00032781,0.00012
 502,-0.06579149,0.06308091,-0.27150006,0.00038723,0.00048721,0.0002458
 1,0.00009385,-0.00001278,0.00014788,0.00001339,-0.00001742,0.00003189,
 -0.00013240,0.00020073,0.00002769,-0.00035982,0.00007331,-0.00049950,-
 0.00020901,-0.00051143,0.00012443,0.00033518,-0.00071950,0.00046023,-0
 .00008516,-0.00012375,0.00031658,0.00071587,-0.00074590,0.00195931,0.0
 7023906,-0.07078960,0.29652306\\0.00000497,0.00003344,0.00001826,-0.00
 001572,-0.00001866,-0.00008747,0.00003490,0.00002051,0.00002797,0.0000
 3484,0.00001185,0.00003100,-0.00003585,-0.00001884,-0.00004050,0.00000
 947,-0.00003090,0.00003975,0.00011315,0.00004675,0.00001653,-0.0000864
 7,-0.00000330,-0.00000551,-0.00001967,-0.00001542,0.00005511,0.0000007
 0,-0.00000782,-0.00000573,-0.00000366,-0.00000838,-0.00001673,-0.00000
 523,-0.00000764,0.00000450,-0.00001880,-0.00000040,-0.00000143,-0.0000
 0630,-0.00000325,-0.00001979,-0.00000796,-0.00000346,0.00000666,0.0000
 1074,0.00000239,-0.00000247,-0.00000504,0.00001194,-0.00001811,0.00000
 151,-0.00000493,0.00000265,-0.00000557,-0.00000388,-0.00000469\\\@


 A successful marriage requires falling in love
 many times, always with the same person.
                           -- Mignon McLaughlin
 Job cpu time:       0 days  0 hours 54 minutes 24.1 seconds.
 File lengths (MBytes):  RWF=    152 Int=      0 D2E=      0 Chk=      8 Scr=      1
 Normal termination of Gaussian 09 at Mon Jan 27 19:25:07 2020.
