 Entering Gaussian System, Link 0=/home/puck/opt/gaussian_09/g09
 Input=dsC7O2H10nsd_3822.com
 Output=dsC7O2H10nsd_3822.log
 Initial command:
 /home/puck/opt/gaussian_09/l1.exe "/scratch/puck/g09_e0cab0b5-fbff-4825-b176-aa9fede21a80/Gau-112302.inp" -scrdir="/scratch/puck/g09_e0cab0b5-fbff-4825-b176-aa9fede21a80/"
 Entering Link 1 = /home/puck/opt/gaussian_09/l1.exe PID=    112303.
  
 Copyright (c) 1988,1990,1992,1993,1995,1998,2003,2009,2013,
            Gaussian, Inc.  All Rights Reserved.
  
 This is part of the Gaussian(R) 09 program.  It is based on
 the Gaussian(R) 03 system (copyright 2003, Gaussian, Inc.),
 the Gaussian(R) 98 system (copyright 1998, Gaussian, Inc.),
 the Gaussian(R) 94 system (copyright 1995, Gaussian, Inc.),
 the Gaussian 92(TM) system (copyright 1992, Gaussian, Inc.),
 the Gaussian 90(TM) system (copyright 1990, Gaussian, Inc.),
 the Gaussian 88(TM) system (copyright 1988, Gaussian, Inc.),
 the Gaussian 86(TM) system (copyright 1986, Carnegie Mellon
 University), and the Gaussian 82(TM) system (copyright 1983,
 Carnegie Mellon University). Gaussian is a federally registered
 trademark of Gaussian, Inc.
  
 This software contains proprietary and confidential information,
 including trade secrets, belonging to Gaussian, Inc.
  
 This software is provided under written license and may be
 used, copied, transmitted, or stored only in accord with that
 written license.
  
 The following legend is applicable only to US Government
 contracts under FAR:
  
                    RESTRICTED RIGHTS LEGEND
  
 Use, reproduction and disclosure by the US Government is
 subject to restrictions as set forth in subparagraphs (a)
 and (c) of the Commercial Computer Software - Restricted
 Rights clause in FAR 52.227-19.
  
 Gaussian, Inc.
 340 Quinnipiac St., Bldg. 40, Wallingford CT 06492
  
  
 ---------------------------------------------------------------
 Warning -- This program may not be used in any manner that
 competes with the business of Gaussian, Inc. or will provide
 assistance to any competitor of Gaussian, Inc.  The licensee
 of this program is prohibited from giving any competitor of
 Gaussian, Inc. access to this program.  By using this program,
 the user acknowledges that Gaussian, Inc. is engaged in the
 business of creating and licensing software in the field of
 computational chemistry and represents and warrants to the
 licensee that it is not a competitor of Gaussian, Inc. and that
 it will not use this program in any manner prohibited above.
 ---------------------------------------------------------------
  

 Cite this work as:
 Gaussian 09, Revision D.01,
 M. J. Frisch, G. W. Trucks, H. B. Schlegel, G. E. Scuseria, 
 M. A. Robb, J. R. Cheeseman, G. Scalmani, V. Barone, B. Mennucci, 
 G. A. Petersson, H. Nakatsuji, M. Caricato, X. Li, H. P. Hratchian, 
 A. F. Izmaylov, J. Bloino, G. Zheng, J. L. Sonnenberg, M. Hada, 
 M. Ehara, K. Toyota, R. Fukuda, J. Hasegawa, M. Ishida, T. Nakajima, 
 Y. Honda, O. Kitao, H. Nakai, T. Vreven, J. A. Montgomery, Jr., 
 J. E. Peralta, F. Ogliaro, M. Bearpark, J. J. Heyd, E. Brothers, 
 K. N. Kudin, V. N. Staroverov, T. Keith, R. Kobayashi, J. Normand, 
 K. Raghavachari, A. Rendell, J. C. Burant, S. S. Iyengar, J. Tomasi, 
 M. Cossi, N. Rega, J. M. Millam, M. Klene, J. E. Knox, J. B. Cross, 
 V. Bakken, C. Adamo, J. Jaramillo, R. Gomperts, R. E. Stratmann, 
 O. Yazyev, A. J. Austin, R. Cammi, C. Pomelli, J. W. Ochterski, 
 R. L. Martin, K. Morokuma, V. G. Zakrzewski, G. A. Voth, 
 P. Salvador, J. J. Dannenberg, S. Dapprich, A. D. Daniels, 
 O. Farkas, J. B. Foresman, J. V. Ortiz, J. Cioslowski, 
 and D. J. Fox, Gaussian, Inc., Wallingford CT, 2013.
 
 ******************************************
 Gaussian 09:  ES64L-G09RevD.01 24-Apr-2013
                28-Jan-2020 
 ******************************************
 -----------------------------
 # b3lyp 6-31G(2df,p) opt Freq
 -----------------------------
 1/14=-1,18=20,19=15,26=3,38=1/1,3;
 2/9=110,12=2,17=6,18=5,40=1/2;
 3/5=1,6=6,7=104,11=2,16=1,25=1,30=1,71=1,74=-5/1,2,3;
 4//1;
 5/5=2,38=5/2;
 6/7=2,8=2,9=2,10=2,28=1/1;
 7//1,2,3,16;
 1/14=-1,18=20,19=15,26=3/3(2);
 2/9=110/2;
 99//99;
 2/9=110/2;
 3/5=1,6=6,7=104,11=2,16=1,25=1,30=1,71=1,74=-5/1,2,3;
 4/5=5,16=3,69=1/1;
 5/5=2,38=5/2;
 7//1,2,3,16;
 1/14=-1,18=20,19=15,26=3/3(-5);
 2/9=110/2;
 6/7=2,8=2,9=2,10=2,19=2,28=1/1;
 99/9=1/99;
 -----
 titel
 -----
 Symbolic Z-matrix:
 Charge =  0 Multiplicity = 1
 O                     0.60127   0.18948   0.54078 
 C                    -0.73721   0.56869   0.76441 
 C                    -1.32126   0.43164   2.2029 
 C                    -1.72318   1.91933   2.20496 
 O                    -3.05393   2.11905   2.57213 
 C                    -0.64677   2.84482   2.74409 
 C                    -0.66432   4.15865   2.00671 
 C                    -0.02975   2.97462   1.33914 
 C                    -1.09533   2.08089   0.72932 
 H                     1.14335   0.60921   1.217 
 H                    -1.32127   0.00378   0.03416 
 H                    -2.19159  -0.22559   2.25565 
 H                    -0.60877   0.13154   2.97785 
 H                    -3.21146   3.06779   2.62913 
 H                    -0.14853   2.73438   3.70191 
 H                    -1.5913    4.57313   1.61393 
 H                     0.02108   4.90807   2.38882 
 H                     1.02123   2.97315   1.07444 
 H                    -1.63621   2.45246  -0.14396 
 

 GradGradGradGradGradGradGradGradGradGradGradGradGradGradGradGradGradGrad
 Berny optimization.
 Initialization pass.
                           ----------------------------
                           !    Initial Parameters    !
                           ! (Angstroms and Degrees)  !
 --------------------------                            --------------------------
 ! Name  Definition              Value          Derivative Info.                !
 --------------------------------------------------------------------------------
 ! R1    R(1,2)                  1.409          estimate D2E/DX2                !
 ! R2    R(1,10)                 0.963          estimate D2E/DX2                !
 ! R3    R(2,3)                  1.5586         estimate D2E/DX2                !
 ! R4    R(2,9)                  1.5544         estimate D2E/DX2                !
 ! R5    R(2,11)                 1.0925         estimate D2E/DX2                !
 ! R6    R(3,4)                  1.541          estimate D2E/DX2                !
 ! R7    R(3,12)                 1.0919         estimate D2E/DX2                !
 ! R8    R(3,13)                 1.0946         estimate D2E/DX2                !
 ! R9    R(4,5)                  1.3948         estimate D2E/DX2                !
 ! R10   R(4,6)                  1.5185         estimate D2E/DX2                !
 ! R11   R(4,9)                  1.6118         estimate D2E/DX2                !
 ! R12   R(5,14)                 0.9634         estimate D2E/DX2                !
 ! R13   R(6,7)                  1.5067         estimate D2E/DX2                !
 ! R14   R(6,8)                  1.54           estimate D2E/DX2                !
 ! R15   R(6,15)                 1.0853         estimate D2E/DX2                !
 ! R16   R(7,8)                  1.5001         estimate D2E/DX2                !
 ! R17   R(7,16)                 1.0887         estimate D2E/DX2                !
 ! R18   R(7,17)                 1.0851         estimate D2E/DX2                !
 ! R19   R(8,9)                  1.5186         estimate D2E/DX2                !
 ! R20   R(8,18)                 1.0838         estimate D2E/DX2                !
 ! R21   R(9,19)                 1.0924         estimate D2E/DX2                !
 ! A1    A(2,1,10)             107.8183         estimate D2E/DX2                !
 ! A2    A(1,2,3)              118.6062         estimate D2E/DX2                !
 ! A3    A(1,2,9)              118.495          estimate D2E/DX2                !
 ! A4    A(1,2,11)             105.2245         estimate D2E/DX2                !
 ! A5    A(3,2,9)               91.1485         estimate D2E/DX2                !
 ! A6    A(3,2,11)             111.7855         estimate D2E/DX2                !
 ! A7    A(9,2,11)             111.3947         estimate D2E/DX2                !
 ! A8    A(2,3,4)               90.8071         estimate D2E/DX2                !
 ! A9    A(2,3,12)             113.341          estimate D2E/DX2                !
 ! A10   A(2,3,13)             115.6965         estimate D2E/DX2                !
 ! A11   A(4,3,12)             111.909          estimate D2E/DX2                !
 ! A12   A(4,3,13)             115.6888         estimate D2E/DX2                !
 ! A13   A(12,3,13)            108.6383         estimate D2E/DX2                !
 ! A14   A(3,4,5)              112.7936         estimate D2E/DX2                !
 ! A15   A(3,4,6)              113.827          estimate D2E/DX2                !
 ! A16   A(3,4,9)               89.6532         estimate D2E/DX2                !
 ! A17   A(5,4,6)              119.7067         estimate D2E/DX2                !
 ! A18   A(5,4,9)              126.7471         estimate D2E/DX2                !
 ! A19   A(6,4,9)               89.3027         estimate D2E/DX2                !
 ! A20   A(4,5,14)             108.2146         estimate D2E/DX2                !
 ! A21   A(4,6,7)              110.4531         estimate D2E/DX2                !
 ! A22   A(4,6,8)               90.6576         estimate D2E/DX2                !
 ! A23   A(4,6,15)             125.2215         estimate D2E/DX2                !
 ! A24   A(7,6,15)             121.7357         estimate D2E/DX2                !
 ! A25   A(8,6,15)             129.0367         estimate D2E/DX2                !
 ! A26   A(6,7,16)             121.2273         estimate D2E/DX2                !
 ! A27   A(6,7,17)             114.9954         estimate D2E/DX2                !
 ! A28   A(8,7,16)             120.007          estimate D2E/DX2                !
 ! A29   A(8,7,17)             115.7629         estimate D2E/DX2                !
 ! A30   A(16,7,17)            113.6981         estimate D2E/DX2                !
 ! A31   A(6,8,9)               92.041          estimate D2E/DX2                !
 ! A32   A(6,8,18)             127.6793         estimate D2E/DX2                !
 ! A33   A(7,8,9)              110.2679         estimate D2E/DX2                !
 ! A34   A(7,8,18)             121.3304         estimate D2E/DX2                !
 ! A35   A(9,8,18)             125.5608         estimate D2E/DX2                !
 ! A36   A(2,9,4)               88.3702         estimate D2E/DX2                !
 ! A37   A(2,9,8)              113.6921         estimate D2E/DX2                !
 ! A38   A(2,9,19)             117.5835         estimate D2E/DX2                !
 ! A39   A(4,9,8)               87.9756         estimate D2E/DX2                !
 ! A40   A(4,9,19)             124.9696         estimate D2E/DX2                !
 ! A41   A(8,9,19)             117.9232         estimate D2E/DX2                !
 ! D1    D(10,1,2,3)           -49.2707         estimate D2E/DX2                !
 ! D2    D(10,1,2,9)            59.5145         estimate D2E/DX2                !
 ! D3    D(10,1,2,11)         -175.1821         estimate D2E/DX2                !
 ! D4    D(1,2,3,4)            124.8031         estimate D2E/DX2                !
 ! D5    D(1,2,3,12)          -120.8343         estimate D2E/DX2                !
 ! D6    D(1,2,3,13)             5.6015         estimate D2E/DX2                !
 ! D7    D(9,2,3,4)              1.1296         estimate D2E/DX2                !
 ! D8    D(9,2,3,12)           115.4923         estimate D2E/DX2                !
 ! D9    D(9,2,3,13)          -118.0719         estimate D2E/DX2                !
 ! D10   D(11,2,3,4)          -112.5073         estimate D2E/DX2                !
 ! D11   D(11,2,3,12)            1.8553         estimate D2E/DX2                !
 ! D12   D(11,2,3,13)          128.2911         estimate D2E/DX2                !
 ! D13   D(1,2,9,4)           -124.8444         estimate D2E/DX2                !
 ! D14   D(1,2,9,8)            -37.7722         estimate D2E/DX2                !
 ! D15   D(1,2,9,19)           105.9549         estimate D2E/DX2                !
 ! D16   D(3,2,9,4)             -1.0804         estimate D2E/DX2                !
 ! D17   D(3,2,9,8)             85.9919         estimate D2E/DX2                !
 ! D18   D(3,2,9,19)          -130.2811         estimate D2E/DX2                !
 ! D19   D(11,2,9,4)           112.907          estimate D2E/DX2                !
 ! D20   D(11,2,9,8)          -160.0208         estimate D2E/DX2                !
 ! D21   D(11,2,9,19)          -16.2937         estimate D2E/DX2                !
 ! D22   D(2,3,4,5)            129.184          estimate D2E/DX2                !
 ! D23   D(2,3,4,6)            -90.1738         estimate D2E/DX2                !
 ! D24   D(2,3,4,9)             -1.0892         estimate D2E/DX2                !
 ! D25   D(12,3,4,5)            13.5416         estimate D2E/DX2                !
 ! D26   D(12,3,4,6)           154.1839         estimate D2E/DX2                !
 ! D27   D(12,3,4,9)          -116.7316         estimate D2E/DX2                !
 ! D28   D(13,3,4,5)          -111.6078         estimate D2E/DX2                !
 ! D29   D(13,3,4,6)            29.0344         estimate D2E/DX2                !
 ! D30   D(13,3,4,9)           118.119          estimate D2E/DX2                !
 ! D31   D(3,4,5,14)           174.948          estimate D2E/DX2                !
 ! D32   D(6,4,5,14)            36.8523         estimate D2E/DX2                !
 ! D33   D(9,4,5,14)           -77.2593         estimate D2E/DX2                !
 ! D34   D(3,4,6,7)            145.1079         estimate D2E/DX2                !
 ! D35   D(3,4,6,8)             88.184          estimate D2E/DX2                !
 ! D36   D(3,4,6,15)           -52.9954         estimate D2E/DX2                !
 ! D37   D(5,4,6,7)            -77.1989         estimate D2E/DX2                !
 ! D38   D(5,4,6,8)           -134.1228         estimate D2E/DX2                !
 ! D39   D(5,4,6,15)            84.6978         estimate D2E/DX2                !
 ! D40   D(9,4,6,7)             55.795          estimate D2E/DX2                !
 ! D41   D(9,4,6,8)             -1.1289         estimate D2E/DX2                !
 ! D42   D(9,4,6,15)          -142.3083         estimate D2E/DX2                !
 ! D43   D(3,4,9,2)              1.0925         estimate D2E/DX2                !
 ! D44   D(3,4,9,8)           -112.6885         estimate D2E/DX2                !
 ! D45   D(3,4,9,19)           124.1435         estimate D2E/DX2                !
 ! D46   D(5,4,9,2)           -117.5263         estimate D2E/DX2                !
 ! D47   D(5,4,9,8)            128.6928         estimate D2E/DX2                !
 ! D48   D(5,4,9,19)             5.5248         estimate D2E/DX2                !
 ! D49   D(6,4,9,2)            114.9264         estimate D2E/DX2                !
 ! D50   D(6,4,9,8)              1.1454         estimate D2E/DX2                !
 ! D51   D(6,4,9,19)          -122.0226         estimate D2E/DX2                !
 ! D52   D(4,6,7,16)            31.824          estimate D2E/DX2                !
 ! D53   D(4,6,7,17)           175.0723         estimate D2E/DX2                !
 ! D54   D(15,6,7,16)         -130.8102         estimate D2E/DX2                !
 ! D55   D(15,6,7,17)           12.438          estimate D2E/DX2                !
 ! D56   D(4,6,8,9)              1.1989         estimate D2E/DX2                !
 ! D57   D(4,6,8,18)          -138.5134         estimate D2E/DX2                !
 ! D58   D(15,6,8,9)           139.9511         estimate D2E/DX2                !
 ! D59   D(15,6,8,18)            0.2389         estimate D2E/DX2                !
 ! D60   D(16,7,8,9)           -31.6533         estimate D2E/DX2                !
 ! D61   D(16,7,8,18)          130.2575         estimate D2E/DX2                !
 ! D62   D(17,7,8,9)          -174.2211         estimate D2E/DX2                !
 ! D63   D(17,7,8,18)          -12.3103         estimate D2E/DX2                !
 ! D64   D(6,8,9,2)            -88.4598         estimate D2E/DX2                !
 ! D65   D(6,8,9,4)             -1.1301         estimate D2E/DX2                !
 ! D66   D(6,8,9,19)           127.9446         estimate D2E/DX2                !
 ! D67   D(7,8,9,2)           -146.4709         estimate D2E/DX2                !
 ! D68   D(7,8,9,4)            -59.1413         estimate D2E/DX2                !
 ! D69   D(7,8,9,19)            69.9335         estimate D2E/DX2                !
 ! D70   D(18,8,9,2)            52.5567         estimate D2E/DX2                !
 ! D71   D(18,8,9,4)           139.8864         estimate D2E/DX2                !
 ! D72   D(18,8,9,19)          -91.0388         estimate D2E/DX2                !
 --------------------------------------------------------------------------------
 Trust Radius=3.00D-01 FncErr=1.00D-07 GrdErr=1.00D-06
 Number of steps in this run=    114 maximum allowed number of steps=    114.
 GradGradGradGradGradGradGradGradGradGradGradGradGradGradGradGradGradGrad

                          Input orientation:                          
 ---------------------------------------------------------------------
 Center     Atomic      Atomic             Coordinates (Angstroms)
 Number     Number       Type             X           Y           Z
 ---------------------------------------------------------------------
      1          8           0        0.601268    0.189483    0.540784
      2          6           0       -0.737214    0.568686    0.764407
      3          6           0       -1.321257    0.431644    2.202902
      4          6           0       -1.723177    1.919328    2.204964
      5          8           0       -3.053928    2.119053    2.572134
      6          6           0       -0.646765    2.844823    2.744094
      7          6           0       -0.664319    4.158652    2.006713
      8          6           0       -0.029751    2.974623    1.339136
      9          6           0       -1.095327    2.080892    0.729317
     10          1           0        1.143352    0.609210    1.217002
     11          1           0       -1.321266    0.003777    0.034159
     12          1           0       -2.191591   -0.225590    2.255646
     13          1           0       -0.608772    0.131537    2.977851
     14          1           0       -3.211455    3.067790    2.629135
     15          1           0       -0.148530    2.734378    3.701915
     16          1           0       -1.591305    4.573132    1.613931
     17          1           0        0.021081    4.908073    2.388817
     18          1           0        1.021226    2.973148    1.074441
     19          1           0       -1.636207    2.452463   -0.143961
 ---------------------------------------------------------------------
                    Distance matrix (angstroms):
                    1          2          3          4          5
     1  O    0.000000
     2  C    1.409020   0.000000
     3  C    2.552917   1.558575   0.000000
     4  C    3.341393   2.207162   1.541021   0.000000
     5  O    4.605440   3.322450   2.446595   1.394848   0.000000
     6  C    3.669195   3.017969   2.563447   1.518507   2.520068
     7  C    4.416442   3.799539   3.789545   2.484967   3.192162
     8  C    2.965224   2.572810   2.980071   2.175086   3.376082
     9  C    2.547824   1.554427   2.223177   1.611780   2.689525
    10  H    0.962962   1.934687   2.660419   3.302949   4.661885
    11  H    1.996821   1.092475   2.210546   2.922886   3.730660
    12  H    3.303498   2.229323   1.091888   2.196054   2.518162
    13  H    2.721553   2.259852   1.094644   2.243981   3.177045
    14  H    5.213705   3.980528   3.271665   1.927137   0.963414
    15  H    4.126916   3.696718   2.987459   2.320492   3.177478
    16  H    5.017509   4.181716   4.191865   2.722019   3.013292
    17  H    5.100680   4.695104   4.677056   3.465377   4.155469
    18  H    2.865300   2.994941   3.635917   3.149662   4.424867
    19  H    3.255188   2.276387   3.112984   2.410238   3.081926
                    6          7          8          9         10
     6  C    0.000000
     7  C    1.506714   0.000000
     8  C    1.539955   1.500087   0.000000
     9  C    2.200937   2.476812   1.518581   0.000000
    10  H    3.245689   4.060771   2.643154   2.723118   0.000000
    11  H    3.983747   4.646024   3.492406   2.201976   2.800002
    12  H    3.471672   4.649313   3.969245   2.975119   3.591312
    13  H    2.723602   4.142928   3.332235   3.015398   2.529565
    14  H    2.576929   2.839946   3.434534   3.010195   5.196450
    15  H    1.085292   2.273391   2.377930   3.187446   3.515692
    16  H    2.270787   1.088749   2.251488   2.690688   4.832037
    17  H    2.197554   1.085084   2.200601   3.463129   4.594874
    18  H    2.363558   2.261773   1.083798   2.322721   2.371379
    19  H    3.077954   2.912224   2.247873   1.092351   3.602188
                   11         12         13         14         15
    11  H    0.000000
    12  H    2.396889   0.000000
    13  H    3.031384   1.776074   0.000000
    14  H    4.437893   3.467848   3.939181   0.000000
    15  H    4.720585   3.876494   2.740597   3.262443   0.000000
    16  H    4.842273   4.878512   4.749044   2.433430   3.134054
    17  H    5.603430   5.591793   4.853759   3.727424   2.545181
    18  H    3.922578   4.685015   3.788748   4.510169   2.885994
    19  H    2.475274   3.638480   4.023435   3.248091   4.133210
                   16         17         18         19
    16  H    0.000000
    17  H    1.820006   0.000000
    18  H    3.110678   2.543975   0.000000
    19  H    2.754894   3.897639   2.969439   0.000000
 Stoichiometry    C7H10O2
 Framework group  C1[X(C7H10O2)]
 Deg. of freedom    51
 Full point group                 C1      NOp   1
 Largest Abelian subgroup         C1      NOp   1
 Largest concise Abelian subgroup C1      NOp   1
                         Standard orientation:                         
 ---------------------------------------------------------------------
 Center     Atomic      Atomic             Coordinates (Angstroms)
 Number     Number       Type             X           Y           Z
 ---------------------------------------------------------------------
      1          8           0       -2.486589   -0.709489    0.115394
      2          6           0       -1.573387    0.235223   -0.393446
      3          6           0       -0.868700    1.204021    0.603551
      4          6           0        0.515107    0.758233    0.092574
      5          8           0        1.336466    1.832348   -0.249839
      6          6           0        1.097074   -0.422859    0.849013
      7          6           0        1.884675   -1.307900   -0.081886
      8          6           0        0.387832   -1.404359   -0.102352
      9          6           0       -0.201293   -0.269477   -0.921535
     10          1           0       -2.063903   -1.159538    0.854373
     11          1           0       -2.122723    0.777854   -1.166287
     12          1           0       -1.061105    2.257774    0.391879
     13          1           0       -1.065086    1.018755    1.664378
     14          1           0        2.204674    1.485412   -0.482259
     15          1           0        1.214597   -0.479661    1.926427
     16          1           0        2.415484   -0.895571   -0.938391
     17          1           0        2.403818   -2.131124    0.397908
     18          1           0       -0.121076   -2.325871    0.155425
     19          1           0       -0.051549   -0.288185   -2.003412
 ---------------------------------------------------------------------
 Rotational constants (GHZ):      2.5827877      1.6892946      1.2224744
 Standard basis: 6-31G(2df,p) (6D, 7F)
 There are   329 symmetry adapted cartesian basis functions of A   symmetry.
 There are   302 symmetry adapted basis functions of A   symmetry.
   302 basis functions,   466 primitive gaussians,   329 cartesian basis functions
    34 alpha electrons       34 beta electrons
       nuclear repulsion energy       475.2065966296 Hartrees.
 NAtoms=   19 NActive=   19 NUniq=   19 SFac= 1.00D+00 NAtFMM=   60 NAOKFM=F Big=F
 Integral buffers will be    131072 words long.
 Raffenetti 2 integral format.
 Two-electron integral symmetry is turned on.
 One-electron integrals computed using PRISM.
 NBasis=   302 RedAO= T EigKep=  2.76D-04  NBF=   302
 NBsUse=   302 1.00D-06 EigRej= -1.00D+00 NBFU=   302
 ExpMin= 1.61D-01 ExpMax= 5.48D+03 ExpMxC= 8.25D+02 IAcc=1 IRadAn=         1 AccDes= 0.00D+00
 Harris functional with IExCor=  402 and IRadAn=       1 diagonalized for initial guess.
 HarFok:  IExCor=  402 AccDes= 0.00D+00 IRadAn=         1 IDoV= 1 UseB2=F ITyADJ=14
 ICtDFT=  3500011 ScaDFX=  1.000000  1.000000  1.000000  1.000000
 FoFCou: FMM=F IPFlag=           0 FMFlag=      100000 FMFlg1=           0
         NFxFlg=           0 DoJE=T BraDBF=F KetDBF=T FulRan=T
         wScrn=  0.000000 ICntrl=     500 IOpCl=  0 I1Cent=   200000004 NGrid=           0
         NMat0=    1 NMatS0=      1 NMatT0=    0 NMatD0=    1 NMtDS0=    0 NMtDT0=    0
 Petite list used in FoFCou.
 Requested convergence on RMS density matrix=1.00D-08 within 128 cycles.
 Requested convergence on MAX density matrix=1.00D-06.
 Requested convergence on             energy=1.00D-06.
 No special actions if energy rises.
 Integral accuracy reduced to 1.0D-05 until final iterations.
 Initial convergence to 1.0D-05 achieved.  Increase integral accuracy.
 SCF Done:  E(RB3LYP) =  -423.139778693     A.U. after   12 cycles
            NFock= 12  Conv=0.82D-08     -V/T= 2.0074

 **********************************************************************

            Population analysis using the SCF density.

 **********************************************************************

 Orbital symmetries:
       Occupied  (A) (A) (A) (A) (A) (A) (A) (A) (A) (A) (A) (A)
                 (A) (A) (A) (A) (A) (A) (A) (A) (A) (A) (A) (A)
                 (A) (A) (A) (A) (A) (A) (A) (A) (A) (A)
       Virtual   (A) (A) (A) (A) (A) (A) (A) (A) (A) (A) (A) (A)
                 (A) (A) (A) (A) (A) (A) (A) (A) (A) (A) (A) (A)
                 (A) (A) (A) (A) (A) (A) (A) (A) (A) (A) (A) (A)
                 (A) (A) (A) (A) (A) (A) (A) (A) (A) (A) (A) (A)
                 (A) (A) (A) (A) (A) (A) (A) (A) (A) (A) (A) (A)
                 (A) (A) (A) (A) (A) (A) (A) (A) (A) (A) (A) (A)
                 (A) (A) (A) (A) (A) (A) (A) (A) (A) (A) (A) (A)
                 (A) (A) (A) (A) (A) (A) (A) (A) (A) (A) (A) (A)
                 (A) (A) (A) (A) (A) (A) (A) (A) (A) (A) (A) (A)
                 (A) (A) (A) (A) (A) (A) (A) (A) (A) (A) (A) (A)
                 (A) (A) (A) (A) (A) (A) (A) (A) (A) (A) (A) (A)
                 (A) (A) (A) (A) (A) (A) (A) (A) (A) (A) (A) (A)
                 (A) (A) (A) (A) (A) (A) (A) (A) (A) (A) (A) (A)
                 (A) (A) (A) (A) (A) (A) (A) (A) (A) (A) (A) (A)
                 (A) (A) (A) (A) (A) (A) (A) (A) (A) (A) (A) (A)
                 (A) (A) (A) (A) (A) (A) (A) (A) (A) (A) (A) (A)
                 (A) (A) (A) (A) (A) (A) (A) (A) (A) (A) (A) (A)
                 (A) (A) (A) (A) (A) (A) (A) (A) (A) (A) (A) (A)
                 (A) (A) (A) (A) (A) (A) (A) (A) (A) (A) (A) (A)
                 (A) (A) (A) (A) (A) (A) (A) (A) (A) (A) (A) (A)
                 (A) (A) (A) (A) (A) (A) (A) (A) (A) (A) (A) (A)
                 (A) (A) (A) (A) (A) (A) (A) (A) (A) (A) (A) (A)
                 (A) (A) (A) (A)
 The electronic state is 1-A.
 Alpha  occ. eigenvalues --  -19.14210 -19.13402 -10.24063 -10.22851 -10.20108
 Alpha  occ. eigenvalues --  -10.19751 -10.19698 -10.18079 -10.17527  -1.02907
 Alpha  occ. eigenvalues --   -1.01650  -0.90222  -0.79880  -0.67893  -0.65738
 Alpha  occ. eigenvalues --   -0.60226  -0.58810  -0.54879  -0.51937  -0.49729
 Alpha  occ. eigenvalues --   -0.48524  -0.44059  -0.42473  -0.41112  -0.39313
 Alpha  occ. eigenvalues --   -0.38458  -0.37316  -0.35523  -0.33110  -0.32071
 Alpha  occ. eigenvalues --   -0.28039  -0.27874  -0.25375  -0.24489
 Alpha virt. eigenvalues --    0.07188   0.07883   0.09757   0.10529   0.11437
 Alpha virt. eigenvalues --    0.11982   0.13331   0.15585   0.16600   0.17527
 Alpha virt. eigenvalues --    0.18148   0.18762   0.20917   0.22078   0.22796
 Alpha virt. eigenvalues --    0.24393   0.26657   0.27968   0.28548   0.36077
 Alpha virt. eigenvalues --    0.36961   0.42367   0.44600   0.45225   0.46276
 Alpha virt. eigenvalues --    0.47593   0.50055   0.51769   0.53196   0.54172
 Alpha virt. eigenvalues --    0.54680   0.56404   0.56496   0.58489   0.59891
 Alpha virt. eigenvalues --    0.61485   0.62819   0.63543   0.66941   0.68347
 Alpha virt. eigenvalues --    0.69607   0.70765   0.71323   0.74777   0.75605
 Alpha virt. eigenvalues --    0.75989   0.76968   0.78204   0.79230   0.81041
 Alpha virt. eigenvalues --    0.83147   0.84509   0.88076   0.89336   0.90109
 Alpha virt. eigenvalues --    0.92584   0.94773   0.95782   0.98771   0.99973
 Alpha virt. eigenvalues --    1.01255   1.04515   1.06920   1.08106   1.10013
 Alpha virt. eigenvalues --    1.12608   1.13787   1.16354   1.18492   1.21513
 Alpha virt. eigenvalues --    1.24679   1.26105   1.28381   1.29097   1.32808
 Alpha virt. eigenvalues --    1.35771   1.39172   1.40107   1.42938   1.44396
 Alpha virt. eigenvalues --    1.44930   1.46473   1.48264   1.49575   1.50076
 Alpha virt. eigenvalues --    1.52002   1.53888   1.57176   1.61160   1.61700
 Alpha virt. eigenvalues --    1.62761   1.65358   1.66450   1.69632   1.70930
 Alpha virt. eigenvalues --    1.72397   1.74173   1.77075   1.77991   1.80848
 Alpha virt. eigenvalues --    1.84028   1.87912   1.88747   1.89083   1.93147
 Alpha virt. eigenvalues --    1.97916   2.03112   2.07151   2.11087   2.15460
 Alpha virt. eigenvalues --    2.21466   2.22586   2.24513   2.29633   2.30554
 Alpha virt. eigenvalues --    2.34825   2.35776   2.37239   2.43586   2.46202
 Alpha virt. eigenvalues --    2.47483   2.52825   2.53084   2.54378   2.59865
 Alpha virt. eigenvalues --    2.62800   2.65527   2.68686   2.70024   2.72599
 Alpha virt. eigenvalues --    2.76028   2.81049   2.82322   2.83918   2.85716
 Alpha virt. eigenvalues --    2.86405   2.88257   2.90412   2.92762   2.92869
 Alpha virt. eigenvalues --    2.95572   2.97734   2.99409   3.00607   3.04446
 Alpha virt. eigenvalues --    3.06208   3.09176   3.09660   3.10727   3.13666
 Alpha virt. eigenvalues --    3.17908   3.18605   3.19469   3.22557   3.24206
 Alpha virt. eigenvalues --    3.25979   3.30883   3.34417   3.35097   3.35867
 Alpha virt. eigenvalues --    3.38929   3.41361   3.42818   3.44050   3.47647
 Alpha virt. eigenvalues --    3.50945   3.51703   3.53999   3.64695   3.66147
 Alpha virt. eigenvalues --    3.69080   3.74268   3.76021   3.78860   3.82813
 Alpha virt. eigenvalues --    3.88489   3.92119   3.98788   3.99709   4.05620
 Alpha virt. eigenvalues --    4.07675   4.13215   4.15996   4.17594   4.19029
 Alpha virt. eigenvalues --    4.20147   4.21850   4.23610   4.26881   4.28976
 Alpha virt. eigenvalues --    4.32017   4.32468   4.37584   4.39409   4.40694
 Alpha virt. eigenvalues --    4.41706   4.45724   4.49921   4.52817   4.54959
 Alpha virt. eigenvalues --    4.58333   4.58499   4.60942   4.64358   4.65410
 Alpha virt. eigenvalues --    4.67540   4.69220   4.71034   4.72582   4.72976
 Alpha virt. eigenvalues --    4.74878   4.75517   4.76266   4.79213   4.80663
 Alpha virt. eigenvalues --    4.82090   4.83173   4.86112   4.88637   4.90126
 Alpha virt. eigenvalues --    4.91243   4.96203   4.98252   5.01724   5.04724
 Alpha virt. eigenvalues --    5.05324   5.09983   5.13605   5.17305   5.22835
 Alpha virt. eigenvalues --    5.23888   5.29664   5.33678   5.35064   5.38608
 Alpha virt. eigenvalues --    5.40673   5.43911   5.45666   5.49601   5.51442
 Alpha virt. eigenvalues --    5.51953   5.54857   5.61647   5.65734   5.68930
 Alpha virt. eigenvalues --    5.71929   5.80434   5.82268   5.88720   5.95017
 Alpha virt. eigenvalues --    5.98215   6.06981   6.11062   6.11245   6.21607
 Alpha virt. eigenvalues --    6.52976   7.11430   7.19586   7.67723  10.73160
 Alpha virt. eigenvalues --   11.37456  11.95757  12.00212  12.18673  12.69666
 Alpha virt. eigenvalues --   13.19584  13.41894  13.53581
          Condensed to atoms (all electrons):
               1          2          3          4          5          6
     1  O    7.815318   0.401303  -0.030790  -0.000074  -0.000008   0.000047
     2  C    0.401303   4.600444   0.337397  -0.051185   0.000676  -0.003633
     3  C   -0.030790   0.337397   5.234029   0.346969  -0.016594  -0.028042
     4  C   -0.000074  -0.051185   0.346969   4.399120   0.421283   0.327273
     5  O   -0.000008   0.000676  -0.016594   0.421283   7.842215  -0.048598
     6  C    0.000047  -0.003633  -0.028042   0.327273  -0.048598   5.096266
     7  C    0.000466   0.002463   0.004941   0.011946  -0.001179   0.307947
     8  C    0.001627  -0.006765   0.003825  -0.012219  -0.000835   0.252679
     9  C   -0.051067   0.354813  -0.165570   0.294130  -0.038135  -0.066145
    10  H    0.314479  -0.074519  -0.001357  -0.000896   0.000006   0.001335
    11  H   -0.024068   0.359169  -0.040760   0.004914   0.000006  -0.000703
    12  H    0.002413  -0.009188   0.325891  -0.007076  -0.001081   0.004801
    13  H   -0.002979  -0.016427   0.339031  -0.017171   0.001134  -0.012960
    14  H    0.000002  -0.000537   0.008866  -0.073747   0.319364  -0.008838
    15  H    0.000044   0.000863  -0.007455  -0.035008   0.001196   0.367651
    16  H    0.000000   0.000017   0.000437  -0.006082   0.001221  -0.025848
    17  H    0.000001  -0.000089  -0.000140   0.001614   0.000099  -0.011801
    18  H    0.003808  -0.003773   0.000157   0.005532  -0.000174  -0.032563
    19  H    0.001832  -0.038054   0.013394  -0.030175  -0.000087   0.008191
               7          8          9         10         11         12
     1  O    0.000466   0.001627  -0.051067   0.314479  -0.024068   0.002413
     2  C    0.002463  -0.006765   0.354813  -0.074519   0.359169  -0.009188
     3  C    0.004941   0.003825  -0.165570  -0.001357  -0.040760   0.325891
     4  C    0.011946  -0.012219   0.294130  -0.000896   0.004914  -0.007076
     5  O   -0.001179  -0.000835  -0.038135   0.000006   0.000006  -0.001081
     6  C    0.307947   0.252679  -0.066145   0.001335  -0.000703   0.004801
     7  C    5.020632   0.322594  -0.020597  -0.000241  -0.000095  -0.000190
     8  C    0.322594   4.872455   0.337949   0.008802   0.004061  -0.000173
     9  C   -0.020597   0.337949   5.239023  -0.005699  -0.042260   0.006493
    10  H   -0.000241   0.008802  -0.005699   0.466515   0.007788  -0.000199
    11  H   -0.000095   0.004061  -0.042260   0.007788   0.649807  -0.009661
    12  H   -0.000190  -0.000173   0.006493  -0.000199  -0.009661   0.608057
    13  H    0.000127  -0.000350   0.006716   0.003266   0.004137  -0.035544
    14  H    0.006128  -0.000019   0.000042   0.000001   0.000040  -0.000426
    15  H   -0.039887  -0.032019   0.011567  -0.000088   0.000016  -0.000013
    16  H    0.372135  -0.020301  -0.007143   0.000012   0.000000   0.000000
    17  H    0.371954  -0.018974   0.002742   0.000006   0.000002   0.000002
    18  H   -0.036243   0.374069  -0.043193   0.001137   0.000037   0.000002
    19  H   -0.002746  -0.045571   0.348360   0.000093  -0.006950  -0.000256
              13         14         15         16         17         18
     1  O   -0.002979   0.000002   0.000044   0.000000   0.000001   0.003808
     2  C   -0.016427  -0.000537   0.000863   0.000017  -0.000089  -0.003773
     3  C    0.339031   0.008866  -0.007455   0.000437  -0.000140   0.000157
     4  C   -0.017171  -0.073747  -0.035008  -0.006082   0.001614   0.005532
     5  O    0.001134   0.319364   0.001196   0.001221   0.000099  -0.000174
     6  C   -0.012960  -0.008838   0.367651  -0.025848  -0.011801  -0.032563
     7  C    0.000127   0.006128  -0.039887   0.372135   0.371954  -0.036243
     8  C   -0.000350  -0.000019  -0.032019  -0.020301  -0.018974   0.374069
     9  C    0.006716   0.000042   0.011567  -0.007143   0.002742  -0.043193
    10  H    0.003266   0.000001  -0.000088   0.000012   0.000006   0.001137
    11  H    0.004137   0.000040   0.000016   0.000000   0.000002   0.000037
    12  H   -0.035544  -0.000426  -0.000013   0.000000   0.000002   0.000002
    13  H    0.635209  -0.000161   0.004449   0.000003  -0.000008   0.000188
    14  H   -0.000161   0.467417  -0.000110   0.003000  -0.000187   0.000020
    15  H    0.004449  -0.000110   0.647448   0.001703  -0.003079  -0.002253
    16  H    0.000003   0.003000   0.001703   0.612751  -0.039456   0.001662
    17  H   -0.000008  -0.000187  -0.003079  -0.039456   0.583377  -0.003534
    18  H    0.000188   0.000020  -0.002253   0.001662  -0.003534   0.644248
    19  H   -0.000518   0.000113  -0.000470   0.003712   0.000028   0.001339
              19
     1  O    0.001832
     2  C   -0.038054
     3  C    0.013394
     4  C   -0.030175
     5  O   -0.000087
     6  C    0.008191
     7  C   -0.002746
     8  C   -0.045571
     9  C    0.348360
    10  H    0.000093
    11  H   -0.006950
    12  H   -0.000256
    13  H   -0.000518
    14  H    0.000113
    15  H   -0.000470
    16  H    0.003712
    17  H    0.000028
    18  H    0.001339
    19  H    0.684191
 Mulliken charges:
               1
     1  O   -0.432355
     2  C    0.147025
     3  C   -0.324227
     4  C    0.420852
     5  O   -0.480509
     6  C   -0.127060
     7  C   -0.320154
     8  C   -0.040836
     9  C   -0.162026
    10  H    0.279560
    11  H    0.094520
    12  H    0.116148
    13  H    0.091858
    14  H    0.279032
    15  H    0.085443
    16  H    0.102176
    17  H    0.117442
    18  H    0.089534
    19  H    0.063576
 Sum of Mulliken charges =   0.00000
 Mulliken charges with hydrogens summed into heavy atoms:
               1
     1  O   -0.152795
     2  C    0.241545
     3  C   -0.116220
     4  C    0.420852
     5  O   -0.201477
     6  C   -0.041617
     7  C   -0.100536
     8  C    0.048698
     9  C   -0.098450
 Electronic spatial extent (au):  <R**2>=           1045.1900
 Charge=              0.0000 electrons
 Dipole moment (field-independent basis, Debye):
    X=              1.9233    Y=             -1.1547    Z=              0.6618  Tot=              2.3389
 Quadrupole moment (field-independent basis, Debye-Ang):
   XX=            -55.5068   YY=            -55.1807   ZZ=            -50.8215
   XY=             -2.6595   XZ=             -1.7769   YZ=             -2.4753
 Traceless Quadrupole moment (field-independent basis, Debye-Ang):
   XX=             -1.6705   YY=             -1.3444   ZZ=              3.0148
   XY=             -2.6595   XZ=             -1.7769   YZ=             -2.4753
 Octapole moment (field-independent basis, Debye-Ang**2):
  XXX=             28.6995  YYY=             -7.5073  ZZZ=              1.6305  XYY=             -6.2100
  XXY=              8.7078  XXZ=             -2.7606  XZZ=             -3.5591  YZZ=              0.4665
  YYZ=              4.4501  XYZ=              1.4261
 Hexadecapole moment (field-independent basis, Debye-Ang**3):
 XXXX=           -718.6602 YYYY=           -457.6396 ZZZZ=           -170.3251 XXXY=             15.4833
 XXXZ=            -15.6445 YYYX=              6.3370 YYYZ=            -10.7979 ZZZX=             -4.2328
 ZZZY=             -5.8195 XXYY=           -180.2697 XXZZ=           -134.0796 YYZZ=           -105.8420
 XXYZ=            -16.1438 YYXZ=             -3.1656 ZZXY=              8.6029
 N-N= 4.752065966296D+02 E-N=-1.937411333580D+03  KE= 4.200446655082D+02
 Calling FoFJK, ICntrl=      2127 FMM=F ISym2X=0 I1Cent= 0 IOpClX= 0 NMat=1 NMatS=1 NMatT=0.
 ***** Axes restored to original set *****
 -------------------------------------------------------------------
 Center     Atomic                   Forces (Hartrees/Bohr)
 Number     Number              X              Y              Z
 -------------------------------------------------------------------
      1        8          -0.000039148    0.000005122    0.000005811
      2        6           0.000014586   -0.000010075   -0.000022680
      3        6           0.000004562    0.000028727    0.000022199
      4        6           0.000003081   -0.000032928    0.000023310
      5        8           0.000013099    0.000001821    0.000019295
      6        6          -0.000007822   -0.000007705    0.000013599
      7        6          -0.000011597    0.000020453   -0.000008391
      8        6           0.000017668   -0.000013952   -0.000012666
      9        6           0.000001812    0.000023506   -0.000017161
     10        1           0.000004069   -0.000005528   -0.000001677
     11        1          -0.000009997   -0.000007324    0.000002715
     12        1          -0.000011790    0.000005501   -0.000004206
     13        1          -0.000014071   -0.000006176    0.000001759
     14        1           0.000000448    0.000012711   -0.000011419
     15        1           0.000008259    0.000004659   -0.000008946
     16        1           0.000012224    0.000000921   -0.000000509
     17        1           0.000017121   -0.000008855   -0.000003448
     18        1          -0.000001235   -0.000003642   -0.000003123
     19        1          -0.000001269   -0.000007237    0.000005539
 -------------------------------------------------------------------
 Cartesian Forces:  Max     0.000039148 RMS     0.000013333

 GradGradGradGradGradGradGradGradGradGradGradGradGradGradGradGradGradGrad
 Berny optimization.
 FormGI is forming the generalized inverse of G from B-inverse, IUseBI=4.
 Internal  Forces:  Max     0.000025439 RMS     0.000004791
 Search for a local minimum.
 Step number   1 out of a maximum of  114
 All quantities printed in internal units (Hartrees-Bohrs-Radians)
 Mixed Optimization -- En-DIIS/RFO-DIIS
 Second derivative matrix not updated -- first step.
 ITU=  0
     Eigenvalues ---    0.00398   0.01337   0.01572   0.01760   0.01795
     Eigenvalues ---    0.01966   0.02496   0.03058   0.03248   0.03346
     Eigenvalues ---    0.03680   0.04206   0.04439   0.04986   0.05233
     Eigenvalues ---    0.05402   0.05555   0.06220   0.06697   0.07012
     Eigenvalues ---    0.07353   0.09914   0.10220   0.10977   0.11248
     Eigenvalues ---    0.11469   0.15445   0.15480   0.15925   0.16000
     Eigenvalues ---    0.16000   0.20106   0.21268   0.24932   0.25500
     Eigenvalues ---    0.26873   0.27922   0.30484   0.30561   0.34281
     Eigenvalues ---    0.34528   0.34542   0.34595   0.34958   0.35362
     Eigenvalues ---    0.35387   0.35539   0.44158   0.46485   0.54745
     Eigenvalues ---    0.54841
 RFO step:  Lambda=-3.91551060D-08 EMin= 3.97571289D-03
 Linear search not attempted -- first point.
 Iteration  1 RMS(Cart)=  0.00013031 RMS(Int)=  0.00000002
 Iteration  2 RMS(Cart)=  0.00000002 RMS(Int)=  0.00000000
 Variable       Old X    -DE/DX   Delta X   Delta X   Delta X     New X
                                 (Linear)    (Quad)   (Total)
    R1        2.66266  -0.00003   0.00000  -0.00006  -0.00006   2.66260
    R2        1.81974   0.00001   0.00000   0.00001   0.00001   1.81975
    R3        2.94528   0.00001   0.00000   0.00005   0.00005   2.94533
    R4        2.93744   0.00000   0.00000   0.00000   0.00000   2.93744
    R5        2.06448   0.00000   0.00000   0.00001   0.00001   2.06449
    R6        2.91211  -0.00002   0.00000  -0.00007  -0.00007   2.91204
    R7        2.06337   0.00000   0.00000   0.00001   0.00001   2.06338
    R8        2.06858  -0.00001   0.00000  -0.00001  -0.00001   2.06856
    R9        2.63588  -0.00001   0.00000  -0.00001  -0.00001   2.63587
   R10        2.86956   0.00000   0.00000   0.00000   0.00000   2.86957
   R11        3.04582   0.00001   0.00000   0.00007   0.00007   3.04590
   R12        1.82059   0.00000   0.00000   0.00001   0.00001   1.82060
   R13        2.84728   0.00001   0.00000   0.00003   0.00003   2.84731
   R14        2.91009   0.00001   0.00000   0.00003   0.00003   2.91012
   R15        2.05090  -0.00001   0.00000  -0.00002  -0.00002   2.05089
   R16        2.83475   0.00001   0.00000   0.00002   0.00002   2.83477
   R17        2.05744   0.00000   0.00000  -0.00001  -0.00001   2.05742
   R18        2.05051   0.00000   0.00000   0.00000   0.00000   2.05051
   R19        2.86970   0.00000   0.00000  -0.00001  -0.00001   2.86969
   R20        2.04808   0.00000   0.00000  -0.00001  -0.00001   2.04807
   R21        2.06424  -0.00001   0.00000  -0.00002  -0.00002   2.06422
    A1        1.88178   0.00001   0.00000   0.00008   0.00008   1.88186
    A2        2.07007   0.00000   0.00000   0.00001   0.00001   2.07008
    A3        2.06813   0.00000   0.00000  -0.00002  -0.00002   2.06811
    A4        1.83651   0.00000   0.00000   0.00000   0.00000   1.83651
    A5        1.59084   0.00000   0.00000  -0.00001  -0.00001   1.59083
    A6        1.95103   0.00000   0.00000  -0.00003  -0.00003   1.95100
    A7        1.94420   0.00000   0.00000   0.00005   0.00005   1.94426
    A8        1.58488   0.00000   0.00000   0.00002   0.00002   1.58490
    A9        1.97817   0.00000   0.00000  -0.00012  -0.00012   1.97805
   A10        2.01928   0.00000   0.00000   0.00010   0.00010   2.01939
   A11        1.95318   0.00000   0.00000  -0.00008  -0.00008   1.95311
   A12        2.01915   0.00000   0.00000   0.00008   0.00008   2.01923
   A13        1.89610   0.00000   0.00000  -0.00001  -0.00001   1.89608
   A14        1.96862   0.00000   0.00000  -0.00003  -0.00003   1.96859
   A15        1.98666   0.00000   0.00000   0.00011   0.00011   1.98677
   A16        1.56474   0.00000   0.00000   0.00001   0.00001   1.56475
   A17        2.08928   0.00000   0.00000  -0.00002  -0.00002   2.08926
   A18        2.21215   0.00000   0.00000  -0.00003  -0.00003   2.21212
   A19        1.55863   0.00000   0.00000  -0.00002  -0.00002   1.55860
   A20        1.88870   0.00000   0.00000  -0.00001  -0.00001   1.88869
   A21        1.92777   0.00000   0.00000   0.00002   0.00002   1.92779
   A22        1.58227   0.00000   0.00000   0.00002   0.00002   1.58229
   A23        2.18553   0.00000   0.00000   0.00002   0.00002   2.18555
   A24        2.12469   0.00000   0.00000  -0.00004  -0.00004   2.12465
   A25        2.25212   0.00000   0.00000  -0.00004  -0.00004   2.25208
   A26        2.11582   0.00000   0.00000   0.00004   0.00004   2.11585
   A27        2.00705  -0.00001   0.00000  -0.00004  -0.00004   2.00701
   A28        2.09452   0.00000   0.00000   0.00002   0.00002   2.09453
   A29        2.02044  -0.00001   0.00000  -0.00007  -0.00007   2.02038
   A30        1.98441   0.00000   0.00000   0.00003   0.00003   1.98444
   A31        1.60642   0.00000   0.00000  -0.00001  -0.00001   1.60641
   A32        2.22842   0.00000   0.00000   0.00000   0.00000   2.22843
   A33        1.92454   0.00000   0.00000   0.00001   0.00001   1.92454
   A34        2.11762   0.00000   0.00000  -0.00002  -0.00002   2.11759
   A35        2.19145   0.00000   0.00000   0.00001   0.00001   2.19146
   A36        1.54235   0.00000   0.00000  -0.00001  -0.00001   1.54234
   A37        1.98430   0.00000   0.00000  -0.00005  -0.00005   1.98426
   A38        2.05222   0.00000   0.00000  -0.00002  -0.00002   2.05220
   A39        1.53546   0.00000   0.00000   0.00001   0.00001   1.53547
   A40        2.18113   0.00000   0.00000   0.00001   0.00001   2.18114
   A41        2.05815   0.00000   0.00000   0.00005   0.00005   2.05820
    D1       -0.85994   0.00000   0.00000  -0.00006  -0.00006  -0.85999
    D2        1.03872   0.00000   0.00000  -0.00008  -0.00008   1.03864
    D3       -3.05750   0.00000   0.00000  -0.00003  -0.00003  -3.05753
    D4        2.17822   0.00000   0.00000  -0.00019  -0.00019   2.17804
    D5       -2.10896   0.00000   0.00000  -0.00029  -0.00029  -2.10924
    D6        0.09776   0.00000   0.00000  -0.00033  -0.00033   0.09744
    D7        0.01972   0.00000   0.00000  -0.00016  -0.00016   0.01956
    D8        2.01572   0.00000   0.00000  -0.00026  -0.00026   2.01546
    D9       -2.06074   0.00000   0.00000  -0.00030  -0.00030  -2.06104
   D10       -1.96362   0.00000   0.00000  -0.00021  -0.00021  -1.96383
   D11        0.03238   0.00000   0.00000  -0.00030  -0.00030   0.03208
   D12        2.23910   0.00000   0.00000  -0.00034  -0.00034   2.23876
   D13       -2.17895   0.00000   0.00000   0.00016   0.00016  -2.17879
   D14       -0.65925   0.00000   0.00000   0.00017   0.00017  -0.65908
   D15        1.84926   0.00000   0.00000   0.00016   0.00016   1.84943
   D16       -0.01886   0.00000   0.00000   0.00015   0.00015  -0.01870
   D17        1.50084   0.00000   0.00000   0.00016   0.00016   1.50100
   D18       -2.27383   0.00000   0.00000   0.00016   0.00016  -2.27367
   D19        1.97060   0.00000   0.00000   0.00013   0.00013   1.97073
   D20       -2.79289   0.00000   0.00000   0.00014   0.00014  -2.79275
   D21       -0.28438   0.00000   0.00000   0.00014   0.00014  -0.28424
   D22        2.25469   0.00000   0.00000   0.00011   0.00011   2.25479
   D23       -1.57383   0.00000   0.00000   0.00018   0.00018  -1.57365
   D24       -0.01901   0.00000   0.00000   0.00015   0.00015  -0.01886
   D25        0.23635   0.00000   0.00000   0.00025   0.00025   0.23659
   D26        2.69102   0.00001   0.00000   0.00032   0.00032   2.69133
   D27       -2.03735   0.00000   0.00000   0.00029   0.00029  -2.03706
   D28       -1.94792   0.00000   0.00000   0.00026   0.00026  -1.94766
   D29        0.50675   0.00001   0.00000   0.00033   0.00033   0.50708
   D30        2.06156   0.00000   0.00000   0.00031   0.00031   2.06187
   D31        3.05342   0.00001   0.00000   0.00057   0.00057   3.05399
   D32        0.64319   0.00001   0.00000   0.00044   0.00044   0.64363
   D33       -1.34843   0.00001   0.00000   0.00052   0.00052  -1.34791
   D34        2.53261   0.00000   0.00000  -0.00001  -0.00001   2.53260
   D35        1.53910   0.00000   0.00000  -0.00001  -0.00001   1.53909
   D36       -0.92494   0.00000   0.00000   0.00001   0.00001  -0.92494
   D37       -1.34737   0.00000   0.00000   0.00006   0.00006  -1.34731
   D38       -2.34088   0.00000   0.00000   0.00006   0.00006  -2.34082
   D39        1.47826   0.00000   0.00000   0.00008   0.00008   1.47834
   D40        0.97381   0.00000   0.00000  -0.00001  -0.00001   0.97380
   D41       -0.01970   0.00000   0.00000   0.00000   0.00000  -0.01971
   D42       -2.48375   0.00000   0.00000   0.00001   0.00001  -2.48374
   D43        0.01907   0.00000   0.00000  -0.00015  -0.00015   0.01891
   D44       -1.96678   0.00000   0.00000  -0.00011  -0.00011  -1.96689
   D45        2.16671   0.00000   0.00000  -0.00018  -0.00018   2.16653
   D46       -2.05122   0.00000   0.00000  -0.00010  -0.00010  -2.05132
   D47        2.24611   0.00000   0.00000  -0.00006  -0.00006   2.24605
   D48        0.09643   0.00000   0.00000  -0.00013  -0.00013   0.09629
   D49        2.00584   0.00001   0.00000  -0.00004  -0.00004   2.00580
   D50        0.01999   0.00000   0.00000   0.00000   0.00000   0.02000
   D51       -2.12970   0.00000   0.00000  -0.00007  -0.00007  -2.12976
   D52        0.55543   0.00000   0.00000   0.00000   0.00000   0.55544
   D53        3.05559   0.00000   0.00000   0.00005   0.00005   3.05564
   D54       -2.28307   0.00000   0.00000  -0.00003  -0.00003  -2.28310
   D55        0.21708   0.00000   0.00000   0.00002   0.00002   0.21711
   D56        0.02092   0.00000   0.00000   0.00001   0.00001   0.02093
   D57       -2.41751   0.00000   0.00000  -0.00001  -0.00001  -2.41753
   D58        2.44261   0.00000   0.00000   0.00003   0.00003   2.44264
   D59        0.00417   0.00000   0.00000   0.00001   0.00001   0.00418
   D60       -0.55245   0.00000   0.00000  -0.00005  -0.00005  -0.55250
   D61        2.27342   0.00000   0.00000  -0.00005  -0.00005   2.27337
   D62       -3.04073   0.00000   0.00000  -0.00003  -0.00003  -3.04076
   D63       -0.21485   0.00000   0.00000  -0.00003  -0.00003  -0.21489
   D64       -1.54391   0.00000   0.00000   0.00000   0.00000  -1.54391
   D65       -0.01972   0.00000   0.00000   0.00000   0.00000  -0.01973
   D66        2.23305   0.00000   0.00000   0.00003   0.00003   2.23308
   D67       -2.55640   0.00000   0.00000   0.00000   0.00000  -2.55640
   D68       -1.03221   0.00000   0.00000  -0.00001  -0.00001  -1.03222
   D69        1.22057   0.00000   0.00000   0.00003   0.00003   1.22059
   D70        0.91729   0.00000   0.00000   0.00001   0.00001   0.91730
   D71        2.44148   0.00000   0.00000   0.00001   0.00001   2.44148
   D72       -1.58893   0.00000   0.00000   0.00004   0.00004  -1.58889
         Item               Value     Threshold  Converged?
 Maximum Force            0.000025     0.000450     YES
 RMS     Force            0.000005     0.000300     YES
 Maximum Displacement     0.000525     0.001800     YES
 RMS     Displacement     0.000130     0.001200     YES
 Predicted change in Energy=-1.957782D-08
 Optimization completed.
    -- Stationary point found.
                           ----------------------------
                           !   Optimized Parameters   !
                           ! (Angstroms and Degrees)  !
 --------------------------                            --------------------------
 ! Name  Definition              Value          Derivative Info.                !
 --------------------------------------------------------------------------------
 ! R1    R(1,2)                  1.409          -DE/DX =    0.0                 !
 ! R2    R(1,10)                 0.963          -DE/DX =    0.0                 !
 ! R3    R(2,3)                  1.5586         -DE/DX =    0.0                 !
 ! R4    R(2,9)                  1.5544         -DE/DX =    0.0                 !
 ! R5    R(2,11)                 1.0925         -DE/DX =    0.0                 !
 ! R6    R(3,4)                  1.541          -DE/DX =    0.0                 !
 ! R7    R(3,12)                 1.0919         -DE/DX =    0.0                 !
 ! R8    R(3,13)                 1.0946         -DE/DX =    0.0                 !
 ! R9    R(4,5)                  1.3948         -DE/DX =    0.0                 !
 ! R10   R(4,6)                  1.5185         -DE/DX =    0.0                 !
 ! R11   R(4,9)                  1.6118         -DE/DX =    0.0                 !
 ! R12   R(5,14)                 0.9634         -DE/DX =    0.0                 !
 ! R13   R(6,7)                  1.5067         -DE/DX =    0.0                 !
 ! R14   R(6,8)                  1.54           -DE/DX =    0.0                 !
 ! R15   R(6,15)                 1.0853         -DE/DX =    0.0                 !
 ! R16   R(7,8)                  1.5001         -DE/DX =    0.0                 !
 ! R17   R(7,16)                 1.0887         -DE/DX =    0.0                 !
 ! R18   R(7,17)                 1.0851         -DE/DX =    0.0                 !
 ! R19   R(8,9)                  1.5186         -DE/DX =    0.0                 !
 ! R20   R(8,18)                 1.0838         -DE/DX =    0.0                 !
 ! R21   R(9,19)                 1.0924         -DE/DX =    0.0                 !
 ! A1    A(2,1,10)             107.8183         -DE/DX =    0.0                 !
 ! A2    A(1,2,3)              118.6062         -DE/DX =    0.0                 !
 ! A3    A(1,2,9)              118.495          -DE/DX =    0.0                 !
 ! A4    A(1,2,11)             105.2245         -DE/DX =    0.0                 !
 ! A5    A(3,2,9)               91.1485         -DE/DX =    0.0                 !
 ! A6    A(3,2,11)             111.7855         -DE/DX =    0.0                 !
 ! A7    A(9,2,11)             111.3947         -DE/DX =    0.0                 !
 ! A8    A(2,3,4)               90.8071         -DE/DX =    0.0                 !
 ! A9    A(2,3,12)             113.341          -DE/DX =    0.0                 !
 ! A10   A(2,3,13)             115.6965         -DE/DX =    0.0                 !
 ! A11   A(4,3,12)             111.909          -DE/DX =    0.0                 !
 ! A12   A(4,3,13)             115.6888         -DE/DX =    0.0                 !
 ! A13   A(12,3,13)            108.6383         -DE/DX =    0.0                 !
 ! A14   A(3,4,5)              112.7936         -DE/DX =    0.0                 !
 ! A15   A(3,4,6)              113.827          -DE/DX =    0.0                 !
 ! A16   A(3,4,9)               89.6532         -DE/DX =    0.0                 !
 ! A17   A(5,4,6)              119.7067         -DE/DX =    0.0                 !
 ! A18   A(5,4,9)              126.7471         -DE/DX =    0.0                 !
 ! A19   A(6,4,9)               89.3027         -DE/DX =    0.0                 !
 ! A20   A(4,5,14)             108.2146         -DE/DX =    0.0                 !
 ! A21   A(4,6,7)              110.4531         -DE/DX =    0.0                 !
 ! A22   A(4,6,8)               90.6576         -DE/DX =    0.0                 !
 ! A23   A(4,6,15)             125.2215         -DE/DX =    0.0                 !
 ! A24   A(7,6,15)             121.7357         -DE/DX =    0.0                 !
 ! A25   A(8,6,15)             129.0367         -DE/DX =    0.0                 !
 ! A26   A(6,7,16)             121.2273         -DE/DX =    0.0                 !
 ! A27   A(6,7,17)             114.9954         -DE/DX =    0.0                 !
 ! A28   A(8,7,16)             120.007          -DE/DX =    0.0                 !
 ! A29   A(8,7,17)             115.7629         -DE/DX =    0.0                 !
 ! A30   A(16,7,17)            113.6981         -DE/DX =    0.0                 !
 ! A31   A(6,8,9)               92.041          -DE/DX =    0.0                 !
 ! A32   A(6,8,18)             127.6793         -DE/DX =    0.0                 !
 ! A33   A(7,8,9)              110.2679         -DE/DX =    0.0                 !
 ! A34   A(7,8,18)             121.3304         -DE/DX =    0.0                 !
 ! A35   A(9,8,18)             125.5608         -DE/DX =    0.0                 !
 ! A36   A(2,9,4)               88.3702         -DE/DX =    0.0                 !
 ! A37   A(2,9,8)              113.6921         -DE/DX =    0.0                 !
 ! A38   A(2,9,19)             117.5835         -DE/DX =    0.0                 !
 ! A39   A(4,9,8)               87.9756         -DE/DX =    0.0                 !
 ! A40   A(4,9,19)             124.9696         -DE/DX =    0.0                 !
 ! A41   A(8,9,19)             117.9232         -DE/DX =    0.0                 !
 ! D1    D(10,1,2,3)           -49.2707         -DE/DX =    0.0                 !
 ! D2    D(10,1,2,9)            59.5145         -DE/DX =    0.0                 !
 ! D3    D(10,1,2,11)         -175.1821         -DE/DX =    0.0                 !
 ! D4    D(1,2,3,4)            124.8031         -DE/DX =    0.0                 !
 ! D5    D(1,2,3,12)          -120.8343         -DE/DX =    0.0                 !
 ! D6    D(1,2,3,13)             5.6015         -DE/DX =    0.0                 !
 ! D7    D(9,2,3,4)              1.1296         -DE/DX =    0.0                 !
 ! D8    D(9,2,3,12)           115.4923         -DE/DX =    0.0                 !
 ! D9    D(9,2,3,13)          -118.0719         -DE/DX =    0.0                 !
 ! D10   D(11,2,3,4)          -112.5073         -DE/DX =    0.0                 !
 ! D11   D(11,2,3,12)            1.8553         -DE/DX =    0.0                 !
 ! D12   D(11,2,3,13)          128.2911         -DE/DX =    0.0                 !
 ! D13   D(1,2,9,4)           -124.8444         -DE/DX =    0.0                 !
 ! D14   D(1,2,9,8)            -37.7722         -DE/DX =    0.0                 !
 ! D15   D(1,2,9,19)           105.9549         -DE/DX =    0.0                 !
 ! D16   D(3,2,9,4)             -1.0804         -DE/DX =    0.0                 !
 ! D17   D(3,2,9,8)             85.9919         -DE/DX =    0.0                 !
 ! D18   D(3,2,9,19)          -130.2811         -DE/DX =    0.0                 !
 ! D19   D(11,2,9,4)           112.907          -DE/DX =    0.0                 !
 ! D20   D(11,2,9,8)          -160.0208         -DE/DX =    0.0                 !
 ! D21   D(11,2,9,19)          -16.2937         -DE/DX =    0.0                 !
 ! D22   D(2,3,4,5)            129.184          -DE/DX =    0.0                 !
 ! D23   D(2,3,4,6)            -90.1738         -DE/DX =    0.0                 !
 ! D24   D(2,3,4,9)             -1.0892         -DE/DX =    0.0                 !
 ! D25   D(12,3,4,5)            13.5416         -DE/DX =    0.0                 !
 ! D26   D(12,3,4,6)           154.1839         -DE/DX =    0.0                 !
 ! D27   D(12,3,4,9)          -116.7316         -DE/DX =    0.0                 !
 ! D28   D(13,3,4,5)          -111.6078         -DE/DX =    0.0                 !
 ! D29   D(13,3,4,6)            29.0344         -DE/DX =    0.0                 !
 ! D30   D(13,3,4,9)           118.119          -DE/DX =    0.0                 !
 ! D31   D(3,4,5,14)           174.948          -DE/DX =    0.0                 !
 ! D32   D(6,4,5,14)            36.8523         -DE/DX =    0.0                 !
 ! D33   D(9,4,5,14)           -77.2593         -DE/DX =    0.0                 !
 ! D34   D(3,4,6,7)            145.1079         -DE/DX =    0.0                 !
 ! D35   D(3,4,6,8)             88.184          -DE/DX =    0.0                 !
 ! D36   D(3,4,6,15)           -52.9954         -DE/DX =    0.0                 !
 ! D37   D(5,4,6,7)            -77.1989         -DE/DX =    0.0                 !
 ! D38   D(5,4,6,8)           -134.1228         -DE/DX =    0.0                 !
 ! D39   D(5,4,6,15)            84.6978         -DE/DX =    0.0                 !
 ! D40   D(9,4,6,7)             55.795          -DE/DX =    0.0                 !
 ! D41   D(9,4,6,8)             -1.1289         -DE/DX =    0.0                 !
 ! D42   D(9,4,6,15)          -142.3083         -DE/DX =    0.0                 !
 ! D43   D(3,4,9,2)              1.0925         -DE/DX =    0.0                 !
 ! D44   D(3,4,9,8)           -112.6885         -DE/DX =    0.0                 !
 ! D45   D(3,4,9,19)           124.1435         -DE/DX =    0.0                 !
 ! D46   D(5,4,9,2)           -117.5263         -DE/DX =    0.0                 !
 ! D47   D(5,4,9,8)            128.6928         -DE/DX =    0.0                 !
 ! D48   D(5,4,9,19)             5.5248         -DE/DX =    0.0                 !
 ! D49   D(6,4,9,2)            114.9264         -DE/DX =    0.0                 !
 ! D50   D(6,4,9,8)              1.1454         -DE/DX =    0.0                 !
 ! D51   D(6,4,9,19)          -122.0226         -DE/DX =    0.0                 !
 ! D52   D(4,6,7,16)            31.824          -DE/DX =    0.0                 !
 ! D53   D(4,6,7,17)           175.0723         -DE/DX =    0.0                 !
 ! D54   D(15,6,7,16)         -130.8102         -DE/DX =    0.0                 !
 ! D55   D(15,6,7,17)           12.438          -DE/DX =    0.0                 !
 ! D56   D(4,6,8,9)              1.1989         -DE/DX =    0.0                 !
 ! D57   D(4,6,8,18)          -138.5134         -DE/DX =    0.0                 !
 ! D58   D(15,6,8,9)           139.9511         -DE/DX =    0.0                 !
 ! D59   D(15,6,8,18)            0.2389         -DE/DX =    0.0                 !
 ! D60   D(16,7,8,9)           -31.6533         -DE/DX =    0.0                 !
 ! D61   D(16,7,8,18)          130.2575         -DE/DX =    0.0                 !
 ! D62   D(17,7,8,9)          -174.2211         -DE/DX =    0.0                 !
 ! D63   D(17,7,8,18)          -12.3103         -DE/DX =    0.0                 !
 ! D64   D(6,8,9,2)            -88.4598         -DE/DX =    0.0                 !
 ! D65   D(6,8,9,4)             -1.1301         -DE/DX =    0.0                 !
 ! D66   D(6,8,9,19)           127.9446         -DE/DX =    0.0                 !
 ! D67   D(7,8,9,2)           -146.4709         -DE/DX =    0.0                 !
 ! D68   D(7,8,9,4)            -59.1413         -DE/DX =    0.0                 !
 ! D69   D(7,8,9,19)            69.9335         -DE/DX =    0.0                 !
 ! D70   D(18,8,9,2)            52.5567         -DE/DX =    0.0                 !
 ! D71   D(18,8,9,4)           139.8864         -DE/DX =    0.0                 !
 ! D72   D(18,8,9,19)          -91.0388         -DE/DX =    0.0                 !
 --------------------------------------------------------------------------------
 GradGradGradGradGradGradGradGradGradGradGradGradGradGradGradGradGradGrad

                          Input orientation:                          
 ---------------------------------------------------------------------
 Center     Atomic      Atomic             Coordinates (Angstroms)
 Number     Number       Type             X           Y           Z
 ---------------------------------------------------------------------
      1          8           0        0.601268    0.189483    0.540784
      2          6           0       -0.737214    0.568686    0.764407
      3          6           0       -1.321257    0.431644    2.202902
      4          6           0       -1.723177    1.919328    2.204964
      5          8           0       -3.053928    2.119053    2.572134
      6          6           0       -0.646765    2.844823    2.744094
      7          6           0       -0.664319    4.158652    2.006713
      8          6           0       -0.029751    2.974623    1.339136
      9          6           0       -1.095327    2.080892    0.729317
     10          1           0        1.143352    0.609210    1.217002
     11          1           0       -1.321266    0.003777    0.034159
     12          1           0       -2.191591   -0.225590    2.255646
     13          1           0       -0.608772    0.131537    2.977851
     14          1           0       -3.211455    3.067790    2.629135
     15          1           0       -0.148530    2.734378    3.701915
     16          1           0       -1.591305    4.573132    1.613931
     17          1           0        0.021081    4.908073    2.388817
     18          1           0        1.021226    2.973148    1.074441
     19          1           0       -1.636207    2.452463   -0.143961
 ---------------------------------------------------------------------
                    Distance matrix (angstroms):
                    1          2          3          4          5
     1  O    0.000000
     2  C    1.409020   0.000000
     3  C    2.552917   1.558575   0.000000
     4  C    3.341393   2.207162   1.541021   0.000000
     5  O    4.605440   3.322450   2.446595   1.394848   0.000000
     6  C    3.669195   3.017969   2.563447   1.518507   2.520068
     7  C    4.416442   3.799539   3.789545   2.484967   3.192162
     8  C    2.965224   2.572810   2.980071   2.175086   3.376082
     9  C    2.547824   1.554427   2.223177   1.611780   2.689525
    10  H    0.962962   1.934687   2.660419   3.302949   4.661885
    11  H    1.996821   1.092475   2.210546   2.922886   3.730660
    12  H    3.303498   2.229323   1.091888   2.196054   2.518162
    13  H    2.721553   2.259852   1.094644   2.243981   3.177045
    14  H    5.213705   3.980528   3.271665   1.927137   0.963414
    15  H    4.126916   3.696718   2.987459   2.320492   3.177478
    16  H    5.017509   4.181716   4.191865   2.722019   3.013292
    17  H    5.100680   4.695104   4.677056   3.465377   4.155469
    18  H    2.865300   2.994941   3.635917   3.149662   4.424867
    19  H    3.255188   2.276387   3.112984   2.410238   3.081926
                    6          7          8          9         10
     6  C    0.000000
     7  C    1.506714   0.000000
     8  C    1.539955   1.500087   0.000000
     9  C    2.200937   2.476812   1.518581   0.000000
    10  H    3.245689   4.060771   2.643154   2.723118   0.000000
    11  H    3.983747   4.646024   3.492406   2.201976   2.800002
    12  H    3.471672   4.649313   3.969245   2.975119   3.591312
    13  H    2.723602   4.142928   3.332235   3.015398   2.529565
    14  H    2.576929   2.839946   3.434534   3.010195   5.196450
    15  H    1.085292   2.273391   2.377930   3.187446   3.515692
    16  H    2.270787   1.088749   2.251488   2.690688   4.832037
    17  H    2.197554   1.085084   2.200601   3.463129   4.594874
    18  H    2.363558   2.261773   1.083798   2.322721   2.371379
    19  H    3.077954   2.912224   2.247873   1.092351   3.602188
                   11         12         13         14         15
    11  H    0.000000
    12  H    2.396889   0.000000
    13  H    3.031384   1.776074   0.000000
    14  H    4.437893   3.467848   3.939181   0.000000
    15  H    4.720585   3.876494   2.740597   3.262443   0.000000
    16  H    4.842273   4.878512   4.749044   2.433430   3.134054
    17  H    5.603430   5.591793   4.853759   3.727424   2.545181
    18  H    3.922578   4.685015   3.788748   4.510169   2.885994
    19  H    2.475274   3.638480   4.023435   3.248091   4.133210
                   16         17         18         19
    16  H    0.000000
    17  H    1.820006   0.000000
    18  H    3.110678   2.543975   0.000000
    19  H    2.754894   3.897639   2.969439   0.000000
 Stoichiometry    C7H10O2
 Framework group  C1[X(C7H10O2)]
 Deg. of freedom    51
 Full point group                 C1      NOp   1
 Largest Abelian subgroup         C1      NOp   1
 Largest concise Abelian subgroup C1      NOp   1
                         Standard orientation:                         
 ---------------------------------------------------------------------
 Center     Atomic      Atomic             Coordinates (Angstroms)
 Number     Number       Type             X           Y           Z
 ---------------------------------------------------------------------
      1          8           0       -2.486589   -0.709489    0.115394
      2          6           0       -1.573387    0.235223   -0.393446
      3          6           0       -0.868700    1.204021    0.603551
      4          6           0        0.515107    0.758233    0.092574
      5          8           0        1.336466    1.832348   -0.249839
      6          6           0        1.097074   -0.422859    0.849013
      7          6           0        1.884675   -1.307900   -0.081886
      8          6           0        0.387832   -1.404359   -0.102352
      9          6           0       -0.201293   -0.269477   -0.921535
     10          1           0       -2.063903   -1.159538    0.854373
     11          1           0       -2.122723    0.777854   -1.166287
     12          1           0       -1.061105    2.257774    0.391879
     13          1           0       -1.065086    1.018755    1.664378
     14          1           0        2.204674    1.485412   -0.482259
     15          1           0        1.214597   -0.479661    1.926427
     16          1           0        2.415484   -0.895571   -0.938391
     17          1           0        2.403818   -2.131124    0.397908
     18          1           0       -0.121076   -2.325871    0.155425
     19          1           0       -0.051549   -0.288185   -2.003412
 ---------------------------------------------------------------------
 Rotational constants (GHZ):      2.5827877      1.6892946      1.2224744
 1\1\GINC-ALCHEMY-LI\FOpt\RB3LYP\6-31G(2df,p)\C7H10O2\PUCK\28-Jan-2020\
 0\\# b3lyp 6-31G(2df,p) opt Freq\\titel\\0,1\O,0.601268178,0.189483329
 4,0.5407839038\C,-0.7372141071,0.5686861745,0.7644069795\C,-1.32125739
 06,0.4316442789,2.2029020359\C,-1.7231773305,1.9193280713,2.2049643396
 \O,-3.0539278211,2.1190526364,2.5721337278\C,-0.6467654312,2.844822829
 7,2.7440936468\C,-0.6643187905,4.158652466,2.0067128898\C,-0.029750572
 2,2.9746228153,1.3391361884\C,-1.0953274094,2.0808917322,0.7293167392\
 H,1.1433524949,0.6092100834,1.2170017317\H,-1.3212664012,0.0037769946,
 0.0341593\H,-2.1915914036,-0.2255901326,2.2556456653\H,-0.6087718409,0
 .1315369488,2.9778505366\H,-3.2114553904,3.0677904186,2.6291349923\H,-
 0.1485297544,2.7343780475,3.7019148543\H,-1.591304678,4.5731324345,1.6
 139314428\H,0.0210812943,4.9080731611,2.3888166954\H,1.0212264788,2.97
 31476827,1.074440833\H,-1.6362073849,2.4524633477,-0.1439610722\\Versi
 on=ES64L-G09RevD.01\State=1-A\HF=-423.1397787\RMSD=8.175e-09\RMSF=1.33
 3e-05\Dipole=0.1982092,0.803551,0.4022383\Quadrupole=0.2789001,0.74479
 61,-1.0236962,0.1723236,3.3976759,-0.6406539\PG=C01 [X(C7H10O2)]\\@


 IF YOU DON'T HAVE THE LAW - ARGUE THE FACTS.
 IF YOU DON'T HAVE THE FACTS - ARGUE THE LAW.
 IF YOU DON'T HAVE EITHER - POUND THE TABLE.
 Job cpu time:       0 days  0 hours  6 minutes 36.4 seconds.
 File lengths (MBytes):  RWF=     52 Int=      0 D2E=      0 Chk=      7 Scr=      1
 Normal termination of Gaussian 09 at Tue Jan 28 02:20:33 2020.
 Link1:  Proceeding to internal job step number  2.
 ----------------------------------------------------------------------
 #N Geom=AllCheck Guess=TCheck SCRF=Check GenChk RB3LYP/6-31G(2df,p) Fr
 eq
 ----------------------------------------------------------------------
 1/10=4,29=7,30=1,38=1,40=1/1,3;
 2/12=2,40=1/2;
 3/5=1,6=6,7=104,11=2,14=-4,16=1,25=1,30=1,70=2,71=2,74=-5,116=1,140=1/1,2,3;
 4/5=101/1;
 5/5=2,98=1/2;
 8/6=4,10=90,11=11/1;
 11/6=1,8=1,9=11,15=111,16=1/1,2,10;
 10/6=1/2;
 6/7=2,8=2,9=2,10=2,18=1,28=1/1;
 7/8=1,10=1,25=1/1,2,3,16;
 1/10=4,30=1/3;
 99//99;
 Structure from the checkpoint file:  "/scratch/puck/g09_e0cab0b5-fbff-4825-b176-aa9fede21a80/Gau-112303.chk"
 -----
 titel
 -----
 Charge =  0 Multiplicity = 1
 Redundant internal coordinates found in file.
 O,0,0.601268178,0.1894833294,0.5407839038
 C,0,-0.7372141071,0.5686861745,0.7644069795
 C,0,-1.3212573906,0.4316442789,2.2029020359
 C,0,-1.7231773305,1.9193280713,2.2049643396
 O,0,-3.0539278211,2.1190526364,2.5721337278
 C,0,-0.6467654312,2.8448228297,2.7440936468
 C,0,-0.6643187905,4.158652466,2.0067128898
 C,0,-0.0297505722,2.9746228153,1.3391361884
 C,0,-1.0953274094,2.0808917322,0.7293167392
 H,0,1.1433524949,0.6092100834,1.2170017317
 H,0,-1.3212664012,0.0037769946,0.0341593
 H,0,-2.1915914036,-0.2255901326,2.2556456653
 H,0,-0.6087718409,0.1315369488,2.9778505366
 H,0,-3.2114553904,3.0677904186,2.6291349923
 H,0,-0.1485297544,2.7343780475,3.7019148543
 H,0,-1.591304678,4.5731324345,1.6139314428
 H,0,0.0210812943,4.9080731611,2.3888166954
 H,0,1.0212264788,2.9731476827,1.074440833
 H,0,-1.6362073849,2.4524633477,-0.1439610722
 Recover connectivity data from disk.

 GradGradGradGradGradGradGradGradGradGradGradGradGradGradGradGradGradGrad
 Berny optimization.
 Initialization pass.
                           ----------------------------
                           !    Initial Parameters    !
                           ! (Angstroms and Degrees)  !
 --------------------------                            --------------------------
 ! Name  Definition              Value          Derivative Info.                !
 --------------------------------------------------------------------------------
 ! R1    R(1,2)                  1.409          calculate D2E/DX2 analytically  !
 ! R2    R(1,10)                 0.963          calculate D2E/DX2 analytically  !
 ! R3    R(2,3)                  1.5586         calculate D2E/DX2 analytically  !
 ! R4    R(2,9)                  1.5544         calculate D2E/DX2 analytically  !
 ! R5    R(2,11)                 1.0925         calculate D2E/DX2 analytically  !
 ! R6    R(3,4)                  1.541          calculate D2E/DX2 analytically  !
 ! R7    R(3,12)                 1.0919         calculate D2E/DX2 analytically  !
 ! R8    R(3,13)                 1.0946         calculate D2E/DX2 analytically  !
 ! R9    R(4,5)                  1.3948         calculate D2E/DX2 analytically  !
 ! R10   R(4,6)                  1.5185         calculate D2E/DX2 analytically  !
 ! R11   R(4,9)                  1.6118         calculate D2E/DX2 analytically  !
 ! R12   R(5,14)                 0.9634         calculate D2E/DX2 analytically  !
 ! R13   R(6,7)                  1.5067         calculate D2E/DX2 analytically  !
 ! R14   R(6,8)                  1.54           calculate D2E/DX2 analytically  !
 ! R15   R(6,15)                 1.0853         calculate D2E/DX2 analytically  !
 ! R16   R(7,8)                  1.5001         calculate D2E/DX2 analytically  !
 ! R17   R(7,16)                 1.0887         calculate D2E/DX2 analytically  !
 ! R18   R(7,17)                 1.0851         calculate D2E/DX2 analytically  !
 ! R19   R(8,9)                  1.5186         calculate D2E/DX2 analytically  !
 ! R20   R(8,18)                 1.0838         calculate D2E/DX2 analytically  !
 ! R21   R(9,19)                 1.0924         calculate D2E/DX2 analytically  !
 ! A1    A(2,1,10)             107.8183         calculate D2E/DX2 analytically  !
 ! A2    A(1,2,3)              118.6062         calculate D2E/DX2 analytically  !
 ! A3    A(1,2,9)              118.495          calculate D2E/DX2 analytically  !
 ! A4    A(1,2,11)             105.2245         calculate D2E/DX2 analytically  !
 ! A5    A(3,2,9)               91.1485         calculate D2E/DX2 analytically  !
 ! A6    A(3,2,11)             111.7855         calculate D2E/DX2 analytically  !
 ! A7    A(9,2,11)             111.3947         calculate D2E/DX2 analytically  !
 ! A8    A(2,3,4)               90.8071         calculate D2E/DX2 analytically  !
 ! A9    A(2,3,12)             113.341          calculate D2E/DX2 analytically  !
 ! A10   A(2,3,13)             115.6965         calculate D2E/DX2 analytically  !
 ! A11   A(4,3,12)             111.909          calculate D2E/DX2 analytically  !
 ! A12   A(4,3,13)             115.6888         calculate D2E/DX2 analytically  !
 ! A13   A(12,3,13)            108.6383         calculate D2E/DX2 analytically  !
 ! A14   A(3,4,5)              112.7936         calculate D2E/DX2 analytically  !
 ! A15   A(3,4,6)              113.827          calculate D2E/DX2 analytically  !
 ! A16   A(3,4,9)               89.6532         calculate D2E/DX2 analytically  !
 ! A17   A(5,4,6)              119.7067         calculate D2E/DX2 analytically  !
 ! A18   A(5,4,9)              126.7471         calculate D2E/DX2 analytically  !
 ! A19   A(6,4,9)               89.3027         calculate D2E/DX2 analytically  !
 ! A20   A(4,5,14)             108.2146         calculate D2E/DX2 analytically  !
 ! A21   A(4,6,7)              110.4531         calculate D2E/DX2 analytically  !
 ! A22   A(4,6,8)               90.6576         calculate D2E/DX2 analytically  !
 ! A23   A(4,6,15)             125.2215         calculate D2E/DX2 analytically  !
 ! A24   A(7,6,15)             121.7357         calculate D2E/DX2 analytically  !
 ! A25   A(8,6,15)             129.0367         calculate D2E/DX2 analytically  !
 ! A26   A(6,7,16)             121.2273         calculate D2E/DX2 analytically  !
 ! A27   A(6,7,17)             114.9954         calculate D2E/DX2 analytically  !
 ! A28   A(8,7,16)             120.007          calculate D2E/DX2 analytically  !
 ! A29   A(8,7,17)             115.7629         calculate D2E/DX2 analytically  !
 ! A30   A(16,7,17)            113.6981         calculate D2E/DX2 analytically  !
 ! A31   A(6,8,9)               92.041          calculate D2E/DX2 analytically  !
 ! A32   A(6,8,18)             127.6793         calculate D2E/DX2 analytically  !
 ! A33   A(7,8,9)              110.2679         calculate D2E/DX2 analytically  !
 ! A34   A(7,8,18)             121.3304         calculate D2E/DX2 analytically  !
[...]
 851058,0.47107008,-0.00064635,0.00030990,0.00220297,-0.01542856,0.0257
 1988,0.02368432,-0.07902885,0.02123716,-0.00944691,0.55140459,-0.00095
 138,-0.00584913,-0.00013359,0.03168075,-0.01827908,-0.02307855,0.01528
 180,-0.17171376,0.00278735,-0.00804843,0.52403314,-0.00120808,0.001305
 76,-0.00222957,0.02967351,-0.03372386,-0.03055370,-0.01434196,0.004178
 76,-0.05380746,-0.04283954,0.03640856,0.36290562,-0.00189192,0.0023877
 2,0.00010881,-0.00045790,-0.00326123,0.00070285,-0.01545436,0.00733643
 ,0.00418670,-0.23296316,-0.00315748,0.04393606,0.35199990,0.00204240,0
 .00099671,-0.00186146,-0.00054760,-0.00419744,0.00033438,0.03562403,-0
 .00497186,-0.01018166,0.04098296,-0.10006803,-0.01064101,-0.09316979,0
 .59477613,0.00175564,-0.00263068,0.00006087,0.00157227,0.00227291,-0.0
 0171986,0.00192965,-0.00456093,0.00121041,0.05033226,-0.00256819,-0.07
 809387,-0.08513201,0.04002346,0.06748739,-0.00036138,-0.00015708,-0.00
 023963,0.00079914,0.00046284,0.00084671,0.00688579,0.00059503,0.000098
 72,-0.11476805,-0.04583384,-0.04811274,-0.03559963,-0.01450481,-0.0048
 3386,0.37580349,0.00007854,0.00072327,-0.00071040,0.00156838,-0.000113
 71,0.00298453,-0.02124838,-0.02316032,-0.01344673,-0.05220746,-0.12289
 765,-0.02681321,0.00442576,0.00507444,0.00455390,0.07575722,0.38638930
 ,0.00016615,-0.00085992,0.00060522,0.00349506,0.00280774,-0.00012996,0
 .00507458,0.00490012,0.00399893,-0.04646740,-0.02332752,-0.07808062,0.
 01024024,0.00743256,0.00892818,0.15471448,-0.08719006,0.63614972,0.001
 34721,0.00099863,0.00005414,-0.00710554,-0.00179195,-0.00256481,-0.003
 23259,-0.00165245,-0.00241742,0.00690894,-0.02849510,0.00162250,0.0026
 0586,0.00131645,0.00041122,-0.05065547,0.00668276,-0.04124733,0.576370
 57,0.00055940,0.00068441,-0.00034362,-0.00459026,-0.00037594,-0.001423
 84,-0.00379533,-0.00047708,-0.00151965,0.00730841,-0.02568887,0.000062
 27,0.00351339,0.00259476,0.00147023,-0.01945668,-0.16657350,0.09888010
 ,-0.00493838,0.61916230,0.00090875,0.00115651,0.00002447,-0.00313589,0
 .00029884,0.00049637,-0.00431218,-0.00265730,-0.00080088,0.00923653,-0
 .00228228,0.00327281,-0.00165725,-0.00089745,-0.00060549,-0.02496809,0
 .05993696,-0.08560405,0.16131865,0.03765734,0.30118481,-0.00162691,-0.
 00062415,0.00133941,0.01311318,0.00286518,0.00522441,0.00290525,0.0012
 2854,0.00150436,-0.05451547,-0.01493361,0.02963001,-0.00705969,-0.0062
 8326,0.00091548,-0.07243277,-0.01616064,0.05593430,-0.10793862,0.06420
 214,0.01684049,0.67820515,-0.00363293,0.00207966,-0.00042070,-0.023357
 83,-0.02368642,-0.01111255,0.00321024,0.00167144,-0.00013254,-0.030017
 77,-0.00387419,0.01592745,0.00054409,-0.00154150,-0.00199169,0.0069642
 7,-0.01082880,-0.00869875,0.05371307,-0.14662519,-0.05061154,0.0196094
 8,0.35296558,-0.00157699,0.00115622,-0.00030245,-0.00186389,-0.0086091
 3,0.00028227,-0.00100919,-0.00048448,-0.00251745,0.02898864,0.01085229
 ,-0.01261605,0.00155977,0.00105200,-0.00022754,0.03767279,0.03300403,-
 0.15030359,0.03971064,-0.09821503,-0.05806834,-0.11706565,0.11269353,0
 .36850561,-0.01751251,0.03378473,0.00056214,-0.07408612,0.00718069,-0.
 02266857,0.00773845,0.00077545,0.00797878,-0.05493044,0.00145916,0.014
 55530,-0.01386930,-0.00205881,0.02044484,-0.00297381,-0.00526430,-0.01
 889346,0.00768630,0.00646832,0.00400839,-0.13633836,-0.04680253,-0.046
 89453,0.40229445,0.01269420,-0.00343790,-0.00501084,0.00738015,-0.1549
 6344,0.00712588,0.00567278,-0.03709010,0.03781372,0.00535021,-0.043761
 66,0.00824306,0.00116886,0.00251130,-0.00670313,-0.00490586,0.00425819
 ,-0.01310855,-0.02140142,-0.02319370,-0.02316546,-0.03938689,-0.109741
 73,-0.03301823,-0.01467009,0.46331821,0.00274487,-0.00642134,0.0024526
 8,-0.01487163,0.00280317,-0.06089675,0.00917749,0.04002896,-0.03204545
 ,-0.00399406,0.01079755,-0.09413639,0.00871434,-0.00457772,0.00753904,
 -0.01824608,-0.01856967,-0.07080687,0.00168061,0.00101053,-0.00303886,
 -0.04647307,-0.03550150,-0.07369224,0.15311454,-0.05266337,0.53817380,
 -0.17662292,-0.09242017,-0.16144806,-0.03417492,-0.01944850,-0.0332339
 9,0.00196836,-0.00066861,0.00015822,-0.00051063,0.00019852,-0.00015425
 ,0.00067066,-0.00041732,-0.00028514,-0.00027507,0.00001942,0.00072299,
 0.00033796,-0.00034470,0.00036788,0.00126857,0.00066122,-0.00033387,0.
 00122467,-0.00019492,-0.00087151,0.21167008,-0.12189047,-0.11075518,-0
 .17056345,0.00848169,0.00374819,0.00770716,0.00041491,-0.00016482,-0.0
 0128163,0.00080102,0.00139236,-0.00035812,-0.00057448,-0.00066822,0.00
 026956,0.00038223,-0.00073766,-0.00077432,-0.00057872,-0.00000147,-0.0
 0106594,0.00072050,0.00111919,0.00054444,0.00210910,0.00053598,0.00165
 023,0.11038372,0.10728452,-0.20339410,-0.16400513,-0.26807528,0.007684
 30,0.00168222,0.00250150,0.00210219,-0.00008661,0.00317007,0.00025938,
 -0.00071939,0.00061810,0.00029373,0.00019421,-0.00041120,0.00017839,0.
 00013805,-0.00044819,0.00006811,0.00023194,-0.00000534,-0.00098708,-0.
 00032305,0.00108328,0.00061829,-0.00078379,-0.00074352,0.19174138,0.16
 203047,0.26201825,-0.03570467,-0.01479048,-0.02434325,-0.11249273,-0.0
 6759837,-0.08701522,0.00509401,0.00252872,0.00859074,-0.00000836,-0.00
 165103,-0.00012485,-0.00012291,0.00024226,-0.00006194,-0.00011147,-0.0
 0023525,-0.00042748,0.00035418,0.00027496,0.00011399,-0.00059930,0.001
 01563,0.00017099,0.00485668,0.00310875,0.00109505,-0.00676461,0.001196
 76,0.00138715,0.14348707,0.00792221,0.00732628,0.00722629,-0.07621826,
 -0.12474321,-0.09598790,0.00516066,0.00551218,0.00589713,0.00000667,0.
 00015522,0.00078369,0.00053251,0.00017948,-0.00039915,0.00029415,0.001
 10588,0.00099229,-0.00180431,-0.00116278,-0.00029908,0.00437362,-0.004
 37075,0.00017318,-0.01837849,-0.01655101,-0.01928779,0.00302755,0.0007
 9052,0.00035242,0.07486724,0.12910795,0.00183809,0.00343310,0.00606948
 ,-0.09602189,-0.09531503,-0.17028873,-0.01272724,-0.01286881,-0.019328
 95,0.00068713,0.00171655,-0.00243033,0.00027031,-0.00081918,0.00015977
 ,0.00020977,0.00015809,0.00020359,0.00023069,0.00014027,0.00028793,-0.
 00002963,0.00138065,0.00060589,0.00336275,0.00359738,0.00493806,0.0021
 5459,0.00012179,0.00193899,0.09828168,0.09971962,0.17814960,-0.0012970
 4,0.00026186,0.00275675,-0.00795061,-0.00660055,-0.00399615,-0.2204742
 0,-0.13100144,0.00678829,0.00758247,0.00673414,0.00053409,0.00131994,-
 0.00057218,-0.00003476,-0.00038392,0.00149738,-0.00014052,0.00069465,0
 .00051684,0.00034170,-0.00014278,0.00004289,0.00012820,-0.00025654,-0.
 00045532,0.00121237,0.00078555,0.00029160,-0.00015509,0.00151904,0.000
 58512,-0.00047443,0.23329422,0.00093734,-0.00028628,-0.00171333,0.0043
 8781,0.00146365,0.00278104,-0.12820920,-0.14444335,0.00528139,-0.02803
 619,-0.01712994,-0.00195479,-0.00056696,0.00398254,-0.00005802,0.00277
 665,-0.00494828,0.00193609,-0.00112049,-0.00106297,-0.00164159,0.00110
 501,0.00118346,-0.00061207,0.00065493,0.00117451,0.00150270,-0.0002979
 3,-0.00019818,0.00012565,-0.00007847,0.00118969,0.00065338,0.14154667,
 0.15275767,0.00337365,0.00012341,-0.00322157,0.02074551,0.01807422,0.0
 0121284,0.00775517,0.00773714,-0.04377736,-0.00390295,-0.00284652,-0.0
 0104690,-0.00039418,0.00064847,0.00032022,0.00027091,-0.00242768,0.000
 45675,-0.00015364,-0.00053545,-0.00027546,-0.00016393,-0.00012093,-0.0
 0078356,-0.00066447,0.00052738,-0.00427444,-0.00021171,-0.00001132,-0.
 00070416,0.00043884,-0.00086538,0.00192747,-0.00807900,-0.00711162,0.0
 4804243,0.00308285,0.00029598,-0.00138502,0.00799482,-0.00243160,0.009
 59070,-0.16089976,0.04610390,-0.12069438,-0.00470717,-0.00287442,-0.00
 510018,-0.00036740,0.00192764,0.00024251,0.00035174,-0.00164003,0.0011
 8025,0.00017292,-0.00018088,0.00002399,0.00025894,-0.00043595,-0.00076
 455,-0.00025195,0.00002781,0.00030897,-0.00010136,-0.00030252,-0.00060
 034,-0.00028594,-0.00009858,0.00165858,-0.01508644,0.00752061,-0.01867
 557,0.16955394,-0.00058508,0.00058408,0.00042101,-0.00200744,-0.002426
 31,-0.00228473,0.04575309,-0.06232398,0.04640548,0.01639121,-0.0051264
 1,0.02212510,0.00101279,-0.00216577,-0.00026777,0.00105039,0.00273877,
 0.00021493,0.00000442,0.00056982,0.00006095,-0.00037527,0.00009918,0.0
 0081867,0.00019068,-0.00485638,0.00182214,-0.00009958,0.00006266,0.000
 73187,0.00086102,-0.00004844,-0.00122271,-0.01268731,0.00611345,-0.014
 43651,-0.04865727,0.06758842,-0.00050691,-0.00096189,0.00516345,-0.023
 11618,0.00283661,-0.01523397,-0.12193425,0.04569556,-0.17863083,0.0058
 9371,0.00193166,0.00222339,-0.00006526,-0.00131881,0.00006195,0.000680
 58,-0.00003695,0.00157333,0.00062575,0.00026003,0.00014132,-0.00027504
 ,0.00046529,0.00003548,-0.00048277,0.00160316,-0.00003993,0.00155542,0
 .00083812,-0.00061989,0.00179864,0.00163802,-0.00327328,0.00132228,-0.
 00038432,0.00147345,0.13379907,-0.05413712,0.18785377,-0.00028584,-0.0
 0046654,0.00045420,-0.00012922,0.00158766,-0.00018302,-0.00560102,-0.0
 0111116,0.00193835,-0.01482984,0.04819588,0.00333804,-0.04808291,0.035
 89305,0.01248951,0.00099516,0.00137613,-0.00182809,-0.00070472,-0.0013
 7762,0.00082086,0.00184142,0.00012032,-0.00008779,0.00046706,-0.000025
 15,0.00107696,0.00000374,0.00030356,-0.00006208,-0.00005816,-0.0001583
 2,0.00022796,0.00019657,-0.00020776,-0.00014905,-0.00025910,0.00080121
 ,0.00034327,0.06602316,0.00004923,0.00027054,-0.00051995,0.00055143,-0
 .00115966,0.00028051,0.00138380,0.00247868,-0.00112396,0.00044449,-0.0
 1006677,0.00064496,0.08507678,-0.49737538,-0.03131861,-0.00290202,0.00
 239029,0.00112587,0.00018686,0.00121454,-0.00063486,-0.00078421,0.0003
 6960,0.00021909,-0.00107308,-0.00018785,0.00011826,-0.00004889,-0.0000
 8054,0.00006469,0.00005155,0.00000251,-0.00011703,-0.00006558,0.000768
 25,0.00011976,0.00034509,-0.00014424,-0.00027060,-0.08360155,0.5027937
 9,-0.00036799,0.00025427,-0.00013150,-0.00018888,-0.00061512,0.0002137
 0,0.00064729,0.00039550,0.00136615,0.00327795,-0.01179017,-0.00306353,
 0.01375063,-0.02011925,-0.00874888,0.00070501,0.00178485,0.00036115,0.
 00088451,-0.00146414,0.00096959,0.00039900,-0.00024596,0.00015398,0.00
 028931,-0.00057886,0.00075638,0.00001106,-0.00002276,0.00004304,0.0000
 1774,-0.00004074,0.00003004,0.00006306,0.00005084,0.00004207,0.0001180
 8,0.00008756,-0.00045017,-0.01846398,0.03069337,0.00985449,0.00042207,
 -0.00030488,-0.00003218,0.00027722,0.00040184,-0.00013895,0.00047144,0
 .00059830,0.00085620,-0.00085669,0.00940150,-0.01410488,-0.00209343,-0
 .00017694,0.00058483,-0.11013248,0.00673946,-0.12275794,-0.00509476,-0
 .00235161,-0.00031185,0.01081289,-0.00363362,0.00962172,-0.00062383,-0
 .00325928,-0.00069082,-0.00003714,-0.00011051,0.00006271,-0.00008844,-
 0.00001492,0.00006685,0.00001365,-0.00004906,0.00004227,0.00027794,-0.
 00051682,0.00015679,0.00014736,-0.00009865,-0.00017021,0.10366798,0.00
 038673,-0.00025696,0.00000606,-0.00018379,0.00101218,0.00006049,-0.000
 00015,0.00241132,-0.00008270,-0.00173747,0.00289419,-0.01558844,-0.000
 81115,0.00037869,0.00045815,0.00594513,-0.04403976,0.02784318,0.012813
 11,-0.00151851,0.02320626,-0.00516046,-0.00561780,-0.00235110,-0.00324
 729,-0.00077530,-0.00488763,0.00004117,-0.00008140,-0.00010383,-0.0000
 6214,0.00003264,0.00010438,0.00011551,0.00006876,0.00021379,0.00078532
 ,-0.00032494,0.00077036,-0.00005361,-0.00019728,0.00038923,-0.00858925
 ,0.04590104,0.00035459,-0.00040106,0.00003925,-0.00050201,0.00057145,0
 .00014574,0.00033291,-0.00003774,0.00045369,0.00256964,-0.00028901,-0.
 00469476,-0.00084911,0.00043923,0.00044569,-0.11786195,0.02984564,-0.2
 6626552,0.00233113,-0.00088389,-0.00393991,-0.01179076,0.00406839,-0.0
 0553714,-0.00411488,0.00075430,-0.00280855,-0.00005662,0.00010086,-0.0
 0032359,0.00004246,-0.00014598,0.00009788,0.00012501,-0.00007560,0.000
 19951,0.00009095,-0.00090122,0.00010254,-0.00006271,-0.00011570,-0.000
 11517,0.12889520,-0.03055132,0.28103633,0.00024434,0.00011875,-0.00004
 653,-0.00032124,0.00003760,0.00014718,0.00011708,0.00003632,0.00016636
 ,-0.00058907,-0.00009328,-0.00052322,0.00109712,-0.00027851,0.00019665
 ,0.00821437,0.00076567,0.00502660,-0.25031739,0.08150717,-0.09032996,-
 0.00975419,0.00287593,-0.00559998,0.00087639,-0.00233650,0.00048992,0.
 00004403,-0.00025583,0.00004143,0.00002811,-0.00000448,0.00000057,-0.0
 0006728,0.00005125,0.00003120,-0.00004205,0.00000036,-0.00001833,-0.00
 016748,0.00025974,-0.00012701,0.00016635,-0.00135454,0.00038287,0.2632
 8112,-0.00032500,-0.00009160,-0.00007771,0.00033898,0.00010535,0.00005
 648,-0.00006262,0.00019303,0.00013140,0.00222644,0.00131448,0.00176393
 ,-0.00175258,0.00043829,-0.00035961,0.01598980,-0.01052923,0.00441161,
 0.08163171,-0.08155845,0.03453418,0.01197180,-0.01096054,0.00585378,0.
 00162392,0.00184005,-0.00023053,-0.00022338,0.00029402,0.00006511,-0.0
 0001574,-0.00000169,-0.00002550,-0.00011572,-0.00005144,-0.00006549,-0
 .00013176,0.00013881,-0.00013010,-0.00095404,-0.00061774,0.00096402,0.
 00083842,-0.00137880,-0.00097069,-0.09246835,0.09222214,-0.00037773,-0
 .00035717,-0.00007877,0.00071512,-0.00001857,0.00001451,0.00005695,-0.
 00005999,-0.00016489,-0.00146981,-0.00214182,0.00032595,0.00132438,-0.
 00058418,0.00008051,-0.01788162,0.00178373,-0.00803535,-0.09213251,0.0
 3614693,-0.07756320,0.02044148,-0.00443409,0.00809276,0.00067221,0.002
 00521,0.00183581,-0.00010811,0.00036451,-0.00012082,-0.00006183,0.0000
 6844,-0.00001459,0.00007447,0.00008584,0.00004685,0.00006391,-0.000134
 59,-0.00001454,0.00094084,0.00088937,-0.00037720,-0.00137639,0.0036105
 1,0.00078272,0.09582448,-0.03880727,0.07848512,0.00008574,-0.00021703,
 -0.00005746,0.00117677,0.00039927,0.00058224,-0.00046512,-0.00019488,0
 .00009716,-0.00051214,-0.00085316,0.00120472,0.00065728,-0.00052985,-0
 .00010511,-0.00430384,-0.00246126,-0.00238102,-0.16682424,-0.12581022,
 -0.07251248,0.01104288,0.01237385,0.00587327,-0.00142477,0.00300854,-0
 .00021078,-0.00002260,0.00000001,-0.00001975,-0.00008609,0.00035935,-0
 .00006867,0.00008036,-0.00011237,-0.00002764,0.00003412,-0.00004707,-0
 .00007606,0.00052713,0.00040224,-0.00049037,0.00085183,0.00088024,-0.0
 0013217,-0.01335224,-0.01788371,-0.00700431,0.17174882,0.00035938,0.00
 006173,-0.00009328,-0.00139540,0.00000600,-0.00000503,-0.00096035,-0.0
 0047121,-0.00064995,0.00381928,-0.00265071,0.00035756,-0.00047478,0.00
 042249,-0.00000132,-0.01104947,-0.01315036,-0.01003265,-0.12111097,-0.
 18004926,-0.06930050,-0.01059421,-0.01000085,-0.00157886,0.00159018,-0
 .00206552,0.00141725,-0.00009150,0.00001335,0.00001188,0.00004067,-0.0
 0025332,0.00011653,0.00015131,-0.00036034,-0.00019744,-0.00003367,0.00
 008520,0.00012388,-0.00012374,-0.00013611,0.00025009,-0.00025271,0.001
 09693,0.00052454,0.00808366,0.00968162,0.00446383,0.13189520,0.1969319
 3,0.00029480,0.00004093,0.00014101,-0.00176893,-0.00004843,-0.00125862
 ,0.00170543,0.00075489,0.00042491,-0.00231951,0.00525833,-0.00226753,-
 0.00025845,0.00008106,0.00026385,0.01810535,0.01845496,0.00980412,-0.0
 7200044,-0.07182597,-0.07147912,-0.01654467,-0.01509035,-0.00849092,0.
 00296104,-0.00543783,-0.00058142,-0.00000938,0.00002926,-0.00001190,0.
 00012269,-0.00062325,0.00012527,-0.00022902,0.00059986,0.00018653,-0.0
 0001610,-0.00006000,0.00003234,-0.00017921,-0.00025247,-0.00016462,0.0
 0064233,-0.00214576,0.00019497,-0.00490248,-0.00728744,-0.00357118,0.0
 7441152,0.07518773,0.07606522,0.00221064,0.00093044,-0.00040364,-0.001
 81105,0.00183223,0.00020157,0.00026895,-0.00001027,0.00038436,-0.00278
 253,-0.00106383,-0.00239725,-0.00044070,-0.00027886,0.00153177,0.00113
 099,0.00162429,-0.00172390,-0.00554464,-0.00239355,0.00121275,-0.32165
 512,-0.00161657,0.06850477,-0.00902222,0.00199373,0.00621931,0.0003112
 6,-0.00102109,0.00062746,0.00010079,-0.00016886,0.00000413,0.00001687,
 0.00001262,-0.00000944,0.00001939,-0.00029991,0.00005971,0.00013448,-0
 .00024333,-0.00023936,0.00038499,-0.00006562,0.00018032,-0.00013846,-0
 .00014204,0.00072961,0.00086221,0.00015687,-0.00019142,0.33681111,0.00
 175310,0.00032782,-0.00009302,-0.00144006,0.00183693,0.00049517,0.0004
 1140,0.00016124,-0.00004112,-0.00399311,0.00026701,-0.00047613,-0.0019
 9517,-0.00085920,0.00144063,-0.00934882,-0.00489440,-0.00256995,0.0263
 4061,0.00106000,-0.00574607,-0.00319811,-0.03790794,-0.00551570,-0.011
 95045,0.00077156,0.00721489,0.00015720,-0.00218305,0.00047964,0.000211
 64,0.00005222,-0.00000709,0.00002594,0.00003769,-0.00002504,0.00010275
 ,-0.00026470,0.00019269,0.00000025,-0.00042812,-0.00002221,0.00075502,
 0.00099961,-0.00063690,0.00217540,-0.00091986,-0.00336501,-0.00115512,
 0.00074945,0.00217227,0.00115274,0.04134834,0.00060747,-0.00031362,-0.
 00019243,0.00049370,0.00079900,0.00020941,0.00039573,-0.00003081,0.000
 40079,0.00069914,-0.00455807,-0.00398781,0.00121884,0.00172719,0.00144
 970,0.02112717,-0.00428366,0.00143296,0.00212099,-0.00003690,-0.005807
 76,0.06338406,-0.00618330,-0.06027710,-0.01143960,0.00506716,0.0068243
 7,-0.00003909,0.00043097,0.00023830,-0.00005395,-0.00000874,0.00001550
 ,-0.00005764,0.00008637,0.00006365,0.00009464,-0.00013945,-0.00000006,
 -0.00066445,0.00024344,-0.00031036,-0.00146412,0.00076427,0.00162222,-
 0.00117012,0.00082788,0.00064212,0.00063734,-0.00037758,0.00041734,-0.
 07475470,0.00643308,0.05745535,-0.00099897,0.00168394,0.00048293,-0.00
 264551,-0.00307883,-0.00595681,0.00052596,0.00001603,0.00079007,0.0111
 8131,-0.00499618,0.00441276,0.00005254,0.00078914,-0.00195379,-0.00218
 279,-0.00131769,-0.00068752,0.00093939,0.00088862,0.00203373,-0.007385
 07,0.00836622,-0.01703434,-0.11385415,0.04623039,-0.10047648,0.0002243
 7,-0.00035148,0.00015394,0.00088282,-0.00028288,0.00032877,0.00015549,
 -0.00031447,-0.00022595,0.00025452,-0.00078942,0.00023957,-0.00021779,
 0.00006609,-0.00011583,0.00143305,0.00029825,0.00006513,0.00068050,-0.
 00054616,-0.00043114,-0.00007610,-0.00000975,0.00017643,-0.00085695,-0
 .00000522,-0.00113540,0.11188738,0.00247765,-0.00221348,-0.00022418,0.
 00932387,-0.00296460,0.02291176,-0.00059955,-0.00521710,0.00127754,-0.
 00055719,-0.00295020,-0.00224553,-0.00023471,0.00049254,0.00037027,-0.
 00205911,-0.00080647,-0.00398277,-0.00079383,0.00300192,0.00145101,-0.
 00857546,0.00566760,-0.01598262,0.04760788,-0.07778522,0.07377388,-0.0
 0023331,-0.00037027,-0.00008635,0.00003226,0.00167664,-0.00076641,-0.0
 0027117,-0.00025886,0.00119922,-0.00032242,-0.00029923,0.00088442,-0.0
 0019858,0.00010551,0.00002948,0.00062368,-0.00060464,-0.00129531,0.000
 87965,-0.00011846,0.00048432,-0.00005406,0.00008899,0.00019221,-0.0003
 9899,-0.00015460,-0.00044723,-0.04664661,0.08270992,0.00038643,-0.0011
 0303,-0.00008923,0.00440702,-0.00009608,0.00337884,-0.00096071,0.00082
 613,-0.00053195,-0.01739149,0.00398282,-0.00233735,0.00204960,-0.00093
 183,0.00179926,-0.00246590,0.00083361,-0.00383981,-0.00054278,0.000388
 85,0.00081112,-0.00228318,0.00033164,-0.00594290,-0.10340930,0.0737328
 2,-0.21945571,0.00004018,-0.00000984,-0.00014764,0.00002856,0.00080692
 ,0.00078640,-0.00017962,0.00044816,0.00011167,0.00006449,0.00089639,-0
 .00039832,0.00005040,-0.00004614,-0.00042915,0.00011844,-0.00171589,-0
 .00143592,0.00041037,-0.00065405,-0.00036583,0.00027959,-0.00021666,0.
 00016976,0.00006396,0.00006988,-0.00019621,0.11933393,-0.07754372,0.22
 811298\\0.00003926,-0.00000529,-0.00000596,-0.00001483,0.00001018,0.00
 002259,-0.00000464,-0.00002891,-0.00002218,-0.00000308,0.00003315,-0.0
 0002338,-0.00001312,-0.00000171,-0.00001928,0.00000783,0.00000779,-0.0
 0001363,0.00001144,-0.00002056,0.00000842,-0.00001766,0.00001400,0.000
 01270,-0.00000193,-0.00002352,0.00001705,-0.00000399,0.00000560,0.0000
 0177,0.00001003,0.00000733,-0.00000266,0.00001178,-0.00000550,0.000004
 21,0.00001415,0.00000614,-0.00000168,-0.00000043,-0.00001281,0.0000114
 0,-0.00000824,-0.00000467,0.00000896,-0.00001216,-0.00000094,0.0000005
 2,-0.00001707,0.00000889,0.00000347,0.00000132,0.00000366,0.00000310,0
 .00000133,0.00000719,-0.00000543\\\@


 MICRO CREDO - NEVER TRUST A COMPUTER BIGGER
               BIGGER THAN YOU CAN LIFT.
 Job cpu time:       0 days  0 hours 45 minutes 25.5 seconds.
 File lengths (MBytes):  RWF=    152 Int=      0 D2E=      0 Chk=      8 Scr=      1
 Normal termination of Gaussian 09 at Tue Jan 28 03:05:56 2020.
