 Entering Gaussian System, Link 0=/home/puck/opt/gaussian_09/g09
 Input=dsC7O2H10nsd_0273.com
 Output=dsC7O2H10nsd_0273.log
 Initial command:
 /home/puck/opt/gaussian_09/l1.exe "/scratch/puck/g09_8f0737f0-04f2-49c8-9e1e-641fc8d78c87/Gau-68662.inp" -scrdir="/scratch/puck/g09_8f0737f0-04f2-49c8-9e1e-641fc8d78c87/"
 Entering Link 1 = /home/puck/opt/gaussian_09/l1.exe PID=     68671.
  
 Copyright (c) 1988,1990,1992,1993,1995,1998,2003,2009,2013,
            Gaussian, Inc.  All Rights Reserved.
  
 This is part of the Gaussian(R) 09 program.  It is based on
 the Gaussian(R) 03 system (copyright 2003, Gaussian, Inc.),
 the Gaussian(R) 98 system (copyright 1998, Gaussian, Inc.),
 the Gaussian(R) 94 system (copyright 1995, Gaussian, Inc.),
 the Gaussian 92(TM) system (copyright 1992, Gaussian, Inc.),
 the Gaussian 90(TM) system (copyright 1990, Gaussian, Inc.),
 the Gaussian 88(TM) system (copyright 1988, Gaussian, Inc.),
 the Gaussian 86(TM) system (copyright 1986, Carnegie Mellon
 University), and the Gaussian 82(TM) system (copyright 1983,
 Carnegie Mellon University). Gaussian is a federally registered
 trademark of Gaussian, Inc.
  
 This software contains proprietary and confidential information,
 including trade secrets, belonging to Gaussian, Inc.
  
 This software is provided under written license and may be
 used, copied, transmitted, or stored only in accord with that
 written license.
  
 The following legend is applicable only to US Government
 contracts under FAR:
  
                    RESTRICTED RIGHTS LEGEND
  
 Use, reproduction and disclosure by the US Government is
 subject to restrictions as set forth in subparagraphs (a)
 and (c) of the Commercial Computer Software - Restricted
 Rights clause in FAR 52.227-19.
  
 Gaussian, Inc.
 340 Quinnipiac St., Bldg. 40, Wallingford CT 06492
  
  
 ---------------------------------------------------------------
 Warning -- This program may not be used in any manner that
 competes with the business of Gaussian, Inc. or will provide
 assistance to any competitor of Gaussian, Inc.  The licensee
 of this program is prohibited from giving any competitor of
 Gaussian, Inc. access to this program.  By using this program,
 the user acknowledges that Gaussian, Inc. is engaged in the
 business of creating and licensing software in the field of
 computational chemistry and represents and warrants to the
 licensee that it is not a competitor of Gaussian, Inc. and that
 it will not use this program in any manner prohibited above.
 ---------------------------------------------------------------
  

 Cite this work as:
 Gaussian 09, Revision D.01,
 M. J. Frisch, G. W. Trucks, H. B. Schlegel, G. E. Scuseria, 
 M. A. Robb, J. R. Cheeseman, G. Scalmani, V. Barone, B. Mennucci, 
 G. A. Petersson, H. Nakatsuji, M. Caricato, X. Li, H. P. Hratchian, 
 A. F. Izmaylov, J. Bloino, G. Zheng, J. L. Sonnenberg, M. Hada, 
 M. Ehara, K. Toyota, R. Fukuda, J. Hasegawa, M. Ishida, T. Nakajima, 
 Y. Honda, O. Kitao, H. Nakai, T. Vreven, J. A. Montgomery, Jr., 
 J. E. Peralta, F. Ogliaro, M. Bearpark, J. J. Heyd, E. Brothers, 
 K. N. Kudin, V. N. Staroverov, T. Keith, R. Kobayashi, J. Normand, 
 K. Raghavachari, A. Rendell, J. C. Burant, S. S. Iyengar, J. Tomasi, 
 M. Cossi, N. Rega, J. M. Millam, M. Klene, J. E. Knox, J. B. Cross, 
 V. Bakken, C. Adamo, J. Jaramillo, R. Gomperts, R. E. Stratmann, 
 O. Yazyev, A. J. Austin, R. Cammi, C. Pomelli, J. W. Ochterski, 
 R. L. Martin, K. Morokuma, V. G. Zakrzewski, G. A. Voth, 
 P. Salvador, J. J. Dannenberg, S. Dapprich, A. D. Daniels, 
 O. Farkas, J. B. Foresman, J. V. Ortiz, J. Cioslowski, 
 and D. J. Fox, Gaussian, Inc., Wallingford CT, 2013.
 
 ******************************************
 Gaussian 09:  ES64L-G09RevD.01 24-Apr-2013
                27-Jan-2020 
 ******************************************
 -----------------------------
 # b3lyp 6-31G(2df,p) opt Freq
 -----------------------------
 1/14=-1,18=20,19=15,26=3,38=1/1,3;
 2/9=110,12=2,17=6,18=5,40=1/2;
 3/5=1,6=6,7=104,11=2,16=1,25=1,30=1,71=1,74=-5/1,2,3;
 4//1;
 5/5=2,38=5/2;
 6/7=2,8=2,9=2,10=2,28=1/1;
 7//1,2,3,16;
 1/14=-1,18=20,19=15,26=3/3(2);
 2/9=110/2;
 99//99;
 2/9=110/2;
 3/5=1,6=6,7=104,11=2,16=1,25=1,30=1,71=1,74=-5/1,2,3;
 4/5=5,16=3,69=1/1;
 5/5=2,38=5/2;
 7//1,2,3,16;
 1/14=-1,18=20,19=15,26=3/3(-5);
 2/9=110/2;
 6/7=2,8=2,9=2,10=2,19=2,28=1/1;
 99/9=1/99;
 -----
 titel
 -----
 Symbolic Z-matrix:
 Charge =  0 Multiplicity = 1
 C                     3.49901   1.8841   -1.65939 
 C                     3.09474   0.69968  -2.48867 
 O                     3.05755  -0.56917  -1.88374 
 C                     2.27895  -0.45887  -0.69939 
 C                     1.32525   0.74657  -0.87042 
 C                    -0.18753   0.48338  -1.08712 
 C                    -0.36824   1.19628   0.26456 
 O                     1.0554    1.38695   0.40361 
 C                     2.02675   1.58815  -1.91208 
 H                     3.89755   1.72936  -0.66296 
 H                     3.91855   2.73622  -2.18278 
 H                     3.33582   0.64141  -3.54322 
 H                     1.75853  -1.40803  -0.54454 
 H                     2.90738  -0.26545   0.18155 
 H                    -0.62418   0.98926  -1.9501 
 H                    -0.47353  -0.56954  -1.10909 
 H                    -0.9068    2.15092   0.22993 
 H                    -0.77941   0.58782   1.07873 
 H                     1.43928   2.26992  -2.5153 
 

 GradGradGradGradGradGradGradGradGradGradGradGradGradGradGradGradGradGrad
 Berny optimization.
 Initialization pass.
                           ----------------------------
                           !    Initial Parameters    !
                           ! (Angstroms and Degrees)  !
 --------------------------                            --------------------------
 ! Name  Definition              Value          Derivative Info.                !
 --------------------------------------------------------------------------------
 ! R1    R(1,2)                  1.5013         estimate D2E/DX2                !
 ! R2    R(1,9)                  1.5228         estimate D2E/DX2                !
 ! R3    R(1,10)                 1.0843         estimate D2E/DX2                !
 ! R4    R(1,11)                 1.0845         estimate D2E/DX2                !
 ! R5    R(2,3)                  1.4062         estimate D2E/DX2                !
 ! R6    R(2,9)                  1.5041         estimate D2E/DX2                !
 ! R7    R(2,12)                 1.0833         estimate D2E/DX2                !
 ! R8    R(3,4)                  1.4216         estimate D2E/DX2                !
 ! R9    R(4,5)                  1.5466         estimate D2E/DX2                !
 ! R10   R(4,13)                 1.0935         estimate D2E/DX2                !
 ! R11   R(4,14)                 1.0993         estimate D2E/DX2                !
 ! R12   R(5,6)                  1.5507         estimate D2E/DX2                !
 ! R13   R(5,8)                  1.4512         estimate D2E/DX2                !
 ! R14   R(5,9)                  1.5118         estimate D2E/DX2                !
 ! R15   R(6,7)                  1.5388         estimate D2E/DX2                !
 ! R16   R(6,15)                 1.0915         estimate D2E/DX2                !
 ! R17   R(6,16)                 1.0913         estimate D2E/DX2                !
 ! R18   R(7,8)                  1.4431         estimate D2E/DX2                !
 ! R19   R(7,17)                 1.0966         estimate D2E/DX2                !
 ! R20   R(7,18)                 1.0964         estimate D2E/DX2                !
 ! R21   R(9,19)                 1.0834         estimate D2E/DX2                !
 ! A1    A(2,1,10)             119.6035         estimate D2E/DX2                !
 ! A2    A(2,1,11)             117.225          estimate D2E/DX2                !
 ! A3    A(9,1,10)             118.6926         estimate D2E/DX2                !
 ! A4    A(9,1,11)             116.5286         estimate D2E/DX2                !
 ! A5    A(10,1,11)            114.4226         estimate D2E/DX2                !
 ! A6    A(1,2,3)              118.7756         estimate D2E/DX2                !
 ! A7    A(1,2,12)             121.3458         estimate D2E/DX2                !
 ! A8    A(3,2,9)              110.4453         estimate D2E/DX2                !
 ! A9    A(3,2,12)             112.0935         estimate D2E/DX2                !
 ! A10   A(9,2,12)             124.2583         estimate D2E/DX2                !
 ! A11   A(2,3,4)              107.63           estimate D2E/DX2                !
 ! A12   A(3,4,5)              107.8224         estimate D2E/DX2                !
 ! A13   A(3,4,13)             108.1365         estimate D2E/DX2                !
 ! A14   A(3,4,14)             111.6039         estimate D2E/DX2                !
 ! A15   A(5,4,13)             113.4985         estimate D2E/DX2                !
 ! A16   A(5,4,14)             107.6984         estimate D2E/DX2                !
 ! A17   A(13,4,14)            108.1391         estimate D2E/DX2                !
 ! A18   A(4,5,6)              118.9954         estimate D2E/DX2                !
 ! A19   A(4,5,8)              111.1937         estimate D2E/DX2                !
 ! A20   A(4,5,9)              102.9413         estimate D2E/DX2                !
 ! A21   A(6,5,8)               90.9267         estimate D2E/DX2                !
 ! A22   A(6,5,9)              116.7993         estimate D2E/DX2                !
 ! A23   A(8,5,9)              116.4578         estimate D2E/DX2                !
 ! A24   A(5,6,7)               85.0195         estimate D2E/DX2                !
 ! A25   A(5,6,15)             114.9668         estimate D2E/DX2                !
 ! A26   A(5,6,16)             114.9752         estimate D2E/DX2                !
 ! A27   A(7,6,15)             115.6456         estimate D2E/DX2                !
 ! A28   A(7,6,16)             115.7154         estimate D2E/DX2                !
 ! A29   A(15,6,16)            109.0521         estimate D2E/DX2                !
 ! A30   A(6,7,8)               91.7191         estimate D2E/DX2                !
 ! A31   A(6,7,17)             115.6732         estimate D2E/DX2                !
 ! A32   A(6,7,18)             116.0532         estimate D2E/DX2                !
 ! A33   A(8,7,17)             111.8709         estimate D2E/DX2                !
 ! A34   A(8,7,18)             111.8226         estimate D2E/DX2                !
 ! A35   A(17,7,18)            108.8066         estimate D2E/DX2                !
 ! A36   A(5,8,7)               92.3239         estimate D2E/DX2                !
 ! A37   A(1,9,5)              116.2619         estimate D2E/DX2                !
 ! A38   A(1,9,19)             119.6249         estimate D2E/DX2                !
 ! A39   A(2,9,5)              105.354          estimate D2E/DX2                !
 ! A40   A(2,9,19)             122.907          estimate D2E/DX2                !
 ! A41   A(5,9,19)             118.8384         estimate D2E/DX2                !
 ! D1    D(10,1,2,3)             9.2458         estimate D2E/DX2                !
 ! D2    D(10,1,2,12)         -137.5752         estimate D2E/DX2                !
 ! D3    D(11,1,2,3)           155.047          estimate D2E/DX2                !
 ! D4    D(11,1,2,12)            8.226          estimate D2E/DX2                !
 ! D5    D(10,1,9,5)           -16.4295         estimate D2E/DX2                !
 ! D6    D(10,1,9,19)          137.6386         estimate D2E/DX2                !
 ! D7    D(11,1,9,5)          -159.5625         estimate D2E/DX2                !
 ! D8    D(11,1,9,19)           -5.4944         estimate D2E/DX2                !
 ! D9    D(1,2,3,4)             51.528          estimate D2E/DX2                !
 ! D10   D(9,2,3,4)            -15.6626         estimate D2E/DX2                !
 ! D11   D(12,2,3,4)          -158.7648         estimate D2E/DX2                !
 ! D12   D(3,2,9,5)              0.5973         estimate D2E/DX2                !
 ! D13   D(3,2,9,19)          -140.0689         estimate D2E/DX2                !
 ! D14   D(12,2,9,5)           138.2923         estimate D2E/DX2                !
 ! D15   D(12,2,9,19)           -2.374          estimate D2E/DX2                !
 ! D16   D(2,3,4,5)             24.2444         estimate D2E/DX2                !
 ! D17   D(2,3,4,13)           147.3394         estimate D2E/DX2                !
 ! D18   D(2,3,4,14)           -93.8401         estimate D2E/DX2                !
 ! D19   D(3,4,5,6)            107.9284         estimate D2E/DX2                !
 ! D20   D(3,4,5,8)           -148.4962         estimate D2E/DX2                !
 ! D21   D(3,4,5,9)            -23.087          estimate D2E/DX2                !
 ! D22   D(13,4,5,6)           -11.8285         estimate D2E/DX2                !
 ! D23   D(13,4,5,8)            91.7469         estimate D2E/DX2                !
 ! D24   D(13,4,5,9)          -142.8439         estimate D2E/DX2                !
 ! D25   D(14,4,5,6)          -131.504          estimate D2E/DX2                !
 ! D26   D(14,4,5,8)           -27.9286         estimate D2E/DX2                !
 ! D27   D(14,4,5,9)            97.4807         estimate D2E/DX2                !
 ! D28   D(4,5,6,7)            115.7427         estimate D2E/DX2                !
 ! D29   D(4,5,6,15)          -128.2394         estimate D2E/DX2                !
 ! D30   D(4,5,6,16)            -0.3538         estimate D2E/DX2                !
 ! D31   D(8,5,6,7)              0.7598         estimate D2E/DX2                !
 ! D32   D(8,5,6,15)           116.7777         estimate D2E/DX2                !
 ! D33   D(8,5,6,16)          -115.3367         estimate D2E/DX2                !
 ! D34   D(9,5,6,7)           -119.7302         estimate D2E/DX2                !
 ! D35   D(9,5,6,15)            -3.7123         estimate D2E/DX2                !
 ! D36   D(9,5,6,16)           124.1733         estimate D2E/DX2                !
 ! D37   D(4,5,8,7)           -122.5598         estimate D2E/DX2                !
 ! D38   D(6,5,8,7)             -0.8078         estimate D2E/DX2                !
 ! D39   D(9,5,8,7)            119.9713         estimate D2E/DX2                !
 ! D40   D(4,5,9,1)            -49.9701         estimate D2E/DX2                !
 ! D41   D(4,5,9,2)             13.1561         estimate D2E/DX2                !
 ! D42   D(4,5,9,19)           155.7488         estimate D2E/DX2                !
 ! D43   D(6,5,9,1)            177.7081         estimate D2E/DX2                !
 ! D44   D(6,5,9,2)           -119.1657         estimate D2E/DX2                !
 ! D45   D(6,5,9,19)            23.427          estimate D2E/DX2                !
 ! D46   D(8,5,9,1)             71.9474         estimate D2E/DX2                !
 ! D47   D(8,5,9,2)            135.0736         estimate D2E/DX2                !
 ! D48   D(8,5,9,19)           -82.3337         estimate D2E/DX2                !
 ! D49   D(5,6,7,8)             -0.7643         estimate D2E/DX2                !
 ! D50   D(5,6,7,17)           114.572          estimate D2E/DX2                !
 ! D51   D(5,6,7,18)          -116.1455         estimate D2E/DX2                !
 ! D52   D(15,6,7,8)          -116.1148         estimate D2E/DX2                !
 ! D53   D(15,6,7,17)           -0.7785         estimate D2E/DX2                !
 ! D54   D(15,6,7,18)          128.504          estimate D2E/DX2                !
 ! D55   D(16,6,7,8)           114.6047         estimate D2E/DX2                !
 ! D56   D(16,6,7,17)         -130.059          estimate D2E/DX2                !
 ! D57   D(16,6,7,18)           -0.7765         estimate D2E/DX2                !
 ! D58   D(6,7,8,5)              0.8143         estimate D2E/DX2                !
 ! D59   D(17,7,8,5)          -117.812          estimate D2E/DX2                !
 ! D60   D(18,7,8,5)           119.849          estimate D2E/DX2                !
 --------------------------------------------------------------------------------
 Trust Radius=3.00D-01 FncErr=1.00D-07 GrdErr=1.00D-06
 Number of steps in this run=    114 maximum allowed number of steps=    114.
 GradGradGradGradGradGradGradGradGradGradGradGradGradGradGradGradGradGrad

                          Input orientation:                          
 ---------------------------------------------------------------------
 Center     Atomic      Atomic             Coordinates (Angstroms)
 Number     Number       Type             X           Y           Z
 ---------------------------------------------------------------------
      1          6           0        3.499009    1.884101   -1.659394
      2          6           0        3.094743    0.699682   -2.488666
      3          8           0        3.057546   -0.569171   -1.883744
      4          6           0        2.278951   -0.458874   -0.699385
      5          6           0        1.325247    0.746568   -0.870416
      6          6           0       -0.187530    0.483381   -1.087116
      7          6           0       -0.368238    1.196283    0.264558
      8          8           0        1.055395    1.386953    0.403607
      9          6           0        2.026746    1.588151   -1.912082
     10          1           0        3.897546    1.729360   -0.662957
     11          1           0        3.918551    2.736222   -2.182779
     12          1           0        3.335815    0.641414   -3.543219
     13          1           0        1.758532   -1.408028   -0.544538
     14          1           0        2.907376   -0.265453    0.181551
     15          1           0       -0.624181    0.989265   -1.950101
     16          1           0       -0.473528   -0.569543   -1.109086
     17          1           0       -0.906796    2.150922    0.229930
     18          1           0       -0.779410    0.587820    1.078729
     19          1           0        1.439283    2.269918   -2.515301
 ---------------------------------------------------------------------
                    Distance matrix (angstroms):
                    1          2          3          4          5
     1  C    0.000000
     2  C    1.501323   0.000000
     3  O    2.502752   1.406166   0.000000
     4  C    2.810639   2.282388   1.421647   0.000000
     5  C    2.577152   2.398343   2.399764   1.546575   0.000000
     6  C    3.984983   3.575534   3.503284   2.668653   1.550716
     7  C    4.373818   4.451864   4.412259   3.267467   2.087654
     8  O    3.236415   3.605069   3.614831   2.474017   1.451222
     9  C    1.522825   1.504142   2.391106   2.392603   1.511764
    10  H    1.084281   2.244536   2.734807   2.722048   2.761457
    11  H    1.084462   2.218045   3.428758   3.885536   3.522251
    12  H    2.262675   1.083325   2.072874   3.227226   3.346240
    13  H    3.887194   3.163469   2.045627   1.093484   2.221759
    14  H    2.891314   2.845462   2.092903   1.099263   2.152662
    15  H    4.229177   3.768860   3.998530   3.477006   2.241626
    16  H    4.701517   4.030724   3.615049   2.785004   2.241585
    17  H    4.801235   5.050661   5.251908   4.221807   2.857444
    18  H    5.242379   5.267626   4.983684   3.689286   2.872968
    19  H    2.263603   2.281863   3.328373   3.383622   2.244827
                    6          7          8          9         10
     6  C    0.000000
     7  C    1.538801   0.000000
     8  O    2.140925   1.443060   0.000000
     9  C    2.608467   3.259949   2.519210   0.000000
    10  H    4.291878   4.397882   3.054934   2.253918   0.000000
    11  H    4.809955   5.170825   4.087491   2.229410   1.823204
    12  H    4.297834   5.341072   4.618829   2.295774   3.129709
    13  H    2.767486   3.458355   3.034023   3.304421   3.799027
    14  H    3.427640   3.587925   2.491904   2.931664   2.381787
    15  H    1.091478   2.238990   2.918745   2.718000   4.759254
    16  H    1.091296   2.239671   2.907529   3.398796   4.958858
    17  H    2.243356   1.096622   2.112820   3.675677   4.904760
    18  H    2.247691   1.096433   2.112088   4.221389   5.119620
    19  H    2.806768   3.485318   3.073601   1.083417   3.125130
                   11         12         13         14         15
    11  H    0.000000
    12  H    2.564878   0.000000
    13  H    4.952204   3.959813   0.000000
    14  H    3.952542   3.857445   1.775536   0.000000
    15  H    4.872619   4.282592   3.660593   4.311630   0.000000
    16  H    5.601005   4.680012   2.450278   3.631629   1.777606
    17  H    5.426575   5.874949   4.513303   4.515431   2.486334
    18  H    6.109330   6.188728   3.613801   3.889138   3.059259
    19  H    2.544558   2.702864   4.184867   3.982011   2.493473
                   16         17         18         19
    16  H    0.000000
    17  H    3.062943   0.000000
    18  H    2.493910   1.783249   0.000000
    19  H    3.701193   3.613107   4.546329   0.000000
 Stoichiometry    C7H10O2
 Framework group  C1[X(C7H10O2)]
 Deg. of freedom    51
 Full point group                 C1      NOp   1
 Largest Abelian subgroup         C1      NOp   1
 Largest concise Abelian subgroup C1      NOp   1
                         Standard orientation:                         
 ---------------------------------------------------------------------
 Center     Atomic      Atomic             Coordinates (Angstroms)
 Number     Number       Type             X           Y           Z
 ---------------------------------------------------------------------
      1          6           0        1.732318   -1.242076   -0.421071
      2          6           0        1.898723   -0.065569    0.496596
      3          8           0        1.644824    1.224002   -0.003249
      4          6           0        0.361409    1.203925   -0.614414
      5          6           0       -0.450020    0.053694    0.026245
      6          6           0       -1.611238    0.400946    0.993566
      7          6           0       -2.513139   -0.250788   -0.069320
      8          8           0       -1.382848   -0.523034   -0.924157
      9          6           0        0.626572   -0.865904    0.556076
     10          1           0        1.569635   -1.076456   -1.480207
     11          1           0        2.300123   -2.136418   -0.189105
     12          1           0        2.652566   -0.059890    1.274594
     13          1           0       -0.095580    2.188045   -0.478859
     14          1           0        0.429920    1.004073   -1.693184
     15          1           0       -1.574790   -0.107831    1.958522
     16          1           0       -1.769535    1.467925    1.159177
     17          1           0       -3.022704   -1.171347    0.239704
     18          1           0       -3.241024    0.410393   -0.554279
     19          1           0        0.387827   -1.531617    1.376819
 ---------------------------------------------------------------------
 Rotational constants (GHZ):      3.4426008      1.3922827      1.2531197
 Standard basis: 6-31G(2df,p) (6D, 7F)
 There are   329 symmetry adapted cartesian basis functions of A   symmetry.
 There are   302 symmetry adapted basis functions of A   symmetry.
   302 basis functions,   466 primitive gaussians,   329 cartesian basis functions
    34 alpha electrons       34 beta electrons
       nuclear repulsion energy       478.8765585203 Hartrees.
 NAtoms=   19 NActive=   19 NUniq=   19 SFac= 1.00D+00 NAtFMM=   60 NAOKFM=F Big=F
 Integral buffers will be    131072 words long.
 Raffenetti 2 integral format.
 Two-electron integral symmetry is turned on.
 One-electron integrals computed using PRISM.
 NBasis=   302 RedAO= T EigKep=  4.43D-04  NBF=   302
 NBsUse=   302 1.00D-06 EigRej= -1.00D+00 NBFU=   302
 ExpMin= 1.61D-01 ExpMax= 5.48D+03 ExpMxC= 8.25D+02 IAcc=1 IRadAn=         1 AccDes= 0.00D+00
 Harris functional with IExCor=  402 and IRadAn=       1 diagonalized for initial guess.
 HarFok:  IExCor=  402 AccDes= 0.00D+00 IRadAn=         1 IDoV= 1 UseB2=F ITyADJ=14
 ICtDFT=  3500011 ScaDFX=  1.000000  1.000000  1.000000  1.000000
 FoFCou: FMM=F IPFlag=           0 FMFlag=      100000 FMFlg1=           0
         NFxFlg=           0 DoJE=T BraDBF=F KetDBF=T FulRan=T
         wScrn=  0.000000 ICntrl=     500 IOpCl=  0 I1Cent=   200000004 NGrid=           0
         NMat0=    1 NMatS0=      1 NMatT0=    0 NMatD0=    1 NMtDS0=    0 NMtDT0=    0
 Petite list used in FoFCou.
 Requested convergence on RMS density matrix=1.00D-08 within 128 cycles.
 Requested convergence on MAX density matrix=1.00D-06.
 Requested convergence on             energy=1.00D-06.
 No special actions if energy rises.
 Integral accuracy reduced to 1.0D-05 until final iterations.
 Initial convergence to 1.0D-05 achieved.  Increase integral accuracy.
 SCF Done:  E(RB3LYP) =  -423.151560702     A.U. after   13 cycles
            NFock= 13  Conv=0.43D-08     -V/T= 2.0074

 **********************************************************************

            Population analysis using the SCF density.

 **********************************************************************

 Orbital symmetries:
       Occupied  (A) (A) (A) (A) (A) (A) (A) (A) (A) (A) (A) (A)
                 (A) (A) (A) (A) (A) (A) (A) (A) (A) (A) (A) (A)
                 (A) (A) (A) (A) (A) (A) (A) (A) (A) (A)
       Virtual   (A) (A) (A) (A) (A) (A) (A) (A) (A) (A) (A) (A)
                 (A) (A) (A) (A) (A) (A) (A) (A) (A) (A) (A) (A)
                 (A) (A) (A) (A) (A) (A) (A) (A) (A) (A) (A) (A)
                 (A) (A) (A) (A) (A) (A) (A) (A) (A) (A) (A) (A)
                 (A) (A) (A) (A) (A) (A) (A) (A) (A) (A) (A) (A)
                 (A) (A) (A) (A) (A) (A) (A) (A) (A) (A) (A) (A)
                 (A) (A) (A) (A) (A) (A) (A) (A) (A) (A) (A) (A)
                 (A) (A) (A) (A) (A) (A) (A) (A) (A) (A) (A) (A)
                 (A) (A) (A) (A) (A) (A) (A) (A) (A) (A) (A) (A)
                 (A) (A) (A) (A) (A) (A) (A) (A) (A) (A) (A) (A)
                 (A) (A) (A) (A) (A) (A) (A) (A) (A) (A) (A) (A)
                 (A) (A) (A) (A) (A) (A) (A) (A) (A) (A) (A) (A)
                 (A) (A) (A) (A) (A) (A) (A) (A) (A) (A) (A) (A)
                 (A) (A) (A) (A) (A) (A) (A) (A) (A) (A) (A) (A)
                 (A) (A) (A) (A) (A) (A) (A) (A) (A) (A) (A) (A)
                 (A) (A) (A) (A) (A) (A) (A) (A) (A) (A) (A) (A)
                 (A) (A) (A) (A) (A) (A) (A) (A) (A) (A) (A) (A)
                 (A) (A) (A) (A) (A) (A) (A) (A) (A) (A) (A) (A)
                 (A) (A) (A) (A) (A) (A) (A) (A) (A) (A) (A) (A)
                 (A) (A) (A) (A) (A) (A) (A) (A) (A) (A) (A) (A)
                 (A) (A) (A) (A) (A) (A) (A) (A) (A) (A) (A) (A)
                 (A) (A) (A) (A) (A) (A) (A) (A) (A) (A) (A) (A)
                 (A) (A) (A) (A)
 The electronic state is 1-A.
 Alpha  occ. eigenvalues --  -19.14201 -19.13092 -10.24321 -10.23656 -10.23107
 Alpha  occ. eigenvalues --  -10.22467 -10.19054 -10.18906 -10.18597  -1.04910
 Alpha  occ. eigenvalues --   -1.03178  -0.84814  -0.75639  -0.73093  -0.65475
 Alpha  occ. eigenvalues --   -0.60665  -0.58235  -0.54774  -0.51299  -0.48872
 Alpha  occ. eigenvalues --   -0.47881  -0.46619  -0.44100  -0.41851  -0.40572
 Alpha  occ. eigenvalues --   -0.38378  -0.37730  -0.35672  -0.34767  -0.31478
 Alpha  occ. eigenvalues --   -0.30952  -0.28267  -0.25090  -0.22949
 Alpha virt. eigenvalues --    0.06857   0.08798   0.09754   0.10421   0.12654
 Alpha virt. eigenvalues --    0.13260   0.14738   0.15489   0.16320   0.16648
 Alpha virt. eigenvalues --    0.17994   0.18459   0.19494   0.21252   0.23163
 Alpha virt. eigenvalues --    0.24720   0.26286   0.27742   0.28660   0.32025
 Alpha virt. eigenvalues --    0.36484   0.39185   0.41354   0.43446   0.45125
 Alpha virt. eigenvalues --    0.47340   0.48876   0.50387   0.50480   0.52578
 Alpha virt. eigenvalues --    0.52896   0.54289   0.55690   0.56716   0.56985
 Alpha virt. eigenvalues --    0.60160   0.61258   0.62328   0.65915   0.69193
 Alpha virt. eigenvalues --    0.69949   0.70970   0.72372   0.74302   0.74890
 Alpha virt. eigenvalues --    0.76116   0.76402   0.78449   0.79497   0.81089
 Alpha virt. eigenvalues --    0.83043   0.83389   0.84904   0.86444   0.89319
 Alpha virt. eigenvalues --    0.93337   0.94532   0.94943   0.97131   1.00122
 Alpha virt. eigenvalues --    1.04417   1.04740   1.10474   1.12103   1.14046
 Alpha virt. eigenvalues --    1.16203   1.17949   1.19200   1.21294   1.24372
 Alpha virt. eigenvalues --    1.26288   1.28424   1.30266   1.33233   1.34199
 Alpha virt. eigenvalues --    1.35060   1.37393   1.37691   1.40599   1.45391
 Alpha virt. eigenvalues --    1.46534   1.48326   1.49275   1.49901   1.50785
 Alpha virt. eigenvalues --    1.52339   1.53050   1.54813   1.55919   1.57951
 Alpha virt. eigenvalues --    1.59317   1.62227   1.63853   1.65988   1.68400
 Alpha virt. eigenvalues --    1.70429   1.72637   1.75863   1.76692   1.79740
 Alpha virt. eigenvalues --    1.82003   1.85081   1.89226   1.89988   1.95943
 Alpha virt. eigenvalues --    1.98408   2.04976   2.07104   2.09145   2.12445
 Alpha virt. eigenvalues --    2.12845   2.15264   2.20120   2.23549   2.29037
 Alpha virt. eigenvalues --    2.30715   2.32263   2.34347   2.40661   2.42190
 Alpha virt. eigenvalues --    2.44627   2.45444   2.48242   2.52732   2.56332
 Alpha virt. eigenvalues --    2.60451   2.62128   2.66702   2.69969   2.73614
 Alpha virt. eigenvalues --    2.75198   2.78961   2.81496   2.84881   2.86883
 Alpha virt. eigenvalues --    2.87729   2.89233   2.90709   2.91594   2.95300
 Alpha virt. eigenvalues --    2.98694   3.01990   3.02727   3.04858   3.07020
 Alpha virt. eigenvalues --    3.08442   3.08880   3.11247   3.12425   3.13683
 Alpha virt. eigenvalues --    3.16326   3.17136   3.19710   3.20858   3.22205
 Alpha virt. eigenvalues --    3.24191   3.27756   3.29402   3.33162   3.33442
 Alpha virt. eigenvalues --    3.35378   3.40470   3.40888   3.43452   3.45520
 Alpha virt. eigenvalues --    3.45982   3.51401   3.52768   3.55601   3.56763
 Alpha virt. eigenvalues --    3.58707   3.60900   3.64480   3.67308   3.71921
 Alpha virt. eigenvalues --    3.78141   3.82905   3.84800   3.91052   3.98950
 Alpha virt. eigenvalues --    4.02014   4.06094   4.09268   4.13634   4.17275
 Alpha virt. eigenvalues --    4.18817   4.20705   4.24649   4.27114   4.31973
 Alpha virt. eigenvalues --    4.32755   4.37421   4.38016   4.40248   4.41937
 Alpha virt. eigenvalues --    4.43155   4.44180   4.48152   4.49813   4.51182
 Alpha virt. eigenvalues --    4.53026   4.54572   4.55531   4.57126   4.58081
 Alpha virt. eigenvalues --    4.59343   4.61711   4.63372   4.67209   4.67423
 Alpha virt. eigenvalues --    4.69671   4.70056   4.71881   4.75496   4.76904
 Alpha virt. eigenvalues --    4.77263   4.78543   4.81053   4.83893   4.86094
 Alpha virt. eigenvalues --    4.87106   4.88918   4.89118   4.90181   4.96268
 Alpha virt. eigenvalues --    4.97815   5.00458   5.02243   5.06519   5.10736
 Alpha virt. eigenvalues --    5.16962   5.18652   5.21880   5.25905   5.31120
 Alpha virt. eigenvalues --    5.40469   5.44497   5.49171   5.51100   5.55225
 Alpha virt. eigenvalues --    5.64777   5.66829   5.72697   5.74218   5.77986
 Alpha virt. eigenvalues --    5.80219   5.86139   5.88137   5.88975   5.98039
 Alpha virt. eigenvalues --    6.02258   6.08445   6.13904   6.20304   6.28623
 Alpha virt. eigenvalues --    6.33222   6.74028   7.14525   7.28443  10.58785
 Alpha virt. eigenvalues --   11.08680  11.58934  11.94081  12.01838  12.21266
 Alpha virt. eigenvalues --   12.74354  13.45198  13.65174
          Condensed to atoms (all electrons):
               1          2          3          4          5          6
     1  C    5.147246   0.300678  -0.027869   0.007662   0.000833   0.005259
     2  C    0.300678   4.699742   0.410976  -0.141927  -0.000663   0.008437
     3  O   -0.027869   0.410976   7.660603   0.359069  -0.037542   0.003031
     4  C    0.007662  -0.141927   0.359069   5.057656   0.322177  -0.035816
     5  C    0.000833  -0.000663  -0.037542   0.322177   4.409079   0.347744
     6  C    0.005259   0.008437   0.003031  -0.035816   0.347744   5.174038
     7  C   -0.000081  -0.000372  -0.000002   0.005148  -0.136379   0.372362
     8  O   -0.002624   0.001298   0.001023  -0.033225   0.332488  -0.093660
     9  C    0.254541   0.270920  -0.040457  -0.068356   0.412367  -0.056799
    10  H    0.373220  -0.011354  -0.004605   0.003666  -0.005631   0.000239
    11  H    0.363176  -0.013363   0.001639  -0.000763   0.001906  -0.000125
    12  H   -0.054257   0.384912  -0.026579   0.004010   0.002987   0.000143
    13  H   -0.000800   0.005255  -0.017490   0.349621  -0.009047  -0.012714
    14  H    0.006418   0.002593  -0.027049   0.333524  -0.026034   0.006484
    15  H    0.000018  -0.000243  -0.000161   0.003893  -0.011166   0.349057
    16  H   -0.000118  -0.000371   0.000121  -0.008983  -0.008255   0.344229
    17  H    0.000004  -0.000016   0.000004  -0.000555   0.002254  -0.024071
    18  H    0.000011   0.000023  -0.000005   0.000579   0.002553  -0.023108
    19  H   -0.036122  -0.036683   0.001334   0.010061  -0.037389  -0.010866
               7          8          9         10         11         12
     1  C   -0.000081  -0.002624   0.254541   0.373220   0.363176  -0.054257
     2  C   -0.000372   0.001298   0.270920  -0.011354  -0.013363   0.384912
     3  O   -0.000002   0.001023  -0.040457  -0.004605   0.001639  -0.026579
     4  C    0.005148  -0.033225  -0.068356   0.003666  -0.000763   0.004010
     5  C   -0.136379   0.332488   0.412367  -0.005631   0.001906   0.002987
     6  C    0.372362  -0.093660  -0.056799   0.000239  -0.000125   0.000143
     7  C    4.780167   0.355067   0.004040  -0.000137   0.000003   0.000001
     8  O    0.355067   7.819640  -0.026748   0.001170   0.000023  -0.000044
     9  C    0.004040  -0.026748   5.086210  -0.020776  -0.010588  -0.032093
    10  H   -0.000137   0.001170  -0.020776   0.564174  -0.035531   0.001996
    11  H    0.000003   0.000023  -0.010588  -0.035531   0.587973  -0.003478
    12  H    0.000001  -0.000044  -0.032093   0.001996  -0.003478   0.624416
    13  H    0.000177   0.002490   0.006274  -0.000127   0.000007  -0.000121
    14  H    0.000200   0.004150  -0.007397   0.001523  -0.000080  -0.000342
    15  H   -0.020380   0.004457  -0.008664   0.000007  -0.000004  -0.000024
    16  H   -0.019244   0.004842   0.004517  -0.000009   0.000001  -0.000008
    17  H    0.363607  -0.026569   0.001157  -0.000004   0.000000   0.000000
    18  H    0.364796  -0.026106  -0.000589   0.000004   0.000000   0.000000
    19  H    0.000574   0.001215   0.375213   0.002317  -0.006330  -0.004384
              13         14         15         16         17         18
     1  C   -0.000800   0.006418   0.000018  -0.000118   0.000004   0.000011
     2  C    0.005255   0.002593  -0.000243  -0.000371  -0.000016   0.000023
     3  O   -0.017490  -0.027049  -0.000161   0.000121   0.000004  -0.000005
     4  C    0.349621   0.333524   0.003893  -0.008983  -0.000555   0.000579
     5  C   -0.009047  -0.026034  -0.011166  -0.008255   0.002254   0.002553
     6  C   -0.012714   0.006484   0.349057   0.344229  -0.024071  -0.023108
     7  C    0.000177   0.000200  -0.020380  -0.019244   0.363607   0.364796
     8  O    0.002490   0.004150   0.004457   0.004842  -0.026569  -0.026106
     9  C    0.006274  -0.007397  -0.008664   0.004517   0.001157  -0.000589
    10  H   -0.000127   0.001523   0.000007  -0.000009  -0.000004   0.000004
    11  H    0.000007  -0.000080  -0.000004   0.000001   0.000000   0.000000
    12  H   -0.000121  -0.000342  -0.000024  -0.000008   0.000000   0.000000
    13  H    0.611544  -0.049435   0.000087   0.005898   0.000018  -0.000120
    14  H   -0.049435   0.643198  -0.000196   0.000020   0.000050  -0.000031
    15  H    0.000087  -0.000196   0.609726  -0.039684  -0.007879   0.003833
    16  H    0.005898   0.000020  -0.039684   0.607887   0.003991  -0.007797
    17  H    0.000018   0.000050  -0.007879   0.003991   0.643562  -0.059004
    18  H   -0.000120  -0.000031   0.003833  -0.007797  -0.059004   0.641382
    19  H   -0.000136  -0.000160   0.005357   0.000063  -0.000070   0.000000
              19
     1  C   -0.036122
     2  C   -0.036683
     3  O    0.001334
     4  C    0.010061
     5  C   -0.037389
     6  C   -0.010866
     7  C    0.000574
     8  O    0.001215
     9  C    0.375213
    10  H    0.002317
    11  H   -0.006330
    12  H   -0.004384
    13  H   -0.000136
    14  H   -0.000160
    15  H    0.005357
    16  H    0.000063
    17  H   -0.000070
    18  H    0.000000
    19  H    0.649540
 Mulliken charges:
               1
     1  C   -0.337194
     2  C    0.120159
     3  O   -0.256039
     4  C   -0.167442
     5  C    0.437719
     6  C   -0.353862
     7  C   -0.069547
     8  O   -0.318888
     9  C   -0.142772
    10  H    0.129859
    11  H    0.115534
    12  H    0.102867
    13  H    0.108618
    14  H    0.112564
    15  H    0.111966
    16  H    0.112899
    17  H    0.103520
    18  H    0.103578
    19  H    0.086463
 Sum of Mulliken charges =   0.00000
 Mulliken charges with hydrogens summed into heavy atoms:
               1
     1  C   -0.091802
     2  C    0.223026
     3  O   -0.256039
     4  C    0.053740
     5  C    0.437719
     6  C   -0.128997
     7  C    0.137551
     8  O   -0.318888
     9  C   -0.056309
 Electronic spatial extent (au):  <R**2>=           1061.2399
 Charge=              0.0000 electrons
 Dipole moment (field-independent basis, Debye):
    X=             -0.9183    Y=             -0.3823    Z=              1.4840  Tot=              1.7865
 Quadrupole moment (field-independent basis, Debye-Ang):
   XX=            -51.7797   YY=            -53.5491   ZZ=            -52.9871
   XY=             -4.8152   XZ=             -1.1027   YZ=             -2.2903
 Traceless Quadrupole moment (field-independent basis, Debye-Ang):
   XX=              0.9922   YY=             -0.7771   ZZ=             -0.2151
   XY=             -4.8152   XZ=             -1.1027   YZ=             -2.2903
 Octapole moment (field-independent basis, Debye-Ang**2):
  XXX=            -10.0947  YYY=              2.4939  ZZZ=             -2.0393  XYY=             -3.5859
  XXY=             -6.6783  XXZ=              4.6790  XZZ=              4.8003  YZZ=              0.9536
  YYZ=              0.2733  XYZ=              1.5592
 Hexadecapole moment (field-independent basis, Debye-Ang**3):
 XXXX=           -841.6405 YYYY=           -298.7671 ZZZZ=           -201.8563 XXXY=             -1.0941
 XXXZ=             22.6705 YYYX=             -3.5622 YYYZ=             -2.6212 ZZZX=              0.4848
 ZZZY=             -1.5171 XXYY=           -195.3426 XXZZ=           -176.5579 YYZZ=            -84.3463
 XXYZ=             -2.0885 YYXZ=             -0.1010 ZZXY=              1.9391
 N-N= 4.788765585203D+02 E-N=-1.944498336404D+03  KE= 4.200299452916D+02
 Calling FoFJK, ICntrl=      2127 FMM=F ISym2X=0 I1Cent= 0 IOpClX= 0 NMat=1 NMatS=1 NMatT=0.
 ***** Axes restored to original set *****
 -------------------------------------------------------------------
 Center     Atomic                   Forces (Hartrees/Bohr)
 Number     Number              X              Y              Z
 -------------------------------------------------------------------
      1        6          -0.000020749    0.000003322   -0.000067341
      2        6           0.000008611    0.000016387    0.000004570
      3        8           0.000002498    0.000001391   -0.000006759
      4        6           0.000006344   -0.000004016    0.000027996
      5        6          -0.000005010    0.000007143   -0.000026028
      6        6           0.000008839   -0.000008156    0.000013527
      7        6          -0.000023437   -0.000005015    0.000006462
      8        8           0.000019987    0.000014132    0.000012025
      9        6          -0.000019276   -0.000037096    0.000028918
     10        1          -0.000001467    0.000002064   -0.000008035
     11        1           0.000007866    0.000008129    0.000008403
     12        1          -0.000014231   -0.000000244   -0.000008597
     13        1           0.000008588    0.000005498    0.000005842
     14        1           0.000001322    0.000007142   -0.000004603
     15        1          -0.000002208   -0.000005206    0.000006817
     16        1           0.000002882   -0.000003335    0.000011924
     17        1           0.000004572   -0.000003762    0.000000765
     18        1           0.000009413    0.000002918    0.000006017
     19        1           0.000005455   -0.000001297   -0.000011903
 -------------------------------------------------------------------
 Cartesian Forces:  Max     0.000067341 RMS     0.000014867

 GradGradGradGradGradGradGradGradGradGradGradGradGradGradGradGradGradGrad
 Berny optimization.
 FormGI is forming the generalized inverse of G from B-inverse, IUseBI=4.
 Internal  Forces:  Max     0.000017727 RMS     0.000004963
 Search for a local minimum.
 Step number   1 out of a maximum of  114
 All quantities printed in internal units (Hartrees-Bohrs-Radians)
 Mixed Optimization -- En-DIIS/RFO-DIIS
 Second derivative matrix not updated -- first step.
 ITU=  0
     Eigenvalues ---    0.00456   0.00620   0.01647   0.02067   0.02544
     Eigenvalues ---    0.02677   0.02971   0.03245   0.03977   0.04122
     Eigenvalues ---    0.04282   0.04690   0.05037   0.05852   0.06120
     Eigenvalues ---    0.06314   0.06716   0.06996   0.09176   0.09461
     Eigenvalues ---    0.10030   0.10208   0.10538   0.10862   0.11302
     Eigenvalues ---    0.11739   0.11976   0.16516   0.18976   0.19983
     Eigenvalues ---    0.22454   0.24568   0.25670   0.27052   0.27616
     Eigenvalues ---    0.29992   0.31009   0.33764   0.34058   0.34080
     Eigenvalues ---    0.34413   0.34642   0.34663   0.35461   0.35482
     Eigenvalues ---    0.35585   0.35596   0.35700   0.36827   0.39945
     Eigenvalues ---    0.42166
 RFO step:  Lambda=-2.50767410D-08 EMin= 4.55588980D-03
 Linear search not attempted -- first point.
 Iteration  1 RMS(Cart)=  0.00008403 RMS(Int)=  0.00000001
 Iteration  2 RMS(Cart)=  0.00000001 RMS(Int)=  0.00000000
 Variable       Old X    -DE/DX   Delta X   Delta X   Delta X     New X
                                 (Linear)    (Quad)   (Total)
    R1        2.83709  -0.00001   0.00000  -0.00006  -0.00006   2.83703
    R2        2.87772   0.00000   0.00000   0.00001   0.00001   2.87774
    R3        2.04899   0.00000   0.00000   0.00001   0.00001   2.04900
    R4        2.04934   0.00000   0.00000   0.00000   0.00000   2.04934
    R5        2.65727   0.00001   0.00000   0.00001   0.00001   2.65728
    R6        2.84242  -0.00001   0.00000  -0.00002  -0.00002   2.84240
    R7        2.04719   0.00000   0.00000   0.00001   0.00001   2.04719
    R8        2.68652   0.00001   0.00000   0.00004   0.00004   2.68657
    R9        2.92260   0.00000   0.00000   0.00002   0.00002   2.92262
   R10        2.06638   0.00000   0.00000  -0.00001  -0.00001   2.06637
   R11        2.07731  -0.00001   0.00000  -0.00002  -0.00002   2.07729
   R12        2.93043   0.00000   0.00000  -0.00002  -0.00002   2.93041
   R13        2.74241   0.00001   0.00000   0.00003   0.00003   2.74245
   R14        2.85682  -0.00001   0.00000  -0.00004  -0.00004   2.85678
   R15        2.90791   0.00000   0.00000  -0.00001  -0.00001   2.90790
   R16        2.06259   0.00000   0.00000   0.00000   0.00000   2.06260
   R17        2.06225   0.00000   0.00000   0.00000   0.00000   2.06225
   R18        2.72699   0.00002   0.00000   0.00005   0.00005   2.72704
   R19        2.07232   0.00000   0.00000  -0.00001  -0.00001   2.07231
   R20        2.07196   0.00000   0.00000  -0.00001  -0.00001   2.07195
   R21        2.04736   0.00000   0.00000   0.00000   0.00000   2.04736
    A1        2.08748   0.00000   0.00000  -0.00010  -0.00010   2.08737
    A2        2.04596   0.00001   0.00000   0.00017   0.00017   2.04613
    A3        2.07158  -0.00001   0.00000  -0.00007  -0.00007   2.07151
    A4        2.03381   0.00002   0.00000   0.00014   0.00014   2.03395
    A5        1.99705  -0.00001   0.00000  -0.00009  -0.00009   1.99696
    A6        2.07303   0.00000   0.00000  -0.00004  -0.00004   2.07298
    A7        2.11788  -0.00001   0.00000   0.00004   0.00004   2.11792
    A8        1.92763  -0.00001   0.00000  -0.00004  -0.00004   1.92760
    A9        1.95640   0.00000   0.00000   0.00005   0.00005   1.95645
   A10        2.16872   0.00000   0.00000  -0.00006  -0.00006   2.16866
   A11        1.87850   0.00000   0.00000   0.00001   0.00001   1.87851
   A12        1.88186  -0.00001   0.00000  -0.00004  -0.00004   1.88182
   A13        1.88734   0.00000   0.00000  -0.00001  -0.00001   1.88733
   A14        1.94786   0.00000   0.00000   0.00004   0.00004   1.94789
   A15        1.98092   0.00000   0.00000  -0.00001  -0.00001   1.98092
   A16        1.87969   0.00000   0.00000   0.00001   0.00001   1.87970
   A17        1.88738   0.00000   0.00000   0.00001   0.00001   1.88739
   A18        2.07686   0.00000   0.00000  -0.00001  -0.00001   2.07686
   A19        1.94070   0.00000   0.00000   0.00001   0.00001   1.94070
   A20        1.79666   0.00000   0.00000  -0.00002  -0.00002   1.79665
   A21        1.58697   0.00000   0.00000   0.00000   0.00000   1.58697
   A22        2.03853   0.00000   0.00000   0.00002   0.00002   2.03855
   A23        2.03257   0.00000   0.00000   0.00000   0.00000   2.03257
   A24        1.48387   0.00001   0.00000   0.00003   0.00003   1.48390
   A25        2.00655   0.00000   0.00000  -0.00002  -0.00002   2.00653
   A26        2.00669   0.00000   0.00000   0.00001   0.00001   2.00671
   A27        2.01840   0.00000   0.00000  -0.00002  -0.00002   2.01837
   A28        2.01961   0.00000   0.00000   0.00000   0.00000   2.01961
   A29        1.90332   0.00000   0.00000   0.00001   0.00001   1.90333
   A30        1.60080   0.00000   0.00000  -0.00001  -0.00001   1.60079
   A31        2.01888   0.00000   0.00000  -0.00002  -0.00002   2.01886
   A32        2.02551   0.00000   0.00000   0.00001   0.00001   2.02552
   A33        1.95251   0.00000   0.00000  -0.00001  -0.00001   1.95250
   A34        1.95167   0.00000   0.00000   0.00001   0.00001   1.95168
   A35        1.89903   0.00000   0.00000   0.00002   0.00002   1.89906
   A36        1.61136  -0.00001   0.00000  -0.00001  -0.00001   1.61134
   A37        2.02915   0.00001   0.00000   0.00004   0.00004   2.02919
   A38        2.08785  -0.00001   0.00000  -0.00008  -0.00008   2.08777
   A39        1.83877   0.00001   0.00000   0.00004   0.00004   1.83881
   A40        2.14513  -0.00001   0.00000  -0.00008  -0.00008   2.14506
   A41        2.07412   0.00000   0.00000   0.00006   0.00006   2.07418
    D1        0.16137   0.00000   0.00000  -0.00002  -0.00002   0.16135
    D2       -2.40114   0.00000   0.00000  -0.00011  -0.00011  -2.40125
    D3        2.70608  -0.00001   0.00000  -0.00008  -0.00008   2.70600
    D4        0.14357  -0.00001   0.00000  -0.00017  -0.00017   0.14340
    D5       -0.28675   0.00000   0.00000   0.00011   0.00011  -0.28664
    D6        2.40225   0.00001   0.00000   0.00016   0.00016   2.40241
    D7       -2.78489   0.00001   0.00000   0.00016   0.00016  -2.78473
    D8       -0.09590   0.00001   0.00000   0.00021   0.00021  -0.09568
    D9        0.89933   0.00000   0.00000  -0.00002  -0.00002   0.89931
   D10       -0.27336   0.00000   0.00000  -0.00002  -0.00002  -0.27339
   D11       -2.77097   0.00000   0.00000   0.00006   0.00006  -2.77091
   D12        0.01043   0.00000   0.00000  -0.00005  -0.00005   0.01037
   D13       -2.44466   0.00000   0.00000  -0.00011  -0.00011  -2.44478
   D14        2.41366   0.00000   0.00000  -0.00010  -0.00010   2.41355
   D15       -0.04143  -0.00001   0.00000  -0.00016  -0.00016  -0.04160
   D16        0.42315   0.00000   0.00000   0.00009   0.00009   0.42323
   D17        2.57156   0.00000   0.00000   0.00005   0.00005   2.57161
   D18       -1.63782   0.00000   0.00000   0.00008   0.00008  -1.63774
   D19        1.88371   0.00000   0.00000  -0.00010  -0.00010   1.88361
   D20       -2.59175   0.00000   0.00000  -0.00010  -0.00010  -2.59185
   D21       -0.40294   0.00000   0.00000  -0.00011  -0.00011  -0.40305
   D22       -0.20645   0.00000   0.00000  -0.00006  -0.00006  -0.20650
   D23        1.60128   0.00000   0.00000  -0.00006  -0.00006   1.60123
   D24       -2.49310   0.00000   0.00000  -0.00007  -0.00007  -2.49316
   D25       -2.29518   0.00000   0.00000  -0.00007  -0.00007  -2.29525
   D26       -0.48745   0.00000   0.00000  -0.00007  -0.00007  -0.48752
   D27        1.70136   0.00000   0.00000  -0.00008  -0.00008   1.70128
   D28        2.02009   0.00000   0.00000   0.00000   0.00000   2.02009
   D29       -2.23820   0.00000   0.00000  -0.00002  -0.00002  -2.23822
   D30       -0.00617   0.00000   0.00000  -0.00001  -0.00001  -0.00619
   D31        0.01326   0.00000   0.00000  -0.00001  -0.00001   0.01325
   D32        2.03815   0.00000   0.00000  -0.00002  -0.00002   2.03813
   D33       -2.01300   0.00000   0.00000  -0.00002  -0.00002  -2.01303
   D34       -2.08969   0.00000   0.00000  -0.00001  -0.00001  -2.08970
   D35       -0.06479   0.00000   0.00000  -0.00003  -0.00003  -0.06482
   D36        2.16723   0.00000   0.00000  -0.00003  -0.00003   2.16721
   D37       -2.13907   0.00000   0.00000   0.00001   0.00001  -2.13906
   D38       -0.01410   0.00000   0.00000   0.00001   0.00001  -0.01409
   D39        2.09389   0.00000   0.00000   0.00003   0.00003   2.09393
   D40       -0.87214   0.00000   0.00000   0.00011   0.00011  -0.87204
   D41        0.22962   0.00000   0.00000   0.00010   0.00010   0.22972
   D42        2.71833   0.00000   0.00000   0.00009   0.00009   2.71842
   D43        3.10159   0.00000   0.00000   0.00011   0.00011   3.10171
   D44       -2.07983   0.00000   0.00000   0.00011   0.00011  -2.07973
   D45        0.40888   0.00000   0.00000   0.00010   0.00010   0.40898
   D46        1.25572   0.00000   0.00000   0.00010   0.00010   1.25582
   D47        2.35748   0.00000   0.00000   0.00009   0.00009   2.35757
   D48       -1.43699   0.00000   0.00000   0.00009   0.00009  -1.43690
   D49       -0.01334   0.00000   0.00000   0.00001   0.00001  -0.01333
   D50        1.99966   0.00000   0.00000  -0.00002  -0.00002   1.99964
   D51       -2.02712   0.00000   0.00000   0.00000   0.00000  -2.02712
   D52       -2.02659   0.00000   0.00000   0.00002   0.00002  -2.02656
   D53       -0.01359   0.00000   0.00000   0.00000   0.00000  -0.01359
   D54        2.24282   0.00000   0.00000   0.00002   0.00002   2.24284
   D55        2.00023   0.00000   0.00000   0.00004   0.00004   2.00027
   D56       -2.26996   0.00000   0.00000   0.00001   0.00001  -2.26995
   D57       -0.01355   0.00000   0.00000   0.00003   0.00003  -0.01352
   D58        0.01421   0.00000   0.00000  -0.00001  -0.00001   0.01420
   D59       -2.05621   0.00000   0.00000   0.00002   0.00002  -2.05618
   D60        2.09176   0.00000   0.00000   0.00000   0.00000   2.09176
         Item               Value     Threshold  Converged?
 Maximum Force            0.000018     0.000450     YES
 RMS     Force            0.000005     0.000300     YES
 Maximum Displacement     0.000398     0.001800     YES
 RMS     Displacement     0.000084     0.001200     YES
 Predicted change in Energy=-1.253851D-08
 Optimization completed.
    -- Stationary point found.
                           ----------------------------
                           !   Optimized Parameters   !
                           ! (Angstroms and Degrees)  !
 --------------------------                            --------------------------
 ! Name  Definition              Value          Derivative Info.                !
 --------------------------------------------------------------------------------
 ! R1    R(1,2)                  1.5013         -DE/DX =    0.0                 !
 ! R2    R(1,9)                  1.5228         -DE/DX =    0.0                 !
 ! R3    R(1,10)                 1.0843         -DE/DX =    0.0                 !
 ! R4    R(1,11)                 1.0845         -DE/DX =    0.0                 !
 ! R5    R(2,3)                  1.4062         -DE/DX =    0.0                 !
 ! R6    R(2,9)                  1.5041         -DE/DX =    0.0                 !
 ! R7    R(2,12)                 1.0833         -DE/DX =    0.0                 !
 ! R8    R(3,4)                  1.4216         -DE/DX =    0.0                 !
 ! R9    R(4,5)                  1.5466         -DE/DX =    0.0                 !
 ! R10   R(4,13)                 1.0935         -DE/DX =    0.0                 !
 ! R11   R(4,14)                 1.0993         -DE/DX =    0.0                 !
 ! R12   R(5,6)                  1.5507         -DE/DX =    0.0                 !
 ! R13   R(5,8)                  1.4512         -DE/DX =    0.0                 !
 ! R14   R(5,9)                  1.5118         -DE/DX =    0.0                 !
 ! R15   R(6,7)                  1.5388         -DE/DX =    0.0                 !
 ! R16   R(6,15)                 1.0915         -DE/DX =    0.0                 !
 ! R17   R(6,16)                 1.0913         -DE/DX =    0.0                 !
 ! R18   R(7,8)                  1.4431         -DE/DX =    0.0                 !
 ! R19   R(7,17)                 1.0966         -DE/DX =    0.0                 !
 ! R20   R(7,18)                 1.0964         -DE/DX =    0.0                 !
 ! R21   R(9,19)                 1.0834         -DE/DX =    0.0                 !
 ! A1    A(2,1,10)             119.6035         -DE/DX =    0.0                 !
 ! A2    A(2,1,11)             117.225          -DE/DX =    0.0                 !
 ! A3    A(9,1,10)             118.6926         -DE/DX =    0.0                 !
 ! A4    A(9,1,11)             116.5286         -DE/DX =    0.0                 !
 ! A5    A(10,1,11)            114.4226         -DE/DX =    0.0                 !
 ! A6    A(1,2,3)              118.7756         -DE/DX =    0.0                 !
 ! A7    A(1,2,12)             121.3458         -DE/DX =    0.0                 !
 ! A8    A(3,2,9)              110.4453         -DE/DX =    0.0                 !
 ! A9    A(3,2,12)             112.0935         -DE/DX =    0.0                 !
 ! A10   A(9,2,12)             124.2583         -DE/DX =    0.0                 !
 ! A11   A(2,3,4)              107.63           -DE/DX =    0.0                 !
 ! A12   A(3,4,5)              107.8224         -DE/DX =    0.0                 !
 ! A13   A(3,4,13)             108.1365         -DE/DX =    0.0                 !
 ! A14   A(3,4,14)             111.6039         -DE/DX =    0.0                 !
 ! A15   A(5,4,13)             113.4985         -DE/DX =    0.0                 !
 ! A16   A(5,4,14)             107.6984         -DE/DX =    0.0                 !
 ! A17   A(13,4,14)            108.1391         -DE/DX =    0.0                 !
 ! A18   A(4,5,6)              118.9954         -DE/DX =    0.0                 !
 ! A19   A(4,5,8)              111.1937         -DE/DX =    0.0                 !
 ! A20   A(4,5,9)              102.9413         -DE/DX =    0.0                 !
 ! A21   A(6,5,8)               90.9267         -DE/DX =    0.0                 !
 ! A22   A(6,5,9)              116.7993         -DE/DX =    0.0                 !
 ! A23   A(8,5,9)              116.4578         -DE/DX =    0.0                 !
 ! A24   A(5,6,7)               85.0195         -DE/DX =    0.0                 !
 ! A25   A(5,6,15)             114.9668         -DE/DX =    0.0                 !
 ! A26   A(5,6,16)             114.9752         -DE/DX =    0.0                 !
 ! A27   A(7,6,15)             115.6456         -DE/DX =    0.0                 !
 ! A28   A(7,6,16)             115.7154         -DE/DX =    0.0                 !
 ! A29   A(15,6,16)            109.0521         -DE/DX =    0.0                 !
 ! A30   A(6,7,8)               91.7191         -DE/DX =    0.0                 !
 ! A31   A(6,7,17)             115.6732         -DE/DX =    0.0                 !
 ! A32   A(6,7,18)             116.0532         -DE/DX =    0.0                 !
 ! A33   A(8,7,17)             111.8709         -DE/DX =    0.0                 !
 ! A34   A(8,7,18)             111.8226         -DE/DX =    0.0                 !
 ! A35   A(17,7,18)            108.8066         -DE/DX =    0.0                 !
 ! A36   A(5,8,7)               92.3239         -DE/DX =    0.0                 !
 ! A37   A(1,9,5)              116.2619         -DE/DX =    0.0                 !
 ! A38   A(1,9,19)             119.6249         -DE/DX =    0.0                 !
 ! A39   A(2,9,5)              105.354          -DE/DX =    0.0                 !
 ! A40   A(2,9,19)             122.907          -DE/DX =    0.0                 !
 ! A41   A(5,9,19)             118.8384         -DE/DX =    0.0                 !
 ! D1    D(10,1,2,3)             9.2458         -DE/DX =    0.0                 !
 ! D2    D(10,1,2,12)         -137.5752         -DE/DX =    0.0                 !
 ! D3    D(11,1,2,3)           155.047          -DE/DX =    0.0                 !
 ! D4    D(11,1,2,12)            8.226          -DE/DX =    0.0                 !
 ! D5    D(10,1,9,5)           -16.4295         -DE/DX =    0.0                 !
 ! D6    D(10,1,9,19)          137.6386         -DE/DX =    0.0                 !
 ! D7    D(11,1,9,5)          -159.5625         -DE/DX =    0.0                 !
 ! D8    D(11,1,9,19)           -5.4944         -DE/DX =    0.0                 !
 ! D9    D(1,2,3,4)             51.528          -DE/DX =    0.0                 !
 ! D10   D(9,2,3,4)            -15.6626         -DE/DX =    0.0                 !
 ! D11   D(12,2,3,4)          -158.7648         -DE/DX =    0.0                 !
 ! D12   D(3,2,9,5)              0.5973         -DE/DX =    0.0                 !
 ! D13   D(3,2,9,19)          -140.0689         -DE/DX =    0.0                 !
 ! D14   D(12,2,9,5)           138.2923         -DE/DX =    0.0                 !
 ! D15   D(12,2,9,19)           -2.374          -DE/DX =    0.0                 !
 ! D16   D(2,3,4,5)             24.2444         -DE/DX =    0.0                 !
 ! D17   D(2,3,4,13)           147.3394         -DE/DX =    0.0                 !
 ! D18   D(2,3,4,14)           -93.8401         -DE/DX =    0.0                 !
 ! D19   D(3,4,5,6)            107.9284         -DE/DX =    0.0                 !
 ! D20   D(3,4,5,8)           -148.4962         -DE/DX =    0.0                 !
 ! D21   D(3,4,5,9)            -23.087          -DE/DX =    0.0                 !
 ! D22   D(13,4,5,6)           -11.8285         -DE/DX =    0.0                 !
 ! D23   D(13,4,5,8)            91.7469         -DE/DX =    0.0                 !
 ! D24   D(13,4,5,9)          -142.8439         -DE/DX =    0.0                 !
 ! D25   D(14,4,5,6)          -131.504          -DE/DX =    0.0                 !
 ! D26   D(14,4,5,8)           -27.9286         -DE/DX =    0.0                 !
 ! D27   D(14,4,5,9)            97.4807         -DE/DX =    0.0                 !
 ! D28   D(4,5,6,7)            115.7427         -DE/DX =    0.0                 !
 ! D29   D(4,5,6,15)          -128.2394         -DE/DX =    0.0                 !
 ! D30   D(4,5,6,16)            -0.3538         -DE/DX =    0.0                 !
 ! D31   D(8,5,6,7)              0.7598         -DE/DX =    0.0                 !
 ! D32   D(8,5,6,15)           116.7777         -DE/DX =    0.0                 !
 ! D33   D(8,5,6,16)          -115.3367         -DE/DX =    0.0                 !
 ! D34   D(9,5,6,7)           -119.7302         -DE/DX =    0.0                 !
 ! D35   D(9,5,6,15)            -3.7123         -DE/DX =    0.0                 !
 ! D36   D(9,5,6,16)           124.1733         -DE/DX =    0.0                 !
 ! D37   D(4,5,8,7)           -122.5598         -DE/DX =    0.0                 !
 ! D38   D(6,5,8,7)             -0.8078         -DE/DX =    0.0                 !
 ! D39   D(9,5,8,7)            119.9713         -DE/DX =    0.0                 !
 ! D40   D(4,5,9,1)            -49.9701         -DE/DX =    0.0                 !
 ! D41   D(4,5,9,2)             13.1561         -DE/DX =    0.0                 !
 ! D42   D(4,5,9,19)           155.7488         -DE/DX =    0.0                 !
 ! D43   D(6,5,9,1)            177.7081         -DE/DX =    0.0                 !
 ! D44   D(6,5,9,2)           -119.1657         -DE/DX =    0.0                 !
 ! D45   D(6,5,9,19)            23.427          -DE/DX =    0.0                 !
 ! D46   D(8,5,9,1)             71.9474         -DE/DX =    0.0                 !
 ! D47   D(8,5,9,2)            135.0736         -DE/DX =    0.0                 !
 ! D48   D(8,5,9,19)           -82.3337         -DE/DX =    0.0                 !
 ! D49   D(5,6,7,8)             -0.7643         -DE/DX =    0.0                 !
 ! D50   D(5,6,7,17)           114.572          -DE/DX =    0.0                 !
 ! D51   D(5,6,7,18)          -116.1455         -DE/DX =    0.0                 !
 ! D52   D(15,6,7,8)          -116.1148         -DE/DX =    0.0                 !
 ! D53   D(15,6,7,17)           -0.7785         -DE/DX =    0.0                 !
 ! D54   D(15,6,7,18)          128.504          -DE/DX =    0.0                 !
 ! D55   D(16,6,7,8)           114.6047         -DE/DX =    0.0                 !
 ! D56   D(16,6,7,17)         -130.059          -DE/DX =    0.0                 !
 ! D57   D(16,6,7,18)           -0.7765         -DE/DX =    0.0                 !
 ! D58   D(6,7,8,5)              0.8143         -DE/DX =    0.0                 !
 ! D59   D(17,7,8,5)          -117.812          -DE/DX =    0.0                 !
 ! D60   D(18,7,8,5)           119.849          -DE/DX =    0.0                 !
 --------------------------------------------------------------------------------
 GradGradGradGradGradGradGradGradGradGradGradGradGradGradGradGradGradGrad

                          Input orientation:                          
 ---------------------------------------------------------------------
 Center     Atomic      Atomic             Coordinates (Angstroms)
 Number     Number       Type             X           Y           Z
 ---------------------------------------------------------------------
      1          6           0        3.499009    1.884101   -1.659394
      2          6           0        3.094743    0.699682   -2.488666
      3          8           0        3.057546   -0.569171   -1.883744
      4          6           0        2.278951   -0.458874   -0.699385
      5          6           0        1.325247    0.746568   -0.870416
      6          6           0       -0.187530    0.483381   -1.087116
      7          6           0       -0.368238    1.196283    0.264558
      8          8           0        1.055395    1.386953    0.403607
      9          6           0        2.026746    1.588151   -1.912082
     10          1           0        3.897546    1.729360   -0.662957
     11          1           0        3.918551    2.736222   -2.182779
     12          1           0        3.335815    0.641414   -3.543219
     13          1           0        1.758532   -1.408028   -0.544538
     14          1           0        2.907376   -0.265453    0.181551
     15          1           0       -0.624181    0.989265   -1.950101
     16          1           0       -0.473528   -0.569543   -1.109086
     17          1           0       -0.906796    2.150922    0.229930
     18          1           0       -0.779410    0.587820    1.078729
     19          1           0        1.439283    2.269918   -2.515301
 ---------------------------------------------------------------------
                    Distance matrix (angstroms):
                    1          2          3          4          5
     1  C    0.000000
     2  C    1.501323   0.000000
     3  O    2.502752   1.406166   0.000000
     4  C    2.810639   2.282388   1.421647   0.000000
     5  C    2.577152   2.398343   2.399764   1.546575   0.000000
     6  C    3.984983   3.575534   3.503284   2.668653   1.550716
     7  C    4.373818   4.451864   4.412259   3.267467   2.087654
     8  O    3.236415   3.605069   3.614831   2.474017   1.451222
     9  C    1.522825   1.504142   2.391106   2.392603   1.511764
    10  H    1.084281   2.244536   2.734807   2.722048   2.761457
    11  H    1.084462   2.218045   3.428758   3.885536   3.522251
    12  H    2.262675   1.083325   2.072874   3.227226   3.346240
    13  H    3.887194   3.163469   2.045627   1.093484   2.221759
    14  H    2.891314   2.845462   2.092903   1.099263   2.152662
    15  H    4.229177   3.768860   3.998530   3.477006   2.241626
    16  H    4.701517   4.030724   3.615049   2.785004   2.241585
    17  H    4.801235   5.050661   5.251908   4.221807   2.857444
    18  H    5.242379   5.267626   4.983684   3.689286   2.872968
    19  H    2.263603   2.281863   3.328373   3.383622   2.244827
                    6          7          8          9         10
     6  C    0.000000
     7  C    1.538801   0.000000
     8  O    2.140925   1.443060   0.000000
     9  C    2.608467   3.259949   2.519210   0.000000
    10  H    4.291878   4.397882   3.054934   2.253918   0.000000
    11  H    4.809955   5.170825   4.087491   2.229410   1.823204
    12  H    4.297834   5.341072   4.618829   2.295774   3.129709
    13  H    2.767486   3.458355   3.034023   3.304421   3.799027
    14  H    3.427640   3.587925   2.491904   2.931664   2.381787
    15  H    1.091478   2.238990   2.918745   2.718000   4.759254
    16  H    1.091296   2.239671   2.907529   3.398796   4.958858
    17  H    2.243356   1.096622   2.112820   3.675677   4.904760
    18  H    2.247691   1.096433   2.112088   4.221389   5.119620
    19  H    2.806768   3.485318   3.073601   1.083417   3.125130
                   11         12         13         14         15
    11  H    0.000000
    12  H    2.564878   0.000000
    13  H    4.952204   3.959813   0.000000
    14  H    3.952542   3.857445   1.775536   0.000000
    15  H    4.872619   4.282592   3.660593   4.311630   0.000000
    16  H    5.601005   4.680012   2.450278   3.631629   1.777606
    17  H    5.426575   5.874949   4.513303   4.515431   2.486334
    18  H    6.109330   6.188728   3.613801   3.889138   3.059259
    19  H    2.544558   2.702864   4.184867   3.982011   2.493473
                   16         17         18         19
    16  H    0.000000
    17  H    3.062943   0.000000
    18  H    2.493910   1.783249   0.000000
    19  H    3.701193   3.613107   4.546329   0.000000
 Stoichiometry    C7H10O2
 Framework group  C1[X(C7H10O2)]
 Deg. of freedom    51
 Full point group                 C1      NOp   1
 Largest Abelian subgroup         C1      NOp   1
 Largest concise Abelian subgroup C1      NOp   1
                         Standard orientation:                         
 ---------------------------------------------------------------------
 Center     Atomic      Atomic             Coordinates (Angstroms)
 Number     Number       Type             X           Y           Z
 ---------------------------------------------------------------------
      1          6           0        1.732318   -1.242076   -0.421071
      2          6           0        1.898723   -0.065569    0.496596
      3          8           0        1.644824    1.224002   -0.003249
      4          6           0        0.361409    1.203925   -0.614414
      5          6           0       -0.450020    0.053694    0.026245
      6          6           0       -1.611238    0.400946    0.993566
      7          6           0       -2.513139   -0.250788   -0.069320
      8          8           0       -1.382848   -0.523034   -0.924157
      9          6           0        0.626572   -0.865904    0.556076
     10          1           0        1.569635   -1.076456   -1.480207
     11          1           0        2.300123   -2.136418   -0.189105
     12          1           0        2.652566   -0.059890    1.274594
     13          1           0       -0.095580    2.188045   -0.478859
     14          1           0        0.429920    1.004073   -1.693184
     15          1           0       -1.574790   -0.107831    1.958522
     16          1           0       -1.769535    1.467925    1.159177
     17          1           0       -3.022704   -1.171347    0.239704
     18          1           0       -3.241024    0.410393   -0.554279
     19          1           0        0.387827   -1.531617    1.376819
 ---------------------------------------------------------------------
 Rotational constants (GHZ):      3.4426008      1.3922827      1.2531197
 1\1\GINC-ALCHEMY-LI\FOpt\RB3LYP\6-31G(2df,p)\C7H10O2\PUCK\27-Jan-2020\
 0\\# b3lyp 6-31G(2df,p) opt Freq\\titel\\0,1\C,3.4990090379,1.88410143
 58,-1.6593943987\C,3.0947433,0.6996822253,-2.4886662\O,3.0575462891,-0
 .5691713899,-1.8837441184\C,2.2789513484,-0.4588744669,-0.6993854072\C
 ,1.3252466494,0.7465676275,-0.8704158094\C,-0.1875297616,0.4833813273,
 -1.087116479\C,-0.368237742,1.1962826357,0.2645578861\O,1.0553954482,1
 .3869526704,0.4036069542\C,2.0267463082,1.5881505166,-1.9120818323\H,3
 .8975463889,1.7293597759,-0.6629566281\H,3.9185508801,2.736222445,-2.1
 827792643\H,3.3358152981,0.6414141122,-3.5432190346\H,1.7585319759,-1.
 4080279722,-0.5445383514\H,2.9073759569,-0.2654529996,0.1815514467\H,-
 0.6241808584,0.9892646223,-1.9501008442\H,-0.4735279715,-0.5695431482,
 -1.1090862516\H,-0.9067960167,2.1509220099,0.2299302708\H,-0.779410068
 8,0.5878196751,1.0787291661\H,1.4392833979,2.2699182877,-2.5153007648\
 \Version=ES64L-G09RevD.01\State=1-A\HF=-423.1515607\RMSD=4.307e-09\RMS
 F=1.487e-05\Dipole=-0.6011119,0.1761975,-0.3188326\Quadrupole=1.482691
 8,-1.0733934,-0.4092984,2.0449855,-0.2935835,-3.2882531\PG=C01 [X(C7H1
 0O2)]\\@


 AN AIRPLANE IS A COLLECTION OF SPARE PARTS
 FLYING IN CLOSE FORMATION.
 Job cpu time:       0 days  0 hours  6 minutes 53.5 seconds.
 File lengths (MBytes):  RWF=     52 Int=      0 D2E=      0 Chk=      7 Scr=      1
 Normal termination of Gaussian 09 at Mon Jan 27 11:15:05 2020.
 Link1:  Proceeding to internal job step number  2.
 ----------------------------------------------------------------------
 #N Geom=AllCheck Guess=TCheck SCRF=Check GenChk RB3LYP/6-31G(2df,p) Fr
 eq
 ----------------------------------------------------------------------
 1/10=4,29=7,30=1,38=1,40=1/1,3;
 2/12=2,40=1/2;
 3/5=1,6=6,7=104,11=2,14=-4,16=1,25=1,30=1,70=2,71=2,74=-5,116=1,140=1/1,2,3;
 4/5=101/1;
 5/5=2,98=1/2;
 8/6=4,10=90,11=11/1;
 11/6=1,8=1,9=11,15=111,16=1/1,2,10;
 10/6=1/2;
 6/7=2,8=2,9=2,10=2,18=1,28=1/1;
 7/8=1,10=1,25=1/1,2,3,16;
 1/10=4,30=1/3;
 99//99;
 Structure from the checkpoint file:  "/scratch/puck/g09_8f0737f0-04f2-49c8-9e1e-641fc8d78c87/Gau-68671.chk"
 -----
 titel
 -----
 Charge =  0 Multiplicity = 1
 Redundant internal coordinates found in file.
 C,0,3.4990090379,1.8841014358,-1.6593943987
 C,0,3.0947433,0.6996822253,-2.4886662
 O,0,3.0575462891,-0.5691713899,-1.8837441184
 C,0,2.2789513484,-0.4588744669,-0.6993854072
 C,0,1.3252466494,0.7465676275,-0.8704158094
 C,0,-0.1875297616,0.4833813273,-1.087116479
 C,0,-0.368237742,1.1962826357,0.2645578861
 O,0,1.0553954482,1.3869526704,0.4036069542
 C,0,2.0267463082,1.5881505166,-1.9120818323
 H,0,3.8975463889,1.7293597759,-0.6629566281
 H,0,3.9185508801,2.736222445,-2.1827792643
 H,0,3.3358152981,0.6414141122,-3.5432190346
 H,0,1.7585319759,-1.4080279722,-0.5445383514
 H,0,2.9073759569,-0.2654529996,0.1815514467
 H,0,-0.6241808584,0.9892646223,-1.9501008442
 H,0,-0.4735279715,-0.5695431482,-1.1090862516
 H,0,-0.9067960167,2.1509220099,0.2299302708
 H,0,-0.7794100688,0.5878196751,1.0787291661
 H,0,1.4392833979,2.2699182877,-2.5153007648
 Recover connectivity data from disk.

 GradGradGradGradGradGradGradGradGradGradGradGradGradGradGradGradGradGrad
 Berny optimization.
 Initialization pass.
                           ----------------------------
                           !    Initial Parameters    !
                           ! (Angstroms and Degrees)  !
 --------------------------                            --------------------------
 ! Name  Definition              Value          Derivative Info.                !
 --------------------------------------------------------------------------------
 ! R1    R(1,2)                  1.5013         calculate D2E/DX2 analytically  !
 ! R2    R(1,9)                  1.5228         calculate D2E/DX2 analytically  !
 ! R3    R(1,10)                 1.0843         calculate D2E/DX2 analytically  !
 ! R4    R(1,11)                 1.0845         calculate D2E/DX2 analytically  !
 ! R5    R(2,3)                  1.4062         calculate D2E/DX2 analytically  !
 ! R6    R(2,9)                  1.5041         calculate D2E/DX2 analytically  !
 ! R7    R(2,12)                 1.0833         calculate D2E/DX2 analytically  !
 ! R8    R(3,4)                  1.4216         calculate D2E/DX2 analytically  !
 ! R9    R(4,5)                  1.5466         calculate D2E/DX2 analytically  !
 ! R10   R(4,13)                 1.0935         calculate D2E/DX2 analytically  !
 ! R11   R(4,14)                 1.0993         calculate D2E/DX2 analytically  !
 ! R12   R(5,6)                  1.5507         calculate D2E/DX2 analytically  !
 ! R13   R(5,8)                  1.4512         calculate D2E/DX2 analytically  !
 ! R14   R(5,9)                  1.5118         calculate D2E/DX2 analytically  !
 ! R15   R(6,7)                  1.5388         calculate D2E/DX2 analytically  !
 ! R16   R(6,15)                 1.0915         calculate D2E/DX2 analytically  !
 ! R17   R(6,16)                 1.0913         calculate D2E/DX2 analytically  !
 ! R18   R(7,8)                  1.4431         calculate D2E/DX2 analytically  !
 ! R19   R(7,17)                 1.0966         calculate D2E/DX2 analytically  !
 ! R20   R(7,18)                 1.0964         calculate D2E/DX2 analytically  !
 ! R21   R(9,19)                 1.0834         calculate D2E/DX2 analytically  !
 ! A1    A(2,1,10)             119.6035         calculate D2E/DX2 analytically  !
 ! A2    A(2,1,11)             117.225          calculate D2E/DX2 analytically  !
 ! A3    A(9,1,10)             118.6926         calculate D2E/DX2 analytically  !
 ! A4    A(9,1,11)             116.5286         calculate D2E/DX2 analytically  !
 ! A5    A(10,1,11)            114.4226         calculate D2E/DX2 analytically  !
 ! A6    A(1,2,3)              118.7756         calculate D2E/DX2 analytically  !
 ! A7    A(1,2,12)             121.3458         calculate D2E/DX2 analytically  !
 ! A8    A(3,2,9)              110.4453         calculate D2E/DX2 analytically  !
 ! A9    A(3,2,12)             112.0935         calculate D2E/DX2 analytically  !
 ! A10   A(9,2,12)             124.2583         calculate D2E/DX2 analytically  !
 ! A11   A(2,3,4)              107.63           calculate D2E/DX2 analytically  !
 ! A12   A(3,4,5)              107.8224         calculate D2E/DX2 analytically  !
 ! A13   A(3,4,13)             108.1365         calculate D2E/DX2 analytically  !
 ! A14   A(3,4,14)             111.6039         calculate D2E/DX2 analytically  !
 ! A15   A(5,4,13)             113.4985         calculate D2E/DX2 analytically  !
 ! A16   A(5,4,14)             107.6984         calculate D2E/DX2 analytically  !
 ! A17   A(13,4,14)            108.1391         calculate D2E/DX2 analytically  !
 ! A18   A(4,5,6)              118.9954         calculate D2E/DX2 analytically  !
 ! A19   A(4,5,8)              111.1937         calculate D2E/DX2 analytically  !
 ! A20   A(4,5,9)              102.9413         calculate D2E/DX2 analytically  !
 ! A21   A(6,5,8)               90.9267         calculate D2E/DX2 analytically  !
 ! A22   A(6,5,9)              116.7993         calculate D2E/DX2 analytically  !
 ! A23   A(8,5,9)              116.4578         calculate D2E/DX2 analytically  !
 ! A24   A(5,6,7)               85.0195         calculate D2E/DX2 analytically  !
 ! A25   A(5,6,15)             114.9668         calculate D2E/DX2 analytically  !
 ! A26   A(5,6,16)             114.9752         calculate D2E/DX2 analytically  !
 ! A27   A(7,6,15)             115.6456         calculate D2E/DX2 analytically  !
 ! A28   A(7,6,16)             115.7154         calculate D2E/DX2 analytically  !
 ! A29   A(15,6,16)            109.0521         calculate D2E/DX2 analytically  !
 ! A30   A(6,7,8)               91.7191         calculate D2E/DX2 analytically  !
 ! A31   A(6,7,17)             115.6732         calculate D2E/DX2 analytically  !
 ! A32   A(6,7,18)             116.0532         calculate D2E/DX2 analytically  !
 ! A33   A(8,7,17)             111.8709         calculate D2E/DX2 analytically  !
 ! A34   A(8,7,18)             111.8226         calculate D2E/DX2 analytically  !
 ! A35   A(17,7,18)            108.8066         calculate D2E/DX2 analytically  !
 ! A36   A(5,8,7)               92.3239         calculate D2E/DX2 analytically  !
 ! A37   A(1,9,5)              116.2619         calculate D2E/DX2 analytically  !
 ! A38   A(1,9,19)             119.6249         calculate D2E/DX2 analytically  !
 ! A39   A(2,9,5)              105.354          calculate D2E/DX2 analytically  !
 ! A40   A(2,9,19)             122.907          calculate D2E/DX2 analytically  !
 ! A41   A(5,9,19)             118.8384         calculate D2E/DX2 analytically  !
 ! D1    D(10,1,2,3)             9.2458         calculate D2E/DX2 analytically  !
 ! D2    D(10,1,2,12)         -137.5752         calculate D2E/DX2 analytically  !
 ! D3    D(11,1,2,3)           155.047          calculate D2E/DX2 analytically  !
 ! D4    D(11,1,2,12)            8.226          calculate D2E/DX2 analytically  !
 ! D5    D(10,1,9,5)           -16.4295         calculate D2E/DX2 analytically  !
 ! D6    D(10,1,9,19)          137.6386         calculate D2E/DX2 analytically  !
 ! D7    D(11,1,9,5)          -159.5625         calculate D2E/DX2 analytically  !
 ! D8    D(11,1,9,19)           -5.4944         calculate D2E/DX2 analytically  !
 ! D9    D(1,2,3,4)             51.528          calculate D2E/DX2 analytically  !
 ! D10   D(9,2,3,4)            -15.6626         calculate D2E/DX2 analytically  !
 ! D11   D(12,2,3,4)          -158.7648         calculate D2E/DX2 analytically  !
 ! D12   D(3,2,9,5)              0.5973         calculate D2E/DX2 analytically  !
 ! D13   D(3,2,9,19)          -140.0689         calculate D2E/DX2 analytically  !
 ! D14   D(12,2,9,5)           138.2923         calculate D2E/DX2 analytically  !
 ! D15   D(12,2,9,19)           -2.374          calculate D2E/DX2 analytically  !
 ! D16   D(2,3,4,5)             24.2444         calculate D2E/DX2 analytically  !
 ! D17   D(2,3,4,13)           147.3394         calculate D2E/DX2 analytically  !
 ! D18   D(2,3,4,14)           -93.8401         calculate D2E/DX2 analytically  !
 ! D19   D(3,4,5,6)            107.9284         calculate D2E/DX2 analytically  !
 ! D20   D(3,4,5,8)           -148.4962         calculate D2E/DX2 analytically  !
 ! D21   D(3,4,5,9)            -23.087          calculate D2E/DX2 analytically  !
 ! D22   D(13,4,5,6)           -11.8285         calculate D2E/DX2 analytically  !
 ! D23   D(13,4,5,8)            91.7469         calculate D2E/DX2 analytically  !
 ! D24   D(13,4,5,9)          -142.8439         calculate D2E/DX2 analytically  !
 ! D25   D(14,4,5,6)          -131.504          calculate D2E/DX2 analytically  !
 ! D26   D(14,4,5,8)           -27.9286         calculate D2E/DX2 analytically  !
 ! D27   D(14,4,5,9)            97.4807         calculate D2E/DX2 analytically  !
 ! D28   D(4,5,6,7)            115.7427         calculate D2E/DX2 analytically  !
 ! D29   D(4,5,6,15)          -128.2394         calculate D2E/DX2 analytically  !
[...]
 227,-0.10093751,0.00171694,0.06622834,0.47171805,-0.00196038,-0.001950
 70,0.00179818,-0.01904330,-0.00888771,0.03630258,0.02253720,-0.0874054
 8,-0.02942072,0.09407675,0.57327369,-0.00078713,-0.00033355,0.00389739
 ,0.01495439,0.02451441,-0.04168770,0.05249111,0.00718385,-0.15954595,0
 .04466657,-0.03435401,0.52154649,-0.01922356,-0.00887736,0.01919628,-0
 .01645709,0.00041006,0.00651207,-0.01894438,0.01465600,0.01543187,-0.1
 0271559,0.02417156,-0.01819937,0.54241706,-0.01078650,-0.00857702,0.01
 190510,0.00239134,0.02035419,-0.02025540,0.00814988,-0.00970129,-0.001
 53059,0.03292266,-0.12400977,0.01509087,-0.01445969,0.42195770,-0.0008
 1036,-0.01395595,0.00971668,0.03535602,-0.01258451,-0.01621134,0.02569
 450,-0.00842893,-0.01815372,-0.02046384,0.02167714,-0.06887305,-0.0511
 0259,-0.01813139,0.43896244,0.00156181,-0.00044009,0.00097187,-0.00103
 634,0.00099893,0.00000746,-0.00027098,0.00033853,0.00113990,-0.0163475
 1,0.00037981,-0.00558026,-0.15308340,-0.02279908,-0.02759044,0.4167551
 0,-0.00132845,-0.00103388,0.00333423,-0.00126217,-0.00117540,-0.000020
 45,0.00107528,-0.00051561,-0.00176257,0.01897945,0.00741800,0.00928901
 ,-0.01184065,-0.07392207,0.01600311,0.03792123,0.59762598,0.00018842,0
 .00295156,-0.00279000,-0.00167703,0.00081478,0.00093390,-0.00109872,-0
 .00132237,0.00055480,-0.00471542,-0.00051142,0.00011389,-0.00898222,0.
 01701484,-0.04651902,0.10391826,-0.03563385,0.53051302,-0.00060835,-0.
 00019900,0.00093919,-0.00035187,0.00072848,-0.00145806,0.00159923,-0.0
 0087687,-0.00083995,-0.00383743,0.00115469,-0.00259867,-0.06517579,0.0
 1453195,0.04354975,-0.03807034,0.00762269,0.00580129,0.46485364,0.0001
 5095,-0.00015206,0.00022639,0.00032092,-0.00043341,0.00008813,0.000426
 47,-0.00076427,-0.00090714,0.00093372,-0.00216821,-0.00276029,0.018291
 02,0.00361347,-0.01454748,0.01792597,-0.10569657,-0.03971549,-0.061017
 40,0.56265828,-0.00107920,-0.00033079,0.00072926,0.00007945,0.00028489
 ,-0.00129028,-0.00000634,-0.00027369,-0.00031568,-0.00001691,0.0000398
 0,-0.00236039,0.04819075,-0.01449152,-0.02391476,0.02510034,-0.0380776
 1,-0.16035559,-0.09404455,-0.05376923,0.51530727,0.00328911,0.00091008
 ,-0.00231843,-0.00019901,0.00038744,0.00452117,-0.00308900,0.00335987,
 0.00400451,-0.00172056,0.00952962,0.02163593,-0.06121700,0.01770252,0.
 02811911,-0.04702127,-0.02186293,-0.03117444,-0.18659790,-0.03226696,-
 0.04139720,0.35827016,0.00125279,0.00212328,-0.00236426,-0.00157949,-0
 .00427936,0.00547447,0.00429389,-0.00248304,-0.00255419,0.00554918,-0.
 00770164,-0.02725044,-0.00703551,-0.08646364,-0.04333983,-0.02310970,-
 0.00588517,-0.03974365,-0.00825259,-0.06645777,-0.00306421,0.02583267,
 0.13749996,-0.00208291,0.00069058,0.00357422,-0.00495168,0.00738500,-0
 .00597577,-0.00022248,-0.00275410,0.00324695,0.00483318,-0.00800910,-0
 .00793949,-0.01643629,-0.05218986,-0.14363967,-0.03268667,-0.04022266,
 -0.05281351,0.00438825,0.00156517,-0.06432894,0.00758085,0.11023659,0.
 28488766,-0.18435843,-0.05643845,-0.04900106,-0.10386181,0.08672843,0.
 07175702,-0.00086245,0.01738096,-0.00868825,0.01027431,0.01130360,-0.0
 0403886,-0.09478416,-0.01984905,0.01231907,-0.01562547,-0.01785384,0.0
 1836170,-0.00088459,-0.00047552,0.00196471,-0.00391879,-0.00082841,0.0
 1601571,0.55015427,-0.00875275,-0.04196527,0.02328316,0.05095271,-0.09
 575632,-0.02110778,0.02747468,-0.03215974,0.00810963,-0.00249188,-0.02
 898528,0.01583226,-0.02827247,-0.11783992,0.05542289,-0.00587114,-0.00
 344883,0.00593789,-0.00260644,-0.00103167,-0.00126900,0.00919039,0.015
 10591,-0.01365769,-0.12188485,0.46599733,-0.02310993,0.02312568,-0.056
 85006,0.04011547,-0.02448960,-0.08224277,-0.00696476,0.00610216,-0.004
 48814,-0.00354787,0.02378542,-0.00451099,0.02383174,0.04990430,-0.1108
 1291,0.00030860,-0.00392038,0.00650290,-0.00290901,0.00072798,-0.00398
 476,0.01794813,0.00767093,-0.02978845,0.03057046,-0.17649049,0.4183290
 1,-0.07508592,0.01036359,-0.09601584,-0.00431327,-0.00318536,0.0073674
 5,-0.00029673,-0.00208752,-0.00045693,-0.00008623,-0.00032320,-0.00168
 952,0.00200565,0.00242393,-0.00105463,0.00024116,0.00051332,-0.0002476
 7,-0.00008896,0.00012881,0.00013942,0.00017836,-0.00011110,0.00171599,
 -0.01033746,0.00391485,-0.02772998,0.08274980,0.01137475,-0.05149927,0
 .04573457,-0.01017823,0.00739204,-0.02550593,0.00343033,0.00252196,0.0
 0339104,-0.00055534,-0.00044823,-0.00017370,-0.00190753,0.00124863,-0.
 00070437,0.00010754,-0.00029005,0.00006042,0.00011536,-0.00002798,0.00
 001544,-0.00010566,-0.00041291,0.00018402,-0.00104102,-0.00584603,0.00
 285880,-0.00886446,0.05092366,-0.09874897,0.04433592,-0.29315701,-0.00
 487782,0.00516145,-0.01380790,0.00187529,0.00113222,0.00194971,-0.0000
 0610,0.00021275,-0.00024252,-0.00021690,0.00068134,-0.00058839,0.00001
 581,-0.00020811,0.00010269,0.00009883,-0.00011214,0.00016278,-0.000336
 47,0.00017054,0.00023305,0.00070854,-0.00432800,0.00519104,0.10636347,
 -0.04652188,0.30857591,-0.07991886,-0.08918443,0.04979234,-0.00213623,
 0.00289035,-0.00648718,0.00253078,0.00411835,0.00039939,-0.00094680,0.
 00065476,0.00101552,-0.00329871,-0.00162463,-0.00685410,-0.00013264,-0
 .00099574,0.00130651,0.00001396,-0.00015100,-0.00013508,0.00028319,0.0
 0074385,0.00042656,-0.01127559,-0.02547181,0.01659980,0.00516418,0.010
 06183,-0.00467658,0.08754253,-0.09232748,-0.22172575,0.11509468,-0.007
 10610,-0.01409780,0.01607391,-0.00395901,-0.00506601,-0.00158757,0.001
 19775,-0.00000076,-0.00216067,0.00194184,0.00072798,0.00049145,0.00025
 634,0.00045131,-0.00035773,0.00007449,0.00005536,0.00007412,-0.0002730
 6,-0.00006844,0.00012792,0.00183357,0.00516588,-0.00677627,-0.00065356
 ,-0.00119235,-0.00046669,0.09844959,0.23351738,0.05046856,0.11656576,-
 0.11886562,-0.00623958,-0.01248182,0.00990808,-0.00284332,-0.00371720,
 -0.00039182,0.00011437,-0.00042853,-0.00138915,0.00086225,-0.00027141,
 -0.00034317,0.00002312,0.00020802,-0.00016763,-0.00007907,0.00007469,0
 .00008036,-0.00000256,0.00007852,0.00018222,-0.00241436,0.00026898,-0.
 00316518,0.01207876,0.02063361,-0.00930301,-0.05282225,-0.12126280,0.1
 2001787,0.00180720,0.00199897,-0.01834816,-0.05427147,0.00425177,0.063
 77699,0.00042963,0.00033630,-0.00070577,-0.00012329,0.00043164,0.00130
 801,0.00071857,0.00360685,0.00105381,0.00011337,-0.00005690,0.00002517
 ,0.00060067,0.00003546,0.00033483,-0.00159071,-0.00049896,0.00189092,-
 0.00153967,-0.00378942,0.02281836,0.00121114,-0.00312765,-0.00217664,0
 .00000218,0.00158799,0.00152737,0.05162297,0.00437453,-0.00053947,-0.0
 1652951,0.00831218,-0.04824142,-0.02462293,-0.01197255,-0.00365120,0.0
 3499276,0.00275552,-0.00460676,0.00110560,-0.00086101,-0.00317679,0.00
 008780,0.00000055,0.00012268,-0.00012361,-0.00018302,0.00006913,-0.000
 20773,0.00064203,0.00078172,-0.00072466,-0.00029534,-0.00098634,-0.010
 56588,0.00179391,-0.00191293,-0.00098177,-0.00118127,0.00142746,0.0003
 4250,-0.00287835,0.05913694,0.00427345,-0.00059833,-0.00916334,0.06502
 630,-0.01763433,-0.32319987,0.00502110,0.00560256,-0.01171260,-0.00244
 519,0.00141991,0.00124473,-0.00073607,0.00062265,0.00017095,0.00001257
 ,-0.00002398,-0.00001547,-0.00015226,0.00001694,-0.00001990,0.00027212
 ,-0.00018487,0.00033406,-0.00259043,-0.00257527,0.00102762,0.00095309,
 -0.00112114,-0.00021230,-0.00044070,0.00041739,0.00105262,-0.07020131,
 0.01428455,0.34097289,-0.00032335,-0.00006461,0.00034504,-0.00376408,0
 .00308154,-0.00059989,-0.00918308,-0.01636286,0.01429450,-0.10547252,-
 0.10709514,0.01204567,0.00997408,0.01723661,-0.00368620,0.00142921,0.0
 0059272,-0.00007687,0.00021039,0.00017940,0.00028446,-0.00073223,-0.00
 005110,0.00056654,-0.00163294,0.00310794,-0.00170096,0.00023913,0.0000
 6862,0.00004214,0.00014674,-0.00005238,0.00007268,0.00011424,-0.000569
 94,0.00016566,0.11630639,0.00024750,0.00025318,-0.00042539,0.00112433,
 -0.00000263,-0.00121392,0.00223081,0.00779668,0.00218408,-0.11014928,-
 0.25160540,0.02547147,-0.01219539,-0.01570614,0.00275144,-0.00169212,0
 .00073820,-0.00051094,-0.00065740,-0.00045867,-0.00004251,0.00207849,-
 0.00025534,-0.00124844,0.00173280,-0.00211094,0.00145480,0.00004910,0.
 00001092,0.00006916,-0.00006106,-0.00002678,-0.00004068,-0.00017479,0.
 00013032,-0.00003344,0.11880423,0.26493673,0.00010394,0.00014628,-0.00
 069671,0.00450185,-0.00112039,-0.00214514,0.01886301,0.02838217,-0.015
 20596,0.00879111,0.01773521,-0.04828342,0.00026669,0.00383386,0.000395
 56,0.00063295,0.00002434,0.00030327,0.00031290,0.00001442,0.00033631,-
 0.00033380,0.00083665,0.00023583,-0.00020379,-0.00014700,-0.00098890,0
 .00030246,0.00018575,0.00018333,0.00001352,0.00031191,0.00045539,0.000
 07751,0.00109011,-0.00038023,-0.02067570,-0.03012722,0.06124720,-0.000
 93877,-0.00065688,-0.00110610,0.00093974,0.00223166,0.00096294,0.01462
 915,0.00365481,0.02417912,-0.14164437,-0.02932444,-0.11923228,-0.01411
 264,-0.00328049,-0.01591844,-0.00087077,0.00288515,-0.00090516,-0.0006
 0228,-0.00046764,-0.00039671,0.00227782,-0.00123338,0.00096603,-0.0008
 6809,0.00001089,0.00073578,0.00059064,-0.00091748,0.00052914,0.0001099
 7,0.00017991,0.00021690,-0.00005398,-0.00060198,0.00027301,-0.00796061
 ,-0.00243937,-0.01229268,0.14855743,0.00000531,-0.00042359,0.00027455,
 -0.00018905,-0.00072141,0.00102612,0.00341710,0.00338806,-0.00490160,-
 0.03043003,-0.06053581,-0.03264089,0.01855149,0.00280672,0.01862535,0.
 00091328,-0.00345099,0.00049066,0.00083530,0.00082817,0.00049298,-0.00
 268608,0.00245207,0.00051590,0.00022446,0.00008852,-0.00121405,-0.0003
 6061,-0.00122379,0.00058797,-0.00033127,0.00039136,0.00005244,-0.00037
 574,0.00007274,-0.00003224,-0.01913080,-0.00453191,-0.02115241,0.02916
 343,0.06068693,-0.00027703,0.00043900,-0.00000244,-0.00140663,-0.00668
 736,0.00005767,-0.00057800,-0.00273794,-0.03663131,-0.11661456,-0.0312
 7439,-0.18949904,-0.00619159,-0.00126692,-0.00417422,0.00115086,0.0004
 5715,-0.00072536,0.00043960,-0.00025915,0.00021784,0.00142731,0.000094
 42,0.00182166,-0.00047639,0.00018736,-0.00011577,0.00057950,0.00065194
 ,0.00050774,0.00010440,0.00015205,0.00050317,0.00040159,0.00111638,-0.
 00037441,-0.00005996,0.00090966,0.00448857,0.12167680,0.03800347,0.223
 43810,0.00029826,0.00002426,0.00017272,-0.00024871,0.00088831,-0.00020
 000,-0.00070625,-0.00024845,0.00115797,-0.00254488,-0.00243628,-0.0023
 5277,-0.00732326,0.01857187,-0.02098600,-0.08920453,0.05023585,-0.0825
 1936,0.00109292,-0.00773433,0.00824011,-0.00028971,-0.00341063,-0.0033
 4638,0.00245628,0.00161504,-0.00078498,0.00020384,0.00002874,-0.000019
 47,0.00008023,-0.00004028,0.00001927,-0.00008396,-0.00011700,0.0000466
 6,0.00001113,-0.00013468,0.00016226,-0.00101363,0.00092806,-0.00021486
 ,0.09254762,-0.00002022,0.00025200,-0.00003629,-0.00011025,-0.00036833
 ,0.00022707,0.00027408,0.00024466,-0.00032438,0.00012356,-0.00041423,0
 .00030873,-0.00144773,0.00009257,-0.00337287,0.05124170,-0.10997277,0.
 10227560,-0.00587564,0.00846536,-0.01119583,-0.00262025,-0.00271258,-0
 .00180800,-0.00111250,0.00093927,-0.00036981,-0.00000586,-0.00003743,-
 0.00001991,0.00002923,-0.00000436,0.00000346,0.00003942,0.00002850,-0.
 00003467,-0.00000978,0.00053262,-0.00010358,0.00024719,0.00013380,-0.0
 0004502,-0.05361761,0.11511491,-0.00002236,-0.00017168,0.00000989,0.00
 004410,-0.00031011,0.00019992,0.00006742,-0.00000912,0.00010862,0.0012
 1591,-0.00030434,-0.00019523,0.00184991,-0.00274884,-0.00028396,-0.083
 17131,0.10119828,-0.21379744,-0.00830371,0.01643893,-0.01591741,-0.003
 95740,-0.00235906,-0.00088941,0.00033286,0.00037657,0.00055480,0.00007
 501,-0.00006302,-0.00001490,-0.00006326,0.00003693,0.00005051,-0.00007
 257,0.00000729,-0.00000520,0.00001181,0.00003277,-0.00003854,0.0001537
 9,-0.00012116,0.00010268,0.09198153,-0.10875367,0.22888642,-0.00045410
 ,-0.00055502,0.00101250,0.00018557,-0.00111191,0.00013807,0.00031011,0
 .00089346,-0.00045132,0.00200224,-0.00191469,0.00134116,-0.00375145,-0
 .02855147,0.00390748,-0.06448369,-0.06543626,-0.00037161,-0.00085285,0
 .01091942,-0.00212376,-0.00051990,-0.00092958,-0.00490325,-0.00367082,
 -0.00034293,-0.00222645,0.00013309,-0.00011910,-0.00007219,-0.00046004
 ,0.00018261,0.00012743,-0.00009806,0.00011698,-0.00001244,-0.00019412,
 0.00132072,-0.00043463,0.00043554,0.00008913,-0.00000926,0.00424594,0.
 01279371,0.00023352,0.06631315,0.00016033,0.00007602,0.00001930,0.0002
 0447,-0.00049974,0.00011972,-0.00007579,0.00055195,-0.00018662,0.00090
 856,0.00032855,0.00028818,0.00137876,-0.00106199,-0.00074229,-0.066522
 55,-0.30084016,-0.00151167,-0.00163688,-0.00985934,0.00351153,-0.00205
 983,0.00013422,-0.00062984,-0.00024641,-0.00000523,-0.00034668,-0.0000
 3535,0.00002789,-0.00002520,-0.00003338,0.00000151,-0.00001627,-0.0000
 3535,0.00004050,0.00002266,-0.00022266,0.00082811,-0.00017755,0.000302
 92,0.00027340,-0.00006932,-0.00415783,-0.01335381,-0.00071739,0.072354
 62,0.32167415,0.00033646,-0.00007522,-0.00014723,0.00010830,0.00039738
 ,0.00000467,-0.00043601,0.00000318,0.00005956,-0.00057408,-0.00060293,
 0.00089979,-0.00019671,0.00074883,-0.00311085,0.00007228,-0.00046809,-
 0.04775998,-0.00536848,-0.02607065,0.00436262,-0.00442808,0.00001201,-
 0.00329528,0.00101112,0.00018641,-0.00016313,0.00003109,-0.00000387,-0
 .00001544,0.00005622,-0.00000811,-0.00000916,0.00000015,0.00000210,-0.
 00001246,-0.00006154,0.00009383,0.00009773,-0.00000196,0.00002764,0.00
 001280,0.00693162,0.02478116,0.00131727,0.00258994,0.00238386,0.048783
 79,0.00006514,-0.00008076,-0.00008866,0.00004521,0.00029897,0.00006354
 ,-0.00063953,0.00029372,0.00079377,0.00010305,0.00030880,0.00144157,-0
 .00225805,-0.00033939,-0.00587623,0.00253994,-0.00119990,0.00156758,-0
 .09709373,0.09760387,-0.00449662,-0.03061060,0.02474442,0.00157792,-0.
 00030057,0.00035479,0.00009018,0.00005561,0.00000792,-0.00001607,-0.00
 004577,-0.00001535,0.00004609,-0.00009266,-0.00000278,0.00003179,0.000
 01390,0.00024930,0.00001584,0.00031151,-0.00029528,0.00011920,0.000855
 91,0.00023423,0.00051445,-0.00002089,-0.00053099,-0.00048164,0.1186128
 4,-0.00000571,0.00012612,-0.00001791,-0.00015190,-0.00006672,0.0000435
 0,0.00014516,0.00003281,-0.00016344,-0.00004140,0.00032733,0.00037646,
 -0.00083639,-0.00051033,-0.00007649,0.00354574,-0.00996497,0.00207660,
 0.10165457,-0.25339194,0.01011081,0.00001698,0.01409789,-0.00044321,0.
 00020168,-0.00025504,0.00010975,-0.00002231,0.00000118,0.00001049,0.00
 005268,0.00000218,-0.00002309,0.00003002,0.00000628,-0.00001764,-0.000
 02815,0.00013137,-0.00001913,0.00009674,-0.00003870,0.00010042,-0.0004
 5660,0.00138307,0.00013540,0.00107887,-0.00005543,-0.00202970,-0.11367
 866,0.26411478,0.00006530,0.00011989,-0.00008661,-0.00006414,-0.000040
 05,0.00008843,-0.00000031,0.00005046,0.00000060,0.00053373,0.00046754,
 0.00036179,0.00025012,-0.00036967,-0.00328554,0.01071850,-0.02408327,0
 .00214035,-0.00304334,0.01050643,-0.05367118,-0.00370363,0.00218067,0.
 00459929,0.00020191,-0.00006884,0.00023296,-0.00000227,0.00000295,0.00
 000336,0.00005257,-0.00001336,-0.00001293,-0.00000883,0.00000766,0.000
 00462,-0.00010643,0.00015138,-0.00006983,0.00017402,-0.00004861,0.0001
 7769,-0.00116926,0.00049800,0.00219194,0.00224644,-0.00192678,-0.00335
 166,0.00322215,-0.01078730,0.05062095,0.00045374,0.00010288,-0.0001945
 8,0.00003469,-0.00034541,0.00069594,-0.00013470,0.00033657,-0.00000298
 ,0.00001272,-0.00045874,0.00050963,-0.00227727,-0.00430957,-0.00365624
 ,0.00198484,0.00222976,0.00019256,-0.07454327,-0.04484069,0.05928554,-
 0.02645589,-0.01610426,0.02486695,-0.00061139,0.00112375,0.00172060,0.
 00005074,-0.00002932,-0.00008234,-0.00001268,-0.00001527,0.00002118,-0
 .00020220,0.00013457,0.00002416,0.00003470,0.00016633,-0.00002233,0.00
 002655,-0.00011583,-0.00005410,-0.00009834,-0.00017955,-0.00059668,0.0
 0088118,0.00020181,0.00042958,0.00847306,0.00844106,-0.00940959,0.0924
 0703,0.00016632,0.00007462,-0.00011134,-0.00005823,-0.00004378,0.00021
 907,-0.00003876,0.00003033,0.00005327,0.00017688,0.00000223,0.00004521
 ,0.00070200,-0.00262556,-0.00222979,0.00538138,0.00969396,-0.01221630,
 -0.04596206,-0.13549267,0.10806879,-0.00704193,0.00412962,0.00055345,0
 .00036207,0.00028655,0.00055225,0.00001403,-0.00000233,-0.00000967,0.0
 0004324,-0.00000776,0.00000058,-0.00005583,0.00002187,0.00001469,0.000
 02867,-0.00001538,-0.00003021,0.00009705,-0.00008428,-0.00000074,0.001
 13370,-0.00040350,-0.00234461,-0.00077582,0.00158039,0.00087070,-0.007
 84621,-0.01597296,0.02336064,0.05373784,0.13889618,0.00014547,0.000195
 71,-0.00013182,-0.00030186,0.00006250,0.00022407,0.00015185,-0.0002775
 4,0.00005435,0.00016645,0.00046183,-0.00015091,-0.00036425,-0.00122916
 ,-0.00151614,0.00578453,0.01493440,-0.01643813,0.06368182,0.10820207,-
 0.19488495,0.00131429,-0.00436515,0.01014046,0.00061713,0.00025659,0.0
 0069122,0.00001775,-0.00000516,-0.00000398,0.00011276,-0.00000199,-0.0
 0000660,-0.00001084,-0.00000051,-0.00001035,-0.00005299,-0.00014130,-0
 .00004144,0.00012287,-0.00008860,-0.00001480,0.00218635,-0.00194542,-0
 .00287689,-0.00098155,0.00016584,0.00201500,0.00128324,0.00069321,0.00
 023485,-0.07382217,-0.11681467,0.20262961,-0.01323948,0.01385906,-0.00
 959612,-0.00908676,0.00115523,-0.00611326,0.00049110,0.00029226,-0.001
 38020,-0.00252983,-0.00199225,0.00306930,0.00950698,-0.01153774,0.0079
 9934,0.00152149,-0.00021860,0.00040701,0.00033654,0.00003753,0.0000767
 5,-0.00033608,0.00072790,-0.00019926,-0.12835264,0.10173866,-0.0857651
 7,-0.00261478,0.00165069,0.00159636,0.00235357,-0.00126161,-0.00117686
 ,0.00143606,0.00053294,0.00047849,0.00078301,-0.00049951,-0.00008111,0
 .00018677,-0.00021288,-0.00001689,-0.00027888,0.00001628,-0.00029302,-
 0.00000087,0.00004557,-0.00001824,-0.00001439,-0.00004237,0.00004304,-
 0.00002352,-0.00006433,-0.00005088,0.13986171,-0.00598870,0.01032227,-
 0.01246615,0.00259326,-0.00654686,0.01403795,0.00141540,-0.00371363,0.
 00263008,0.00069283,-0.00262982,0.00016751,0.00763100,-0.00720676,0.00
 305473,0.00142369,0.00014635,0.00002468,0.00054977,0.00024478,0.000123
 78,-0.00073339,0.00039521,0.00042891,0.10025783,-0.15719284,0.10788108
 ,-0.00355221,0.00076702,0.00031152,0.00199071,0.00044959,0.00001322,-0
 .00132543,0.00127679,-0.00014543,0.00048770,-0.00064492,0.00031677,0.0
 0005192,-0.00011130,0.00022898,-0.00107214,0.00008024,-0.00032317,-0.0
 0001275,0.00015901,-0.00024853,-0.00010671,0.00003306,-0.00000774,-0.0
 0007594,-0.00006753,-0.00010266,-0.10422682,0.16423935,-0.00047199,0.0
 0646491,-0.00769274,0.00597870,-0.00807564,0.01240775,0.00232645,-0.00
 507467,0.00262225,0.00446514,0.00100509,-0.00338626,-0.01396568,0.0126
 8298,-0.00781890,-0.00082837,-0.00102757,0.00021731,-0.00041454,0.0002
 8043,-0.00015260,0.00082860,-0.00152915,-0.00058489,-0.08644709,0.1097
 8231,-0.13541852,-0.00242717,0.00038053,0.00043584,0.00159956,-0.00014
 515,0.00140406,-0.00169059,0.00071985,0.00029864,-0.00080794,0.0006652
 4,0.00010698,-0.00013705,0.00010249,0.00020941,0.00069459,-0.00008457,
 0.00059692,-0.00001008,-0.00016150,0.00031195,0.00019190,-0.00007873,-
 0.00017909,0.00009486,0.00001869,0.00008646,0.09102070,-0.11592555,0.1
 3653543\\0.00002083,-0.00000327,0.00006734,-0.00000858,-0.00001650,-0.
 00000460,-0.00000252,-0.00000138,0.00000678,-0.00000628,0.00000394,-0.
 00002809,0.00000490,-0.00000718,0.00002612,-0.00000887,0.00000813,-0.0
 0001352,0.00002352,0.00000502,-0.00000645,-0.00002005,-0.00001413,-0.0
 0001201,0.00001927,0.00003719,-0.00002898,0.00000147,-0.00000207,0.000
 00806,-0.00000788,-0.00000813,-0.00000840,0.00001422,0.00000026,0.0000
 0861,-0.00000859,-0.00000549,-0.00000583,-0.00000131,-0.00000713,0.000
 00463,0.00000221,0.00000522,-0.00000683,-0.00000287,0.00000334,-0.0000
 1193,-0.00000458,0.00000377,-0.00000077,-0.00000942,-0.00000292,-0.000
 00602,-0.00000547,0.00000131,0.00001189\\\@


 CHRISTMAS IS ON TOP OF A STEEP HILL.
 THE CLOSER YOU GET, THE STEEPER THE HILL IS.
          -- LINUS, OF PEANUTS
 Job cpu time:       0 days  0 hours 46 minutes 37.3 seconds.
 File lengths (MBytes):  RWF=    152 Int=      0 D2E=      0 Chk=      8 Scr=      1
 Normal termination of Gaussian 09 at Mon Jan 27 12:01:40 2020.
