 Entering Gaussian System, Link 0=/home/puck/opt/gaussian_09/g09
 Input=dsC7O2H10nsd_3562.com
 Output=dsC7O2H10nsd_3562.log
 Initial command:
 /home/puck/opt/gaussian_09/l1.exe "/scratch/puck/g09_80ac2d45-9a90-490b-8adf-76f43f6e6d5c/Gau-920.inp" -scrdir="/scratch/puck/g09_80ac2d45-9a90-490b-8adf-76f43f6e6d5c/"
 Entering Link 1 = /home/puck/opt/gaussian_09/l1.exe PID=       921.
  
 Copyright (c) 1988,1990,1992,1993,1995,1998,2003,2009,2013,
            Gaussian, Inc.  All Rights Reserved.
  
 This is part of the Gaussian(R) 09 program.  It is based on
 the Gaussian(R) 03 system (copyright 2003, Gaussian, Inc.),
 the Gaussian(R) 98 system (copyright 1998, Gaussian, Inc.),
 the Gaussian(R) 94 system (copyright 1995, Gaussian, Inc.),
 the Gaussian 92(TM) system (copyright 1992, Gaussian, Inc.),
 the Gaussian 90(TM) system (copyright 1990, Gaussian, Inc.),
 the Gaussian 88(TM) system (copyright 1988, Gaussian, Inc.),
 the Gaussian 86(TM) system (copyright 1986, Carnegie Mellon
 University), and the Gaussian 82(TM) system (copyright 1983,
 Carnegie Mellon University). Gaussian is a federally registered
 trademark of Gaussian, Inc.
  
 This software contains proprietary and confidential information,
 including trade secrets, belonging to Gaussian, Inc.
  
 This software is provided under written license and may be
 used, copied, transmitted, or stored only in accord with that
 written license.
  
 The following legend is applicable only to US Government
 contracts under FAR:
  
                    RESTRICTED RIGHTS LEGEND
  
 Use, reproduction and disclosure by the US Government is
 subject to restrictions as set forth in subparagraphs (a)
 and (c) of the Commercial Computer Software - Restricted
 Rights clause in FAR 52.227-19.
  
 Gaussian, Inc.
 340 Quinnipiac St., Bldg. 40, Wallingford CT 06492
  
  
 ---------------------------------------------------------------
 Warning -- This program may not be used in any manner that
 competes with the business of Gaussian, Inc. or will provide
 assistance to any competitor of Gaussian, Inc.  The licensee
 of this program is prohibited from giving any competitor of
 Gaussian, Inc. access to this program.  By using this program,
 the user acknowledges that Gaussian, Inc. is engaged in the
 business of creating and licensing software in the field of
 computational chemistry and represents and warrants to the
 licensee that it is not a competitor of Gaussian, Inc. and that
 it will not use this program in any manner prohibited above.
 ---------------------------------------------------------------
  

 Cite this work as:
 Gaussian 09, Revision D.01,
 M. J. Frisch, G. W. Trucks, H. B. Schlegel, G. E. Scuseria, 
 M. A. Robb, J. R. Cheeseman, G. Scalmani, V. Barone, B. Mennucci, 
 G. A. Petersson, H. Nakatsuji, M. Caricato, X. Li, H. P. Hratchian, 
 A. F. Izmaylov, J. Bloino, G. Zheng, J. L. Sonnenberg, M. Hada, 
 M. Ehara, K. Toyota, R. Fukuda, J. Hasegawa, M. Ishida, T. Nakajima, 
 Y. Honda, O. Kitao, H. Nakai, T. Vreven, J. A. Montgomery, Jr., 
 J. E. Peralta, F. Ogliaro, M. Bearpark, J. J. Heyd, E. Brothers, 
 K. N. Kudin, V. N. Staroverov, T. Keith, R. Kobayashi, J. Normand, 
 K. Raghavachari, A. Rendell, J. C. Burant, S. S. Iyengar, J. Tomasi, 
 M. Cossi, N. Rega, J. M. Millam, M. Klene, J. E. Knox, J. B. Cross, 
 V. Bakken, C. Adamo, J. Jaramillo, R. Gomperts, R. E. Stratmann, 
 O. Yazyev, A. J. Austin, R. Cammi, C. Pomelli, J. W. Ochterski, 
 R. L. Martin, K. Morokuma, V. G. Zakrzewski, G. A. Voth, 
 P. Salvador, J. J. Dannenberg, S. Dapprich, A. D. Daniels, 
 O. Farkas, J. B. Foresman, J. V. Ortiz, J. Cioslowski, 
 and D. J. Fox, Gaussian, Inc., Wallingford CT, 2013.
 
 ******************************************
 Gaussian 09:  ES64L-G09RevD.01 24-Apr-2013
                28-Jan-2020 
 ******************************************
 -----------------------------
 # b3lyp 6-31G(2df,p) opt Freq
 -----------------------------
 1/14=-1,18=20,19=15,26=3,38=1/1,3;
 2/9=110,12=2,17=6,18=5,40=1/2;
 3/5=1,6=6,7=104,11=2,16=1,25=1,30=1,71=1,74=-5/1,2,3;
 4//1;
 5/5=2,38=5/2;
 6/7=2,8=2,9=2,10=2,28=1/1;
 7//1,2,3,16;
 1/14=-1,18=20,19=15,26=3/3(2);
 2/9=110/2;
 99//99;
 2/9=110/2;
 3/5=1,6=6,7=104,11=2,16=1,25=1,30=1,71=1,74=-5/1,2,3;
 4/5=5,16=3,69=1/1;
 5/5=2,38=5/2;
 7//1,2,3,16;
 1/14=-1,18=20,19=15,26=3/3(-5);
 2/9=110/2;
 6/7=2,8=2,9=2,10=2,19=2,28=1/1;
 99/9=1/99;
 -----
 titel
 -----
 Symbolic Z-matrix:
 Charge =  0 Multiplicity = 1
 C                    -3.43456   1.47024   0.2171 
 C                    -2.41092   0.58333  -0.49796 
 O                    -2.66555  -0.77925  -0.10052 
 C                    -1.78394  -1.57679   0.53779 
 O                    -2.11742  -2.69085   0.83969 
 C                    -0.39656  -1.04227   0.85375 
 C                    -0.06685   0.3261    0.32946 
 C                     1.33963   0.80836   0.54228 
 C                    -1.00345   1.0424   -0.28438 
 H                    -3.24774   1.47673   1.29484 
 H                    -3.3692    2.49816  -0.15252 
 H                    -4.44563   1.09698   0.03614 
 H                    -2.63312   0.60226  -1.57439 
 H                    -0.28829  -1.07743   1.94661 
 H                     0.3161   -1.7897    0.48205 
 H                     1.59256   0.82593   1.61008 
 H                     2.06235   0.13592   0.06281 
 H                     1.4873    1.81351   0.1395 
 H                    -0.78243   2.03587  -0.66644 
 

 GradGradGradGradGradGradGradGradGradGradGradGradGradGradGradGradGradGrad
 Berny optimization.
 Initialization pass.
                           ----------------------------
                           !    Initial Parameters    !
                           ! (Angstroms and Degrees)  !
 --------------------------                            --------------------------
 ! Name  Definition              Value          Derivative Info.                !
 --------------------------------------------------------------------------------
 ! R1    R(1,2)                  1.5316         estimate D2E/DX2                !
 ! R2    R(1,10)                 1.0938         estimate D2E/DX2                !
 ! R3    R(1,11)                 1.0943         estimate D2E/DX2                !
 ! R4    R(1,12)                 1.0929         estimate D2E/DX2                !
 ! R5    R(2,3)                  1.442          estimate D2E/DX2                !
 ! R6    R(2,9)                  1.4958         estimate D2E/DX2                !
 ! R7    R(2,13)                 1.0993         estimate D2E/DX2                !
 ! R8    R(3,4)                  1.3494         estimate D2E/DX2                !
 ! R9    R(4,5)                  1.2015         estimate D2E/DX2                !
 ! R10   R(4,6)                  1.52           estimate D2E/DX2                !
 ! R11   R(6,7)                  1.502          estimate D2E/DX2                !
 ! R12   R(6,14)                 1.0988         estimate D2E/DX2                !
 ! R13   R(6,15)                 1.0976         estimate D2E/DX2                !
 ! R14   R(7,8)                  1.502          estimate D2E/DX2                !
 ! R15   R(7,9)                  1.3293         estimate D2E/DX2                !
 ! R16   R(8,16)                 1.0975         estimate D2E/DX2                !
 ! R17   R(8,17)                 1.0974         estimate D2E/DX2                !
 ! R18   R(8,18)                 1.0929         estimate D2E/DX2                !
 ! R19   R(9,19)                 1.0871         estimate D2E/DX2                !
 ! A1    A(2,1,10)             110.4442         estimate D2E/DX2                !
 ! A2    A(2,1,11)             110.2629         estimate D2E/DX2                !
 ! A3    A(2,1,12)             110.0747         estimate D2E/DX2                !
 ! A4    A(10,1,11)            108.4831         estimate D2E/DX2                !
 ! A5    A(10,1,12)            108.8561         estimate D2E/DX2                !
 ! A6    A(11,1,12)            108.6722         estimate D2E/DX2                !
 ! A7    A(1,2,3)              107.4866         estimate D2E/DX2                !
 ! A8    A(1,2,9)              112.613          estimate D2E/DX2                !
 ! A9    A(1,2,13)             108.1859         estimate D2E/DX2                !
 ! A10   A(3,2,9)              114.6331         estimate D2E/DX2                !
 ! A11   A(3,2,13)             104.5048         estimate D2E/DX2                !
 ! A12   A(9,2,13)             108.9494         estimate D2E/DX2                !
 ! A13   A(2,3,4)              124.9947         estimate D2E/DX2                !
 ! A14   A(3,4,5)              119.0501         estimate D2E/DX2                !
 ! A15   A(3,4,6)              119.1333         estimate D2E/DX2                !
 ! A16   A(5,4,6)              121.8166         estimate D2E/DX2                !
 ! A17   A(4,6,7)              116.6269         estimate D2E/DX2                !
 ! A18   A(4,6,14)             106.5846         estimate D2E/DX2                !
 ! A19   A(4,6,15)             106.4261         estimate D2E/DX2                !
 ! A20   A(7,6,14)             110.7752         estimate D2E/DX2                !
 ! A21   A(7,6,15)             111.079          estimate D2E/DX2                !
 ! A22   A(14,6,15)            104.5403         estimate D2E/DX2                !
 ! A23   A(6,7,8)              116.6539         estimate D2E/DX2                !
 ! A24   A(6,7,9)              119.8296         estimate D2E/DX2                !
 ! A25   A(8,7,9)              123.5164         estimate D2E/DX2                !
 ! A26   A(7,8,16)             111.0269         estimate D2E/DX2                !
 ! A27   A(7,8,17)             110.9793         estimate D2E/DX2                !
 ! A28   A(7,8,18)             111.6916         estimate D2E/DX2                !
 ! A29   A(16,8,17)            106.4463         estimate D2E/DX2                !
 ! A30   A(16,8,18)            108.2227         estimate D2E/DX2                !
 ! A31   A(17,8,18)            108.2727         estimate D2E/DX2                !
 ! A32   A(2,9,7)              124.3004         estimate D2E/DX2                !
 ! A33   A(2,9,19)             114.936          estimate D2E/DX2                !
 ! A34   A(7,9,19)             120.7617         estimate D2E/DX2                !
 ! D1    D(10,1,2,3)            67.5875         estimate D2E/DX2                !
 ! D2    D(10,1,2,9)           -59.6138         estimate D2E/DX2                !
 ! D3    D(10,1,2,13)          179.9149         estimate D2E/DX2                !
 ! D4    D(11,1,2,3)          -172.5266         estimate D2E/DX2                !
 ! D5    D(11,1,2,9)            60.2721         estimate D2E/DX2                !
 ! D6    D(11,1,2,13)          -60.1992         estimate D2E/DX2                !
 ! D7    D(12,1,2,3)           -52.6414         estimate D2E/DX2                !
 ! D8    D(12,1,2,9)          -179.8428         estimate D2E/DX2                !
 ! D9    D(12,1,2,13)           59.6859         estimate D2E/DX2                !
 ! D10   D(1,2,3,4)           -119.5847         estimate D2E/DX2                !
 ! D11   D(9,2,3,4)              6.4272         estimate D2E/DX2                !
 ! D12   D(13,2,3,4)           125.6122         estimate D2E/DX2                !
 ! D13   D(1,2,9,7)            117.3761         estimate D2E/DX2                !
 ! D14   D(1,2,9,19)           -62.1273         estimate D2E/DX2                !
 ! D15   D(3,2,9,7)             -5.9283         estimate D2E/DX2                !
 ! D16   D(3,2,9,19)           174.5683         estimate D2E/DX2                !
 ! D17   D(13,2,9,7)          -122.5923         estimate D2E/DX2                !
 ! D18   D(13,2,9,19)           57.9043         estimate D2E/DX2                !
 ! D19   D(2,3,4,5)            178.737          estimate D2E/DX2                !
 ! D20   D(2,3,4,6)             -1.3273         estimate D2E/DX2                !
 ! D21   D(3,4,6,7)             -4.5811         estimate D2E/DX2                !
 ! D22   D(3,4,6,14)           119.7046         estimate D2E/DX2                !
 ! D23   D(3,4,6,15)          -129.1396         estimate D2E/DX2                !
 ! D24   D(5,4,6,7)            175.3528         estimate D2E/DX2                !
 ! D25   D(5,4,6,14)           -60.3615         estimate D2E/DX2                !
 ! D26   D(5,4,6,15)            50.7944         estimate D2E/DX2                !
 ! D27   D(4,6,7,8)           -175.0855         estimate D2E/DX2                !
 ! D28   D(4,6,7,9)              5.0185         estimate D2E/DX2                !
 ! D29   D(14,6,7,8)            62.7943         estimate D2E/DX2                !
 ! D30   D(14,6,7,9)          -117.1016         estimate D2E/DX2                !
 ! D31   D(15,6,7,8)           -52.9275         estimate D2E/DX2                !
 ! D32   D(15,6,7,9)           127.1765         estimate D2E/DX2                !
 ! D33   D(6,7,8,16)           -58.5392         estimate D2E/DX2                !
 ! D34   D(6,7,8,17)            59.6411         estimate D2E/DX2                !
 ! D35   D(6,7,8,18)          -179.4337         estimate D2E/DX2                !
 ! D36   D(9,7,8,16)           121.3526         estimate D2E/DX2                !
 ! D37   D(9,7,8,17)          -120.4672         estimate D2E/DX2                !
 ! D38   D(9,7,8,18)             0.4581         estimate D2E/DX2                !
 ! D39   D(6,7,9,2)              0.2987         estimate D2E/DX2                !
 ! D40   D(6,7,9,19)           179.7747         estimate D2E/DX2                !
 ! D41   D(8,7,9,2)           -179.5897         estimate D2E/DX2                !
 ! D42   D(8,7,9,19)            -0.1137         estimate D2E/DX2                !
 --------------------------------------------------------------------------------
 Trust Radius=3.00D-01 FncErr=1.00D-07 GrdErr=1.00D-06
 Number of steps in this run=    105 maximum allowed number of steps=    114.
 GradGradGradGradGradGradGradGradGradGradGradGradGradGradGradGradGradGrad

                          Input orientation:                          
 ---------------------------------------------------------------------
 Center     Atomic      Atomic             Coordinates (Angstroms)
 Number     Number       Type             X           Y           Z
 ---------------------------------------------------------------------
      1          6           0       -3.434564    1.470237    0.217104
      2          6           0       -2.410923    0.583329   -0.497960
      3          8           0       -2.665552   -0.779254   -0.100521
      4          6           0       -1.783936   -1.576790    0.537786
      5          8           0       -2.117424   -2.690852    0.839694
      6          6           0       -0.396557   -1.042267    0.853747
      7          6           0       -0.066846    0.326105    0.329464
      8          6           0        1.339626    0.808356    0.542283
      9          6           0       -1.003450    1.042403   -0.284381
     10          1           0       -3.247742    1.476731    1.294843
     11          1           0       -3.369204    2.498161   -0.152523
     12          1           0       -4.445633    1.096976    0.036143
     13          1           0       -2.633124    0.602259   -1.574386
     14          1           0       -0.288295   -1.077429    1.946610
     15          1           0        0.316099   -1.789697    0.482050
     16          1           0        1.592561    0.825931    1.610084
     17          1           0        2.062349    0.135921    0.062811
     18          1           0        1.487301    1.813514    0.139500
     19          1           0       -0.782426    2.035870   -0.666445
 ---------------------------------------------------------------------
                    Distance matrix (angstroms):
                    1          2          3          4          5
     1  C    0.000000
     2  C    1.531588   0.000000
     3  O    2.398432   1.442022   0.000000
     4  C    3.480199   2.476287   1.349351   0.000000
     5  O    4.408757   3.549045   2.199694   1.201456   0.000000
     6  C    3.993429   2.920161   2.475508   1.519989   2.383152
     7  C    3.558537   2.499098   2.856567   2.571538   3.683373
     8  C    4.830809   3.898636   4.356048   3.930087   4.927891
     9  C    2.518898   1.495776   2.472817   2.853996   4.054834
    10  H    1.093831   2.170847   2.715778   3.469849   4.342064
    11  H    1.094315   2.168919   3.352504   4.426605   5.429301
    12  H    1.092855   2.165443   2.589904   3.805956   4.518173
    13  H    2.145957   1.099284   2.020373   3.151293   4.115618
    14  H    4.402364   3.638625   3.151350   2.114495   2.678453
    15  H    4.976429   3.745440   3.201660   2.111536   2.619547
    16  H    5.256188   4.531069   4.861513   4.280610   5.169647
    17  H    5.658644   4.530430   4.818430   4.237086   5.105360
    18  H    4.934432   4.137132   4.901657   4.727979   5.811508
    19  H    2.852093   2.188667   3.433854   3.937577   5.137370
                    6          7          8          9         10
     6  C    0.000000
     7  C    1.502006   0.000000
     8  C    2.556589   1.502006   0.000000
     9  C    2.451429   1.329329   2.495627   0.000000
    10  H    3.830035   3.517669   4.696490   2.778387   0.000000
    11  H    4.731156   3.981923   5.050869   2.780901   1.775653
    12  H    4.651865   4.455788   5.814525   3.457505   1.778618
    13  H    3.688160   3.207287   4.506163   2.124542   3.061851
    14  H    1.098776   2.152698   2.859799   3.159503   3.963188
    15  H    1.097583   2.155585   2.793048   3.217051   4.902157
    16  H    2.831748   2.154865   1.097490   3.221045   4.894021
    17  H    2.839001   2.154239   1.097447   3.215801   5.613621
    18  H    3.494932   2.159594   1.092879   2.641614   4.885578
    19  H    3.454678   2.104088   2.733298   1.087106   3.199542
                   11         12         13         14         15
    11  H    0.000000
    12  H    1.776968   0.000000
    13  H    2.481522   2.474619   0.000000
    14  H    5.165579   5.065706   4.551593   0.000000
    15  H    5.689453   5.586216   4.318368   1.737111   0.000000
    16  H    5.524694   6.245842   5.295969   2.696970   3.121430
    17  H    5.926914   6.578614   4.994532   3.247529   2.633089
    18  H    4.913212   5.976940   4.624116   3.843949   3.804232
    19  H    2.677545   3.846328   2.510912   4.094491   4.142555
                   16         17         18         19
    16  H    0.000000
    17  H    1.758086   0.000000
    18  H    1.774547   1.775071   0.000000
    19  H    3.505296   3.497765   2.418811   0.000000
 Stoichiometry    C7H10O2
 Framework group  C1[X(C7H10O2)]
 Deg. of freedom    51
 Full point group                 C1      NOp   1
 Largest Abelian subgroup         C1      NOp   1
 Largest concise Abelian subgroup C1      NOp   1
                         Standard orientation:                         
 ---------------------------------------------------------------------
 Center     Atomic      Atomic             Coordinates (Angstroms)
 Number     Number       Type             X           Y           Z
 ---------------------------------------------------------------------
      1          6           0        1.603189   -1.985646    0.578352
      2          6           0        0.883495   -1.107421   -0.449522
      3          8           0        1.421010    0.225559   -0.332614
      4          6           0        0.704410    1.323790   -0.014620
      5          8           0        1.267062    2.381481    0.075993
      6          6           0       -0.791726    1.189523    0.217579
      7          6           0       -1.392675   -0.164421   -0.030846
      8          6           0       -2.886229   -0.270718    0.087571
      9          6           0       -0.605573   -1.191400   -0.335643
     10          1           0        1.330825   -1.685921    1.594447
     11          1           0        1.326155   -3.035265    0.440241
     12          1           0        2.685523   -1.891005    0.460332
     13          1           0        1.183934   -1.438337   -1.453841
     14          1           0       -0.979420    1.515782    1.249875
     15          1           0       -1.272378    1.955022   -0.405056
     16          1           0       -3.224375    0.030039    1.087414
     17          1           0       -3.385468    0.399348   -0.623880
     18          1           0       -3.234727   -1.289613   -0.098936
     19          1           0       -1.023996   -2.178622   -0.514850
 ---------------------------------------------------------------------
 Rotational constants (GHZ):      1.9717200      1.6349918      0.9582156
 Standard basis: 6-31G(2df,p) (6D, 7F)
 There are   329 symmetry adapted cartesian basis functions of A   symmetry.
 There are   302 symmetry adapted basis functions of A   symmetry.
   302 basis functions,   466 primitive gaussians,   329 cartesian basis functions
    34 alpha electrons       34 beta electrons
       nuclear repulsion energy       453.3098462089 Hartrees.
 NAtoms=   19 NActive=   19 NUniq=   19 SFac= 1.00D+00 NAtFMM=   60 NAOKFM=F Big=F
 Integral buffers will be    131072 words long.
 Raffenetti 2 integral format.
 Two-electron integral symmetry is turned on.
 One-electron integrals computed using PRISM.
 NBasis=   302 RedAO= T EigKep=  4.29D-04  NBF=   302
 NBsUse=   302 1.00D-06 EigRej= -1.00D+00 NBFU=   302
 ExpMin= 1.61D-01 ExpMax= 5.48D+03 ExpMxC= 8.25D+02 IAcc=1 IRadAn=         1 AccDes= 0.00D+00
 Harris functional with IExCor=  402 and IRadAn=       1 diagonalized for initial guess.
 HarFok:  IExCor=  402 AccDes= 0.00D+00 IRadAn=         1 IDoV= 1 UseB2=F ITyADJ=14
 ICtDFT=  3500011 ScaDFX=  1.000000  1.000000  1.000000  1.000000
 FoFCou: FMM=F IPFlag=           0 FMFlag=      100000 FMFlg1=           0
         NFxFlg=           0 DoJE=T BraDBF=F KetDBF=T FulRan=T
         wScrn=  0.000000 ICntrl=     500 IOpCl=  0 I1Cent=   200000004 NGrid=           0
         NMat0=    1 NMatS0=      1 NMatT0=    0 NMatD0=    1 NMtDS0=    0 NMtDT0=    0
 Petite list used in FoFCou.
 Requested convergence on RMS density matrix=1.00D-08 within 128 cycles.
 Requested convergence on MAX density matrix=1.00D-06.
 Requested convergence on             energy=1.00D-06.
 No special actions if energy rises.
 Integral accuracy reduced to 1.0D-05 until final iterations.
 Initial convergence to 1.0D-05 achieved.  Increase integral accuracy.
 SCF Done:  E(RB3LYP) =  -423.243599038     A.U. after   14 cycles
            NFock= 14  Conv=0.52D-08     -V/T= 2.0075

 **********************************************************************

            Population analysis using the SCF density.

 **********************************************************************

 Orbital symmetries:
       Occupied  (A) (A) (A) (A) (A) (A) (A) (A) (A) (A) (A) (A)
                 (A) (A) (A) (A) (A) (A) (A) (A) (A) (A) (A) (A)
                 (A) (A) (A) (A) (A) (A) (A) (A) (A) (A)
       Virtual   (A) (A) (A) (A) (A) (A) (A) (A) (A) (A) (A) (A)
                 (A) (A) (A) (A) (A) (A) (A) (A) (A) (A) (A) (A)
                 (A) (A) (A) (A) (A) (A) (A) (A) (A) (A) (A) (A)
                 (A) (A) (A) (A) (A) (A) (A) (A) (A) (A) (A) (A)
                 (A) (A) (A) (A) (A) (A) (A) (A) (A) (A) (A) (A)
                 (A) (A) (A) (A) (A) (A) (A) (A) (A) (A) (A) (A)
                 (A) (A) (A) (A) (A) (A) (A) (A) (A) (A) (A) (A)
                 (A) (A) (A) (A) (A) (A) (A) (A) (A) (A) (A) (A)
                 (A) (A) (A) (A) (A) (A) (A) (A) (A) (A) (A) (A)
                 (A) (A) (A) (A) (A) (A) (A) (A) (A) (A) (A) (A)
                 (A) (A) (A) (A) (A) (A) (A) (A) (A) (A) (A) (A)
                 (A) (A) (A) (A) (A) (A) (A) (A) (A) (A) (A) (A)
                 (A) (A) (A) (A) (A) (A) (A) (A) (A) (A) (A) (A)
                 (A) (A) (A) (A) (A) (A) (A) (A) (A) (A) (A) (A)
                 (A) (A) (A) (A) (A) (A) (A) (A) (A) (A) (A) (A)
                 (A) (A) (A) (A) (A) (A) (A) (A) (A) (A) (A) (A)
                 (A) (A) (A) (A) (A) (A) (A) (A) (A) (A) (A) (A)
                 (A) (A) (A) (A) (A) (A) (A) (A) (A) (A) (A) (A)
                 (A) (A) (A) (A) (A) (A) (A) (A) (A) (A) (A) (A)
                 (A) (A) (A) (A) (A) (A) (A) (A) (A) (A) (A) (A)
                 (A) (A) (A) (A) (A) (A) (A) (A) (A) (A) (A) (A)
                 (A) (A) (A) (A) (A) (A) (A) (A) (A) (A) (A) (A)
                 (A) (A) (A) (A)
 The electronic state is 1-A.
 Alpha  occ. eigenvalues --  -19.17569 -19.10960 -10.30218 -10.25742 -10.20690
 Alpha  occ. eigenvalues --  -10.20422 -10.19390 -10.19131 -10.18793  -1.09111
 Alpha  occ. eigenvalues --   -1.00845  -0.83528  -0.78912  -0.72588  -0.69972
 Alpha  occ. eigenvalues --   -0.64561  -0.58820  -0.51881  -0.50545  -0.49221
 Alpha  occ. eigenvalues --   -0.46794  -0.44200  -0.42457  -0.41794  -0.41282
 Alpha  occ. eigenvalues --   -0.40737  -0.39628  -0.37731  -0.36941  -0.36677
 Alpha  occ. eigenvalues --   -0.32724  -0.28843  -0.25824  -0.25370
 Alpha virt. eigenvalues --    0.00917   0.02073   0.07873   0.10072   0.11862
 Alpha virt. eigenvalues --    0.13116   0.13959   0.15121   0.15496   0.16263
 Alpha virt. eigenvalues --    0.17333   0.17923   0.17985   0.21172   0.21514
 Alpha virt. eigenvalues --    0.23738   0.24251   0.29378   0.32809   0.37686
 Alpha virt. eigenvalues --    0.40270   0.42052   0.43346   0.45028   0.46552
 Alpha virt. eigenvalues --    0.48073   0.49599   0.51633   0.51736   0.53147
 Alpha virt. eigenvalues --    0.53878   0.55802   0.58810   0.60538   0.61807
 Alpha virt. eigenvalues --    0.63221   0.64055   0.64941   0.65435   0.66184
 Alpha virt. eigenvalues --    0.67944   0.70324   0.71359   0.72938   0.73825
 Alpha virt. eigenvalues --    0.74216   0.75139   0.75472   0.76608   0.77951
 Alpha virt. eigenvalues --    0.79389   0.80299   0.81124   0.83972   0.86686
 Alpha virt. eigenvalues --    0.87396   0.88950   0.91494   0.95056   0.96395
 Alpha virt. eigenvalues --    0.96905   0.98823   1.01378   1.03161   1.04759
 Alpha virt. eigenvalues --    1.09170   1.09630   1.11448   1.16695   1.18224
 Alpha virt. eigenvalues --    1.19791   1.21690   1.22792   1.26872   1.29385
 Alpha virt. eigenvalues --    1.31265   1.31707   1.35107   1.36597   1.37237
 Alpha virt. eigenvalues --    1.38141   1.41617   1.44773   1.46141   1.50263
 Alpha virt. eigenvalues --    1.52349   1.53402   1.54356   1.56348   1.56759
 Alpha virt. eigenvalues --    1.59062   1.59217   1.64374   1.65790   1.69114
 Alpha virt. eigenvalues --    1.70886   1.73148   1.76331   1.77845   1.81611
 Alpha virt. eigenvalues --    1.83108   1.84575   1.90754   1.91201   1.93569
 Alpha virt. eigenvalues --    1.95522   1.98853   2.00394   2.02664   2.05241
 Alpha virt. eigenvalues --    2.05858   2.09698   2.17801   2.18468   2.21342
 Alpha virt. eigenvalues --    2.23570   2.27178   2.34121   2.34663   2.37385
 Alpha virt. eigenvalues --    2.39624   2.45579   2.47035   2.49344   2.51354
 Alpha virt. eigenvalues --    2.55915   2.63363   2.65615   2.68168   2.70974
 Alpha virt. eigenvalues --    2.73730   2.75081   2.78802   2.80312   2.82495
 Alpha virt. eigenvalues --    2.85348   2.86079   2.88079   2.89433   2.89904
 Alpha virt. eigenvalues --    2.93703   2.94009   2.95042   2.99498   2.99750
 Alpha virt. eigenvalues --    3.02414   3.05675   3.07973   3.11493   3.13317
 Alpha virt. eigenvalues --    3.15953   3.17765   3.19528   3.24529   3.25115
 Alpha virt. eigenvalues --    3.26890   3.31044   3.32061   3.35026   3.37439
 Alpha virt. eigenvalues --    3.39018   3.43094   3.45077   3.46141   3.46224
 Alpha virt. eigenvalues --    3.52072   3.53139   3.56427   3.57995   3.59615
 Alpha virt. eigenvalues --    3.60881   3.64465   3.65650   3.67726   3.69384
 Alpha virt. eigenvalues --    3.70414   3.75337   3.78793   3.83939   3.85974
 Alpha virt. eigenvalues --    3.89745   3.91219   3.99816   4.01833   4.06078
 Alpha virt. eigenvalues --    4.07213   4.10808   4.14517   4.15761   4.19866
 Alpha virt. eigenvalues --    4.21501   4.23006   4.26223   4.31218   4.35445
 Alpha virt. eigenvalues --    4.37109   4.38632   4.39345   4.39860   4.42776
 Alpha virt. eigenvalues --    4.46621   4.47920   4.50126   4.54046   4.55336
 Alpha virt. eigenvalues --    4.56992   4.57727   4.58289   4.59221   4.61844
 Alpha virt. eigenvalues --    4.63532   4.64882   4.68152   4.70716   4.72287
 Alpha virt. eigenvalues --    4.73510   4.75308   4.75719   4.77548   4.79691
 Alpha virt. eigenvalues --    4.81820   4.82508   4.83881   4.86640   4.89070
 Alpha virt. eigenvalues --    4.91469   4.92710   4.94950   5.03781   5.08551
 Alpha virt. eigenvalues --    5.11598   5.12219   5.16516   5.21614   5.25535
 Alpha virt. eigenvalues --    5.25846   5.31367   5.37135   5.37808   5.47362
 Alpha virt. eigenvalues --    5.50108   5.51724   5.57237   5.62754   5.68171
 Alpha virt. eigenvalues --    5.74015   5.77672   5.83807   5.86455   5.93853
 Alpha virt. eigenvalues --    6.03467   6.09294   6.12190   6.34014   6.41380
 Alpha virt. eigenvalues --    6.73392   6.78216   6.89954   7.44102  10.17971
 Alpha virt. eigenvalues --   11.13519  11.28297  11.65839  11.96442  12.19814
 Alpha virt. eigenvalues --   12.42809  13.15601  13.61387
          Condensed to atoms (all electrons):
               1          2          3          4          5          6
     1  C    5.049333   0.372732  -0.035491   0.000979  -0.000069   0.000444
     2  C    0.372732   4.664846   0.337391  -0.051746   0.001409  -0.037355
     3  O   -0.035491   0.337391   7.707233   0.412726  -0.051724  -0.086321
     4  C    0.000979  -0.051746   0.412726   4.169769   0.775223   0.320453
     5  O   -0.000069   0.001409  -0.051724   0.775223   7.671770  -0.067040
     6  C    0.000444  -0.037355  -0.086321   0.320453  -0.067040   5.426007
     7  C   -0.005261   0.008131   0.004207  -0.013102   0.001646   0.266390
     8  C   -0.000078   0.006532   0.000007   0.001235  -0.000061  -0.075157
     9  C   -0.034089   0.356318  -0.029367  -0.010189   0.000520   0.011593
    10  H    0.367056  -0.022028  -0.000246   0.000866  -0.000044   0.000099
    11  H    0.358619  -0.020066   0.002595  -0.000080   0.000001   0.000062
    12  H    0.368690  -0.017327   0.000188   0.000195  -0.000009   0.000005
    13  H   -0.060351   0.367656  -0.024729   0.001235  -0.000065  -0.000088
    14  H    0.000209   0.001663   0.000311  -0.008548  -0.001406   0.337869
    15  H   -0.000065   0.000697   0.000950  -0.009751  -0.000945   0.340832
    16  H    0.000020  -0.000068   0.000000   0.000142   0.000000  -0.000844
    17  H   -0.000005  -0.000181   0.000003   0.000053   0.000001  -0.000374
    18  H   -0.000003  -0.000011   0.000005  -0.000065   0.000000   0.003039
    19  H    0.000978  -0.052673   0.001998   0.000289   0.000004   0.008910
               7          8          9         10         11         12
     1  C   -0.005261  -0.000078  -0.034089   0.367056   0.358619   0.368690
     2  C    0.008131   0.006532   0.356318  -0.022028  -0.020066  -0.017327
     3  O    0.004207   0.000007  -0.029367  -0.000246   0.002595   0.000188
     4  C   -0.013102   0.001235  -0.010189   0.000866  -0.000080   0.000195
     5  O    0.001646  -0.000061   0.000520  -0.000044   0.000001  -0.000009
     6  C    0.266390  -0.075157   0.011593   0.000099   0.000062   0.000005
     7  C    4.468854   0.378240   0.728888   0.001993   0.000445   0.000096
     8  C    0.378240   5.121734  -0.033331  -0.000047  -0.000004   0.000004
     9  C    0.728888  -0.033331   4.881184  -0.003666  -0.000048   0.003727
    10  H    0.001993  -0.000047  -0.003666   0.580602  -0.027816  -0.029049
    11  H    0.000445  -0.000004  -0.000048  -0.027816   0.593063  -0.028506
    12  H    0.000096   0.000004   0.003727  -0.029049  -0.028506   0.569690
    13  H   -0.000966  -0.000202  -0.045941   0.006077   0.000547  -0.003083
    14  H   -0.017786  -0.000947  -0.003378  -0.000090  -0.000005  -0.000009
    15  H   -0.021671  -0.002619  -0.000283   0.000012   0.000000   0.000001
    16  H   -0.022259   0.365967  -0.001302  -0.000007   0.000000   0.000000
    17  H   -0.021982   0.364237  -0.000883   0.000001   0.000000   0.000000
    18  H   -0.015855   0.364145  -0.003820   0.000000  -0.000001   0.000000
    19  H   -0.022603  -0.016512   0.347650  -0.000017   0.001462  -0.000170
              13         14         15         16         17         18
     1  C   -0.060351   0.000209  -0.000065   0.000020  -0.000005  -0.000003
     2  C    0.367656   0.001663   0.000697  -0.000068  -0.000181  -0.000011
     3  O   -0.024729   0.000311   0.000950   0.000000   0.000003   0.000005
     4  C    0.001235  -0.008548  -0.009751   0.000142   0.000053  -0.000065
     5  O   -0.000065  -0.001406  -0.000945   0.000000   0.000001   0.000000
     6  C   -0.000088   0.337869   0.340832  -0.000844  -0.000374   0.003039
     7  C   -0.000966  -0.017786  -0.021671  -0.022259  -0.021982  -0.015855
     8  C   -0.000202  -0.000947  -0.002619   0.365967   0.364237   0.364145
     9  C   -0.045941  -0.003378  -0.000283  -0.001302  -0.000883  -0.003820
    10  H    0.006077  -0.000090   0.000012  -0.000007   0.000001   0.000000
    11  H    0.000547  -0.000005   0.000000   0.000000   0.000000  -0.000001
    12  H   -0.003083  -0.000009   0.000001   0.000000   0.000000   0.000000
    13  H    0.654295  -0.000051   0.000158  -0.000004   0.000023  -0.000003
    14  H   -0.000051   0.577136  -0.034863   0.003743  -0.000632  -0.000104
    15  H    0.000158  -0.034863   0.578155  -0.000788   0.004623  -0.000068
    16  H   -0.000004   0.003743  -0.000788   0.590876  -0.036464  -0.028837
    17  H    0.000023  -0.000632   0.004623  -0.036464   0.589288  -0.028534
    18  H   -0.000003  -0.000104  -0.000068  -0.028837  -0.028534   0.577357
    19  H   -0.000609  -0.000194  -0.000179   0.000058   0.000117   0.006769
              19
     1  C    0.000978
     2  C   -0.052673
     3  O    0.001998
     4  C    0.000289
     5  O    0.000004
     6  C    0.008910
     7  C   -0.022603
     8  C   -0.016512
     9  C    0.347650
    10  H   -0.000017
    11  H    0.001462
    12  H   -0.000170
    13  H   -0.000609
    14  H   -0.000194
    15  H   -0.000179
    16  H    0.000058
    17  H    0.000117
    18  H    0.006769
    19  H    0.630902
 Mulliken charges:
               1
     1  C   -0.383647
     2  C    0.084080
     3  O   -0.239737
     4  C    0.410314
     5  O   -0.329211
     6  C   -0.448524
     7  C    0.282593
     8  C   -0.473144
     9  C   -0.163585
    10  H    0.126304
    11  H    0.119733
    12  H    0.135559
    13  H    0.106101
    14  H    0.147081
    15  H    0.145804
    16  H    0.129768
    17  H    0.130706
    18  H    0.125984
    19  H    0.093821
 Sum of Mulliken charges =   0.00000
 Mulliken charges with hydrogens summed into heavy atoms:
               1
     1  C   -0.002051
     2  C    0.190181
     3  O   -0.239737
     4  C    0.410314
     5  O   -0.329211
     6  C   -0.155639
     7  C    0.282593
     8  C   -0.086686
     9  C   -0.069765
 Electronic spatial extent (au):  <R**2>=           1253.3425
 Charge=              0.0000 electrons
 Dipole moment (field-independent basis, Debye):
    X=             -2.8651    Y=             -3.3208    Z=              0.0670  Tot=              4.3865
 Quadrupole moment (field-independent basis, Debye-Ang):
   XX=            -54.1430   YY=            -57.5859   ZZ=            -52.1366
   XY=             -7.2406   XZ=             -0.1731   YZ=              0.6651
 Traceless Quadrupole moment (field-independent basis, Debye-Ang):
   XX=              0.4788   YY=             -2.9641   ZZ=              2.4852
   XY=             -7.2406   XZ=             -0.1731   YZ=              0.6651
 Octapole moment (field-independent basis, Debye-Ang**2):
  XXX=             -0.1582  YYY=            -18.5079  ZZZ=              0.4879  XYY=            -10.1038
  XXY=             -6.1325  XXZ=              0.1687  XZZ=              3.9976  YZZ=              5.0632
  YYZ=             -3.8029  XYZ=              0.1329
 Hexadecapole moment (field-independent basis, Debye-Ang**3):
 XXXX=           -834.6773 YYYY=           -711.8960 ZZZZ=           -109.4820 XXXY=             -5.9244
 XXXZ=             -0.0103 YYYX=            -21.3959 YYYZ=              0.7270 ZZZX=             -5.8493
 ZZZY=              2.8557 XXYY=           -260.6356 XXZZ=           -156.9580 YYZZ=           -128.4230
 XXYZ=              1.0097 YYXZ=             -0.7650 ZZXY=              0.4041
 N-N= 4.533098462089D+02 E-N=-1.893039901405D+03  KE= 4.200931961011D+02
 Calling FoFJK, ICntrl=      2127 FMM=F ISym2X=0 I1Cent= 0 IOpClX= 0 NMat=1 NMatS=1 NMatT=0.
 ***** Axes restored to original set *****
 -------------------------------------------------------------------
 Center     Atomic                   Forces (Hartrees/Bohr)
 Number     Number              X              Y              Z
 -------------------------------------------------------------------
      1        6           0.000001418    0.000001398   -0.000004567
      2        6           0.000004530    0.000007629   -0.000002442
      3        8          -0.000002423   -0.000003351   -0.000000377
      4        6          -0.000001367    0.000001370    0.000001148
      5        8          -0.000004628    0.000001449    0.000001563
      6        6          -0.000003355    0.000000009    0.000001762
      7        6          -0.000000162   -0.000000879    0.000001477
      8        6           0.000000423   -0.000002673    0.000003229
      9        6           0.000000408   -0.000002586   -0.000000633
     10        1          -0.000000141    0.000003569   -0.000004623
     11        1           0.000003078    0.000002369   -0.000005658
     12        1           0.000001511    0.000003266   -0.000006024
     13        1           0.000002824   -0.000000534   -0.000002270
     14        1          -0.000003814    0.000000559    0.000002997
     15        1          -0.000002513   -0.000001398    0.000004631
     16        1          -0.000001552   -0.000001821    0.000003498
     17        1           0.000000160   -0.000003968    0.000005010
     18        1           0.000002038   -0.000003157    0.000002469
     19        1           0.000003567   -0.000001250   -0.000001192
 -------------------------------------------------------------------
 Cartesian Forces:  Max     0.000007629 RMS     0.000002939

 GradGradGradGradGradGradGradGradGradGradGradGradGradGradGradGradGradGrad
 Berny optimization.
 FormGI is forming the generalized inverse of G from B-inverse, IUseBI=4.
 Internal  Forces:  Max     0.000004590 RMS     0.000000578
 Search for a local minimum.
 Step number   1 out of a maximum of  105
 All quantities printed in internal units (Hartrees-Bohrs-Radians)
 Mixed Optimization -- En-DIIS/RFO-DIIS
 Second derivative matrix not updated -- first step.
 ITU=  0
     Eigenvalues ---    0.00348   0.00693   0.00739   0.00930   0.01135
     Eigenvalues ---    0.01424   0.01629   0.01954   0.04093   0.05100
     Eigenvalues ---    0.05286   0.05631   0.05662   0.06491   0.07082
     Eigenvalues ---    0.07265   0.08124   0.10673   0.11779   0.15999
     Eigenvalues ---    0.16000   0.16000   0.16000   0.16000   0.16000
     Eigenvalues ---    0.16000   0.18265   0.19488   0.23512   0.24257
     Eigenvalues ---    0.25000   0.25000   0.29277   0.29583   0.31560
     Eigenvalues ---    0.32168   0.32365   0.33761   0.33818   0.33951
     Eigenvalues ---    0.33961   0.33966   0.34319   0.34374   0.34482
     Eigenvalues ---    0.34485   0.35149   0.38457   0.53084   0.58447
     Eigenvalues ---    1.04095
 RFO step:  Lambda= 0.00000000D+00 EMin= 3.48092143D-03
 Linear search not attempted -- first point.
 Iteration  1 RMS(Cart)=  0.00000686 RMS(Int)=  0.00000000
 Iteration  2 RMS(Cart)=  0.00000000 RMS(Int)=  0.00000000
 Variable       Old X    -DE/DX   Delta X   Delta X   Delta X     New X
                                 (Linear)    (Quad)   (Total)
    R1        2.89428   0.00000   0.00000   0.00000   0.00000   2.89428
    R2        2.06704   0.00000   0.00000   0.00000   0.00000   2.06704
    R3        2.06796   0.00000   0.00000   0.00000   0.00000   2.06796
    R4        2.06520   0.00000   0.00000   0.00000   0.00000   2.06520
    R5        2.72503   0.00000   0.00000   0.00001   0.00001   2.72504
    R6        2.82661   0.00000   0.00000  -0.00001  -0.00001   2.82660
    R7        2.07735   0.00000   0.00000   0.00000   0.00000   2.07735
    R8        2.54990   0.00000   0.00000   0.00000   0.00000   2.54990
    R9        2.27042   0.00000   0.00000   0.00000   0.00000   2.27042
   R10        2.87236   0.00000   0.00000   0.00000   0.00000   2.87236
   R11        2.83838   0.00000   0.00000   0.00000   0.00000   2.83838
   R12        2.07639   0.00000   0.00000   0.00000   0.00000   2.07639
   R13        2.07413   0.00000   0.00000   0.00000   0.00000   2.07413
   R14        2.83838   0.00000   0.00000   0.00000   0.00000   2.83838
   R15        2.51207   0.00000   0.00000   0.00000   0.00000   2.51207
   R16        2.07396   0.00000   0.00000   0.00000   0.00000   2.07396
   R17        2.07387   0.00000   0.00000   0.00000   0.00000   2.07387
   R18        2.06524   0.00000   0.00000   0.00000   0.00000   2.06524
   R19        2.05433   0.00000   0.00000   0.00000   0.00000   2.05433
    A1        1.92761   0.00000   0.00000   0.00000   0.00000   1.92762
    A2        1.92445   0.00000   0.00000   0.00000   0.00000   1.92445
    A3        1.92117   0.00000   0.00000   0.00000   0.00000   1.92116
    A4        1.89339   0.00000   0.00000   0.00000   0.00000   1.89339
    A5        1.89990   0.00000   0.00000   0.00000   0.00000   1.89990
    A6        1.89669   0.00000   0.00000   0.00000   0.00000   1.89669
    A7        1.87600   0.00000   0.00000   0.00000   0.00000   1.87599
    A8        1.96547   0.00000   0.00000   0.00001   0.00001   1.96548
    A9        1.88820   0.00000   0.00000   0.00000   0.00000   1.88820
   A10        2.00072   0.00000   0.00000   0.00000   0.00000   2.00072
   A11        1.82395   0.00000   0.00000  -0.00001  -0.00001   1.82395
   A12        1.90153   0.00000   0.00000   0.00000   0.00000   1.90153
   A13        2.18157   0.00000   0.00000   0.00000   0.00000   2.18157
   A14        2.07782   0.00000   0.00000   0.00000   0.00000   2.07782
   A15        2.07927   0.00000   0.00000   0.00000   0.00000   2.07927
   A16        2.12610   0.00000   0.00000   0.00000   0.00000   2.12610
   A17        2.03552   0.00000   0.00000   0.00000   0.00000   2.03553
   A18        1.86025   0.00000   0.00000   0.00000   0.00000   1.86025
   A19        1.85749   0.00000   0.00000   0.00000   0.00000   1.85749
   A20        1.93339   0.00000   0.00000   0.00000   0.00000   1.93339
   A21        1.93869   0.00000   0.00000   0.00000   0.00000   1.93869
   A22        1.82457   0.00000   0.00000   0.00000   0.00000   1.82457
   A23        2.03599   0.00000   0.00000   0.00000   0.00000   2.03599
   A24        2.09142   0.00000   0.00000   0.00000   0.00000   2.09142
   A25        2.15577   0.00000   0.00000   0.00000   0.00000   2.15577
   A26        1.93778   0.00000   0.00000   0.00000   0.00000   1.93778
   A27        1.93695   0.00000   0.00000   0.00000   0.00000   1.93695
   A28        1.94939   0.00000   0.00000   0.00000   0.00000   1.94939
   A29        1.85784   0.00000   0.00000   0.00000   0.00000   1.85784
   A30        1.88884   0.00000   0.00000   0.00000   0.00000   1.88884
   A31        1.88972   0.00000   0.00000   0.00000   0.00000   1.88972
   A32        2.16945   0.00000   0.00000   0.00000   0.00000   2.16945
   A33        2.00601   0.00000   0.00000   0.00000   0.00000   2.00601
   A34        2.10769   0.00000   0.00000   0.00000   0.00000   2.10769
    D1        1.17963   0.00000   0.00000   0.00002   0.00002   1.17964
    D2       -1.04046   0.00000   0.00000   0.00001   0.00001  -1.04044
    D3        3.14011   0.00000   0.00000   0.00001   0.00001   3.14011
    D4       -3.01116   0.00000   0.00000   0.00002   0.00002  -3.01114
    D5        1.05195   0.00000   0.00000   0.00002   0.00002   1.05196
    D6       -1.05067   0.00000   0.00000   0.00001   0.00001  -1.05067
    D7       -0.91877   0.00000   0.00000   0.00002   0.00002  -0.91875
    D8       -3.13885   0.00000   0.00000   0.00001   0.00001  -3.13884
    D9        1.04172   0.00000   0.00000   0.00001   0.00001   1.04172
   D10       -2.08715   0.00000   0.00000   0.00000   0.00000  -2.08715
   D11        0.11218   0.00000   0.00000   0.00001   0.00001   0.11218
   D12        2.19235   0.00000   0.00000   0.00000   0.00000   2.19235
   D13        2.04860   0.00000   0.00000   0.00000   0.00000   2.04860
   D14       -1.08433   0.00000   0.00000   0.00000   0.00000  -1.08433
   D15       -0.10347   0.00000   0.00000   0.00000   0.00000  -0.10347
   D16        3.04679   0.00000   0.00000   0.00000   0.00000   3.04679
   D17       -2.13964   0.00000   0.00000   0.00000   0.00000  -2.13964
   D18        1.01062   0.00000   0.00000   0.00000   0.00000   1.01062
   D19        3.11955   0.00000   0.00000   0.00000   0.00000   3.11954
   D20       -0.02317   0.00000   0.00000   0.00000   0.00000  -0.02317
   D21       -0.07995   0.00000   0.00000  -0.00001  -0.00001  -0.07996
   D22        2.08924   0.00000   0.00000   0.00000   0.00000   2.08924
   D23       -2.25391   0.00000   0.00000  -0.00001  -0.00001  -2.25392
   D24        3.06048   0.00000   0.00000   0.00000   0.00000   3.06048
   D25       -1.05351   0.00000   0.00000   0.00000   0.00000  -1.05351
   D26        0.88653   0.00000   0.00000   0.00000   0.00000   0.88653
   D27       -3.05582   0.00000   0.00000   0.00001   0.00001  -3.05581
   D28        0.08759   0.00000   0.00000   0.00001   0.00001   0.08760
   D29        1.09597   0.00000   0.00000   0.00000   0.00000   1.09597
   D30       -2.04381   0.00000   0.00000   0.00000   0.00000  -2.04380
   D31       -0.92376   0.00000   0.00000   0.00001   0.00001  -0.92375
   D32        2.21965   0.00000   0.00000   0.00001   0.00001   2.21966
   D33       -1.02170   0.00000   0.00000   0.00000   0.00000  -1.02170
   D34        1.04093   0.00000   0.00000   0.00000   0.00000   1.04093
   D35       -3.13171   0.00000   0.00000   0.00000   0.00000  -3.13171
   D36        2.11800   0.00000   0.00000   0.00000   0.00000   2.11800
   D37       -2.10255   0.00000   0.00000   0.00000   0.00000  -2.10255
   D38        0.00799   0.00000   0.00000   0.00000   0.00000   0.00799
   D39        0.00521   0.00000   0.00000   0.00000   0.00000   0.00521
   D40        3.13766   0.00000   0.00000   0.00000   0.00000   3.13766
   D41       -3.13443   0.00000   0.00000   0.00000   0.00000  -3.13443
   D42       -0.00198   0.00000   0.00000   0.00000   0.00000  -0.00199
         Item               Value     Threshold  Converged?
 Maximum Force            0.000005     0.000450     YES
 RMS     Force            0.000001     0.000300     YES
 Maximum Displacement     0.000034     0.001800     YES
 RMS     Displacement     0.000007     0.001200     YES
 Predicted change in Energy=-6.004535D-11
 Optimization completed.
    -- Stationary point found.
                           ----------------------------
                           !   Optimized Parameters   !
                           ! (Angstroms and Degrees)  !
 --------------------------                            --------------------------
 ! Name  Definition              Value          Derivative Info.                !
 --------------------------------------------------------------------------------
 ! R1    R(1,2)                  1.5316         -DE/DX =    0.0                 !
 ! R2    R(1,10)                 1.0938         -DE/DX =    0.0                 !
 ! R3    R(1,11)                 1.0943         -DE/DX =    0.0                 !
 ! R4    R(1,12)                 1.0929         -DE/DX =    0.0                 !
 ! R5    R(2,3)                  1.442          -DE/DX =    0.0                 !
 ! R6    R(2,9)                  1.4958         -DE/DX =    0.0                 !
 ! R7    R(2,13)                 1.0993         -DE/DX =    0.0                 !
 ! R8    R(3,4)                  1.3494         -DE/DX =    0.0                 !
 ! R9    R(4,5)                  1.2015         -DE/DX =    0.0                 !
 ! R10   R(4,6)                  1.52           -DE/DX =    0.0                 !
 ! R11   R(6,7)                  1.502          -DE/DX =    0.0                 !
 ! R12   R(6,14)                 1.0988         -DE/DX =    0.0                 !
 ! R13   R(6,15)                 1.0976         -DE/DX =    0.0                 !
 ! R14   R(7,8)                  1.502          -DE/DX =    0.0                 !
 ! R15   R(7,9)                  1.3293         -DE/DX =    0.0                 !
 ! R16   R(8,16)                 1.0975         -DE/DX =    0.0                 !
 ! R17   R(8,17)                 1.0974         -DE/DX =    0.0                 !
 ! R18   R(8,18)                 1.0929         -DE/DX =    0.0                 !
 ! R19   R(9,19)                 1.0871         -DE/DX =    0.0                 !
 ! A1    A(2,1,10)             110.4442         -DE/DX =    0.0                 !
 ! A2    A(2,1,11)             110.2629         -DE/DX =    0.0                 !
 ! A3    A(2,1,12)             110.0747         -DE/DX =    0.0                 !
 ! A4    A(10,1,11)            108.4831         -DE/DX =    0.0                 !
 ! A5    A(10,1,12)            108.8561         -DE/DX =    0.0                 !
 ! A6    A(11,1,12)            108.6722         -DE/DX =    0.0                 !
 ! A7    A(1,2,3)              107.4866         -DE/DX =    0.0                 !
 ! A8    A(1,2,9)              112.613          -DE/DX =    0.0                 !
 ! A9    A(1,2,13)             108.1859         -DE/DX =    0.0                 !
 ! A10   A(3,2,9)              114.6331         -DE/DX =    0.0                 !
 ! A11   A(3,2,13)             104.5048         -DE/DX =    0.0                 !
 ! A12   A(9,2,13)             108.9494         -DE/DX =    0.0                 !
 ! A13   A(2,3,4)              124.9947         -DE/DX =    0.0                 !
 ! A14   A(3,4,5)              119.0501         -DE/DX =    0.0                 !
 ! A15   A(3,4,6)              119.1333         -DE/DX =    0.0                 !
 ! A16   A(5,4,6)              121.8166         -DE/DX =    0.0                 !
 ! A17   A(4,6,7)              116.6269         -DE/DX =    0.0                 !
 ! A18   A(4,6,14)             106.5846         -DE/DX =    0.0                 !
 ! A19   A(4,6,15)             106.4261         -DE/DX =    0.0                 !
 ! A20   A(7,6,14)             110.7752         -DE/DX =    0.0                 !
 ! A21   A(7,6,15)             111.079          -DE/DX =    0.0                 !
 ! A22   A(14,6,15)            104.5403         -DE/DX =    0.0                 !
 ! A23   A(6,7,8)              116.6539         -DE/DX =    0.0                 !
 ! A24   A(6,7,9)              119.8296         -DE/DX =    0.0                 !
 ! A25   A(8,7,9)              123.5164         -DE/DX =    0.0                 !
 ! A26   A(7,8,16)             111.0269         -DE/DX =    0.0                 !
 ! A27   A(7,8,17)             110.9793         -DE/DX =    0.0                 !
 ! A28   A(7,8,18)             111.6916         -DE/DX =    0.0                 !
 ! A29   A(16,8,17)            106.4463         -DE/DX =    0.0                 !
 ! A30   A(16,8,18)            108.2227         -DE/DX =    0.0                 !
 ! A31   A(17,8,18)            108.2727         -DE/DX =    0.0                 !
 ! A32   A(2,9,7)              124.3004         -DE/DX =    0.0                 !
 ! A33   A(2,9,19)             114.936          -DE/DX =    0.0                 !
 ! A34   A(7,9,19)             120.7617         -DE/DX =    0.0                 !
 ! D1    D(10,1,2,3)            67.5875         -DE/DX =    0.0                 !
 ! D2    D(10,1,2,9)           -59.6138         -DE/DX =    0.0                 !
 ! D3    D(10,1,2,13)          179.9149         -DE/DX =    0.0                 !
 ! D4    D(11,1,2,3)          -172.5266         -DE/DX =    0.0                 !
 ! D5    D(11,1,2,9)            60.2721         -DE/DX =    0.0                 !
 ! D6    D(11,1,2,13)          -60.1992         -DE/DX =    0.0                 !
 ! D7    D(12,1,2,3)           -52.6414         -DE/DX =    0.0                 !
 ! D8    D(12,1,2,9)          -179.8428         -DE/DX =    0.0                 !
 ! D9    D(12,1,2,13)           59.6859         -DE/DX =    0.0                 !
 ! D10   D(1,2,3,4)           -119.5847         -DE/DX =    0.0                 !
 ! D11   D(9,2,3,4)              6.4272         -DE/DX =    0.0                 !
 ! D12   D(13,2,3,4)           125.6122         -DE/DX =    0.0                 !
 ! D13   D(1,2,9,7)            117.3761         -DE/DX =    0.0                 !
 ! D14   D(1,2,9,19)           -62.1273         -DE/DX =    0.0                 !
 ! D15   D(3,2,9,7)             -5.9283         -DE/DX =    0.0                 !
 ! D16   D(3,2,9,19)           174.5683         -DE/DX =    0.0                 !
 ! D17   D(13,2,9,7)          -122.5923         -DE/DX =    0.0                 !
 ! D18   D(13,2,9,19)           57.9043         -DE/DX =    0.0                 !
 ! D19   D(2,3,4,5)            178.737          -DE/DX =    0.0                 !
 ! D20   D(2,3,4,6)             -1.3273         -DE/DX =    0.0                 !
 ! D21   D(3,4,6,7)             -4.5811         -DE/DX =    0.0                 !
 ! D22   D(3,4,6,14)           119.7046         -DE/DX =    0.0                 !
 ! D23   D(3,4,6,15)          -129.1396         -DE/DX =    0.0                 !
 ! D24   D(5,4,6,7)            175.3528         -DE/DX =    0.0                 !
 ! D25   D(5,4,6,14)           -60.3615         -DE/DX =    0.0                 !
 ! D26   D(5,4,6,15)            50.7944         -DE/DX =    0.0                 !
 ! D27   D(4,6,7,8)           -175.0855         -DE/DX =    0.0                 !
 ! D28   D(4,6,7,9)              5.0185         -DE/DX =    0.0                 !
 ! D29   D(14,6,7,8)            62.7943         -DE/DX =    0.0                 !
 ! D30   D(14,6,7,9)          -117.1016         -DE/DX =    0.0                 !
 ! D31   D(15,6,7,8)           -52.9275         -DE/DX =    0.0                 !
 ! D32   D(15,6,7,9)           127.1765         -DE/DX =    0.0                 !
 ! D33   D(6,7,8,16)           -58.5392         -DE/DX =    0.0                 !
 ! D34   D(6,7,8,17)            59.6411         -DE/DX =    0.0                 !
 ! D35   D(6,7,8,18)          -179.4337         -DE/DX =    0.0                 !
 ! D36   D(9,7,8,16)           121.3526         -DE/DX =    0.0                 !
 ! D37   D(9,7,8,17)          -120.4672         -DE/DX =    0.0                 !
 ! D38   D(9,7,8,18)             0.4581         -DE/DX =    0.0                 !
 ! D39   D(6,7,9,2)              0.2987         -DE/DX =    0.0                 !
 ! D40   D(6,7,9,19)           179.7747         -DE/DX =    0.0                 !
 ! D41   D(8,7,9,2)           -179.5897         -DE/DX =    0.0                 !
 ! D42   D(8,7,9,19)            -0.1137         -DE/DX =    0.0                 !
 --------------------------------------------------------------------------------
 GradGradGradGradGradGradGradGradGradGradGradGradGradGradGradGradGradGrad

                          Input orientation:                          
 ---------------------------------------------------------------------
 Center     Atomic      Atomic             Coordinates (Angstroms)
 Number     Number       Type             X           Y           Z
 ---------------------------------------------------------------------
      1          6           0       -3.434564    1.470237    0.217104
      2          6           0       -2.410923    0.583329   -0.497960
      3          8           0       -2.665552   -0.779254   -0.100521
      4          6           0       -1.783936   -1.576790    0.537786
      5          8           0       -2.117424   -2.690852    0.839694
      6          6           0       -0.396557   -1.042267    0.853747
      7          6           0       -0.066846    0.326105    0.329464
      8          6           0        1.339626    0.808356    0.542283
      9          6           0       -1.003450    1.042403   -0.284381
     10          1           0       -3.247742    1.476731    1.294843
     11          1           0       -3.369204    2.498161   -0.152523
     12          1           0       -4.445633    1.096976    0.036143
     13          1           0       -2.633124    0.602259   -1.574386
     14          1           0       -0.288295   -1.077429    1.946610
     15          1           0        0.316099   -1.789697    0.482050
     16          1           0        1.592561    0.825931    1.610084
     17          1           0        2.062349    0.135921    0.062811
     18          1           0        1.487301    1.813514    0.139500
     19          1           0       -0.782426    2.035870   -0.666445
 ---------------------------------------------------------------------
                    Distance matrix (angstroms):
                    1          2          3          4          5
     1  C    0.000000
     2  C    1.531588   0.000000
     3  O    2.398432   1.442022   0.000000
     4  C    3.480199   2.476287   1.349351   0.000000
     5  O    4.408757   3.549045   2.199694   1.201456   0.000000
     6  C    3.993429   2.920161   2.475508   1.519989   2.383152
     7  C    3.558537   2.499098   2.856567   2.571538   3.683373
     8  C    4.830809   3.898636   4.356048   3.930087   4.927891
     9  C    2.518898   1.495776   2.472817   2.853996   4.054834
    10  H    1.093831   2.170847   2.715778   3.469849   4.342064
    11  H    1.094315   2.168919   3.352504   4.426605   5.429301
    12  H    1.092855   2.165443   2.589904   3.805956   4.518173
    13  H    2.145957   1.099284   2.020373   3.151293   4.115618
    14  H    4.402364   3.638625   3.151350   2.114495   2.678453
    15  H    4.976429   3.745440   3.201660   2.111536   2.619547
    16  H    5.256188   4.531069   4.861513   4.280610   5.169647
    17  H    5.658644   4.530430   4.818430   4.237086   5.105360
    18  H    4.934432   4.137132   4.901657   4.727979   5.811508
    19  H    2.852093   2.188667   3.433854   3.937577   5.137370
                    6          7          8          9         10
     6  C    0.000000
     7  C    1.502006   0.000000
     8  C    2.556589   1.502006   0.000000
     9  C    2.451429   1.329329   2.495627   0.000000
    10  H    3.830035   3.517669   4.696490   2.778387   0.000000
    11  H    4.731156   3.981923   5.050869   2.780901   1.775653
    12  H    4.651865   4.455788   5.814525   3.457505   1.778618
    13  H    3.688160   3.207287   4.506163   2.124542   3.061851
    14  H    1.098776   2.152698   2.859799   3.159503   3.963188
    15  H    1.097583   2.155585   2.793048   3.217051   4.902157
    16  H    2.831748   2.154865   1.097490   3.221045   4.894021
    17  H    2.839001   2.154239   1.097447   3.215801   5.613621
    18  H    3.494932   2.159594   1.092879   2.641614   4.885578
    19  H    3.454678   2.104088   2.733298   1.087106   3.199542
                   11         12         13         14         15
    11  H    0.000000
    12  H    1.776968   0.000000
    13  H    2.481522   2.474619   0.000000
    14  H    5.165579   5.065706   4.551593   0.000000
    15  H    5.689453   5.586216   4.318368   1.737111   0.000000
    16  H    5.524694   6.245842   5.295969   2.696970   3.121430
    17  H    5.926914   6.578614   4.994532   3.247529   2.633089
    18  H    4.913212   5.976940   4.624116   3.843949   3.804232
    19  H    2.677545   3.846328   2.510912   4.094491   4.142555
                   16         17         18         19
    16  H    0.000000
    17  H    1.758086   0.000000
    18  H    1.774547   1.775071   0.000000
    19  H    3.505296   3.497765   2.418811   0.000000
 Stoichiometry    C7H10O2
 Framework group  C1[X(C7H10O2)]
 Deg. of freedom    51
 Full point group                 C1      NOp   1
 Largest Abelian subgroup         C1      NOp   1
 Largest concise Abelian subgroup C1      NOp   1
                         Standard orientation:                         
 ---------------------------------------------------------------------
 Center     Atomic      Atomic             Coordinates (Angstroms)
 Number     Number       Type             X           Y           Z
 ---------------------------------------------------------------------
      1          6           0        1.603189   -1.985646    0.578352
      2          6           0        0.883495   -1.107421   -0.449522
      3          8           0        1.421010    0.225559   -0.332614
      4          6           0        0.704410    1.323790   -0.014620
      5          8           0        1.267062    2.381481    0.075993
      6          6           0       -0.791726    1.189523    0.217579
      7          6           0       -1.392675   -0.164421   -0.030846
      8          6           0       -2.886229   -0.270718    0.087571
      9          6           0       -0.605573   -1.191400   -0.335643
     10          1           0        1.330825   -1.685921    1.594447
     11          1           0        1.326155   -3.035265    0.440241
     12          1           0        2.685523   -1.891005    0.460332
     13          1           0        1.183934   -1.438337   -1.453841
     14          1           0       -0.979420    1.515782    1.249875
     15          1           0       -1.272378    1.955022   -0.405056
     16          1           0       -3.224375    0.030039    1.087414
     17          1           0       -3.385468    0.399348   -0.623880
     18          1           0       -3.234727   -1.289613   -0.098936
     19          1           0       -1.023996   -2.178622   -0.514850
 ---------------------------------------------------------------------
 Rotational constants (GHZ):      1.9717200      1.6349918      0.9582156
 1\1\GINC-ALCHEMY-P\FOpt\RB3LYP\6-31G(2df,p)\C7H10O2\PUCK\28-Jan-2020\0
 \\# b3lyp 6-31G(2df,p) opt Freq\\titel\\0,1\C,-3.434563889,1.470237259
 6,0.2171041609\C,-2.4109227274,0.5833293958,-0.4979598546\O,-2.6655519
 375,-0.7792537598,-0.1005211606\C,-1.7839362262,-1.5767902918,0.537786
 307\O,-2.1174244737,-2.6908519565,0.8396935737\C,-0.3965569149,-1.0422
 667832,0.8537465522\C,-0.0668461474,0.3261047735,0.3294641829\C,1.3396
 263176,0.8083560301,0.5422827335\C,-1.0034495774,1.0424034818,-0.28438
 088\H,-3.2477415457,1.4767306731,1.2948433718\H,-3.3692036317,2.498161
 4103,-0.1525234936\H,-4.4456326049,1.096975773,0.0361430494\H,-2.63312
 39282,0.6022592317,-1.5743862718\H,-0.2882949394,-1.0774294055,1.94661
 04696\H,0.3160992981,-1.7896969946,0.482050349\H,1.5925609114,0.825930
 8034,1.6100840979\H,2.0623490846,0.1359214241,0.0628111004\H,1.4873009
 799,1.8135140647,0.1395004205\H,-0.782425678,2.0358698204,-0.666444838
 3\\Version=ES64L-G09RevD.01\State=1-A\HF=-423.243599\RMSD=5.184e-09\RM
 SF=2.939e-06\Dipole=0.811107,1.5096649,-0.20331\Quadrupole=2.4080187,-
 4.4768726,2.0688539,-4.0785308,1.2531757,0.4163688\PG=C01 [X(C7H10O2)]
 \\@


 EXPERIENCE IS A WONDERFUL THING.  IT ENABLES
 YOU TO RECOGNIZE A MISTAKE WHEN YOU MAKE IT AGAIN.
           - BACK OF A SUGAR PACKET
 Job cpu time:       0 days  0 hours  6 minutes  8.9 seconds.
 File lengths (MBytes):  RWF=     52 Int=      0 D2E=      0 Chk=      7 Scr=      1
 Normal termination of Gaussian 09 at Tue Jan 28 00:39:08 2020.
 Link1:  Proceeding to internal job step number  2.
 ----------------------------------------------------------------------
 #N Geom=AllCheck Guess=TCheck SCRF=Check GenChk RB3LYP/6-31G(2df,p) Fr
 eq
 ----------------------------------------------------------------------
 1/10=4,29=7,30=1,38=1,40=1/1,3;
 2/12=2,40=1/2;
 3/5=1,6=6,7=104,11=2,14=-4,16=1,25=1,30=1,70=2,71=2,74=-5,116=1,140=1/1,2,3;
 4/5=101/1;
 5/5=2,98=1/2;
 8/6=4,10=90,11=11/1;
 11/6=1,8=1,9=11,15=111,16=1/1,2,10;
 10/6=1/2;
 6/7=2,8=2,9=2,10=2,18=1,28=1/1;
 7/8=1,10=1,25=1/1,2,3,16;
 1/10=4,30=1/3;
 99//99;
 Structure from the checkpoint file:  "/scratch/puck/g09_80ac2d45-9a90-490b-8adf-76f43f6e6d5c/Gau-921.chk"
 -----
 titel
 -----
 Charge =  0 Multiplicity = 1
 Redundant internal coordinates found in file.
 C,0,-3.434563889,1.4702372596,0.2171041609
 C,0,-2.4109227274,0.5833293958,-0.4979598546
 O,0,-2.6655519375,-0.7792537598,-0.1005211606
 C,0,-1.7839362262,-1.5767902918,0.537786307
 O,0,-2.1174244737,-2.6908519565,0.8396935737
 C,0,-0.3965569149,-1.0422667832,0.8537465522
 C,0,-0.0668461474,0.3261047735,0.3294641829
 C,0,1.3396263176,0.8083560301,0.5422827335
 C,0,-1.0034495774,1.0424034818,-0.28438088
 H,0,-3.2477415457,1.4767306731,1.2948433718
 H,0,-3.3692036317,2.4981614103,-0.1525234936
 H,0,-4.4456326049,1.096975773,0.0361430494
 H,0,-2.6331239282,0.6022592317,-1.5743862718
 H,0,-0.2882949394,-1.0774294055,1.9466104696
 H,0,0.3160992981,-1.7896969946,0.482050349
 H,0,1.5925609114,0.8259308034,1.6100840979
 H,0,2.0623490846,0.1359214241,0.0628111004
 H,0,1.4873009799,1.8135140647,0.1395004205
 H,0,-0.782425678,2.0358698204,-0.6664448383
 Recover connectivity data from disk.

 GradGradGradGradGradGradGradGradGradGradGradGradGradGradGradGradGradGrad
 Berny optimization.
 Initialization pass.
                           ----------------------------
                           !    Initial Parameters    !
                           ! (Angstroms and Degrees)  !
 --------------------------                            --------------------------
 ! Name  Definition              Value          Derivative Info.                !
 --------------------------------------------------------------------------------
 ! R1    R(1,2)                  1.5316         calculate D2E/DX2 analytically  !
 ! R2    R(1,10)                 1.0938         calculate D2E/DX2 analytically  !
 ! R3    R(1,11)                 1.0943         calculate D2E/DX2 analytically  !
 ! R4    R(1,12)                 1.0929         calculate D2E/DX2 analytically  !
 ! R5    R(2,3)                  1.442          calculate D2E/DX2 analytically  !
 ! R6    R(2,9)                  1.4958         calculate D2E/DX2 analytically  !
 ! R7    R(2,13)                 1.0993         calculate D2E/DX2 analytically  !
 ! R8    R(3,4)                  1.3494         calculate D2E/DX2 analytically  !
 ! R9    R(4,5)                  1.2015         calculate D2E/DX2 analytically  !
 ! R10   R(4,6)                  1.52           calculate D2E/DX2 analytically  !
 ! R11   R(6,7)                  1.502          calculate D2E/DX2 analytically  !
 ! R12   R(6,14)                 1.0988         calculate D2E/DX2 analytically  !
 ! R13   R(6,15)                 1.0976         calculate D2E/DX2 analytically  !
 ! R14   R(7,8)                  1.502          calculate D2E/DX2 analytically  !
 ! R15   R(7,9)                  1.3293         calculate D2E/DX2 analytically  !
 ! R16   R(8,16)                 1.0975         calculate D2E/DX2 analytically  !
 ! R17   R(8,17)                 1.0974         calculate D2E/DX2 analytically  !
 ! R18   R(8,18)                 1.0929         calculate D2E/DX2 analytically  !
 ! R19   R(9,19)                 1.0871         calculate D2E/DX2 analytically  !
 ! A1    A(2,1,10)             110.4442         calculate D2E/DX2 analytically  !
 ! A2    A(2,1,11)             110.2629         calculate D2E/DX2 analytically  !
 ! A3    A(2,1,12)             110.0747         calculate D2E/DX2 analytically  !
 ! A4    A(10,1,11)            108.4831         calculate D2E/DX2 analytically  !
 ! A5    A(10,1,12)            108.8561         calculate D2E/DX2 analytically  !
 ! A6    A(11,1,12)            108.6722         calculate D2E/DX2 analytically  !
 ! A7    A(1,2,3)              107.4866         calculate D2E/DX2 analytically  !
 ! A8    A(1,2,9)              112.613          calculate D2E/DX2 analytically  !
 ! A9    A(1,2,13)             108.1859         calculate D2E/DX2 analytically  !
 ! A10   A(3,2,9)              114.6331         calculate D2E/DX2 analytically  !
 ! A11   A(3,2,13)             104.5048         calculate D2E/DX2 analytically  !
 ! A12   A(9,2,13)             108.9494         calculate D2E/DX2 analytically  !
 ! A13   A(2,3,4)              124.9947         calculate D2E/DX2 analytically  !
 ! A14   A(3,4,5)              119.0501         calculate D2E/DX2 analytically  !
 ! A15   A(3,4,6)              119.1333         calculate D2E/DX2 analytically  !
 ! A16   A(5,4,6)              121.8166         calculate D2E/DX2 analytically  !
 ! A17   A(4,6,7)              116.6269         calculate D2E/DX2 analytically  !
 ! A18   A(4,6,14)             106.5846         calculate D2E/DX2 analytically  !
 ! A19   A(4,6,15)             106.4261         calculate D2E/DX2 analytically  !
 ! A20   A(7,6,14)             110.7752         calculate D2E/DX2 analytically  !
 ! A21   A(7,6,15)             111.079          calculate D2E/DX2 analytically  !
 ! A22   A(14,6,15)            104.5403         calculate D2E/DX2 analytically  !
 ! A23   A(6,7,8)              116.6539         calculate D2E/DX2 analytically  !
 ! A24   A(6,7,9)              119.8296         calculate D2E/DX2 analytically  !
 ! A25   A(8,7,9)              123.5164         calculate D2E/DX2 analytically  !
 ! A26   A(7,8,16)             111.0269         calculate D2E/DX2 analytically  !
 ! A27   A(7,8,17)             110.9793         calculate D2E/DX2 analytically  !
 ! A28   A(7,8,18)             111.6916         calculate D2E/DX2 analytically  !
 ! A29   A(16,8,17)            106.4463         calculate D2E/DX2 analytically  !
 ! A30   A(16,8,18)            108.2227         calculate D2E/DX2 analytically  !
 ! A31   A(17,8,18)            108.2727         calculate D2E/DX2 analytically  !
 ! A32   A(2,9,7)              124.3004         calculate D2E/DX2 analytically  !
 ! A33   A(2,9,19)             114.936          calculate D2E/DX2 analytically  !
 ! A34   A(7,9,19)             120.7617         calculate D2E/DX2 analytically  !
 ! D1    D(10,1,2,3)            67.5875         calculate D2E/DX2 analytically  !
 ! D2    D(10,1,2,9)           -59.6138         calculate D2E/DX2 analytically  !
 ! D3    D(10,1,2,13)          179.9149         calculate D2E/DX2 analytically  !
 ! D4    D(11,1,2,3)          -172.5266         calculate D2E/DX2 analytically  !
 ! D5    D(11,1,2,9)            60.2721         calculate D2E/DX2 analytically  !
 ! D6    D(11,1,2,13)          -60.1992         calculate D2E/DX2 analytically  !
 ! D7    D(12,1,2,3)           -52.6414         calculate D2E/DX2 analytically  !
 ! D8    D(12,1,2,9)          -179.8428         calculate D2E/DX2 analytically  !
 ! D9    D(12,1,2,13)           59.6859         calculate D2E/DX2 analytically  !
 ! D10   D(1,2,3,4)           -119.5847         calculate D2E/DX2 analytically  !
 ! D11   D(9,2,3,4)              6.4272         calculate D2E/DX2 analytically  !
 ! D12   D(13,2,3,4)           125.6122         calculate D2E/DX2 analytically  !
 ! D13   D(1,2,9,7)            117.3761         calculate D2E/DX2 analytically  !
 ! D14   D(1,2,9,19)           -62.1273         calculate D2E/DX2 analytically  !
 ! D15   D(3,2,9,7)             -5.9283         calculate D2E/DX2 analytically  !
 ! D16   D(3,2,9,19)           174.5683         calculate D2E/DX2 analytically  !
 ! D17   D(13,2,9,7)          -122.5923         calculate D2E/DX2 analytically  !
 ! D18   D(13,2,9,19)           57.9043         calculate D2E/DX2 analytically  !
 ! D19   D(2,3,4,5)            178.737          calculate D2E/DX2 analytically  !
 ! D20   D(2,3,4,6)             -1.3273         calculate D2E/DX2 analytically  !
 ! D21   D(3,4,6,7)             -4.5811         calculate D2E/DX2 analytically  !
 ! D22   D(3,4,6,14)           119.7046         calculate D2E/DX2 analytically  !
 ! D23   D(3,4,6,15)          -129.1396         calculate D2E/DX2 analytically  !
 ! D24   D(5,4,6,7)            175.3528         calculate D2E/DX2 analytically  !
 ! D25   D(5,4,6,14)           -60.3615         calculate D2E/DX2 analytically  !
 ! D26   D(5,4,6,15)            50.7944         calculate D2E/DX2 analytically  !
 ! D27   D(4,6,7,8)           -175.0855         calculate D2E/DX2 analytically  !
 ! D28   D(4,6,7,9)              5.0185         calculate D2E/DX2 analytically  !
 ! D29   D(14,6,7,8)            62.7943         calculate D2E/DX2 analytically  !
 ! D30   D(14,6,7,9)          -117.1016         calculate D2E/DX2 analytically  !
 ! D31   D(15,6,7,8)           -52.9275         calculate D2E/DX2 analytically  !
 ! D32   D(15,6,7,9)           127.1765         calculate D2E/DX2 analytically  !
 ! D33   D(6,7,8,16)           -58.5392         calculate D2E/DX2 analytically  !
 ! D34   D(6,7,8,17)            59.6411         calculate D2E/DX2 analytically  !
 ! D35   D(6,7,8,18)          -179.4337         calculate D2E/DX2 analytically  !
 ! D36   D(9,7,8,16)           121.3526         calculate D2E/DX2 analytically  !
 ! D37   D(9,7,8,17)          -120.4672         calculate D2E/DX2 analytically  !
 ! D38   D(9,7,8,18)             0.4581         calculate D2E/DX2 analytically  !
 ! D39   D(6,7,9,2)              0.2987         calculate D2E/DX2 analytically  !
 ! D40   D(6,7,9,19)           179.7747         calculate D2E/DX2 analytically  !
 ! D41   D(8,7,9,2)           -179.5897         calculate D2E/DX2 analytically  !
 ! D42   D(8,7,9,19)            -0.1137         calculate D2E/DX2 analytically  !
 --------------------------------------------------------------------------------
 Trust Radius=3.00D-01 FncErr=1.00D-07 GrdErr=1.00D-07
 Number of steps in this run=      2 maximum allowed number of steps=      2.
 GradGradGradGradGradGradGradGradGradGradGradGradGradGradGradGradGradGrad

                          Input orientation:                          
 ---------------------------------------------------------------------
 Center     Atomic      Atomic             Coordinates (Angstroms)
 Number     Number       Type             X           Y           Z
 ---------------------------------------------------------------------
      1          6           0       -3.434564    1.470237    0.217104
      2          6           0       -2.410923    0.583329   -0.497960
      3          8           0       -2.665552   -0.779254   -0.100521
      4          6           0       -1.783936   -1.576790    0.537786
      5          8           0       -2.117424   -2.690852    0.839694
      6          6           0       -0.396557   -1.042267    0.853747
      7          6           0       -0.066846    0.326105    0.329464
      8          6           0        1.339626    0.808356    0.542283
      9          6           0       -1.003450    1.042403   -0.284381
     10          1           0       -3.247742    1.476731    1.294843
     11          1           0       -3.369204    2.498161   -0.152523
     12          1           0       -4.445633    1.096976    0.036143
     13          1           0       -2.633124    0.602259   -1.574386
     14          1           0       -0.288295   -1.077429    1.946610
     15          1           0        0.316099   -1.789697    0.482050
     16          1           0        1.592561    0.825931    1.610084
     17          1           0        2.062349    0.135921    0.062811
     18          1           0        1.487301    1.813514    0.139500
     19          1           0       -0.782426    2.035870   -0.666445
 ---------------------------------------------------------------------
                    Distance matrix (angstroms):
                    1          2          3          4          5
     1  C    0.000000
     2  C    1.531588   0.000000
     3  O    2.398432   1.442022   0.000000
     4  C    3.480199   2.476287   1.349351   0.000000
     5  O    4.408757   3.549045   2.199694   1.201456   0.000000
     6  C    3.993429   2.920161   2.475508   1.519989   2.383152
     7  C    3.558537   2.499098   2.856567   2.571538   3.683373
     8  C    4.830809   3.898636   4.356048   3.930087   4.927891
     9  C    2.518898   1.495776   2.472817   2.853996   4.054834
    10  H    1.093831   2.170847   2.715778   3.469849   4.342064
    11  H    1.094315   2.168919   3.352504   4.426605   5.429301
    12  H    1.092855   2.165443   2.589904   3.805956   4.518173
    13  H    2.145957   1.099284   2.020373   3.151293   4.115618
    14  H    4.402364   3.638625   3.151350   2.114495   2.678453
    15  H    4.976429   3.745440   3.201660   2.111536   2.619547
    16  H    5.256188   4.531069   4.861513   4.280610   5.169647
    17  H    5.658644   4.530430   4.818430   4.237086   5.105360
    18  H    4.934432   4.137132   4.901657   4.727979   5.811508
    19  H    2.852093   2.188667   3.433854   3.937577   5.137370
                    6          7          8          9         10
     6  C    0.000000
     7  C    1.502006   0.000000
     8  C    2.556589   1.502006   0.000000
     9  C    2.451429   1.329329   2.495627   0.000000
    10  H    3.830035   3.517669   4.696490   2.778387   0.000000
    11  H    4.731156   3.981923   5.050869   2.780901   1.775653
    12  H    4.651865   4.455788   5.814525   3.457505   1.778618
    13  H    3.688160   3.207287   4.506163   2.124542   3.061851
    14  H    1.098776   2.152698   2.859799   3.159503   3.963188
    15  H    1.097583   2.155585   2.793048   3.217051   4.902157
    16  H    2.831748   2.154865   1.097490   3.221045   4.894021
    17  H    2.839001   2.154239   1.097447   3.215801   5.613621
    18  H    3.494932   2.159594   1.092879   2.641614   4.885578
    19  H    3.454678   2.104088   2.733298   1.087106   3.199542
                   11         12         13         14         15
    11  H    0.000000
    12  H    1.776968   0.000000
    13  H    2.481522   2.474619   0.000000
    14  H    5.165579   5.065706   4.551593   0.000000
    15  H    5.689453   5.586216   4.318368   1.737111   0.000000
    16  H    5.524694   6.245842   5.295969   2.696970   3.121430
    17  H    5.926914   6.578614   4.994532   3.247529   2.633089
    18  H    4.913212   5.976940   4.624116   3.843949   3.804232
    19  H    2.677545   3.846328   2.510912   4.094491   4.142555
                   16         17         18         19
    16  H    0.000000
    17  H    1.758086   0.000000
    18  H    1.774547   1.775071   0.000000
    19  H    3.505296   3.497765   2.418811   0.000000
 Stoichiometry    C7H10O2
 Framework group  C1[X(C7H10O2)]
 Deg. of freedom    51
 Full point group                 C1      NOp   1
 Largest Abelian subgroup         C1      NOp   1
 Largest concise Abelian subgroup C1      NOp   1
                         Standard orientation:                         
 ---------------------------------------------------------------------
 Center     Atomic      Atomic             Coordinates (Angstroms)
 Number     Number       Type             X           Y           Z
 ---------------------------------------------------------------------
      1          6           0        1.603189   -1.985646    0.578352
      2          6           0        0.883495   -1.107421   -0.449522
      3          8           0        1.421010    0.225559   -0.332614
      4          6           0        0.704410    1.323790   -0.014620
      5          8           0        1.267062    2.381481    0.075993
      6          6           0       -0.791726    1.189523    0.217579
[...]
 -0.00442517,0.02018277,0.00776931,0.01244401,-0.02463011,-0.08975409,-
 0.00910936,-0.04486938,-0.02558202,0.00004763,-0.02545812,0.52407276,0
 .00103500,0.00080587,0.00033120,0.00150187,-0.00392050,-0.00523211,-0.
 02175785,0.00391611,0.00821799,-0.01791631,-0.00919788,-0.09072334,0.0
 0609379,0.00953353,0.01902292,-0.00295980,-0.00816662,0.51455769,-0.00
 067217,-0.00255123,-0.00205933,-0.02859669,0.01554625,-0.01731317,0.00
 480568,0.00550558,-0.00068484,0.00228277,-0.02878749,0.01691004,-0.008
 20406,-0.00607105,-0.00238766,-0.09706299,-0.02491197,0.00512803,0.671
 47334,-0.00268557,-0.00180107,-0.00040439,-0.00185813,0.01528232,-0.00
 513501,0.00575735,-0.00424079,0.00350538,-0.01610305,-0.00717796,-0.00
 408826,0.00277806,0.00118655,0.00195672,-0.02428944,-0.18624878,0.0429
 4353,-0.09059742,0.55435789,0.00254305,0.00027207,-0.00019126,-0.00958
 757,-0.00099768,0.00048449,-0.00094580,0.00428624,-0.00265341,0.010081
 51,-0.01029815,0.00479437,-0.00602473,-0.00156254,0.00075747,0.0053471
 0,0.04388564,-0.09313293,0.19054540,-0.19714924,0.33254554,0.00027189,
 0.00034948,0.00016577,0.00242082,-0.00009346,-0.00407960,0.00006564,0.
 00000621,0.00031973,0.00087686,0.00071165,-0.00049293,0.00031487,0.000
 17468,0.00026540,-0.00735707,-0.00736555,0.00030143,-0.19416366,-0.039
 58740,-0.01904125,0.48472497,-0.00042780,0.00042180,-0.00004410,-0.000
 41485,-0.00189460,0.00734472,-0.00164917,0.00208803,-0.00189003,0.0045
 2906,-0.00496019,0.00505631,-0.00306584,-0.00166061,-0.00094297,-0.031
 57687,-0.01110143,-0.00376437,-0.04483755,-0.09850171,-0.00255690,-0.0
 1478818,0.56955836,-0.00272640,-0.00139868,-0.00079634,-0.00295850,0.0
 0732212,0.01087560,0.00110517,-0.00100050,0.00013191,-0.00274508,0.002
 76793,-0.00143940,0.00180178,0.00072316,0.00012849,0.01173754,0.004171
 18,0.00480201,-0.01648495,-0.00094279,-0.07868294,-0.00581691,-0.02398
 307,0.53459227,-0.03289582,0.00039292,-0.00193079,-0.19586088,-0.04018
 378,-0.02249036,-0.00593292,-0.00669735,0.00046857,0.00267945,-0.00046
 291,0.00099853,-0.00041945,0.00123150,-0.00067585,0.01061951,0.0011047
 7,0.00015455,-0.32141754,0.15973167,-0.15547076,-0.03006205,0.01626679
 ,-0.01861045,0.65246559,0.01906995,0.01151551,0.00451924,-0.02995312,-
 0.09864297,0.00318467,-0.03788033,-0.02530689,-0.00061183,-0.00087775,
 0.00333117,-0.00176297,0.00026973,-0.00017392,0.00018548,0.02151939,-0
 .02381148,0.02069538,0.16426182,-0.22799757,0.13028016,-0.00640945,0.0
 0918869,-0.00336639,-0.06849250,0.63577607,0.01283758,0.00389586,0.004
 23474,-0.02751474,-0.00040454,-0.08251624,0.01240158,0.00778845,0.0037
 3911,0.00119814,-0.00046330,0.00078822,-0.00025466,0.00016256,-0.00008
 432,-0.00901772,0.01447115,-0.00270927,-0.15698366,0.12853706,-0.15878
 347,-0.00802640,0.00336365,0.00161570,0.18495648,-0.24291384,0.3083717
 5,-0.05664191,0.00024394,-0.04948728,0.00238438,-0.00038814,0.02499415
 ,0.00051082,-0.00185843,-0.00145129,0.00052728,-0.00000805,-0.00011347
 ,-0.00020892,0.00007670,0.00005011,-0.00009096,0.00020697,-0.00001661,
 -0.00010981,0.00023946,-0.00064381,-0.00002344,-0.00007111,0.00000425,
 0.00267410,-0.00076192,0.00074141,0.05851136,-0.00066987,-0.04662376,0
 .00168130,-0.00241952,-0.00171094,-0.02092803,-0.00125961,0.00259791,0
 .00081927,0.00052571,-0.00031366,0.00006736,-0.00008029,0.00007414,-0.
 00002074,0.00006736,-0.00001325,0.00006194,0.00014103,0.00018076,0.000
 17470,0.00005844,-0.00011076,-0.00009645,-0.00154986,0.00003442,0.0006
 0074,-0.00218100,0.04682415,-0.04766374,0.00034540,-0.30356977,-0.0020
 4477,0.00104428,-0.01778631,-0.00004007,-0.00004987,0.00245179,-0.0003
 4694,-0.00001066,-0.00038438,0.00007920,-0.00028732,0.00016606,0.00005
 339,0.00003994,0.00014402,0.00055545,0.00005254,0.00039507,0.00006098,
 -0.00011508,-0.00008239,-0.00142946,0.00017898,0.00109364,0.05006729,0
 .00102728,0.33076038,-0.04821395,-0.01647016,0.00723688,0.00184738,0.0
 1756979,-0.00996824,-0.00362563,0.00535340,0.00099032,0.00156115,-0.00
 039587,0.00172714,-0.00018750,0.00082525,-0.00080572,0.00001920,0.0000
 7424,0.00006751,-0.00004412,0.00009420,-0.00009486,-0.00001726,-0.0000
 5036,0.00009657,0.00063167,-0.00031620,-0.00036415,-0.00079517,0.00572
 134,-0.00191547,0.04881178,-0.01479637,-0.27883839,0.08387962,-0.00414
 307,-0.01533409,0.00846495,0.00487489,-0.00426159,-0.00047921,-0.00196
 649,0.00136084,-0.00253707,0.00026852,-0.00105756,0.00083580,0.0000312
 0,-0.00009412,0.00006370,0.00035272,0.00005083,0.00015451,-0.00000890,
 0.00006502,-0.00000552,-0.00120706,0.00018840,0.00008253,-0.00017709,0
 .00142264,-0.00072952,0.01624029,0.30441989,0.00662018,0.08554724,-0.0
 7828229,-0.00310596,-0.01296640,0.00454591,0.00337647,-0.00395088,0.00
 095165,-0.00056107,-0.00019703,-0.00117464,0.00006064,-0.00061902,0.00
 059082,0.00006347,-0.00000317,0.00009167,-0.00003758,-0.00015386,0.000
 02376,0.00002523,0.00002359,-0.00008381,-0.00008487,0.00032141,0.00013
 654,0.00240943,0.03017754,-0.00912322,-0.00803167,-0.09257950,0.080621
 70,-0.27385350,-0.08605864,-0.04279155,-0.02177802,-0.00813978,-0.0036
 5103,0.00257094,-0.00169638,-0.00003461,-0.00092078,0.00055703,-0.0008
 0573,0.00030807,-0.00013124,0.00017208,0.00001803,-0.00012379,0.000329
 66,-0.00019583,-0.00106248,0.00100581,0.00012347,0.00009899,-0.0007154
 3,-0.00207040,0.00447720,0.00214471,-0.00390336,-0.00146826,-0.0001984
 1,-0.00001648,0.00022503,-0.00005744,0.29867099,-0.08881239,-0.0786674
 9,-0.01610637,0.02055210,0.00498512,0.00276686,-0.00084191,0.00246782,
 -0.00004955,0.00063284,-0.00051441,0.00066948,-0.00017018,0.00026558,-
 0.00022033,0.00006576,0.00014569,-0.00040365,0.00075949,0.00060328,-0.
 00018647,-0.00008496,-0.00003776,0.00057745,0.00146196,-0.00288964,-0.
 00154869,0.00132748,-0.00054998,0.00058823,-0.02786802,-0.00920095,-0.
 00607512,0.09350120,0.08261511,-0.04396585,-0.01695937,-0.05652266,0.0
 1664526,0.00635146,0.00159228,-0.00104021,0.00107080,-0.00023076,-0.00
 000753,-0.00008552,0.00018752,0.00004525,0.00003895,-0.00009809,0.0000
 5601,0.00002342,-0.00009888,0.00087355,0.00034344,0.00023682,-0.000044
 16,-0.00003590,0.00039831,0.00122534,-0.00288241,-0.00041904,-0.029230
 23,-0.01149752,-0.00400849,0.01094839,0.00346357,0.00105045,0.04480444
 ,0.01937477,0.05714834,0.00325333,0.00299392,0.02413824,-0.05779398,-0
 .00059016,-0.05377340,0.00451597,-0.00351821,0.00597255,-0.00212407,0.
 00129757,-0.00052443,0.00048279,-0.00078854,0.00019881,0.00040021,-0.0
 0077755,-0.00097878,-0.00160289,-0.00397549,0.00018579,-0.00117644,0.0
 0194306,0.00198715,-0.01278995,0.00101917,-0.03271875,-0.00266988,0.00
 297956,0.00257051,0.00078398,-0.00032689,-0.00078188,0.00101410,-0.000
 89419,-0.00027999,0.06749581,-0.00166439,0.00013129,-0.02078003,-0.002
 80893,-0.04204923,-0.01010134,0.01002667,-0.02355778,0.04030087,-0.007
 96490,0.00363895,0.00167784,0.00161553,-0.00409524,0.00021032,0.000312
 85,-0.00031335,0.00017113,-0.00068201,-0.00121992,-0.00015304,-0.00017
 005,0.00069815,0.00030962,-0.00197657,0.00366916,-0.00847149,0.0032362
 0,-0.00171714,-0.00193783,-0.00061331,0.00055442,0.00055162,-0.0001473
 4,0.00065781,0.00094042,0.00049827,0.06322646,-0.00198827,-0.00306334,
 -0.01793531,-0.04879073,-0.00248310,-0.28201204,-0.00300589,0.01397658
 ,-0.00753807,0.00398100,-0.00266962,0.00068908,-0.00050931,0.00144245,
 -0.00039444,0.00001801,0.00000901,-0.00029083,0.00036341,-0.00146814,0
 .00060831,-0.00022999,0.00017056,0.00011421,-0.00460979,-0.00064309,-0
 .00316155,0.00243345,-0.00215664,-0.00002246,-0.00004106,-0.00049323,0
 .00037893,0.00005330,0.00065190,0.00077229,0.05320816,-0.00280091,0.30
 855677,0.00025577,0.00018855,-0.00018016,-0.00029526,-0.00121333,0.000
 55666,-0.00536883,0.00094579,0.00059405,-0.00374138,-0.00162666,-0.034
 06536,0.00005921,0.00174526,0.00356706,-0.04429320,-0.00429567,-0.0249
 8708,0.00090558,0.00234694,0.00575477,0.00037093,0.00012910,0.00032614
 ,-0.00000481,-0.00070632,0.00018823,-0.00008222,0.00008877,0.00007311,
 -0.00004717,0.00010206,0.00008089,0.00007804,-0.00010055,0.00000963,0.
 00008853,0.00003465,-0.00000167,0.05005927,0.00001042,0.00034370,0.000
 02690,-0.00048636,-0.00074707,0.00141836,-0.00115596,0.00098218,-0.000
 19890,0.00203501,-0.00163317,-0.00929620,-0.00174998,-0.00007165,0.001
 55034,-0.00321037,-0.04077784,0.00553782,0.00422818,-0.00385216,0.0333
 3108,0.00109750,0.00096530,-0.00007892,-0.00288781,-0.00237457,0.00053
 221,0.00008142,-0.00011265,-0.00010171,-0.00010126,0.00009672,0.000004
 45,0.00011037,-0.00004714,-0.00007900,0.00036987,0.00007134,-0.0000229
 9,0.00206946,0.04899832,0.00004041,-0.00022398,-0.00024660,-0.00009084
 ,0.00027969,-0.00009616,-0.00025539,-0.00122471,0.00023798,-0.00207766
 ,0.00085085,-0.00812599,0.00047841,0.00034809,0.00218922,-0.02445919,0
 .00313428,-0.29486369,-0.00205255,0.00497972,-0.01016170,-0.00044000,-
 0.00033667,0.00034692,0.00250728,0.00004980,0.00066738,0.00004450,0.00
 000680,0.00005776,0.00001687,0.00002132,0.00002583,-0.00009152,0.00002
 225,0.00003064,-0.00008738,-0.00011706,0.00002948,0.02675549,-0.007730
 87,0.32284008,0.00009046,0.00005805,0.00001834,-0.00017943,-0.00159882
 ,0.00003431,-0.00401921,-0.00170744,-0.00282013,-0.02223156,0.02217643
 ,0.01210918,0.00319363,-0.00164150,-0.00270121,-0.15418209,0.10917632,
 0.06086266,0.00577895,-0.00261869,-0.00542186,0.00078566,-0.00035613,-
 0.00030991,0.00070081,-0.00144637,0.00139565,-0.00002685,-0.00000604,0
 .00000736,-0.00002547,0.00003876,-0.00000357,0.00007073,0.00000227,0.0
 0000777,0.00006503,0.00026349,-0.00003402,0.00162222,-0.00140491,-0.00
 065569,0.16801607,0.00019280,0.00036292,0.00013134,-0.00004988,-0.0015
 6823,-0.00022243,-0.00170375,0.00090751,-0.00230896,-0.00518620,0.0058
 5407,0.00639576,-0.00098110,-0.00025959,-0.00105179,0.11137999,-0.1605
 8970,-0.06192612,0.02022823,-0.02312680,-0.00755751,0.00125596,0.00127
 821,-0.00015972,-0.00363402,-0.00287467,-0.00028295,-0.00003735,-0.000
 02802,-0.00000135,-0.00004533,0.00005054,0.00000678,0.00015578,-0.0000
 8764,-0.00003554,0.00015196,0.00018191,-0.00007890,0.00075503,-0.00035
 458,-0.00078629,-0.12140757,0.17947504,-0.00013921,-0.00005319,-0.0001
 7831,-0.00002267,-0.00007218,0.00057400,-0.00196595,-0.00036747,-0.001
 51136,-0.00838694,0.00580536,0.00271077,0.00109232,0.00111255,-0.00020
 241,0.05985032,-0.06129314,-0.07027899,-0.00951571,0.01115406,0.004441
 94,-0.00051444,-0.00037145,0.00026636,0.00093257,0.00157627,-0.0000181
 9,0.00001865,-0.00000043,0.00000250,-0.00001126,-0.00000070,0.00002147
 ,-0.00002125,0.00004785,0.00002479,0.00006502,0.00000738,-0.00002924,0
 .02207606,-0.02213079,-0.01383852,-0.06345925,0.06512697,0.07925252,-0
 .00074600,-0.00064008,-0.00036749,-0.00086355,0.00228891,0.00210857,0.
 00055109,-0.00054710,0.00029313,-0.00106207,0.00086599,-0.00023580,0.0
 0031530,-0.00019095,0.00007247,0.00129760,0.00125518,0.00003267,-0.010
 82953,0.00060671,-0.03339892,-0.05500863,-0.00268860,-0.05505838,-0.00
 249389,-0.00314589,0.00003855,-0.00000310,-0.00001132,0.00003208,0.000
 05047,-0.00000997,-0.00002746,-0.00026829,0.00021282,0.00016896,0.0002
 6701,0.00000226,0.00001826,-0.00000078,-0.00060408,0.00069654,0.000005
 11,-0.00012493,0.00014328,0.06397441,-0.00023833,-0.00022626,-0.000040
 99,0.00000772,0.00071573,0.00016042,0.00037775,-0.00018196,0.00021118,
 -0.00050815,0.00032101,-0.00011916,0.00020327,-0.00005025,0.00004806,0
 .00033484,0.00046528,-0.00028440,-0.00053485,-0.00018454,-0.00978866,-
 0.00352566,-0.04687231,-0.00293022,-0.00051181,-0.00039503,0.00018838,
 0.00003071,0.00001067,-0.00001434,0.00003667,-0.00002439,-0.00000588,-
 0.00009111,0.00006065,0.00002522,-0.00002637,-0.00004752,-0.00000239,-
 0.00026093,-0.00008181,0.00038101,-0.00007028,-0.00004357,-0.00019441,
 0.00253744,0.04548984,-0.00011574,-0.00021543,-0.00013171,0.00005745,0
 .00068529,0.00021996,0.00031489,-0.00045677,0.00018512,-0.00055623,0.0
 0026051,0.00003113,0.00005289,-0.00019146,0.00004256,0.00021697,0.0003
 4132,0.00045943,-0.00412184,0.00100697,-0.00285785,-0.05325818,-0.0020
 1339,-0.28898466,0.00025850,-0.00147746,0.00058270,0.00002168,-0.00000
 197,0.00001628,0.00001460,-0.00000302,-0.00000833,-0.00007282,0.000046
 84,0.00003646,-0.00002812,-0.00005180,-0.00000616,-0.00019884,-0.00045
 457,0.00024198,0.00004871,-0.00006524,-0.00012995,0.06152581,0.0038167
 5,0.31590582,0.00029241,-0.00016034,0.00000455,0.00049273,0.00034161,-
 0.00307923,0.00058542,-0.00068876,0.00074083,-0.00076098,0.00054282,-0
 .00116197,0.00018613,-0.00026667,0.00028308,0.00128340,0.00125213,-0.0
 0054092,-0.02486195,0.02006934,0.01158007,-0.15193526,0.10260243,0.075
 81207,-0.00223127,-0.00311601,0.00126694,0.00004757,0.00004262,0.00004
 374,0.00002374,-0.00001940,-0.00000293,-0.00004911,0.00000190,-0.00000
 335,-0.00091762,-0.00030951,-0.00002979,0.00008232,-0.00004162,0.00002
 197,0.00021281,-0.00108490,0.00014671,0.00458601,-0.00428862,-0.002641
 42,0.17048985,0.00006700,-0.00001013,0.00001037,0.00004658,0.00001775,
 -0.00069895,0.00018354,0.00013916,0.00002874,-0.00007703,0.00009936,-0
 .00019692,0.00011780,0.00008273,0.00006152,-0.00003873,0.00075921,0.00
 023258,-0.00552212,0.00750982,0.00717623,0.10040661,-0.14555975,-0.069
 68308,-0.00102310,0.00002307,-0.00044965,0.00000994,-0.00000280,0.0000
 1126,-0.00001186,0.00000456,-0.00001017,0.00001049,-0.00000290,-0.0000
 1517,-0.00022578,-0.00010558,-0.00002627,-0.00008216,-0.00001657,-0.00
 009121,0.00018013,-0.00002490,-0.00024322,0.00001560,-0.00088467,0.000
 01532,-0.11247993,0.15456081,0.00015663,0.00007308,-0.00000549,0.00003
 170,-0.00046778,-0.00084349,-0.00018735,0.00007450,-0.00010754,0.00009
 178,0.00013138,0.00013138,-0.00001792,0.00004220,-0.00003351,0.0002510
 0,0.00000634,-0.00003975,-0.00572517,0.00460819,0.00294513,0.07535597,
 -0.06968871,-0.09365404,-0.00108372,-0.00019155,0.00007655,0.00000309,
 0.00000216,0.00001050,-0.00001052,0.00000930,0.00000679,0.00004438,-0.
 00002766,-0.00000481,-0.00018431,-0.00001110,-0.00005840,0.00011937,-0
 .00016503,-0.00004804,0.00022219,0.00020302,0.00014590,0.02104846,-0.0
 2063298,-0.01517786,-0.08078960,0.07813585,0.10076099,0.00002053,0.000
 00521,-0.00000145,-0.00009676,-0.00025119,0.00012582,-0.00026556,0.000
 71195,-0.00037253,0.00154841,-0.00153854,0.00121944,-0.00105776,-0.000
 63350,-0.00017581,-0.00588454,-0.00029564,-0.00214190,-0.00403529,-0.0
 3016359,0.01268915,-0.05135077,-0.02832983,0.01102477,0.00206322,-0.00
 081257,0.00115934,-0.00000073,-0.00001860,-0.00000205,-0.00002993,0.00
 004352,-0.00000873,0.00001510,0.00000048,-0.00001007,0.00001166,0.0000
 3279,-0.00000393,0.00002197,0.00029748,-0.00001304,0.00010676,-0.00004
 841,-0.00018095,-0.00000884,0.00667781,-0.00166698,0.00282918,0.018524
 62,-0.00916444,0.05634587,-0.00000179,-0.00002241,-0.00002080,-0.00010
 593,0.00001704,-0.00011495,-0.00039632,0.00046455,-0.00038081,0.001455
 33,-0.00025512,0.00110571,-0.00064419,-0.00036104,-0.00021624,-0.00266
 196,0.00080114,-0.00080352,-0.00049148,-0.01020117,0.00376923,-0.03148
 576,-0.27308318,0.09127957,0.00195587,0.00096937,-0.00008623,0.0000054
 1,-0.00001383,-0.00000111,-0.00001415,0.00003172,-0.00000358,-0.000009
 48,0.00000263,0.00000610,-0.00007106,0.00000349,-0.00002430,0.00009697
 ,0.00004158,0.00009362,0.00011330,0.00047428,-0.00004323,0.00066401,0.
 00166020,-0.00100674,-0.00281752,-0.01676482,0.00774358,0.03496006,0.2
 9559652,0.00004252,0.00002684,0.00002038,0.00006713,-0.00014909,-0.000
 09428,0.00012346,-0.00004349,-0.00000664,-0.00049883,-0.00001034,0.000
 52674,0.00007916,-0.00006585,-0.00012152,-0.00083594,-0.00003125,0.000
 99804,-0.00035463,-0.00516192,0.00066381,0.01238921,0.09226165,-0.0838
 3768,-0.00010445,-0.00091878,-0.00011321,0.00000863,0.00001414,-0.0000
 1573,0.00000985,-0.00000624,0.00001566,0.00001447,-0.00001666,-0.00001
 836,-0.00001442,-0.00001105,-0.00000543,-0.00020764,-0.00036254,0.0003
 5505,-0.00011939,0.00032360,-0.00012030,0.00396935,0.02910926,-0.01024
 454,-0.00261215,-0.01406431,0.00539152,-0.01195813,-0.10094448,0.08634
 599,0.00100345,-0.00004129,0.00005854,-0.00110533,-0.02501606,0.011164
 13,-0.00469577,-0.00407631,0.00006412,-0.00266530,0.00191805,-0.001755
 55,0.00070129,-0.00071419,0.00054303,-0.00190381,0.00001475,-0.0042079
 4,0.00655023,0.02131752,-0.00910307,0.00113947,0.00268685,0.00153058,-
 0.06565538,-0.05669886,0.01655147,-0.00009916,0.00003954,0.00009780,-0
 .00072669,0.00047823,0.00006685,0.00018630,0.00025390,-0.00020320,0.00
 069640,0.00031428,-0.00083113,0.00028981,0.00134264,-0.00033823,0.0000
 1636,0.00018367,-0.00010730,0.00023767,-0.00015011,0.00014866,-0.00035
 537,-0.00010160,-0.00016153,-0.00023254,-0.00055133,0.00000178,0.06661
 836,0.00019788,-0.00036856,0.00001050,0.00106975,-0.00777844,0.0039844
 3,-0.00146520,0.00046733,-0.00008246,0.00014490,0.00115752,-0.00037663
 ,-0.00011737,-0.00043287,0.00006477,0.00093191,0.00259941,0.00450546,-
 0.00603615,-0.01461898,0.00692032,-0.00054115,-0.00048129,-0.00350571,
 -0.05351871,-0.28022911,0.09499809,0.00002487,0.00005211,-0.00003911,-
 0.00002868,0.00056552,-0.00006801,-0.00020758,0.00019419,-0.00004771,-
 0.00005916,0.00027277,-0.00031759,-0.00021697,-0.00142993,0.00034337,0
 .00024900,0.00037321,-0.00006021,-0.00048601,0.00026893,-0.00023516,0.
 00042043,0.00017564,0.00015520,0.00083794,0.00063904,0.00005051,0.0588
 0032,0.29857352,-0.00042910,0.00010333,0.00007769,-0.00115872,-0.00374
 429,0.00223641,-0.00123772,-0.00141437,0.00178071,-0.00135092,0.000383
 64,-0.00061710,0.00046889,-0.00028294,0.00012876,-0.00510540,0.0044189
 4,0.00874483,0.00334518,0.01541601,-0.00143314,0.00306013,-0.00247785,
 -0.00571051,0.01498868,0.09377694,-0.07350104,0.00014605,0.00006855,-0
 .00010524,0.00013481,-0.00014128,0.00021111,-0.00012905,-0.00011113,-0
 .00007681,0.00104520,0.00026644,0.00030485,-0.00046071,-0.00177963,0.0
 0035838,0.00081888,0.00228933,-0.00113299,-0.00106008,0.00007314,-0.00
 018037,0.00096140,-0.00019293,0.00050417,-0.00051852,-0.00035182,0.000
 26050,-0.01351900,-0.10630007,0.06814978\\-0.00000146,-0.00000139,0.00
 000460,-0.00000457,-0.00000759,0.00000245,0.00000245,0.00000326,0.0000
 0041,0.00000129,-0.00000152,-0.00000113,0.00000469,-0.00000129,-0.0000
 0160,0.00000331,-0.00000006,-0.00000175,0.00000021,0.00000091,-0.00000
 147,-0.00000042,0.00000271,-0.00000325,-0.00000037,0.00000265,0.000000
 60,0.00000015,-0.00000357,0.00000461,-0.00000307,-0.00000235,0.0000056
 5,-0.00000149,-0.00000326,0.00000602,-0.00000283,0.00000054,0.00000224
 ,0.00000382,-0.00000056,-0.00000299,0.00000253,0.00000139,-0.00000464,
 0.00000155,0.00000182,-0.00000348,-0.00000016,0.00000396,-0.00000501,-
 0.00000204,0.00000313,-0.00000246,-0.00000358,0.00000124,0.00000120\\\
 @


 A ROPE OVER THE TOP OF A FENCE HAS THE SAME LENGTH ON EACH SIDE.
 WEIGHS 1/3 POUND PER FOOT.  ON ONE END HANGS A MONKEY HOLDING A
 BANANA, AND ON THE OTHER END A WEIGHT EQUAL TO THE WEIGHT
 OF THE MONKEY.  THE BANANA WEIGHS TWO OUNCES PER INCH.
 THE ROPE IS AS LONG AS THE AGE OF THE MONKEY, 
 AND THE WEIGHT OF THE MONKEY (IN OUNCES) IS AS MUCH
 AS THE AGE OF THE MONKEY'S MOTHER.  THE COMBINED AGES OF MONKEY
 AND MOTHER ARE THIRTY YEARS.  HALF THE WEIGHT OF THE MONKEY,
  PLUS THE WEIGHT OF THE BANANA, IS ONE FOURTH AS MUCH AS THE WEIGHT
 OF THE WEIGHT AND THE ROPE.
 THE MONKEY'S MOTHER IS HALF AS OLD AS THE MONKEY WILL BE
 WHEN IT IS 3 TIMES AS OLD AS ITS MOTHER WAS WHEN
 SHE WAS HALF AS OLD AS THE MONKEY WILL BE WHEN IT IS
 AS OLD AS ITS MOTHER WILL BE WHEN SHE IS 4 TIMES AS
 OLD AS THE MONKEY WAS WHEN IT WAS TWICE AS OLD AS 
 ITS MOTHER WAS WHEN SHE WAS ONE THIRD AS OLD AS THE
 MONKEY WAS WHEN IT WAS AS OLD AS ITS MOTHER WAS WHEN 
 SHE WAS 3 TIMES AS OLD AS THE MONKEY WAS WHEN IT WAS AS OLD AS ITS
 MOTHER WAS WHEN SHE WAS 3 TIMES AS OLD AS THE MONKEY 
 WAS WHEN IT WAS ONE FOURTH WAS OLD AS IT IS NOW.

 HOW LONG IS THE BANANA?
 Job cpu time:       0 days  0 hours 39 minutes 33.3 seconds.
 File lengths (MBytes):  RWF=    152 Int=      0 D2E=      0 Chk=      8 Scr=      1
 Normal termination of Gaussian 09 at Tue Jan 28 01:18:40 2020.
