 Entering Gaussian System, Link 0=/home/puck/opt/gaussian_09/g09
 Input=dsC7O2H10nsd_4074.com
 Output=dsC7O2H10nsd_4074.log
 Initial command:
 /home/puck/opt/gaussian_09/l1.exe "/scratch/puck/g09_c998592f-d4f7-44bc-9a62-f774cd54ed48/Gau-89725.inp" -scrdir="/scratch/puck/g09_c998592f-d4f7-44bc-9a62-f774cd54ed48/"
 Entering Link 1 = /home/puck/opt/gaussian_09/l1.exe PID=     89749.
  
 Copyright (c) 1988,1990,1992,1993,1995,1998,2003,2009,2013,
            Gaussian, Inc.  All Rights Reserved.
  
 This is part of the Gaussian(R) 09 program.  It is based on
 the Gaussian(R) 03 system (copyright 2003, Gaussian, Inc.),
 the Gaussian(R) 98 system (copyright 1998, Gaussian, Inc.),
 the Gaussian(R) 94 system (copyright 1995, Gaussian, Inc.),
 the Gaussian 92(TM) system (copyright 1992, Gaussian, Inc.),
 the Gaussian 90(TM) system (copyright 1990, Gaussian, Inc.),
 the Gaussian 88(TM) system (copyright 1988, Gaussian, Inc.),
 the Gaussian 86(TM) system (copyright 1986, Carnegie Mellon
 University), and the Gaussian 82(TM) system (copyright 1983,
 Carnegie Mellon University). Gaussian is a federally registered
 trademark of Gaussian, Inc.
  
 This software contains proprietary and confidential information,
 including trade secrets, belonging to Gaussian, Inc.
  
 This software is provided under written license and may be
 used, copied, transmitted, or stored only in accord with that
 written license.
  
 The following legend is applicable only to US Government
 contracts under FAR:
  
                    RESTRICTED RIGHTS LEGEND
  
 Use, reproduction and disclosure by the US Government is
 subject to restrictions as set forth in subparagraphs (a)
 and (c) of the Commercial Computer Software - Restricted
 Rights clause in FAR 52.227-19.
  
 Gaussian, Inc.
 340 Quinnipiac St., Bldg. 40, Wallingford CT 06492
  
  
 ---------------------------------------------------------------
 Warning -- This program may not be used in any manner that
 competes with the business of Gaussian, Inc. or will provide
 assistance to any competitor of Gaussian, Inc.  The licensee
 of this program is prohibited from giving any competitor of
 Gaussian, Inc. access to this program.  By using this program,
 the user acknowledges that Gaussian, Inc. is engaged in the
 business of creating and licensing software in the field of
 computational chemistry and represents and warrants to the
 licensee that it is not a competitor of Gaussian, Inc. and that
 it will not use this program in any manner prohibited above.
 ---------------------------------------------------------------
  

 Cite this work as:
 Gaussian 09, Revision D.01,
 M. J. Frisch, G. W. Trucks, H. B. Schlegel, G. E. Scuseria, 
 M. A. Robb, J. R. Cheeseman, G. Scalmani, V. Barone, B. Mennucci, 
 G. A. Petersson, H. Nakatsuji, M. Caricato, X. Li, H. P. Hratchian, 
 A. F. Izmaylov, J. Bloino, G. Zheng, J. L. Sonnenberg, M. Hada, 
 M. Ehara, K. Toyota, R. Fukuda, J. Hasegawa, M. Ishida, T. Nakajima, 
 Y. Honda, O. Kitao, H. Nakai, T. Vreven, J. A. Montgomery, Jr., 
 J. E. Peralta, F. Ogliaro, M. Bearpark, J. J. Heyd, E. Brothers, 
 K. N. Kudin, V. N. Staroverov, T. Keith, R. Kobayashi, J. Normand, 
 K. Raghavachari, A. Rendell, J. C. Burant, S. S. Iyengar, J. Tomasi, 
 M. Cossi, N. Rega, J. M. Millam, M. Klene, J. E. Knox, J. B. Cross, 
 V. Bakken, C. Adamo, J. Jaramillo, R. Gomperts, R. E. Stratmann, 
 O. Yazyev, A. J. Austin, R. Cammi, C. Pomelli, J. W. Ochterski, 
 R. L. Martin, K. Morokuma, V. G. Zakrzewski, G. A. Voth, 
 P. Salvador, J. J. Dannenberg, S. Dapprich, A. D. Daniels, 
 O. Farkas, J. B. Foresman, J. V. Ortiz, J. Cioslowski, 
 and D. J. Fox, Gaussian, Inc., Wallingford CT, 2013.
 
 ******************************************
 Gaussian 09:  ES64L-G09RevD.01 24-Apr-2013
                28-Jan-2020 
 ******************************************
 -----------------------------
 # b3lyp 6-31G(2df,p) opt Freq
 -----------------------------
 1/14=-1,18=20,19=15,26=3,38=1/1,3;
 2/9=110,12=2,17=6,18=5,40=1/2;
 3/5=1,6=6,7=104,11=2,16=1,25=1,30=1,71=1,74=-5/1,2,3;
 4//1;
 5/5=2,38=5/2;
 6/7=2,8=2,9=2,10=2,28=1/1;
 7//1,2,3,16;
 1/14=-1,18=20,19=15,26=3/3(2);
 2/9=110/2;
 99//99;
 2/9=110/2;
 3/5=1,6=6,7=104,11=2,16=1,25=1,30=1,71=1,74=-5/1,2,3;
 4/5=5,16=3,69=1/1;
 5/5=2,38=5/2;
 7//1,2,3,16;
 1/14=-1,18=20,19=15,26=3/3(-5);
 2/9=110/2;
 6/7=2,8=2,9=2,10=2,19=2,28=1/1;
 99/9=1/99;
 -----
 titel
 -----
 Symbolic Z-matrix:
 Charge =  0 Multiplicity = 1
 C                     0.29625   0.61645   0.10075 
 C                     1.15228  -0.62366  -0.08549 
 C                     2.29764  -0.49181  -1.10799 
 C                     3.36313  -1.47095  -0.60798 
 C                     3.07134  -2.96059  -0.84491 
 O                     3.91515  -3.69559   0.04901 
 C                     2.68371  -3.17589   0.55981 
 C                     2.95242  -1.69509   0.90454 
 O                     1.80515  -0.91977   1.15547 
 H                    -0.44763   0.45702   0.88618 
 H                     0.91918   1.47038   0.38454 
 H                    -0.23082   0.86017  -0.82698 
 H                     0.50796  -1.47166  -0.36711 
 H                     1.9649   -0.69888  -2.12949 
 H                     2.69504   0.52851  -1.08611 
 H                     4.3868   -1.16516  -0.82956 
 H                     2.7521   -3.46227  -1.75212 
 H                     1.98511  -3.87009   1.01312 
 H                     3.68078  -1.51681   1.69798 
 

 GradGradGradGradGradGradGradGradGradGradGradGradGradGradGradGradGradGrad
 Berny optimization.
 Initialization pass.
                           ----------------------------
                           !    Initial Parameters    !
                           ! (Angstroms and Degrees)  !
 --------------------------                            --------------------------
 ! Name  Definition              Value          Derivative Info.                !
 --------------------------------------------------------------------------------
 ! R1    R(1,2)                  1.5183         estimate D2E/DX2                !
 ! R2    R(1,10)                 1.0935         estimate D2E/DX2                !
 ! R3    R(1,11)                 1.0944         estimate D2E/DX2                !
 ! R4    R(1,12)                 1.0945         estimate D2E/DX2                !
 ! R5    R(2,3)                  1.541          estimate D2E/DX2                !
 ! R6    R(2,9)                  1.4331         estimate D2E/DX2                !
 ! R7    R(2,13)                 1.1016         estimate D2E/DX2                !
 ! R8    R(3,4)                  1.531          estimate D2E/DX2                !
 ! R9    R(3,14)                 1.0941         estimate D2E/DX2                !
 ! R10   R(3,15)                 1.0952         estimate D2E/DX2                !
 ! R11   R(4,5)                  1.5363         estimate D2E/DX2                !
 ! R12   R(4,8)                  1.5832         estimate D2E/DX2                !
 ! R13   R(4,16)                 1.0911         estimate D2E/DX2                !
 ! R14   R(5,6)                  1.4323         estimate D2E/DX2                !
 ! R15   R(5,7)                  1.473          estimate D2E/DX2                !
 ! R16   R(5,17)                 1.0847         estimate D2E/DX2                !
 ! R17   R(6,7)                  1.4309         estimate D2E/DX2                !
 ! R18   R(7,8)                  1.544          estimate D2E/DX2                !
 ! R19   R(7,18)                 1.0842         estimate D2E/DX2                !
 ! R20   R(8,9)                  1.4072         estimate D2E/DX2                !
 ! R21   R(8,19)                 1.0917         estimate D2E/DX2                !
 ! A1    A(2,1,10)             110.6445         estimate D2E/DX2                !
 ! A2    A(2,1,11)             110.3756         estimate D2E/DX2                !
 ! A3    A(2,1,12)             110.4517         estimate D2E/DX2                !
 ! A4    A(10,1,11)            108.3435         estimate D2E/DX2                !
 ! A5    A(10,1,12)            108.2832         estimate D2E/DX2                !
 ! A6    A(11,1,12)            108.6722         estimate D2E/DX2                !
 ! A7    A(1,2,3)              115.5025         estimate D2E/DX2                !
 ! A8    A(1,2,9)              108.6257         estimate D2E/DX2                !
 ! A9    A(1,2,13)             109.2879         estimate D2E/DX2                !
 ! A10   A(3,2,9)              104.6928         estimate D2E/DX2                !
 ! A11   A(3,2,13)             109.3266         estimate D2E/DX2                !
 ! A12   A(9,2,13)             109.1931         estimate D2E/DX2                !
 ! A13   A(2,3,4)              104.2316         estimate D2E/DX2                !
 ! A14   A(2,3,14)             112.1643         estimate D2E/DX2                !
 ! A15   A(2,3,15)             109.6421         estimate D2E/DX2                !
 ! A16   A(4,3,14)             113.299          estimate D2E/DX2                !
 ! A17   A(4,3,15)             109.6801         estimate D2E/DX2                !
 ! A18   A(14,3,15)            107.7773         estimate D2E/DX2                !
 ! A19   A(3,4,5)              115.948          estimate D2E/DX2                !
 ! A20   A(3,4,8)              102.8272         estimate D2E/DX2                !
 ! A21   A(3,4,16)             114.04           estimate D2E/DX2                !
 ! A22   A(5,4,8)               87.753          estimate D2E/DX2                !
 ! A23   A(5,4,16)             114.7465         estimate D2E/DX2                !
 ! A24   A(8,4,16)             118.4939         estimate D2E/DX2                !
 ! A25   A(4,5,6)              106.8239         estimate D2E/DX2                !
 ! A26   A(4,5,7)               92.5578         estimate D2E/DX2                !
 ! A27   A(4,5,17)             129.2958         estimate D2E/DX2                !
 ! A28   A(6,5,17)             117.2607         estimate D2E/DX2                !
 ! A29   A(7,5,17)             130.7316         estimate D2E/DX2                !
 ! A30   A(5,7,8)               91.5437         estimate D2E/DX2                !
 ! A31   A(5,7,18)             131.4423         estimate D2E/DX2                !
 ! A32   A(6,7,8)              106.1566         estimate D2E/DX2                !
 ! A33   A(6,7,18)             118.1146         estimate D2E/DX2                !
 ! A34   A(8,7,18)             129.2647         estimate D2E/DX2                !
 ! A35   A(4,8,7)               88.145          estimate D2E/DX2                !
 ! A36   A(4,8,9)              107.6882         estimate D2E/DX2                !
 ! A37   A(4,8,19)             119.8765         estimate D2E/DX2                !
 ! A38   A(7,8,9)              115.2349         estimate D2E/DX2                !
 ! A39   A(7,8,19)             115.7863         estimate D2E/DX2                !
 ! A40   A(9,8,19)             108.9264         estimate D2E/DX2                !
 ! A41   A(2,9,8)              109.3189         estimate D2E/DX2                !
 ! D1    D(10,1,2,3)          -176.3596         estimate D2E/DX2                !
 ! D2    D(10,1,2,9)           -59.145          estimate D2E/DX2                !
 ! D3    D(10,1,2,13)           59.9004         estimate D2E/DX2                !
 ! D4    D(11,1,2,3)           -56.4462         estimate D2E/DX2                !
 ! D5    D(11,1,2,9)            60.7684         estimate D2E/DX2                !
 ! D6    D(11,1,2,13)          179.8138         estimate D2E/DX2                !
 ! D7    D(12,1,2,3)            63.753          estimate D2E/DX2                !
 ! D8    D(12,1,2,9)          -179.0324         estimate D2E/DX2                !
 ! D9    D(12,1,2,13)          -59.987          estimate D2E/DX2                !
 ! D10   D(1,2,3,4)            151.4944         estimate D2E/DX2                !
 ! D11   D(1,2,3,14)           -85.5541         estimate D2E/DX2                !
 ! D12   D(1,2,3,15)            34.1448         estimate D2E/DX2                !
 ! D13   D(9,2,3,4)             32.0942         estimate D2E/DX2                !
 ! D14   D(9,2,3,14)           155.0457         estimate D2E/DX2                !
 ! D15   D(9,2,3,15)           -85.2554         estimate D2E/DX2                !
 ! D16   D(13,2,3,4)           -84.7859         estimate D2E/DX2                !
 ! D17   D(13,2,3,14)           38.1656         estimate D2E/DX2                !
 ! D18   D(13,2,3,15)          157.8645         estimate D2E/DX2                !
 ! D19   D(1,2,9,8)           -157.4418         estimate D2E/DX2                !
 ! D20   D(3,2,9,8)            -33.5186         estimate D2E/DX2                !
 ! D21   D(13,2,9,8)            83.4533         estimate D2E/DX2                !
 ! D22   D(2,3,4,5)             74.743          estimate D2E/DX2                !
 ! D23   D(2,3,4,8)            -19.0458         estimate D2E/DX2                !
 ! D24   D(2,3,4,16)          -148.6375         estimate D2E/DX2                !
 ! D25   D(14,3,4,5)           -47.4646         estimate D2E/DX2                !
 ! D26   D(14,3,4,8)          -141.2534         estimate D2E/DX2                !
 ! D27   D(14,3,4,16)           89.1549         estimate D2E/DX2                !
 ! D28   D(15,3,4,5)          -167.9337         estimate D2E/DX2                !
 ! D29   D(15,3,4,8)            98.2775         estimate D2E/DX2                !
 ! D30   D(15,3,4,16)          -31.3141         estimate D2E/DX2                !
 ! D31   D(3,4,5,6)           -161.3282         estimate D2E/DX2                !
 ! D32   D(3,4,5,7)           -103.0118         estimate D2E/DX2                !
 ! D33   D(3,4,5,17)            48.699          estimate D2E/DX2                !
 ! D34   D(8,4,5,6)            -58.149          estimate D2E/DX2                !
 ! D35   D(8,4,5,7)              0.1674         estimate D2E/DX2                !
 ! D36   D(8,4,5,17)           151.8782         estimate D2E/DX2                !
 ! D37   D(16,4,5,6)            62.3566         estimate D2E/DX2                !
 ! D38   D(16,4,5,7)           120.6731         estimate D2E/DX2                !
 ! D39   D(16,4,5,17)          -87.6161         estimate D2E/DX2                !
 ! D40   D(3,4,8,7)            115.9548         estimate D2E/DX2                !
 ! D41   D(3,4,8,9)              0.0173         estimate D2E/DX2                !
 ! D42   D(3,4,8,19)          -125.141          estimate D2E/DX2                !
 ! D43   D(5,4,8,7)             -0.1596         estimate D2E/DX2                !
 ! D44   D(5,4,8,9)           -116.0972         estimate D2E/DX2                !
 ! D45   D(5,4,8,19)           118.7445         estimate D2E/DX2                !
 ! D46   D(16,4,8,7)          -117.2482         estimate D2E/DX2                !
 ! D47   D(16,4,8,9)           126.8142         estimate D2E/DX2                !
 ! D48   D(16,4,8,19)            1.6559         estimate D2E/DX2                !
 ! D49   D(4,5,7,8)             -0.1716         estimate D2E/DX2                !
 ! D50   D(4,5,7,18)           150.1014         estimate D2E/DX2                !
 ! D51   D(17,5,7,8)          -151.2247         estimate D2E/DX2                !
 ! D52   D(17,5,7,18)           -0.9517         estimate D2E/DX2                !
 ! D53   D(5,7,8,4)              0.1664         estimate D2E/DX2                !
 ! D54   D(5,7,8,9)            108.8779         estimate D2E/DX2                !
 ! D55   D(5,7,8,19)          -122.3718         estimate D2E/DX2                !
 ! D56   D(6,7,8,4)             58.342          estimate D2E/DX2                !
 ! D57   D(6,7,8,9)            167.0535         estimate D2E/DX2                !
 ! D58   D(6,7,8,19)           -64.1963         estimate D2E/DX2                !
 ! D59   D(18,7,8,4)          -151.1411         estimate D2E/DX2                !
 ! D60   D(18,7,8,9)           -42.4296         estimate D2E/DX2                !
 ! D61   D(18,7,8,19)           86.3206         estimate D2E/DX2                !
 ! D62   D(4,8,9,2)             21.0957         estimate D2E/DX2                !
 ! D63   D(7,8,9,2)            -75.3779         estimate D2E/DX2                !
 ! D64   D(19,8,9,2)           152.5548         estimate D2E/DX2                !
 --------------------------------------------------------------------------------
 Trust Radius=3.00D-01 FncErr=1.00D-07 GrdErr=1.00D-06
 Number of steps in this run=    114 maximum allowed number of steps=    114.
 GradGradGradGradGradGradGradGradGradGradGradGradGradGradGradGradGradGrad

                          Input orientation:                          
 ---------------------------------------------------------------------
 Center     Atomic      Atomic             Coordinates (Angstroms)
 Number     Number       Type             X           Y           Z
 ---------------------------------------------------------------------
      1          6           0        0.296251    0.616449    0.100746
      2          6           0        1.152282   -0.623655   -0.085491
      3          6           0        2.297640   -0.491813   -1.107988
      4          6           0        3.363127   -1.470945   -0.607979
      5          6           0        3.071335   -2.960590   -0.844914
      6          8           0        3.915149   -3.695592    0.049013
      7          6           0        2.683706   -3.175888    0.559810
      8          6           0        2.952424   -1.695091    0.904537
      9          8           0        1.805146   -0.919772    1.155470
     10          1           0       -0.447630    0.457020    0.886185
     11          1           0        0.919185    1.470379    0.384538
     12          1           0       -0.230823    0.860172   -0.826980
     13          1           0        0.507956   -1.471658   -0.367112
     14          1           0        1.964901   -0.698883   -2.129493
     15          1           0        2.695035    0.528511   -1.086114
     16          1           0        4.386796   -1.165162   -0.829564
     17          1           0        2.752103   -3.462273   -1.752118
     18          1           0        1.985106   -3.870094    1.013117
     19          1           0        3.680785   -1.516808    1.697977
 ---------------------------------------------------------------------
                    Distance matrix (angstroms):
                    1          2          3          4          5
     1  C    0.000000
     2  C    1.518332   0.000000
     3  C    2.587439   1.541015   0.000000
     4  C    3.776935   2.424610   1.531003   0.000000
     5  C    4.624995   3.117812   2.600514   1.536334   0.000000
     6  O    5.629636   4.133803   3.770834   2.384412   1.432255
     7  C    4.504720   3.045581   3.183529   2.175356   1.473045
     8  C    3.611724   2.317033   2.434518   1.583232   2.162455
     9  O    2.397745   1.433144   2.355619   2.416784   3.125653
    10  H    1.093476   2.161419   3.523282   4.524538   5.201911
    11  H    1.094432   2.158759   2.824530   3.950865   5.077085
    12  H    1.094479   2.159752   2.880964   4.289353   5.050029
    13  H    2.150325   1.101624   2.170706   2.865314   3.002687
    14  H    3.080334   2.200898   1.094105   2.205929   2.826598
    15  H    2.677786   2.169982   1.095200   2.161663   3.517614
    16  H    4.557650   3.362879   2.212575   1.091101   2.225811
    17  H    5.108844   3.659894   3.073284   2.376509   1.084718
    18  H    4.879930   3.527025   4.001193   3.206682   2.336530
    19  H    4.307784   3.220529   3.291982   2.328185   2.987011
                    6          7          8          9         10
     6  O    0.000000
     7  C    1.430895   0.000000
     8  C    2.379237   1.543959   0.000000
     9  O    3.658078   2.493339   1.407243   0.000000
    10  H    6.081027   4.807266   4.023964   2.653879   0.000000
    11  H    5.981274   4.973133   3.797981   2.663097   1.773902
    12  H    6.221851   5.167925   4.434025   3.353130   1.773266
    13  H    4.089989   2.915043   2.764497   2.074979   2.490722
    14  H    4.186839   3.726203   3.342599   3.296254   4.031219
    15  H    4.540952   4.053612   2.995555   2.813205   3.710986
    16  H    2.719820   2.978908   2.312002   3.265806   5.380236
    17  H    2.156661   2.330602   3.197011   3.976821   5.706119
    18  H    2.164489   1.084182   2.382883   2.959231   4.965706
    19  H    2.742465   2.245471   1.091715   2.041761   4.647452
                   11         12         13         14         15
    11  H    0.000000
    12  H    1.778383   0.000000
    13  H    3.064256   2.488916   0.000000
    14  H    3.481317   2.991387   2.413681   0.000000
    15  H    2.490698   2.955976   3.049747   1.768680   0.000000
    16  H    4.521554   5.042260   3.918316   2.787975   2.407572
    17  H    5.679432   5.332660   3.304087   2.898004   4.046379
    18  H    5.481966   5.538205   3.136798   4.464638   4.925292
    19  H    4.274908   5.227439   3.785958   4.273498   3.592520
                   16         17         18         19
    16  H    0.000000
    17  H    2.966487   0.000000
    18  H    4.059586   2.898470   0.000000
    19  H    2.647748   4.068224   2.980322   0.000000
 Stoichiometry    C7H10O2
 Framework group  C1[X(C7H10O2)]
 Deg. of freedom    51
 Full point group                 C1      NOp   1
 Largest Abelian subgroup         C1      NOp   1
 Largest concise Abelian subgroup C1      NOp   1
                         Standard orientation:                         
 ---------------------------------------------------------------------
 Center     Atomic      Atomic             Coordinates (Angstroms)
 Number     Number       Type             X           Y           Z
 ---------------------------------------------------------------------
      1          6           0       -2.952964   -0.154036   -0.266498
      2          6           0       -1.445461   -0.026822   -0.395275
      3          6           0       -0.836129    1.262526    0.188697
      4          6           0        0.581898    0.856444    0.598901
      5          6           0        1.588063    0.676826   -0.548135
      6          8           0        2.671510   -0.104048   -0.030703
      7          6           0        1.501095   -0.792182   -0.482435
      8          6           0        0.486244   -0.721864    0.679004
      9          8           0       -0.831490   -1.087744    0.347279
     10          1           0       -3.292059   -1.121679   -0.646462
     11          1           0       -3.254147   -0.071140    0.782405
     12          1           0       -3.453452    0.633800   -0.838083
     13          1           0       -1.162051   -0.116050   -1.456073
     14          1           0       -0.859469    2.090599   -0.526017
     15          1           0       -1.402732    1.569165    1.074358
     16          1           0        0.967083    1.399133    1.463553
     17          1           0        1.804702    1.336469   -1.381533
     18          1           0        1.618424   -1.552834   -1.246039
     19          1           0        0.777066   -1.238479    1.595723
 ---------------------------------------------------------------------
 Rotational constants (GHZ):      4.2936456      1.2416642      1.1105961
 Standard basis: 6-31G(2df,p) (6D, 7F)
 There are   329 symmetry adapted cartesian basis functions of A   symmetry.
 There are   302 symmetry adapted basis functions of A   symmetry.
   302 basis functions,   466 primitive gaussians,   329 cartesian basis functions
    34 alpha electrons       34 beta electrons
       nuclear repulsion energy       475.8549692818 Hartrees.
 NAtoms=   19 NActive=   19 NUniq=   19 SFac= 1.00D+00 NAtFMM=   60 NAOKFM=F Big=F
 Integral buffers will be    131072 words long.
 Raffenetti 2 integral format.
 Two-electron integral symmetry is turned on.
 One-electron integrals computed using PRISM.
 NBasis=   302 RedAO= T EigKep=  2.77D-04  NBF=   302
 NBsUse=   302 1.00D-06 EigRej= -1.00D+00 NBFU=   302
 ExpMin= 1.61D-01 ExpMax= 5.48D+03 ExpMxC= 8.25D+02 IAcc=1 IRadAn=         1 AccDes= 0.00D+00
 Harris functional with IExCor=  402 and IRadAn=       1 diagonalized for initial guess.
 HarFok:  IExCor=  402 AccDes= 0.00D+00 IRadAn=         1 IDoV= 1 UseB2=F ITyADJ=14
 ICtDFT=  3500011 ScaDFX=  1.000000  1.000000  1.000000  1.000000
 FoFCou: FMM=F IPFlag=           0 FMFlag=      100000 FMFlg1=           0
         NFxFlg=           0 DoJE=T BraDBF=F KetDBF=T FulRan=T
         wScrn=  0.000000 ICntrl=     500 IOpCl=  0 I1Cent=   200000004 NGrid=           0
         NMat0=    1 NMatS0=      1 NMatT0=    0 NMatD0=    1 NMtDS0=    0 NMtDT0=    0
 Petite list used in FoFCou.
 Requested convergence on RMS density matrix=1.00D-08 within 128 cycles.
 Requested convergence on MAX density matrix=1.00D-06.
 Requested convergence on             energy=1.00D-06.
 No special actions if energy rises.
 Integral accuracy reduced to 1.0D-05 until final iterations.
 Initial convergence to 1.0D-05 achieved.  Increase integral accuracy.
 SCF Done:  E(RB3LYP) =  -423.157434801     A.U. after   14 cycles
            NFock= 14  Conv=0.23D-08     -V/T= 2.0074

 **********************************************************************

            Population analysis using the SCF density.

 **********************************************************************

 Orbital symmetries:
       Occupied  (A) (A) (A) (A) (A) (A) (A) (A) (A) (A) (A) (A)
                 (A) (A) (A) (A) (A) (A) (A) (A) (A) (A) (A) (A)
                 (A) (A) (A) (A) (A) (A) (A) (A) (A) (A)
       Virtual   (A) (A) (A) (A) (A) (A) (A) (A) (A) (A) (A) (A)
                 (A) (A) (A) (A) (A) (A) (A) (A) (A) (A) (A) (A)
                 (A) (A) (A) (A) (A) (A) (A) (A) (A) (A) (A) (A)
                 (A) (A) (A) (A) (A) (A) (A) (A) (A) (A) (A) (A)
                 (A) (A) (A) (A) (A) (A) (A) (A) (A) (A) (A) (A)
                 (A) (A) (A) (A) (A) (A) (A) (A) (A) (A) (A) (A)
                 (A) (A) (A) (A) (A) (A) (A) (A) (A) (A) (A) (A)
                 (A) (A) (A) (A) (A) (A) (A) (A) (A) (A) (A) (A)
                 (A) (A) (A) (A) (A) (A) (A) (A) (A) (A) (A) (A)
                 (A) (A) (A) (A) (A) (A) (A) (A) (A) (A) (A) (A)
                 (A) (A) (A) (A) (A) (A) (A) (A) (A) (A) (A) (A)
                 (A) (A) (A) (A) (A) (A) (A) (A) (A) (A) (A) (A)
                 (A) (A) (A) (A) (A) (A) (A) (A) (A) (A) (A) (A)
                 (A) (A) (A) (A) (A) (A) (A) (A) (A) (A) (A) (A)
                 (A) (A) (A) (A) (A) (A) (A) (A) (A) (A) (A) (A)
                 (A) (A) (A) (A) (A) (A) (A) (A) (A) (A) (A) (A)
                 (A) (A) (A) (A) (A) (A) (A) (A) (A) (A) (A) (A)
                 (A) (A) (A) (A) (A) (A) (A) (A) (A) (A) (A) (A)
                 (A) (A) (A) (A) (A) (A) (A) (A) (A) (A) (A) (A)
                 (A) (A) (A) (A) (A) (A) (A) (A) (A) (A) (A) (A)
                 (A) (A) (A) (A) (A) (A) (A) (A) (A) (A) (A) (A)
                 (A) (A) (A) (A) (A) (A) (A) (A) (A) (A) (A) (A)
                 (A) (A) (A) (A)
 The electronic state is 1-A.
 Alpha  occ. eigenvalues --  -19.15326 -19.14145 -10.23781 -10.23527 -10.23452
 Alpha  occ. eigenvalues --  -10.23319 -10.19501 -10.18929 -10.17821  -1.08110
 Alpha  occ. eigenvalues --   -1.03848  -0.80437  -0.78074  -0.69791  -0.64870
 Alpha  occ. eigenvalues --   -0.63316  -0.58291  -0.55060  -0.51155  -0.48898
 Alpha  occ. eigenvalues --   -0.48673  -0.45300  -0.42930  -0.41788  -0.39099
 Alpha  occ. eigenvalues --   -0.38434  -0.37625  -0.35409  -0.35066  -0.33404
 Alpha  occ. eigenvalues --   -0.31321  -0.29138  -0.27166  -0.24107
 Alpha virt. eigenvalues --    0.07931   0.08917   0.11125   0.11654   0.12148
 Alpha virt. eigenvalues --    0.13398   0.14145   0.15075   0.15993   0.16329
 Alpha virt. eigenvalues --    0.16845   0.18090   0.18561   0.20555   0.21287
 Alpha virt. eigenvalues --    0.22923   0.24148   0.26077   0.27353   0.30852
 Alpha virt. eigenvalues --    0.38723   0.42320   0.42970   0.44624   0.46666
 Alpha virt. eigenvalues --    0.47610   0.47952   0.48670   0.50230   0.53042
 Alpha virt. eigenvalues --    0.53101   0.54070   0.55347   0.57375   0.58430
 Alpha virt. eigenvalues --    0.59510   0.62462   0.63675   0.66644   0.67656
 Alpha virt. eigenvalues --    0.69939   0.71316   0.72516   0.73815   0.74959
 Alpha virt. eigenvalues --    0.76031   0.76418   0.77726   0.78741   0.79456
 Alpha virt. eigenvalues --    0.80166   0.83690   0.83912   0.85315   0.88802
 Alpha virt. eigenvalues --    0.90148   0.94297   0.95643   0.97278   0.98405
 Alpha virt. eigenvalues --    0.99967   1.03657   1.05561   1.10359   1.12248
 Alpha virt. eigenvalues --    1.15450   1.16435   1.19323   1.20538   1.21713
 Alpha virt. eigenvalues --    1.23500   1.25826   1.29462   1.32048   1.35195
 Alpha virt. eigenvalues --    1.35926   1.37940   1.38602   1.40658   1.43065
 Alpha virt. eigenvalues --    1.45048   1.45752   1.47163   1.48270   1.51147
 Alpha virt. eigenvalues --    1.51756   1.54578   1.56264   1.58758   1.60015
 Alpha virt. eigenvalues --    1.61675   1.63547   1.65113   1.67002   1.69460
 Alpha virt. eigenvalues --    1.71421   1.72843   1.75284   1.75933   1.77232
 Alpha virt. eigenvalues --    1.80911   1.82750   1.86449   1.87490   1.89819
 Alpha virt. eigenvalues --    1.92395   1.95107   1.99108   2.00095   2.12523
 Alpha virt. eigenvalues --    2.14235   2.20272   2.22331   2.24265   2.27939
 Alpha virt. eigenvalues --    2.29508   2.33248   2.36430   2.40784   2.42825
 Alpha virt. eigenvalues --    2.46697   2.50553   2.51130   2.54727   2.58797
 Alpha virt. eigenvalues --    2.62178   2.66918   2.68605   2.72280   2.73201
 Alpha virt. eigenvalues --    2.74251   2.76017   2.77758   2.79674   2.85659
 Alpha virt. eigenvalues --    2.86478   2.88146   2.90321   2.91237   2.92233
 Alpha virt. eigenvalues --    2.94019   2.94565   2.97683   2.97735   3.02185
 Alpha virt. eigenvalues --    3.03251   3.07680   3.10481   3.11038   3.15576
 Alpha virt. eigenvalues --    3.16475   3.17651   3.19682   3.23269   3.25055
 Alpha virt. eigenvalues --    3.30076   3.33353   3.33962   3.37200   3.39102
 Alpha virt. eigenvalues --    3.40149   3.41929   3.45755   3.49492   3.50645
 Alpha virt. eigenvalues --    3.54584   3.56852   3.57711   3.58571   3.63706
 Alpha virt. eigenvalues --    3.64518   3.68448   3.71856   3.78305   3.81638
 Alpha virt. eigenvalues --    3.84906   3.88951   3.91477   3.92362   3.98267
 Alpha virt. eigenvalues --    3.99037   4.01617   4.08244   4.11918   4.16086
 Alpha virt. eigenvalues --    4.22765   4.24315   4.27614   4.29856   4.33398
 Alpha virt. eigenvalues --    4.35117   4.36573   4.36824   4.39918   4.42304
 Alpha virt. eigenvalues --    4.43449   4.46993   4.47981   4.49306   4.51065
 Alpha virt. eigenvalues --    4.52339   4.53304   4.55136   4.56887   4.58461
 Alpha virt. eigenvalues --    4.59718   4.62888   4.63516   4.63936   4.67028
 Alpha virt. eigenvalues --    4.69761   4.70575   4.72485   4.74753   4.75684
 Alpha virt. eigenvalues --    4.77523   4.79517   4.81144   4.83342   4.84249
 Alpha virt. eigenvalues --    4.88707   4.90307   4.93891   4.95291   4.98346
 Alpha virt. eigenvalues --    4.99995   5.01467   5.04359   5.07914   5.12867
 Alpha virt. eigenvalues --    5.15059   5.21313   5.25839   5.27674   5.31663
 Alpha virt. eigenvalues --    5.33936   5.42527   5.47739   5.49291   5.50632
 Alpha virt. eigenvalues --    5.52841   5.53856   5.56501   5.65218   5.72250
 Alpha virt. eigenvalues --    5.82405   5.88122   5.92189   5.98310   6.01654
 Alpha virt. eigenvalues --    6.05499   6.09316   6.10810   6.15621   6.23636
 Alpha virt. eigenvalues --    6.38148   6.77731   6.91367   7.29275  10.77662
 Alpha virt. eigenvalues --   11.27596  11.60913  11.68159  11.98728  12.54412
 Alpha virt. eigenvalues --   12.84676  13.19820  13.66061
          Condensed to atoms (all electrons):
               1          2          3          4          5          6
     1  C    5.011103   0.402102  -0.022525   0.002465   0.000114   0.000000
     2  C    0.402102   4.611704   0.353924  -0.048048   0.004411  -0.000182
     3  C   -0.022525   0.353924   5.073077   0.361505  -0.006741   0.003126
     4  C    0.002465  -0.048048   0.361505   4.975883   0.350722  -0.022976
     5  C    0.000114   0.004411  -0.006741   0.350722   4.764717   0.289161
     6  O    0.000000  -0.000182   0.003126  -0.022976   0.289161   7.790631
     7  C   -0.000073   0.002246  -0.003349  -0.088187   0.314205   0.251422
     8  C    0.003454  -0.105894  -0.050670   0.361729  -0.049775  -0.027473
     9  O   -0.028445   0.363614  -0.053148  -0.036507   0.001932   0.001478
    10  H    0.371550  -0.017458   0.004557  -0.000109   0.000004   0.000000
    11  H    0.363889  -0.019228  -0.009553  -0.000057  -0.000002   0.000000
    12  H    0.363851  -0.019782  -0.002161   0.000168  -0.000010   0.000000
    13  H   -0.057355   0.364141  -0.063735  -0.005972   0.001252  -0.000191
    14  H    0.002859  -0.020536   0.354725  -0.023082  -0.008834   0.000035
    15  H   -0.011269  -0.020611   0.345247  -0.015564   0.002656  -0.000064
    16  H   -0.000095   0.005494  -0.038373   0.351833  -0.033094  -0.000404
    17  H    0.000000  -0.000584   0.000508  -0.052373   0.369051  -0.021145
    18  H   -0.000007  -0.000704   0.000735   0.007695  -0.028442  -0.020125
    19  H   -0.000214   0.007594   0.003235  -0.031065   0.005520   0.001877
               7          8          9         10         11         12
     1  C   -0.000073   0.003454  -0.028445   0.371550   0.363889   0.363851
     2  C    0.002246  -0.105894   0.363614  -0.017458  -0.019228  -0.019782
     3  C   -0.003349  -0.050670  -0.053148   0.004557  -0.009553  -0.002161
     4  C   -0.088187   0.361729  -0.036507  -0.000109  -0.000057   0.000168
     5  C    0.314205  -0.049775   0.001932   0.000004  -0.000002  -0.000010
     6  O    0.251422  -0.027473   0.001478   0.000000   0.000000   0.000000
     7  C    4.974865   0.286035  -0.031916  -0.000019   0.000034   0.000015
     8  C    0.286035   4.837436   0.368029  -0.000025   0.000745  -0.000212
     9  O   -0.031916   0.368029   7.739592  -0.000145   0.001571   0.002281
    10  H   -0.000019  -0.000025  -0.000145   0.580384  -0.031187  -0.030498
    11  H    0.000034   0.000745   0.001571  -0.031187   0.586110  -0.028469
    12  H    0.000015  -0.000212   0.002281  -0.030498  -0.028469   0.597092
    13  H    0.006961   0.003249  -0.037113  -0.004069   0.006567   0.001362
    14  H    0.000803   0.003214   0.002961  -0.000173  -0.000041   0.000474
    15  H    0.000321   0.001819  -0.000259  -0.000016   0.006956   0.000258
    16  H    0.005029  -0.025120   0.002026   0.000003  -0.000019   0.000001
    17  H   -0.024714   0.004270   0.000157   0.000000   0.000000   0.000000
    18  H    0.375854  -0.050577   0.001144   0.000001   0.000000   0.000000
    19  H   -0.053971   0.357485  -0.024567   0.000008  -0.000047   0.000002
              13         14         15         16         17         18
     1  C   -0.057355   0.002859  -0.011269  -0.000095   0.000000  -0.000007
     2  C    0.364141  -0.020536  -0.020611   0.005494  -0.000584  -0.000704
     3  C   -0.063735   0.354725   0.345247  -0.038373   0.000508   0.000735
     4  C   -0.005972  -0.023082  -0.015564   0.351833  -0.052373   0.007695
     5  C    0.001252  -0.008834   0.002656  -0.033094   0.369051  -0.028442
     6  O   -0.000191   0.000035  -0.000064  -0.000404  -0.021145  -0.020125
     7  C    0.006961   0.000803   0.000321   0.005029  -0.024714   0.375854
     8  C    0.003249   0.003214   0.001819  -0.025120   0.004270  -0.050577
     9  O   -0.037113   0.002961  -0.000259   0.002026   0.000157   0.001144
    10  H   -0.004069  -0.000173  -0.000016   0.000003   0.000000   0.000001
    11  H    0.006567  -0.000041   0.006956  -0.000019   0.000000   0.000000
    12  H    0.001362   0.000474   0.000258   0.000001   0.000000   0.000000
    13  H    0.710559  -0.004129   0.006605  -0.000074   0.000275   0.000365
    14  H   -0.004129   0.623373  -0.039751   0.002783   0.002430   0.000028
    15  H    0.006605  -0.039751   0.623922  -0.006974  -0.000139   0.000009
    16  H   -0.000074   0.002783  -0.006974   0.653307   0.001593  -0.000462
    17  H    0.000275   0.002430  -0.000139   0.001593   0.620442  -0.001141
    18  H    0.000365   0.000028   0.000009  -0.000462  -0.001141   0.608428
    19  H   -0.000318  -0.000160   0.000016  -0.001808  -0.000502   0.000976
              19
     1  C   -0.000214
     2  C    0.007594
     3  C    0.003235
     4  C   -0.031065
     5  C    0.005520
     6  O    0.001877
     7  C   -0.053971
     8  C    0.357485
     9  O   -0.024567
    10  H    0.000008
    11  H   -0.000047
    12  H    0.000002
    13  H   -0.000318
    14  H   -0.000160
    15  H    0.000016
    16  H   -0.001808
    17  H   -0.000502
    18  H    0.000976
    19  H    0.645385
 Mulliken charges:
               1
     1  C   -0.401401
     2  C    0.137798
     3  C   -0.250383
     4  C   -0.088059
     5  C    0.023153
     6  O   -0.245170
     7  C   -0.015563
     8  C    0.082281
     9  O   -0.272685
    10  H    0.127192
    11  H    0.122731
    12  H    0.115629
    13  H    0.071620
    14  H    0.103021
    15  H    0.106836
    16  H    0.084353
    17  H    0.101871
    18  H    0.106222
    19  H    0.090556
 Sum of Mulliken charges =   0.00000
 Mulliken charges with hydrogens summed into heavy atoms:
               1
     1  C   -0.035850
     2  C    0.209418
     3  C   -0.040527
     4  C   -0.003706
     5  C    0.125023
     6  O   -0.245170
     7  C    0.090658
     8  C    0.172837
     9  O   -0.272685
 Electronic spatial extent (au):  <R**2>=           1128.2592
 Charge=              0.0000 electrons
 Dipole moment (field-independent basis, Debye):
    X=             -1.4769    Y=              1.3040    Z=             -0.9458  Tot=              2.1854
 Quadrupole moment (field-independent basis, Debye-Ang):
   XX=            -58.8869   YY=            -52.3041   ZZ=            -50.8490
   XY=             -1.4495   XZ=             -0.5186   YZ=              0.4278
 Traceless Quadrupole moment (field-independent basis, Debye-Ang):
   XX=             -4.8736   YY=              1.7092   ZZ=              3.1643
   XY=             -1.4495   XZ=             -0.5186   YZ=              0.4278
 Octapole moment (field-independent basis, Debye-Ang**2):
  XXX=            -22.1191  YYY=             -3.1860  ZZZ=              1.7246  XYY=              7.7834
  XXY=              0.2926  XXZ=             -3.7933  XZZ=              4.2555  YZZ=             -1.3405
  YYZ=             -2.3450  XYZ=             -1.3021
 Hexadecapole moment (field-independent basis, Debye-Ang**3):
 XXXX=          -1088.9095 YYYY=           -279.1838 ZZZZ=           -158.6088 XXXY=              8.0905
 XXXZ=             -4.8379 YYYX=             -1.5755 YYYZ=             -1.3672 ZZZX=             -4.5244
 ZZZY=             -1.9571 XXYY=           -206.5039 XXZZ=           -188.8919 YYZZ=            -66.5019
 XXYZ=              0.5927 YYXZ=             -0.8830 ZZXY=             -0.4875
 N-N= 4.758549692818D+02 E-N=-1.938360139074D+03  KE= 4.200409773733D+02
 Calling FoFJK, ICntrl=      2127 FMM=F ISym2X=0 I1Cent= 0 IOpClX= 0 NMat=1 NMatS=1 NMatT=0.
 ***** Axes restored to original set *****
 -------------------------------------------------------------------
 Center     Atomic                   Forces (Hartrees/Bohr)
 Number     Number              X              Y              Z
 -------------------------------------------------------------------
      1        6          -0.000007207    0.000002312    0.000027180
      2        6          -0.000037174   -0.000035031   -0.000042769
      3        6           0.000003016    0.000045468    0.000006753
      4        6           0.000031920   -0.000050971    0.000000702
      5        6           0.000011783    0.000005655    0.000059012
      6        8          -0.000010410    0.000016653    0.000009114
      7        6           0.000038371   -0.000013487   -0.000052383
      8        6          -0.000095245    0.000076450   -0.000003451
      9        8           0.000084705   -0.000007697    0.000046192
     10        1           0.000000563   -0.000013103   -0.000006235
     11        1          -0.000002397   -0.000010304   -0.000004856
     12        1          -0.000001014   -0.000014168   -0.000004797
     13        1          -0.000000017    0.000007052    0.000002001
     14        1          -0.000012029   -0.000007814    0.000006099
     15        1          -0.000005422   -0.000005518   -0.000013443
     16        1          -0.000011053    0.000023494   -0.000006798
     17        1          -0.000004042    0.000002796   -0.000024127
     18        1          -0.000005116   -0.000008286    0.000008615
     19        1           0.000020768   -0.000013499   -0.000006805
 -------------------------------------------------------------------
 Cartesian Forces:  Max     0.000095245 RMS     0.000028732

 GradGradGradGradGradGradGradGradGradGradGradGradGradGradGradGradGradGrad
 Berny optimization.
 FormGI is forming the generalized inverse of G from B-inverse, IUseBI=4.
 Internal  Forces:  Max     0.000056173 RMS     0.000009566
 Search for a local minimum.
 Step number   1 out of a maximum of  114
 All quantities printed in internal units (Hartrees-Bohrs-Radians)
 Mixed Optimization -- En-DIIS/RFO-DIIS
 Second derivative matrix not updated -- first step.
 ITU=  0
     Eigenvalues ---    0.00497   0.00523   0.00846   0.01681   0.01729
     Eigenvalues ---    0.02474   0.02977   0.03765   0.04100   0.04225
     Eigenvalues ---    0.04680   0.05083   0.05446   0.05678   0.05716
     Eigenvalues ---    0.05726   0.06927   0.07826   0.08103   0.08368
     Eigenvalues ---    0.09978   0.11233   0.12888   0.15364   0.15740
     Eigenvalues ---    0.16000   0.16000   0.16000   0.17969   0.19742
     Eigenvalues ---    0.21007   0.22871   0.24079   0.27350   0.27621
     Eigenvalues ---    0.28215   0.28563   0.30528   0.33503   0.34219
     Eigenvalues ---    0.34300   0.34305   0.34343   0.34414   0.34615
     Eigenvalues ---    0.34686   0.35430   0.35494   0.37470   0.38969
     Eigenvalues ---    0.42049
 RFO step:  Lambda=-1.20951670D-07 EMin= 4.96848672D-03
 Linear search not attempted -- first point.
 Iteration  1 RMS(Cart)=  0.00027477 RMS(Int)=  0.00000006
 Iteration  2 RMS(Cart)=  0.00000008 RMS(Int)=  0.00000002
 Variable       Old X    -DE/DX   Delta X   Delta X   Delta X     New X
                                 (Linear)    (Quad)   (Total)
    R1        2.86923  -0.00002   0.00000  -0.00006  -0.00006   2.86917
    R2        2.06637  -0.00001   0.00000  -0.00002  -0.00002   2.06635
    R3        2.06818  -0.00001   0.00000  -0.00002  -0.00002   2.06816
    R4        2.06826   0.00000   0.00000   0.00001   0.00001   2.06827
    R5        2.91210   0.00000   0.00000   0.00002   0.00002   2.91211
    R6        2.70825   0.00004   0.00000   0.00009   0.00009   2.70834
    R7        2.08177  -0.00001   0.00000  -0.00002  -0.00002   2.08174
    R8        2.89318   0.00001   0.00000   0.00006   0.00006   2.89323
    R9        2.06756   0.00000   0.00000  -0.00001  -0.00001   2.06755
   R10        2.06963  -0.00001   0.00000  -0.00002  -0.00002   2.06961
   R11        2.90325  -0.00001   0.00000  -0.00003  -0.00003   2.90322
   R12        2.99187   0.00000   0.00000  -0.00001  -0.00001   2.99186
   R13        2.06188   0.00000   0.00000  -0.00001  -0.00001   2.06187
   R14        2.70657  -0.00001   0.00000   0.00000   0.00000   2.70658
   R15        2.78365  -0.00002   0.00000  -0.00008  -0.00008   2.78357
   R16        2.04982   0.00002   0.00000   0.00006   0.00006   2.04988
   R17        2.70400  -0.00002   0.00000  -0.00005  -0.00005   2.70395
   R18        2.91766   0.00002   0.00000   0.00006   0.00006   2.91771
   R19        2.04881   0.00002   0.00000   0.00005   0.00005   2.04886
   R20        2.65930  -0.00006   0.00000  -0.00015  -0.00015   2.65915
   R21        2.06304   0.00001   0.00000   0.00001   0.00001   2.06306
    A1        1.93111   0.00000   0.00000  -0.00001  -0.00001   1.93110
    A2        1.92642  -0.00001   0.00000  -0.00003  -0.00003   1.92639
    A3        1.92775  -0.00002   0.00000  -0.00012  -0.00012   1.92763
    A4        1.89095   0.00001   0.00000   0.00010   0.00010   1.89106
    A5        1.88990   0.00001   0.00000   0.00003   0.00003   1.88993
    A6        1.89669   0.00001   0.00000   0.00003   0.00003   1.89672
    A7        2.01590   0.00000   0.00000  -0.00003  -0.00003   2.01587
    A8        1.89588   0.00000   0.00000  -0.00002  -0.00002   1.89586
    A9        1.90743   0.00000   0.00000  -0.00004  -0.00004   1.90739
   A10        1.82723   0.00000   0.00000  -0.00004  -0.00004   1.82720
   A11        1.90811   0.00001   0.00000   0.00005   0.00005   1.90816
   A12        1.90578   0.00000   0.00000   0.00009   0.00009   1.90587
   A13        1.81918  -0.00001   0.00000  -0.00004  -0.00004   1.81914
   A14        1.95764   0.00000   0.00000  -0.00013  -0.00013   1.95751
   A15        1.91362   0.00001   0.00000   0.00014   0.00014   1.91376
   A16        1.97744   0.00000   0.00000  -0.00005  -0.00005   1.97739
   A17        1.91428   0.00000   0.00000   0.00008   0.00008   1.91436
   A18        1.88107   0.00000   0.00000   0.00001   0.00001   1.88108
   A19        2.02367   0.00000   0.00000  -0.00006  -0.00006   2.02362
   A20        1.79467   0.00000   0.00000  -0.00007  -0.00007   1.79461
   A21        1.99037   0.00000   0.00000  -0.00009  -0.00009   1.99028
   A22        1.53158   0.00000   0.00000   0.00005   0.00005   1.53163
   A23        2.00270   0.00001   0.00000   0.00013   0.00013   2.00284
   A24        2.06811   0.00000   0.00000   0.00005   0.00005   2.06815
   A25        1.86443   0.00000   0.00000   0.00013   0.00013   1.86456
   A26        1.61544   0.00001   0.00000  -0.00002  -0.00002   1.61542
   A27        2.25664  -0.00001   0.00000  -0.00011  -0.00011   2.25653
   A28        2.04659   0.00001   0.00000   0.00007   0.00007   2.04665
   A29        2.28170   0.00000   0.00000   0.00001   0.00001   2.28171
   A30        1.59774   0.00000   0.00000   0.00004   0.00004   1.59778
   A31        2.29410   0.00001   0.00000   0.00001   0.00001   2.29411
   A32        1.85278   0.00000   0.00000  -0.00013  -0.00013   1.85265
   A33        2.06149   0.00000   0.00000   0.00003   0.00003   2.06151
   A34        2.25609   0.00000   0.00000   0.00001   0.00001   2.25611
   A35        1.53842  -0.00001   0.00000  -0.00007  -0.00007   1.53835
   A36        1.87951   0.00002   0.00000   0.00009   0.00009   1.87961
   A37        2.09224   0.00000   0.00000  -0.00011  -0.00011   2.09212
   A38        2.01123   0.00000   0.00000   0.00008   0.00008   2.01131
   A39        2.02085   0.00000   0.00000  -0.00013  -0.00013   2.02072
   A40        1.90112   0.00000   0.00000   0.00012   0.00012   1.90124
   A41        1.90798  -0.00001   0.00000  -0.00019  -0.00019   1.90779
    D1       -3.07806   0.00000   0.00000  -0.00023  -0.00023  -3.07828
    D2       -1.03227  -0.00001   0.00000  -0.00031  -0.00031  -1.03258
    D3        1.04546   0.00000   0.00000  -0.00023  -0.00023   1.04523
    D4       -0.98517   0.00000   0.00000  -0.00012  -0.00012  -0.98529
    D5        1.06061   0.00000   0.00000  -0.00020  -0.00020   1.06041
    D6        3.13834   0.00000   0.00000  -0.00013  -0.00013   3.13822
    D7        1.11270   0.00000   0.00000  -0.00018  -0.00018   1.11252
    D8       -3.12470   0.00000   0.00000  -0.00026  -0.00026  -3.12497
    D9       -1.04697   0.00000   0.00000  -0.00019  -0.00019  -1.04716
   D10        2.64408   0.00000   0.00000   0.00013   0.00013   2.64420
   D11       -1.49320   0.00000   0.00000  -0.00004  -0.00004  -1.49324
   D12        0.59594   0.00000   0.00000  -0.00001  -0.00001   0.59593
   D13        0.56015   0.00001   0.00000   0.00019   0.00019   0.56034
   D14        2.70606   0.00000   0.00000   0.00003   0.00003   2.70609
   D15       -1.48799   0.00000   0.00000   0.00006   0.00006  -1.48793
   D16       -1.47979   0.00000   0.00000   0.00008   0.00008  -1.47971
   D17        0.66612  -0.00001   0.00000  -0.00008  -0.00008   0.66603
   D18        2.75526   0.00000   0.00000  -0.00006  -0.00006   2.75520
   D19       -2.74788  -0.00001   0.00000  -0.00041  -0.00041  -2.74829
   D20       -0.58501  -0.00001   0.00000  -0.00048  -0.00048  -0.58549
   D21        1.45654   0.00000   0.00000  -0.00040  -0.00040   1.45614
   D22        1.30451  -0.00001   0.00000   0.00015   0.00015   1.30466
   D23       -0.33241  -0.00001   0.00000   0.00015   0.00015  -0.33227
   D24       -2.59421  -0.00001   0.00000   0.00020   0.00020  -2.59401
   D25       -0.82841   0.00001   0.00000   0.00036   0.00036  -0.82805
   D26       -2.46534   0.00001   0.00000   0.00036   0.00036  -2.46498
   D27        1.55605   0.00001   0.00000   0.00041   0.00041   1.55646
   D28       -2.93100   0.00000   0.00000   0.00033   0.00033  -2.93066
   D29        1.71527   0.00000   0.00000   0.00033   0.00033   1.71559
   D30       -0.54653   0.00000   0.00000   0.00038   0.00038  -0.54615
   D31       -2.81571   0.00000   0.00000   0.00043   0.00043  -2.81528
   D32       -1.79790   0.00000   0.00000   0.00040   0.00040  -1.79750
   D33        0.84996   0.00000   0.00000   0.00020   0.00020   0.85016
   D34       -1.01489   0.00000   0.00000   0.00037   0.00037  -1.01452
   D35        0.00292   0.00000   0.00000   0.00034   0.00034   0.00326
   D36        2.65077   0.00000   0.00000   0.00015   0.00015   2.65092
   D37        1.08833   0.00000   0.00000   0.00048   0.00048   1.08881
   D38        2.10614   0.00000   0.00000   0.00045   0.00045   2.10659
   D39       -1.52919   0.00001   0.00000   0.00025   0.00025  -1.52894
   D40        2.02379   0.00000   0.00000  -0.00038  -0.00038   2.02342
   D41        0.00030   0.00000   0.00000  -0.00045  -0.00045  -0.00015
   D42       -2.18412  -0.00001   0.00000  -0.00061  -0.00061  -2.18473
   D43       -0.00279   0.00000   0.00000  -0.00033  -0.00033  -0.00311
   D44       -2.02628   0.00000   0.00000  -0.00040  -0.00040  -2.02667
   D45        2.07248  -0.00001   0.00000  -0.00056  -0.00056   2.07193
   D46       -2.04637   0.00000   0.00000  -0.00052  -0.00052  -2.04689
   D47        2.21333  -0.00001   0.00000  -0.00059  -0.00059   2.21274
   D48        0.02890  -0.00001   0.00000  -0.00075  -0.00075   0.02815
   D49       -0.00299   0.00000   0.00000  -0.00035  -0.00035  -0.00334
   D50        2.61976   0.00000   0.00000  -0.00022  -0.00022   2.61954
   D51       -2.63937   0.00001   0.00000  -0.00010  -0.00010  -2.63947
   D52       -0.01661   0.00000   0.00000   0.00003   0.00003  -0.01658
   D53        0.00290   0.00000   0.00000   0.00034   0.00034   0.00324
   D54        1.90028   0.00001   0.00000   0.00042   0.00042   1.90070
   D55       -2.13579   0.00001   0.00000   0.00054   0.00054  -2.13525
   D56        1.01826   0.00000   0.00000   0.00040   0.00040   1.01866
   D57        2.91563   0.00001   0.00000   0.00048   0.00048   2.91612
   D58       -1.12044   0.00001   0.00000   0.00061   0.00061  -1.11983
   D59       -2.63791   0.00000   0.00000   0.00021   0.00021  -2.63770
   D60       -0.74054   0.00001   0.00000   0.00029   0.00029  -0.74024
   D61        1.50658   0.00001   0.00000   0.00042   0.00042   1.50700
   D62        0.36819   0.00001   0.00000   0.00058   0.00058   0.36877
   D63       -1.31559   0.00001   0.00000   0.00058   0.00058  -1.31501
   D64        2.66258   0.00001   0.00000   0.00058   0.00058   2.66317
         Item               Value     Threshold  Converged?
 Maximum Force            0.000056     0.000450     YES
 RMS     Force            0.000010     0.000300     YES
 Maximum Displacement     0.001304     0.001800     YES
 RMS     Displacement     0.000275     0.001200     YES
 Predicted change in Energy=-6.046810D-08
 Optimization completed.
    -- Stationary point found.
                           ----------------------------
                           !   Optimized Parameters   !
                           ! (Angstroms and Degrees)  !
 --------------------------                            --------------------------
 ! Name  Definition              Value          Derivative Info.                !
 --------------------------------------------------------------------------------
 ! R1    R(1,2)                  1.5183         -DE/DX =    0.0                 !
 ! R2    R(1,10)                 1.0935         -DE/DX =    0.0                 !
 ! R3    R(1,11)                 1.0944         -DE/DX =    0.0                 !
 ! R4    R(1,12)                 1.0945         -DE/DX =    0.0                 !
 ! R5    R(2,3)                  1.541          -DE/DX =    0.0                 !
 ! R6    R(2,9)                  1.4331         -DE/DX =    0.0                 !
 ! R7    R(2,13)                 1.1016         -DE/DX =    0.0                 !
 ! R8    R(3,4)                  1.531          -DE/DX =    0.0                 !
 ! R9    R(3,14)                 1.0941         -DE/DX =    0.0                 !
 ! R10   R(3,15)                 1.0952         -DE/DX =    0.0                 !
 ! R11   R(4,5)                  1.5363         -DE/DX =    0.0                 !
 ! R12   R(4,8)                  1.5832         -DE/DX =    0.0                 !
 ! R13   R(4,16)                 1.0911         -DE/DX =    0.0                 !
 ! R14   R(5,6)                  1.4323         -DE/DX =    0.0                 !
 ! R15   R(5,7)                  1.473          -DE/DX =    0.0                 !
 ! R16   R(5,17)                 1.0847         -DE/DX =    0.0                 !
 ! R17   R(6,7)                  1.4309         -DE/DX =    0.0                 !
 ! R18   R(7,8)                  1.544          -DE/DX =    0.0                 !
 ! R19   R(7,18)                 1.0842         -DE/DX =    0.0                 !
 ! R20   R(8,9)                  1.4072         -DE/DX =   -0.0001              !
 ! R21   R(8,19)                 1.0917         -DE/DX =    0.0                 !
 ! A1    A(2,1,10)             110.6445         -DE/DX =    0.0                 !
 ! A2    A(2,1,11)             110.3756         -DE/DX =    0.0                 !
 ! A3    A(2,1,12)             110.4517         -DE/DX =    0.0                 !
 ! A4    A(10,1,11)            108.3435         -DE/DX =    0.0                 !
 ! A5    A(10,1,12)            108.2832         -DE/DX =    0.0                 !
 ! A6    A(11,1,12)            108.6722         -DE/DX =    0.0                 !
 ! A7    A(1,2,3)              115.5025         -DE/DX =    0.0                 !
 ! A8    A(1,2,9)              108.6257         -DE/DX =    0.0                 !
 ! A9    A(1,2,13)             109.2879         -DE/DX =    0.0                 !
 ! A10   A(3,2,9)              104.6928         -DE/DX =    0.0                 !
 ! A11   A(3,2,13)             109.3266         -DE/DX =    0.0                 !
 ! A12   A(9,2,13)             109.1931         -DE/DX =    0.0                 !
 ! A13   A(2,3,4)              104.2316         -DE/DX =    0.0                 !
 ! A14   A(2,3,14)             112.1643         -DE/DX =    0.0                 !
 ! A15   A(2,3,15)             109.6421         -DE/DX =    0.0                 !
 ! A16   A(4,3,14)             113.299          -DE/DX =    0.0                 !
 ! A17   A(4,3,15)             109.6801         -DE/DX =    0.0                 !
 ! A18   A(14,3,15)            107.7773         -DE/DX =    0.0                 !
 ! A19   A(3,4,5)              115.948          -DE/DX =    0.0                 !
 ! A20   A(3,4,8)              102.8272         -DE/DX =    0.0                 !
 ! A21   A(3,4,16)             114.04           -DE/DX =    0.0                 !
 ! A22   A(5,4,8)               87.753          -DE/DX =    0.0                 !
 ! A23   A(5,4,16)             114.7465         -DE/DX =    0.0                 !
 ! A24   A(8,4,16)             118.4939         -DE/DX =    0.0                 !
 ! A25   A(4,5,6)              106.8239         -DE/DX =    0.0                 !
 ! A26   A(4,5,7)               92.5578         -DE/DX =    0.0                 !
 ! A27   A(4,5,17)             129.2958         -DE/DX =    0.0                 !
 ! A28   A(6,5,17)             117.2607         -DE/DX =    0.0                 !
 ! A29   A(7,5,17)             130.7316         -DE/DX =    0.0                 !
 ! A30   A(5,7,8)               91.5437         -DE/DX =    0.0                 !
 ! A31   A(5,7,18)             131.4423         -DE/DX =    0.0                 !
 ! A32   A(6,7,8)              106.1566         -DE/DX =    0.0                 !
 ! A33   A(6,7,18)             118.1146         -DE/DX =    0.0                 !
 ! A34   A(8,7,18)             129.2647         -DE/DX =    0.0                 !
 ! A35   A(4,8,7)               88.145          -DE/DX =    0.0                 !
 ! A36   A(4,8,9)              107.6882         -DE/DX =    0.0                 !
 ! A37   A(4,8,19)             119.8765         -DE/DX =    0.0                 !
 ! A38   A(7,8,9)              115.2349         -DE/DX =    0.0                 !
 ! A39   A(7,8,19)             115.7863         -DE/DX =    0.0                 !
 ! A40   A(9,8,19)             108.9264         -DE/DX =    0.0                 !
 ! A41   A(2,9,8)              109.3189         -DE/DX =    0.0                 !
 ! D1    D(10,1,2,3)          -176.3596         -DE/DX =    0.0                 !
 ! D2    D(10,1,2,9)           -59.145          -DE/DX =    0.0                 !
 ! D3    D(10,1,2,13)           59.9004         -DE/DX =    0.0                 !
 ! D4    D(11,1,2,3)           -56.4462         -DE/DX =    0.0                 !
 ! D5    D(11,1,2,9)            60.7684         -DE/DX =    0.0                 !
 ! D6    D(11,1,2,13)          179.8138         -DE/DX =    0.0                 !
 ! D7    D(12,1,2,3)            63.753          -DE/DX =    0.0                 !
 ! D8    D(12,1,2,9)          -179.0324         -DE/DX =    0.0                 !
 ! D9    D(12,1,2,13)          -59.987          -DE/DX =    0.0                 !
 ! D10   D(1,2,3,4)            151.4944         -DE/DX =    0.0                 !
 ! D11   D(1,2,3,14)           -85.5541         -DE/DX =    0.0                 !
 ! D12   D(1,2,3,15)            34.1448         -DE/DX =    0.0                 !
 ! D13   D(9,2,3,4)             32.0942         -DE/DX =    0.0                 !
 ! D14   D(9,2,3,14)           155.0457         -DE/DX =    0.0                 !
 ! D15   D(9,2,3,15)           -85.2554         -DE/DX =    0.0                 !
 ! D16   D(13,2,3,4)           -84.7859         -DE/DX =    0.0                 !
 ! D17   D(13,2,3,14)           38.1656         -DE/DX =    0.0                 !
 ! D18   D(13,2,3,15)          157.8645         -DE/DX =    0.0                 !
 ! D19   D(1,2,9,8)           -157.4418         -DE/DX =    0.0                 !
 ! D20   D(3,2,9,8)            -33.5186         -DE/DX =    0.0                 !
 ! D21   D(13,2,9,8)            83.4533         -DE/DX =    0.0                 !
 ! D22   D(2,3,4,5)             74.743          -DE/DX =    0.0                 !
 ! D23   D(2,3,4,8)            -19.0458         -DE/DX =    0.0                 !
 ! D24   D(2,3,4,16)          -148.6375         -DE/DX =    0.0                 !
 ! D25   D(14,3,4,5)           -47.4646         -DE/DX =    0.0                 !
 ! D26   D(14,3,4,8)          -141.2534         -DE/DX =    0.0                 !
 ! D27   D(14,3,4,16)           89.1549         -DE/DX =    0.0                 !
 ! D28   D(15,3,4,5)          -167.9337         -DE/DX =    0.0                 !
 ! D29   D(15,3,4,8)            98.2775         -DE/DX =    0.0                 !
 ! D30   D(15,3,4,16)          -31.3141         -DE/DX =    0.0                 !
 ! D31   D(3,4,5,6)           -161.3282         -DE/DX =    0.0                 !
 ! D32   D(3,4,5,7)           -103.0118         -DE/DX =    0.0                 !
 ! D33   D(3,4,5,17)            48.699          -DE/DX =    0.0                 !
 ! D34   D(8,4,5,6)            -58.149          -DE/DX =    0.0                 !
 ! D35   D(8,4,5,7)              0.1674         -DE/DX =    0.0                 !
 ! D36   D(8,4,5,17)           151.8782         -DE/DX =    0.0                 !
 ! D37   D(16,4,5,6)            62.3566         -DE/DX =    0.0                 !
 ! D38   D(16,4,5,7)           120.6731         -DE/DX =    0.0                 !
 ! D39   D(16,4,5,17)          -87.6161         -DE/DX =    0.0                 !
 ! D40   D(3,4,8,7)            115.9548         -DE/DX =    0.0                 !
 ! D41   D(3,4,8,9)              0.0173         -DE/DX =    0.0                 !
 ! D42   D(3,4,8,19)          -125.141          -DE/DX =    0.0                 !
 ! D43   D(5,4,8,7)             -0.1596         -DE/DX =    0.0                 !
 ! D44   D(5,4,8,9)           -116.0972         -DE/DX =    0.0                 !
 ! D45   D(5,4,8,19)           118.7445         -DE/DX =    0.0                 !
 ! D46   D(16,4,8,7)          -117.2482         -DE/DX =    0.0                 !
 ! D47   D(16,4,8,9)           126.8142         -DE/DX =    0.0                 !
 ! D48   D(16,4,8,19)            1.6559         -DE/DX =    0.0                 !
 ! D49   D(4,5,7,8)             -0.1716         -DE/DX =    0.0                 !
 ! D50   D(4,5,7,18)           150.1014         -DE/DX =    0.0                 !
 ! D51   D(17,5,7,8)          -151.2247         -DE/DX =    0.0                 !
 ! D52   D(17,5,7,18)           -0.9517         -DE/DX =    0.0                 !
 ! D53   D(5,7,8,4)              0.1664         -DE/DX =    0.0                 !
 ! D54   D(5,7,8,9)            108.8779         -DE/DX =    0.0                 !
 ! D55   D(5,7,8,19)          -122.3718         -DE/DX =    0.0                 !
 ! D56   D(6,7,8,4)             58.342          -DE/DX =    0.0                 !
 ! D57   D(6,7,8,9)            167.0535         -DE/DX =    0.0                 !
 ! D58   D(6,7,8,19)           -64.1963         -DE/DX =    0.0                 !
 ! D59   D(18,7,8,4)          -151.1411         -DE/DX =    0.0                 !
 ! D60   D(18,7,8,9)           -42.4296         -DE/DX =    0.0                 !
 ! D61   D(18,7,8,19)           86.3206         -DE/DX =    0.0                 !
 ! D62   D(4,8,9,2)             21.0957         -DE/DX =    0.0                 !
 ! D63   D(7,8,9,2)            -75.3779         -DE/DX =    0.0                 !
 ! D64   D(19,8,9,2)           152.5548         -DE/DX =    0.0                 !
 --------------------------------------------------------------------------------
 GradGradGradGradGradGradGradGradGradGradGradGradGradGradGradGradGradGrad

                          Input orientation:                          
 ---------------------------------------------------------------------
 Center     Atomic      Atomic             Coordinates (Angstroms)
 Number     Number       Type             X           Y           Z
 ---------------------------------------------------------------------
      1          6           0        0.296251    0.616449    0.100746
      2          6           0        1.152282   -0.623655   -0.085491
      3          6           0        2.297640   -0.491813   -1.107988
      4          6           0        3.363127   -1.470945   -0.607979
      5          6           0        3.071335   -2.960590   -0.844914
      6          8           0        3.915149   -3.695592    0.049013
      7          6           0        2.683706   -3.175888    0.559810
      8          6           0        2.952424   -1.695091    0.904537
      9          8           0        1.805146   -0.919772    1.155470
     10          1           0       -0.447630    0.457020    0.886185
     11          1           0        0.919185    1.470379    0.384538
     12          1           0       -0.230823    0.860172   -0.826980
     13          1           0        0.507956   -1.471658   -0.367112
     14          1           0        1.964901   -0.698883   -2.129493
     15          1           0        2.695035    0.528511   -1.086114
     16          1           0        4.386796   -1.165162   -0.829564
     17          1           0        2.752103   -3.462273   -1.752118
     18          1           0        1.985106   -3.870094    1.013117
     19          1           0        3.680785   -1.516808    1.697977
 ---------------------------------------------------------------------
                    Distance matrix (angstroms):
                    1          2          3          4          5
     1  C    0.000000
     2  C    1.518332   0.000000
     3  C    2.587439   1.541015   0.000000
     4  C    3.776935   2.424610   1.531003   0.000000
     5  C    4.624995   3.117812   2.600514   1.536334   0.000000
     6  O    5.629636   4.133803   3.770834   2.384412   1.432255
     7  C    4.504720   3.045581   3.183529   2.175356   1.473045
     8  C    3.611724   2.317033   2.434518   1.583232   2.162455
     9  O    2.397745   1.433144   2.355619   2.416784   3.125653
    10  H    1.093476   2.161419   3.523282   4.524538   5.201911
    11  H    1.094432   2.158759   2.824530   3.950865   5.077085
    12  H    1.094479   2.159752   2.880964   4.289353   5.050029
    13  H    2.150325   1.101624   2.170706   2.865314   3.002687
    14  H    3.080334   2.200898   1.094105   2.205929   2.826598
    15  H    2.677786   2.169982   1.095200   2.161663   3.517614
    16  H    4.557650   3.362879   2.212575   1.091101   2.225811
    17  H    5.108844   3.659894   3.073284   2.376509   1.084718
    18  H    4.879930   3.527025   4.001193   3.206682   2.336530
    19  H    4.307784   3.220529   3.291982   2.328185   2.987011
                    6          7          8          9         10
     6  O    0.000000
     7  C    1.430895   0.000000
     8  C    2.379237   1.543959   0.000000
     9  O    3.658078   2.493339   1.407243   0.000000
    10  H    6.081027   4.807266   4.023964   2.653879   0.000000
    11  H    5.981274   4.973133   3.797981   2.663097   1.773902
    12  H    6.221851   5.167925   4.434025   3.353130   1.773266
    13  H    4.089989   2.915043   2.764497   2.074979   2.490722
    14  H    4.186839   3.726203   3.342599   3.296254   4.031219
    15  H    4.540952   4.053612   2.995555   2.813205   3.710986
    16  H    2.719820   2.978908   2.312002   3.265806   5.380236
    17  H    2.156661   2.330602   3.197011   3.976821   5.706119
    18  H    2.164489   1.084182   2.382883   2.959231   4.965706
    19  H    2.742465   2.245471   1.091715   2.041761   4.647452
                   11         12         13         14         15
    11  H    0.000000
    12  H    1.778383   0.000000
    13  H    3.064256   2.488916   0.000000
    14  H    3.481317   2.991387   2.413681   0.000000
    15  H    2.490698   2.955976   3.049747   1.768680   0.000000
    16  H    4.521554   5.042260   3.918316   2.787975   2.407572
    17  H    5.679432   5.332660   3.304087   2.898004   4.046379
    18  H    5.481966   5.538205   3.136798   4.464638   4.925292
    19  H    4.274908   5.227439   3.785958   4.273498   3.592520
                   16         17         18         19
    16  H    0.000000
    17  H    2.966487   0.000000
    18  H    4.059586   2.898470   0.000000
    19  H    2.647748   4.068224   2.980322   0.000000
 Stoichiometry    C7H10O2
 Framework group  C1[X(C7H10O2)]
 Deg. of freedom    51
 Full point group                 C1      NOp   1
 Largest Abelian subgroup         C1      NOp   1
 Largest concise Abelian subgroup C1      NOp   1
                         Standard orientation:                         
 ---------------------------------------------------------------------
 Center     Atomic      Atomic             Coordinates (Angstroms)
 Number     Number       Type             X           Y           Z
 ---------------------------------------------------------------------
      1          6           0       -2.952964   -0.154036   -0.266498
      2          6           0       -1.445461   -0.026822   -0.395275
      3          6           0       -0.836129    1.262526    0.188697
      4          6           0        0.581898    0.856444    0.598901
      5          6           0        1.588063    0.676826   -0.548135
      6          8           0        2.671510   -0.104048   -0.030703
      7          6           0        1.501095   -0.792182   -0.482435
      8          6           0        0.486244   -0.721864    0.679004
      9          8           0       -0.831490   -1.087744    0.347279
     10          1           0       -3.292059   -1.121679   -0.646462
     11          1           0       -3.254147   -0.071140    0.782405
     12          1           0       -3.453452    0.633800   -0.838083
     13          1           0       -1.162051   -0.116050   -1.456073
     14          1           0       -0.859469    2.090599   -0.526017
     15          1           0       -1.402732    1.569165    1.074358
     16          1           0        0.967083    1.399133    1.463553
     17          1           0        1.804702    1.336469   -1.381533
     18          1           0        1.618424   -1.552834   -1.246039
     19          1           0        0.777066   -1.238479    1.595723
 ---------------------------------------------------------------------
 Rotational constants (GHZ):      4.2936456      1.2416642      1.1105961
 1\1\GINC-ALCHEMY-TC\FOpt\RB3LYP\6-31G(2df,p)\C7H10O2\PUCK\28-Jan-2020\
 0\\# b3lyp 6-31G(2df,p) opt Freq\\titel\\0,1\C,0.2962505426,0.61644862
 1,0.1007460739\C,1.1522818778,-0.6236551279,-0.0854909324\C,2.29764030
 35,-0.491812981,-1.1079878384\C,3.3631271931,-1.4709453714,-0.60797882
 22\C,3.0713352154,-2.9605900064,-0.8449144719\O,3.9151490259,-3.695592
 3857,0.0490125383\C,2.6837056229,-3.175888263,0.5598102789\C,2.9524242
 272,-1.695090537,0.9045373505\O,1.8051464526,-0.9197718511,1.155469741
 9\H,-0.4476303036,0.4570198432,0.8861846649\H,0.9191845914,1.470378804
 3,0.3845383113\H,-0.2308229143,0.8601719861,-0.8269800909\H,0.50795561
 93,-1.4716577621,-0.3671120719\H,1.9649009936,-0.6988826729,-2.1294927
 212\H,2.6950350539,0.5285111621,-1.0861141234\H,4.3867957722,-1.165162
 3814,-0.8295638784\H,2.7521027302,-3.4622734784,-1.7521181129\H,1.9851
 064299,-3.8700940399,1.0131173959\H,3.6807849463,-1.5168075188,1.69797
 74877\\Version=ES64L-G09RevD.01\State=1-A\HF=-423.1574348\RMSD=2.259e-
 09\RMSF=2.873e-05\Dipole=-0.4987153,0.360965,-0.6002229\Quadrupole=-0.
 5136861,-0.6510799,1.164766,3.0991299,0.6716287,-0.6873975\PG=C01 [X(C
 7H10O2)]\\@


 FRICTION IS A DRAG,
 AND ENTROPY AIN'T WHAT IT USED TO BE.
 Job cpu time:       0 days  0 hours  8 minutes 24.8 seconds.
 File lengths (MBytes):  RWF=     52 Int=      0 D2E=      0 Chk=      7 Scr=      1
 Normal termination of Gaussian 09 at Tue Jan 28 02:56:48 2020.
 Link1:  Proceeding to internal job step number  2.
 ----------------------------------------------------------------------
 #N Geom=AllCheck Guess=TCheck SCRF=Check GenChk RB3LYP/6-31G(2df,p) Fr
 eq
 ----------------------------------------------------------------------
 1/10=4,29=7,30=1,38=1,40=1/1,3;
 2/12=2,40=1/2;
 3/5=1,6=6,7=104,11=2,14=-4,16=1,25=1,30=1,70=2,71=2,74=-5,116=1,140=1/1,2,3;
 4/5=101/1;
 5/5=2,98=1/2;
 8/6=4,10=90,11=11/1;
 11/6=1,8=1,9=11,15=111,16=1/1,2,10;
 10/6=1/2;
 6/7=2,8=2,9=2,10=2,18=1,28=1/1;
 7/8=1,10=1,25=1/1,2,3,16;
 1/10=4,30=1/3;
 99//99;
 Structure from the checkpoint file:  "/scratch/puck/g09_c998592f-d4f7-44bc-9a62-f774cd54ed48/Gau-89749.chk"
 -----
 titel
 -----
 Charge =  0 Multiplicity = 1
 Redundant internal coordinates found in file.
 C,0,0.2962505426,0.616448621,0.1007460739
 C,0,1.1522818778,-0.6236551279,-0.0854909324
 C,0,2.2976403035,-0.491812981,-1.1079878384
 C,0,3.3631271931,-1.4709453714,-0.6079788222
 C,0,3.0713352154,-2.9605900064,-0.8449144719
 O,0,3.9151490259,-3.6955923857,0.0490125383
 C,0,2.6837056229,-3.175888263,0.5598102789
 C,0,2.9524242272,-1.695090537,0.9045373505
 O,0,1.8051464526,-0.9197718511,1.1554697419
 H,0,-0.4476303036,0.4570198432,0.8861846649
 H,0,0.9191845914,1.4703788043,0.3845383113
 H,0,-0.2308229143,0.8601719861,-0.8269800909
 H,0,0.5079556193,-1.4716577621,-0.3671120719
 H,0,1.9649009936,-0.6988826729,-2.1294927212
 H,0,2.6950350539,0.5285111621,-1.0861141234
 H,0,4.3867957722,-1.1651623814,-0.8295638784
 H,0,2.7521027302,-3.4622734784,-1.7521181129
 H,0,1.9851064299,-3.8700940399,1.0131173959
 H,0,3.6807849463,-1.5168075188,1.6979774877
 Recover connectivity data from disk.

 GradGradGradGradGradGradGradGradGradGradGradGradGradGradGradGradGradGrad
 Berny optimization.
 Initialization pass.
                           ----------------------------
                           !    Initial Parameters    !
                           ! (Angstroms and Degrees)  !
 --------------------------                            --------------------------
 ! Name  Definition              Value          Derivative Info.                !
 --------------------------------------------------------------------------------
 ! R1    R(1,2)                  1.5183         calculate D2E/DX2 analytically  !
 ! R2    R(1,10)                 1.0935         calculate D2E/DX2 analytically  !
 ! R3    R(1,11)                 1.0944         calculate D2E/DX2 analytically  !
 ! R4    R(1,12)                 1.0945         calculate D2E/DX2 analytically  !
 ! R5    R(2,3)                  1.541          calculate D2E/DX2 analytically  !
 ! R6    R(2,9)                  1.4331         calculate D2E/DX2 analytically  !
 ! R7    R(2,13)                 1.1016         calculate D2E/DX2 analytically  !
 ! R8    R(3,4)                  1.531          calculate D2E/DX2 analytically  !
 ! R9    R(3,14)                 1.0941         calculate D2E/DX2 analytically  !
 ! R10   R(3,15)                 1.0952         calculate D2E/DX2 analytically  !
 ! R11   R(4,5)                  1.5363         calculate D2E/DX2 analytically  !
 ! R12   R(4,8)                  1.5832         calculate D2E/DX2 analytically  !
 ! R13   R(4,16)                 1.0911         calculate D2E/DX2 analytically  !
 ! R14   R(5,6)                  1.4323         calculate D2E/DX2 analytically  !
 ! R15   R(5,7)                  1.473          calculate D2E/DX2 analytically  !
 ! R16   R(5,17)                 1.0847         calculate D2E/DX2 analytically  !
 ! R17   R(6,7)                  1.4309         calculate D2E/DX2 analytically  !
 ! R18   R(7,8)                  1.544          calculate D2E/DX2 analytically  !
 ! R19   R(7,18)                 1.0842         calculate D2E/DX2 analytically  !
 ! R20   R(8,9)                  1.4072         calculate D2E/DX2 analytically  !
 ! R21   R(8,19)                 1.0917         calculate D2E/DX2 analytically  !
 ! A1    A(2,1,10)             110.6445         calculate D2E/DX2 analytically  !
 ! A2    A(2,1,11)             110.3756         calculate D2E/DX2 analytically  !
 ! A3    A(2,1,12)             110.4517         calculate D2E/DX2 analytically  !
 ! A4    A(10,1,11)            108.3435         calculate D2E/DX2 analytically  !
 ! A5    A(10,1,12)            108.2832         calculate D2E/DX2 analytically  !
 ! A6    A(11,1,12)            108.6722         calculate D2E/DX2 analytically  !
 ! A7    A(1,2,3)              115.5025         calculate D2E/DX2 analytically  !
 ! A8    A(1,2,9)              108.6257         calculate D2E/DX2 analytically  !
 ! A9    A(1,2,13)             109.2879         calculate D2E/DX2 analytically  !
 ! A10   A(3,2,9)              104.6928         calculate D2E/DX2 analytically  !
 ! A11   A(3,2,13)             109.3266         calculate D2E/DX2 analytically  !
 ! A12   A(9,2,13)             109.1931         calculate D2E/DX2 analytically  !
 ! A13   A(2,3,4)              104.2316         calculate D2E/DX2 analytically  !
 ! A14   A(2,3,14)             112.1643         calculate D2E/DX2 analytically  !
 ! A15   A(2,3,15)             109.6421         calculate D2E/DX2 analytically  !
 ! A16   A(4,3,14)             113.299          calculate D2E/DX2 analytically  !
 ! A17   A(4,3,15)             109.6801         calculate D2E/DX2 analytically  !
 ! A18   A(14,3,15)            107.7773         calculate D2E/DX2 analytically  !
 ! A19   A(3,4,5)              115.948          calculate D2E/DX2 analytically  !
 ! A20   A(3,4,8)              102.8272         calculate D2E/DX2 analytically  !
 ! A21   A(3,4,16)             114.04           calculate D2E/DX2 analytically  !
 ! A22   A(5,4,8)               87.753          calculate D2E/DX2 analytically  !
 ! A23   A(5,4,16)             114.7465         calculate D2E/DX2 analytically  !
 ! A24   A(8,4,16)             118.4939         calculate D2E/DX2 analytically  !
 ! A25   A(4,5,6)              106.8239         calculate D2E/DX2 analytically  !
 ! A26   A(4,5,7)               92.5578         calculate D2E/DX2 analytically  !
 ! A27   A(4,5,17)             129.2958         calculate D2E/DX2 analytically  !
 ! A28   A(6,5,17)             117.2607         calculate D2E/DX2 analytically  !
 ! A29   A(7,5,17)             130.7316         calculate D2E/DX2 analytically  !
 ! A30   A(5,7,8)               91.5437         calculate D2E/DX2 analytically  !
 ! A31   A(5,7,18)             131.4423         calculate D2E/DX2 analytically  !
 ! A32   A(6,7,8)              106.1566         calculate D2E/DX2 analytically  !
 ! A33   A(6,7,18)             118.1146         calculate D2E/DX2 analytically  !
 ! A34   A(8,7,18)             129.2647         calculate D2E/DX2 analytically  !
 ! A35   A(4,8,7)               88.145          calculate D2E/DX2 analytically  !
 ! A36   A(4,8,9)              107.6882         calculate D2E/DX2 analytically  !
 ! A37   A(4,8,19)             119.8765         calculate D2E/DX2 analytically  !
 ! A38   A(7,8,9)              115.2349         calculate D2E/DX2 analytically  !
 ! A39   A(7,8,19)             115.7863         calculate D2E/DX2 analytically  !
 ! A40   A(9,8,19)             108.9264         calculate D2E/DX2 analytically  !
 ! A41   A(2,9,8)              109.3189         calculate D2E/DX2 analytically  !
 ! D1    D(10,1,2,3)          -176.3596         calculate D2E/DX2 analytically  !
 ! D2    D(10,1,2,9)           -59.145          calculate D2E/DX2 analytically  !
 ! D3    D(10,1,2,13)           59.9004         calculate D2E/DX2 analytically  !
 ! D4    D(11,1,2,3)           -56.4462         calculate D2E/DX2 analytically  !
 ! D5    D(11,1,2,9)            60.7684         calculate D2E/DX2 analytically  !
 ! D6    D(11,1,2,13)          179.8138         calculate D2E/DX2 analytically  !
 ! D7    D(12,1,2,3)            63.753          calculate D2E/DX2 analytically  !
 ! D8    D(12,1,2,9)          -179.0324         calculate D2E/DX2 analytically  !
 ! D9    D(12,1,2,13)          -59.987          calculate D2E/DX2 analytically  !
 ! D10   D(1,2,3,4)            151.4944         calculate D2E/DX2 analytically  !
 ! D11   D(1,2,3,14)           -85.5541         calculate D2E/DX2 analytically  !
 ! D12   D(1,2,3,15)            34.1448         calculate D2E/DX2 analytically  !
 ! D13   D(9,2,3,4)             32.0942         calculate D2E/DX2 analytically  !
 ! D14   D(9,2,3,14)           155.0457         calculate D2E/DX2 analytically  !
 ! D15   D(9,2,3,15)           -85.2554         calculate D2E/DX2 analytically  !
 ! D16   D(13,2,3,4)           -84.7859         calculate D2E/DX2 analytically  !
 ! D17   D(13,2,3,14)           38.1656         calculate D2E/DX2 analytically  !
[...]
 1604,0.00882033,-0.12540246,0.04582003,-0.02419778,0.61553251,0.000001
 72,-0.00002911,0.00023584,0.00690387,0.00271526,-0.00937968,0.03568666
 ,-0.11981668,0.02174216,0.04156561,0.48127917,0.00163732,0.00117243,-0
 .00361824,0.00499437,-0.01199617,0.00667386,-0.02060765,0.01775835,-0.
 08056077,-0.05148947,-0.05464769,0.36062089,-0.00046535,-0.00017164,0.
 00027652,0.00097396,0.00208980,-0.00011793,0.00570378,0.02153211,0.007
 34033,-0.08229076,-0.03288133,-0.01776687,0.27009163,-0.00041657,-0.00
 047203,0.00059239,0.00321118,0.00114995,-0.00103052,0.00243659,-0.0156
 1315,-0.00086571,-0.03522269,-0.15805146,-0.03154050,0.06194687,0.4478
 6505,0.00049290,0.00026106,0.00001615,-0.00088695,-0.00130749,0.001336
 08,0.00106756,0.01302955,0.00284052,-0.00854087,-0.02039556,-0.0565661
 6,0.08913945,0.09480205,0.71166495,0.00041078,0.00034104,-0.00013413,-
 0.00046819,-0.00173640,0.00073296,0.00129766,-0.00235923,0.00092690,0.
 00892388,0.00257569,0.00379392,-0.10730999,0.05971528,-0.10306890,0.31
 210612,0.00048677,0.00019851,0.00013389,-0.00275438,-0.00058061,-0.001
 91682,-0.00472004,-0.00682640,-0.00412570,0.03927167,-0.02363018,0.017
 65925,0.04039418,-0.09858449,0.04912968,-0.13877030,0.20102433,0.00019
 843,-0.00009820,0.00102311,-0.00136242,0.00005101,-0.00400120,0.002208
 38,0.00254117,0.00234765,-0.01036156,0.01693528,-0.00663050,-0.0624415
 7,0.03672392,-0.09717260,0.01875951,-0.03220821,0.16201982,-0.00028581
 ,0.00010091,-0.00071646,0.00197319,0.00286567,0.00253500,-0.00082599,0
 .00182771,0.00092676,-0.01248987,-0.01975534,0.01141224,-0.01915819,-0
 .03929816,0.09444693,-0.18747749,0.04884814,0.03161492,0.45126495,-0.0
 0004488,0.00004831,-0.00035998,0.00235552,-0.00077618,0.00084393,0.000
 89015,0.00079814,-0.00069950,-0.04049708,-0.04490084,0.03302490,-0.023
 25684,-0.01847706,0.01777432,0.04782831,-0.08131910,-0.01728533,0.1591
 7787,0.49576996,-0.00079901,-0.00027894,-0.00056831,0.00213686,0.00158
 804,0.00335861,0.00037388,-0.00100421,-0.00372740,0.02131547,0.0319955
 0,-0.02444706,0.04462270,0.04807702,-0.26003833,0.07527729,-0.03320791
 ,-0.03759979,-0.19934958,-0.07655581,0.48280459,-0.00112679,-0.0016077
 4,0.00027796,-0.03948914,0.02268503,-0.02166805,0.00587523,-0.00310801
 ,-0.01348263,-0.06948757,0.00003742,0.01044297,-0.00042656,-0.00981072
 ,-0.01028595,-0.00459062,0.03752031,0.02735766,-0.08310644,-0.04538841
 ,-0.02047109,0.51170349,0.00120588,-0.00021917,0.00167925,0.01573744,-
 0.01354298,0.01341701,0.00179556,-0.00174938,0.02087061,-0.00104882,-0
 .05658434,0.01702988,-0.00017742,-0.02229759,-0.04026506,0.00913884,-0
 .00863443,-0.00955583,-0.04269992,-0.14719436,-0.03141467,-0.02099145,
 0.42646348,-0.00178213,0.00071311,-0.00652916,-0.02471720,0.01964713,0
 .00241385,-0.01652048,0.01191250,-0.02623675,-0.00157085,0.00652707,-0
 .10853148,0.00286732,-0.04671377,-0.05912856,0.00308173,0.00364662,-0.
 00451098,-0.01113109,-0.01537340,-0.05658803,0.13962513,0.07184985,0.5
 4835234,-0.01579612,0.01068834,-0.02971211,-0.09116258,0.01198128,-0.0
 5032463,0.00106894,0.00357649,0.00700023,-0.02670516,0.01219013,0.0220
 3113,-0.00117461,-0.00096473,0.00156949,0.00077347,-0.00003270,0.00160
 835,0.00062610,0.01248290,0.00127839,-0.15988121,0.06698931,0.03383649
 ,0.32925263,0.01924217,-0.00728992,0.03207020,0.00851422,-0.07110175,0
 .00876040,0.00674351,0.00188105,0.01468620,0.00687605,0.00393797,-0.00
 731692,0.00117545,0.00075260,0.00510397,0.00092043,-0.01041875,-0.0101
 9802,0.03746005,-0.01326857,-0.00215880,0.06870586,-0.10960774,-0.0301
 9462,-0.15015052,0.18910375,-0.00459192,0.00545406,-0.00214715,-0.0173
 5138,-0.00586579,-0.16221990,-0.00252676,0.00459702,-0.05150819,0.0189
 2518,-0.01130038,-0.01646795,0.00044516,0.00305267,-0.00182942,-0.0005
 2955,-0.00109341,0.00143404,0.00388349,-0.00480597,0.00072874,0.003715
 55,-0.01297631,-0.09677383,0.02892594,0.00587089,0.34502580,-0.1682419
 3,-0.02878486,0.12924673,-0.01425638,-0.00372040,0.01387386,-0.0006253
 7,0.00322680,-0.00063188,-0.00022395,-0.00003440,0.00077714,-0.0001480
 7,-0.00019039,-0.00003461,0.00000017,0.00018593,-0.00019842,0.00001631
 ,-0.00002454,0.00010141,-0.00047904,0.00014157,0.00021391,0.00195146,-
 0.00116723,-0.00018797,0.18138238,-0.03015562,-0.05420894,0.03087444,0
 .02076188,0.00430230,-0.02264153,0.00212236,-0.00466825,0.00147464,0.0
 0123339,0.00049489,-0.00101242,0.00005874,0.00023685,-0.00005258,-0.00
 004066,-0.00011087,0.00014965,-0.00003015,0.00002930,-0.00004960,0.000
 25236,-0.00000626,-0.00044904,-0.00230883,0.00151192,-0.00011775,0.029
 33876,0.05699008,0.13043459,0.02913660,-0.18412638,0.00196946,0.000970
 02,-0.00401076,-0.00005749,-0.00107943,0.00122277,-0.00001057,0.000351
 54,-0.00033083,0.00004126,0.00016397,0.00002784,0.00001510,-0.00017763
 ,0.00003877,0.00004199,0.00005546,-0.00001911,-0.00000970,-0.00005676,
 0.00005662,-0.00024645,-0.00012939,0.00103030,-0.14378473,-0.03165446,
 0.19773417,-0.13654609,-0.11931028,-0.03935215,0.01002549,0.01593602,0
 .00564765,0.00175622,0.00086101,-0.00038420,0.00015911,-0.00002724,-0.
 00004927,0.00001331,0.00007308,-0.00014046,-0.00006888,-0.00003440,-0.
 00004527,-0.00003542,-0.00001136,0.00016752,0.00001732,0.00003876,0.00
 024660,0.00140927,-0.00161657,0.00080860,-0.01217018,-0.01585608,-0.00
 695111,0.14558284,-0.11713167,-0.20329932,-0.05215776,-0.01721210,-0.0
 2566421,-0.00921811,-0.00135207,0.00079410,0.00126412,0.00004909,0.000
 31068,0.00005113,-0.00020401,-0.00006035,0.00014753,0.00018911,0.00014
 780,0.00010224,-0.00012484,0.00001464,-0.00024611,0.00005450,0.0001159
 7,-0.00002112,-0.00045103,0.00325399,0.00039484,-0.00220283,-0.0036165
 9,-0.00118465,0.12821875,0.22402090,-0.03821845,-0.05292132,-0.0644145
 1,-0.00317301,-0.00357809,-0.00297168,-0.00107432,-0.00082499,-0.00000
 615,0.00014992,0.00022840,0.00006175,-0.00007911,-0.00006121,-0.000011
 54,0.00006422,0.00004677,-0.00006620,-0.00000113,0.00003289,-0.0000648
 1,-0.00034230,0.00022909,0.00019154,0.00081568,0.00048993,0.00072173,0
 .01339003,0.01881800,0.00674102,0.04190352,0.05981680,0.06546412,-0.10
 654898,0.02832703,-0.10675647,-0.00871137,-0.00014155,-0.01648598,0.00
 069767,-0.00060425,0.00012036,0.00005354,-0.00007736,-0.00014044,0.000
 05925,0.00005420,-0.00007531,-0.00010146,0.00014656,0.00025669,-0.0002
 7140,-0.00005724,-0.00011085,0.00108189,0.00027386,-0.00113620,-0.0031
 6788,0.00437227,0.00066243,0.01186535,-0.00513582,0.01893617,-0.008904
 57,0.00517276,-0.01495792,0.11383888,0.02755266,-0.06042255,0.04716405
 ,0.00962078,-0.00269350,0.02488810,-0.00047702,0.00074892,-0.00005575,
 -0.00014344,-0.00013911,0.00016794,0.00000795,-0.00001199,0.00005506,0
 .00004306,-0.00016876,-0.00022985,0.00017247,0.00014575,0.00017505,-0.
 00031734,0.00008642,0.00170265,0.00561626,-0.00498157,-0.00105614,0.00
 230122,-0.00211006,0.00390759,-0.01128817,0.00674877,-0.02189859,-0.03
 261673,0.06252160,-0.10810006,0.04907621,-0.23745756,0.00286941,-0.001
 51926,0.00307969,0.00000585,0.00005537,0.00008169,-0.00027775,0.000169
 44,0.00011058,-0.00000168,-0.00003465,-0.00005133,-0.00005425,0.000116
 14,0.00004590,-0.00005672,-0.00005790,0.00002601,0.00074300,-0.0002952
 3,0.00041877,0.00060619,-0.00068175,0.00108360,-0.01203558,0.00436593,
 -0.01861811,-0.00217662,0.00184925,-0.00624881,0.11878000,-0.05376784,
 0.25700345,0.01021140,0.01595522,0.00514588,-0.12774005,-0.10508539,-0
 .02671537,-0.01401544,-0.02064497,-0.00191424,0.00063135,-0.00038149,0
 .00014536,-0.00089416,-0.00014413,0.00079959,0.00086687,0.00036272,0.0
 0039272,-0.00028062,0.00012471,-0.00073487,0.00204756,-0.00295071,-0.0
 0155557,-0.01276243,-0.00596275,-0.01670833,0.00088786,-0.00076525,-0.
 00015860,-0.00129072,0.00411196,0.00080486,0.00066486,-0.00113560,-0.0
 0022663,0.14412618,-0.01542740,-0.02366786,-0.00650961,-0.10605431,-0.
 19879183,-0.04151460,-0.00200307,-0.00251465,-0.00064683,-0.00038287,-
 0.00020390,0.00018162,-0.00009268,-0.00078897,0.00030006,0.00071593,0.
 00066240,0.00050509,-0.00035503,-0.00050039,-0.00082643,0.00041910,0.0
 0071950,-0.00000634,0.00542092,0.01269401,0.00081124,0.00013693,0.0013
 5493,-0.00031779,0.00371441,-0.00391174,-0.00068530,0.00000031,0.00052
 883,0.00067771,0.11433744,0.21299538,-0.00155132,-0.00504217,0.0009568
 4,-0.02589410,-0.04046860,-0.05655879,0.01421012,0.01796565,0.00341836
 ,-0.00076153,0.00041935,0.00003310,0.00007223,-0.00010769,0.00036771,0
 .00018235,0.00019115,0.00028704,-0.00019128,0.00020143,-0.00010042,0.0
 0331546,-0.00410212,-0.00156492,-0.03015135,-0.01703679,-0.02386815,-0
 .00058225,0.00005412,-0.00000096,0.00039168,-0.00042759,0.00073006,0.0
 0041184,-0.00025110,0.00029193,0.03787610,0.04697598,0.07617084,-0.000
 17216,-0.00025242,-0.00001134,0.00977972,0.00571154,0.02064406,-0.0705
 2737,-0.01769987,-0.07599923,-0.00574102,-0.00409924,-0.02221537,0.001
 42000,-0.00081749,0.00115434,-0.00006773,-0.00046933,0.00021847,0.0004
 3047,-0.00012420,-0.00045441,-0.00540156,0.00283237,0.00052679,-0.0011
 8229,-0.00215567,0.00677962,-0.00029096,0.00001051,-0.00017355,-0.0000
 3141,-0.00006935,0.00006166,-0.00021978,0.00026031,0.00002892,0.001261
 65,-0.00011473,-0.00084328,0.07433159,-0.00016151,-0.00023085,-0.00030
 339,-0.00007631,-0.00130056,0.00260984,-0.01747849,-0.05703125,-0.0518
 4344,0.00510859,0.00334577,0.02052115,-0.00029080,0.00133805,0.0007455
 8,-0.00038439,0.00031368,-0.00064736,-0.00018843,0.00017796,0.00069650
 ,0.00294564,-0.00192304,0.00246444,0.00096328,0.00023577,0.00154697,0.
 00024307,0.00004267,0.00012875,0.00003702,0.00028467,0.00004195,0.0003
 0021,0.00000665,0.00000724,0.00038188,0.00042778,0.00018580,0.01770076
 ,0.06054629,0.00020761,0.00044622,-0.00051230,-0.01017720,-0.00471348,
 -0.01473928,-0.07326354,-0.04963699,-0.27366939,-0.00111014,-0.0008763
 7,-0.00553676,0.00024856,-0.00069818,0.00062310,-0.00005972,0.00028310
 ,0.00031467,-0.00002522,-0.00034412,-0.00016402,0.00117758,-0.00116740
 ,-0.00121854,0.00052056,0.00262450,-0.00364736,0.00040175,-0.00012544,
 0.00010465,0.00000988,0.00013957,0.00007762,0.00037250,-0.00032282,0.0
 0019686,0.00005431,0.00062749,0.00122777,0.08184367,0.05239254,0.29789
 350,0.00135345,-0.00140922,-0.00128664,-0.01417389,-0.02449815,-0.0019
 2311,-0.07883269,-0.08923312,-0.00292589,0.00695416,0.02575214,0.00156
 563,-0.00325053,0.00011724,-0.00197479,0.00020546,0.00222839,-0.001141
 54,-0.00049977,-0.00044478,0.00017313,-0.00047874,0.00060230,0.0003379
 1,0.00214558,0.00061062,0.00010606,0.00044239,0.00021787,-0.00011032,0
 .00000230,0.00085261,0.00057590,-0.00017909,0.00001567,-0.00014268,-0.
 00325050,-0.00030301,0.00445175,-0.00359786,-0.00886890,0.00006382,0.0
 9157141,0.00149382,0.00113400,-0.00034336,-0.00198488,-0.00266362,-0.0
 0111829,-0.08915800,-0.27119082,-0.00733829,-0.00667103,-0.02065110,-0
 .00149237,0.00361833,0.00146000,0.00163930,-0.00021199,-0.00194462,0.0
 0077635,0.00046485,0.00055454,-0.00034345,0.00007723,-0.00062002,-0.00
 017328,0.00024656,0.00087996,0.00071532,0.00029535,0.00022300,0.000061
 77,-0.00059431,0.00084219,0.00029762,-0.00014694,0.00005220,0.00008061
 ,0.00030337,0.00100489,0.00053370,-0.00221102,-0.00549211,-0.00011452,
 0.09450584,0.29499408,-0.00063436,0.00119991,0.00114655,0.00888949,0.0
 1997113,0.00070860,-0.00335686,-0.00771795,-0.05036424,0.00340957,0.00
 994870,0.00033667,-0.00094423,-0.00030602,-0.00003295,-0.00013291,0.00
 070990,-0.00018736,-0.00020558,-0.00034776,0.00029237,-0.00000654,-0.0
 0005420,0.00052229,-0.00002110,-0.00170843,0.00017052,-0.00030877,0.00
 005825,0.00000520,-0.00007637,-0.00055086,-0.00017731,-0.00006020,-0.0
 0019815,-0.00000233,0.00281562,0.00056200,-0.00191990,-0.01104906,-0.0
 2847741,-0.00024494,0.00146714,0.00690329,0.04932759,-0.00062390,-0.00
 053556,0.00076087,-0.00124963,0.00239700,-0.00153657,-0.01564457,-0.00
 566494,0.00523192,-0.28539264,-0.07031788,0.05278939,-0.00330274,-0.00
 095343,0.00108198,0.00223550,-0.00074439,0.00093532,-0.00036444,-0.001
 06495,-0.00137082,-0.00128318,0.00054419,-0.00257940,-0.00001686,0.000
 30198,-0.00025878,-0.00018174,0.00036788,0.00005798,0.00001726,0.00007
 328,0.00002377,0.00003433,-0.00003117,-0.00003104,0.00004717,-0.000061
 06,-0.00003017,-0.00070796,0.00034185,-0.00030090,0.00138365,0.0001585
 9,0.00017118,0.30469982,0.00062888,0.00047174,-0.00082494,0.00284501,-
 0.00237518,0.00196181,0.02023862,0.00491246,-0.00539597,-0.07243784,-0
 .06588525,0.01396484,-0.02752170,-0.00906765,0.00743062,0.00288965,0.0
 0480062,-0.00202950,-0.00420160,-0.00475029,0.00074419,0.00070747,-0.0
 0286906,0.00043003,0.00033758,-0.00005862,-0.00085504,0.00021757,-0.00
 040007,-0.00009332,-0.00003638,-0.00004473,-0.00000492,-0.00005122,0.0
 0005398,0.00001593,0.00028007,0.00005482,-0.00019481,0.00041093,-0.000
 11030,0.00032368,-0.00026059,0.00139522,-0.00045376,0.07564824,0.07507
 566,-0.00009341,-0.00030103,0.00066211,-0.00122795,0.00214567,-0.00498
 466,-0.01356555,-0.00291349,0.00423197,0.05239066,0.01102880,-0.060070
 28,-0.00968859,0.00027178,0.00171948,0.00042304,0.00186767,0.00018948,
 0.00133937,0.00088071,-0.00200665,0.02176054,0.00586297,0.00509249,0.0
 0499734,-0.00142787,-0.00185528,-0.00014528,0.00020733,0.00011370,-0.0
 0001235,0.00002704,-0.00000547,0.00007295,-0.00011853,0.00001376,0.000
 06108,-0.00002461,0.00026891,-0.00016606,-0.00004563,-0.00029524,0.000
 98600,-0.00038039,0.00055535,-0.05567439,-0.01726060,0.05518615,-0.000
 04022,-0.00002320,-0.00007263,0.00009832,-0.00006032,0.00036477,0.0002
 0458,-0.00041952,-0.00000680,-0.00102695,0.00117573,-0.00203412,-0.060
 35825,-0.04790724,-0.06456567,-0.00865404,-0.00745385,-0.02434418,0.00
 669973,0.01367155,0.00781715,0.00228691,-0.00079072,0.00382257,0.00025
 907,0.00008027,-0.00058390,0.00002144,-0.00000955,-0.00000661,0.000012
 54,-0.00002650,-0.00000141,-0.00001026,0.00001849,0.00000035,-0.000130
 73,-0.00012058,-0.00008693,0.00015843,-0.00013663,-0.00008523,0.000081
 15,-0.00014132,0.00005105,-0.00044751,-0.00051735,-0.00035367,0.060589
 28,0.00012209,0.00009835,-0.00003766,-0.00055744,-0.00021536,-0.000225
 34,-0.00086768,0.00171049,-0.00048733,-0.00372258,0.00143768,-0.017419
 40,-0.04542531,-0.12056508,-0.12193801,0.00516834,0.00858829,0.0196238
 2,0.00424543,-0.00243207,0.00500409,-0.00226719,-0.00517761,-0.0015384
 5,0.00116243,0.00041586,-0.00070755,0.00002027,-0.00003510,-0.00002706
 ,-0.00002526,0.00004051,0.00001027,0.00001421,-0.00002622,0.00001173,0
 .00024052,0.00010287,-0.00000401,0.00070687,-0.00014485,0.00077889,0.0
 0011039,0.00003844,0.00040846,-0.00039682,-0.00102151,-0.00076417,0.04
 114319,0.11586466,0.00008092,0.00002003,0.00009844,-0.00029208,-0.0000
 2059,-0.00064387,0.00044966,-0.00074612,0.00043162,0.00276292,0.002839
 16,0.00293526,-0.06891697,-0.11292605,-0.24358279,-0.00091797,-0.00035
 921,-0.01355842,-0.01265515,-0.00587623,-0.00565688,-0.00261630,0.0007
 3297,-0.00225724,0.00022717,-0.00076615,0.00092523,-0.00001439,0.00001
 114,0.00000111,-0.00000774,0.00004081,-0.00000180,0.00003251,-0.000038
 87,0.00000893,0.00020283,0.00012584,0.00008885,0.00008197,-0.00048645,
 -0.00008086,0.00006676,-0.00003913,-0.00007411,0.00023725,0.00033635,0
 .00015306,0.08027955,0.11840030,0.26087288,0.00001571,0.00000277,0.000
 01704,-0.00016628,-0.00008216,-0.00042363,0.00006666,-0.00004607,-0.00
 002799,0.00159958,0.00010943,-0.00118927,0.00066345,0.00969379,-0.0011
 5661,-0.02028643,-0.01437907,0.01718134,-0.15266804,-0.12571264,0.0747
 3561,0.00040738,0.00329257,0.00058715,0.00111945,-0.00193905,-0.000009
 37,0.00001055,0.00000085,0.00000063,0.00000169,-0.00000861,0.00000288,
 0.00001922,-0.00001183,0.00000374,0.00001060,0.00005694,0.00002607,0.0
 0000396,-0.00001404,-0.00000907,0.00002035,-0.00003542,0.00004004,0.00
 051779,0.00092004,0.00001161,0.00004291,-0.00034195,0.00045882,0.16887
 339,0.00015430,0.00009787,0.00009523,-0.00050089,-0.00034423,-0.000505
 42,-0.00050801,0.00040872,0.00055496,-0.00306427,-0.00463319,0.0003483
 3,0.00183530,-0.00465170,-0.00412339,0.01255781,0.01309447,-0.00916119
 ,-0.12988345,-0.17992815,0.07972768,-0.01278108,0.00049946,0.01271460,
 0.00328317,0.00157371,-0.00041413,0.00003312,-0.00004463,-0.00003504,-
 0.00002664,0.00006272,0.00000548,0.00002385,-0.00004356,0.00000415,0.0
 0026642,0.00001418,0.00031940,0.00021787,-0.00021895,0.00010691,0.0000
 3740,0.00004320,-0.00004325,0.00006140,-0.00070540,0.00160134,-0.00009
 143,0.00095433,-0.00019127,0.12885437,0.17480439,-0.00008229,-0.000071
 79,0.00008898,0.00044967,0.00046317,-0.00029591,0.00000312,0.00015629,
 0.00082812,0.00343660,-0.00101392,-0.00089873,0.01660011,0.01144048,0.
 00244630,0.00042292,0.00000572,-0.00478242,0.07847630,0.07020246,-0.09
 511808,-0.00803273,-0.00158575,0.00406049,0.00057588,0.00109195,0.0000
 4852,-0.00001831,0.00002410,0.00000939,0.00000634,-0.00004309,-0.00002
 100,0.00002476,-0.00002355,0.00000273,-0.00018353,-0.00026083,0.000045
 72,0.00015759,-0.00016055,0.00004384,-0.00016422,0.00009581,-0.0000042
 4,0.00002104,0.00169701,0.00001701,-0.00093928,0.00012474,0.00074088,-
 0.09021767,-0.08115587,0.09289113,-0.00035360,-0.00010566,-0.00119211,
 -0.00290504,-0.00096352,0.00511987,-0.00013614,0.00056930,0.00177978,0
 .00904845,0.00157587,0.00590299,-0.00014617,-0.00152268,0.00097789,0.0
 0220492,-0.00008622,-0.00083682,-0.00354726,0.00009591,-0.00470878,-0.
 15766893,-0.03393361,-0.12415267,-0.02675684,0.00798892,-0.02150409,0.
 00003969,-0.00006267,0.00001195,0.00004992,0.00006094,0.00005522,-0.00
 020020,0.00041242,0.00006554,-0.00039085,0.00011275,-0.00084540,0.0005
 5427,-0.00042280,0.00013078,0.00010319,-0.00000904,-0.00004812,0.00027
 966,-0.00009738,-0.00111535,0.00021362,0.00067050,0.00054022,-0.000251
 93,-0.00046925,-0.00053630,0.17986323,0.00043739,0.00008475,0.00081156
 ,0.00364170,-0.00019995,-0.00076055,0.00046405,-0.00013661,0.00043407,
 0.00524036,0.00100374,0.00354567,-0.00263703,-0.00416098,-0.00233669,0
 .00141947,0.00338813,0.00400497,-0.01862618,-0.00399159,-0.02192216,-0
 .03713297,-0.05745885,-0.03713798,0.01896916,0.00048633,0.01674947,-0.
 00001594,0.00001483,-0.00002019,-0.00005238,-0.00003999,-0.00004279,0.
 00014586,-0.00029578,-0.00007309,0.00070597,-0.00018023,0.00078830,0.0
 0016217,-0.00026738,0.00027642,-0.00003270,-0.00005941,0.00009617,-0.0
 0012419,0.00052357,-0.00065699,0.00160896,0.00036632,-0.00105652,-0.00
 035993,-0.00098322,-0.00098639,0.02618622,0.06190635,-0.00003074,-0.00
 015281,0.00033857,0.00119347,-0.00030176,-0.00127808,-0.00039686,-0.00
 091240,-0.00152297,-0.01563790,-0.00480765,-0.00711336,-0.00169671,-0.
 00083998,-0.00262846,0.00121749,-0.00070099,0.00080903,-0.00034479,-0.
 00131008,-0.00111140,-0.13150058,-0.03019829,-0.19776892,0.00646279,0.
 00092071,0.00914874,-0.00006265,0.00006522,0.00002063,0.00001375,0.000
 01596,0.00000145,0.00005313,-0.00009926,0.00001423,-0.00010120,0.00002
 530,0.00012603,-0.00058477,0.00062346,-0.00037334,-0.00012488,0.000239
 30,-0.00005775,0.00047138,0.00020842,0.00101412,0.00074496,-0.00121335
 ,-0.00040027,-0.00003130,0.00015148,-0.00010274,0.14035539,0.03828671,
 0.20088449\\0.00000719,-0.00000233,-0.00002718,0.00003714,0.00003501,0
 .00004277,-0.00000303,-0.00004548,-0.00000677,-0.00003190,0.00005092,-
 0.00000070,-0.00001179,-0.00000567,-0.00005901,0.00001041,-0.00001663,
 -0.00000913,-0.00003838,0.00001348,0.00005236,0.00009525,-0.00007646,0
 .00000343,-0.00008472,0.00000771,-0.00004618,-0.00000056,0.00001310,0.
 00000623,0.00000241,0.00001032,0.00000486,0.00000102,0.00001417,0.0000
 0480,0.00000003,-0.00000703,-0.00000200,0.00001203,0.00000782,-0.00000
 609,0.00000543,0.00000555,0.00001344,0.00001106,-0.00002349,0.00000680
 ,0.00000405,-0.00000278,0.00002415,0.00000511,0.00000829,-0.00000861,-
 0.00002076,0.00001350,0.00000682\\\@


 EVERYTHING'S GOT A MORAL, IF ONLY YOU CAN FIND IT.

                                    -- LEWIS CARROL, ALICE IN WONDERLAND
 Job cpu time:       0 days  0 hours 55 minutes 14.5 seconds.
 File lengths (MBytes):  RWF=    152 Int=      0 D2E=      0 Chk=      8 Scr=      1
 Normal termination of Gaussian 09 at Tue Jan 28 03:52:02 2020.
