 Entering Gaussian System, Link 0=/home/puck/opt/gaussian_09/g09
 Input=dsC7O2H10nsd_0562.com
 Output=dsC7O2H10nsd_0562.log
 Initial command:
 /home/puck/opt/gaussian_09/l1.exe "/scratch/puck/g09_54a69331-104b-48ac-bd13-783d511fad09/Gau-165631.inp" -scrdir="/scratch/puck/g09_54a69331-104b-48ac-bd13-783d511fad09/"
 Entering Link 1 = /home/puck/opt/gaussian_09/l1.exe PID=    165632.
  
 Copyright (c) 1988,1990,1992,1993,1995,1998,2003,2009,2013,
            Gaussian, Inc.  All Rights Reserved.
  
 This is part of the Gaussian(R) 09 program.  It is based on
 the Gaussian(R) 03 system (copyright 2003, Gaussian, Inc.),
 the Gaussian(R) 98 system (copyright 1998, Gaussian, Inc.),
 the Gaussian(R) 94 system (copyright 1995, Gaussian, Inc.),
 the Gaussian 92(TM) system (copyright 1992, Gaussian, Inc.),
 the Gaussian 90(TM) system (copyright 1990, Gaussian, Inc.),
 the Gaussian 88(TM) system (copyright 1988, Gaussian, Inc.),
 the Gaussian 86(TM) system (copyright 1986, Carnegie Mellon
 University), and the Gaussian 82(TM) system (copyright 1983,
 Carnegie Mellon University). Gaussian is a federally registered
 trademark of Gaussian, Inc.
  
 This software contains proprietary and confidential information,
 including trade secrets, belonging to Gaussian, Inc.
  
 This software is provided under written license and may be
 used, copied, transmitted, or stored only in accord with that
 written license.
  
 The following legend is applicable only to US Government
 contracts under FAR:
  
                    RESTRICTED RIGHTS LEGEND
  
 Use, reproduction and disclosure by the US Government is
 subject to restrictions as set forth in subparagraphs (a)
 and (c) of the Commercial Computer Software - Restricted
 Rights clause in FAR 52.227-19.
  
 Gaussian, Inc.
 340 Quinnipiac St., Bldg. 40, Wallingford CT 06492
  
  
 ---------------------------------------------------------------
 Warning -- This program may not be used in any manner that
 competes with the business of Gaussian, Inc. or will provide
 assistance to any competitor of Gaussian, Inc.  The licensee
 of this program is prohibited from giving any competitor of
 Gaussian, Inc. access to this program.  By using this program,
 the user acknowledges that Gaussian, Inc. is engaged in the
 business of creating and licensing software in the field of
 computational chemistry and represents and warrants to the
 licensee that it is not a competitor of Gaussian, Inc. and that
 it will not use this program in any manner prohibited above.
 ---------------------------------------------------------------
  

 Cite this work as:
 Gaussian 09, Revision D.01,
 M. J. Frisch, G. W. Trucks, H. B. Schlegel, G. E. Scuseria, 
 M. A. Robb, J. R. Cheeseman, G. Scalmani, V. Barone, B. Mennucci, 
 G. A. Petersson, H. Nakatsuji, M. Caricato, X. Li, H. P. Hratchian, 
 A. F. Izmaylov, J. Bloino, G. Zheng, J. L. Sonnenberg, M. Hada, 
 M. Ehara, K. Toyota, R. Fukuda, J. Hasegawa, M. Ishida, T. Nakajima, 
 Y. Honda, O. Kitao, H. Nakai, T. Vreven, J. A. Montgomery, Jr., 
 J. E. Peralta, F. Ogliaro, M. Bearpark, J. J. Heyd, E. Brothers, 
 K. N. Kudin, V. N. Staroverov, T. Keith, R. Kobayashi, J. Normand, 
 K. Raghavachari, A. Rendell, J. C. Burant, S. S. Iyengar, J. Tomasi, 
 M. Cossi, N. Rega, J. M. Millam, M. Klene, J. E. Knox, J. B. Cross, 
 V. Bakken, C. Adamo, J. Jaramillo, R. Gomperts, R. E. Stratmann, 
 O. Yazyev, A. J. Austin, R. Cammi, C. Pomelli, J. W. Ochterski, 
 R. L. Martin, K. Morokuma, V. G. Zakrzewski, G. A. Voth, 
 P. Salvador, J. J. Dannenberg, S. Dapprich, A. D. Daniels, 
 O. Farkas, J. B. Foresman, J. V. Ortiz, J. Cioslowski, 
 and D. J. Fox, Gaussian, Inc., Wallingford CT, 2013.
 
 ******************************************
 Gaussian 09:  ES64L-G09RevD.01 24-Apr-2013
                27-Jan-2020 
 ******************************************
 -----------------------------
 # b3lyp 6-31G(2df,p) opt Freq
 -----------------------------
 1/14=-1,18=20,19=15,26=3,38=1/1,3;
 2/9=110,12=2,17=6,18=5,40=1/2;
 3/5=1,6=6,7=104,11=2,16=1,25=1,30=1,71=1,74=-5/1,2,3;
 4//1;
 5/5=2,38=5/2;
 6/7=2,8=2,9=2,10=2,28=1/1;
 7//1,2,3,16;
 1/14=-1,18=20,19=15,26=3/3(2);
 2/9=110/2;
 99//99;
 2/9=110/2;
 3/5=1,6=6,7=104,11=2,16=1,25=1,30=1,71=1,74=-5/1,2,3;
 4/5=5,16=3,69=1/1;
 5/5=2,38=5/2;
 7//1,2,3,16;
 1/14=-1,18=20,19=15,26=3/3(-5);
 2/9=110/2;
 6/7=2,8=2,9=2,10=2,19=2,28=1/1;
 99/9=1/99;
 -----
 titel
 -----
 Symbolic Z-matrix:
 Charge =  0 Multiplicity = 1
 C                     1.33872   0.08584  -0.20179 
 O                     0.03294  -0.11216   0.37416 
 C                    -0.47451   1.105    -0.2276 
 C                    -0.8984    2.14423   0.82006 
 C                     0.27015   3.13111   0.9533 
 O                     0.06647   4.33796   0.17668 
 C                     1.21092   4.05929  -0.65311 
 C                     1.43067   2.6869    0.01314 
 C                     0.94267   1.4641   -0.76675 
 H                     2.13171   0.08169   0.55756 
 H                     1.5696   -0.67436  -0.95922 
 H                    -1.25344   0.87916  -0.96393 
 H                    -1.79288   2.69669   0.51814 
 H                    -1.11486   1.62827   1.75995 
 H                     0.52467   3.37464   1.99053 
 H                     0.95537   4.04569  -1.72081 
 H                     2.01813   4.78534  -0.49129 
 H                     2.41356   2.5374    0.46406 
 H                     1.05566   1.57741  -1.84663 
 

 GradGradGradGradGradGradGradGradGradGradGradGradGradGradGradGradGradGrad
 Berny optimization.
 Initialization pass.
                           ----------------------------
                           !    Initial Parameters    !
                           ! (Angstroms and Degrees)  !
 --------------------------                            --------------------------
 ! Name  Definition              Value          Derivative Info.                !
 --------------------------------------------------------------------------------
 ! R1    R(1,2)                  1.4408         estimate D2E/DX2                !
 ! R2    R(1,9)                  1.5413         estimate D2E/DX2                !
 ! R3    R(1,10)                 1.0979         estimate D2E/DX2                !
 ! R4    R(1,11)                 1.0977         estimate D2E/DX2                !
 ! R5    R(2,3)                  1.4495         estimate D2E/DX2                !
 ! R6    R(3,4)                  1.5353         estimate D2E/DX2                !
 ! R7    R(3,9)                  1.5582         estimate D2E/DX2                !
 ! R8    R(3,12)                 1.0954         estimate D2E/DX2                !
 ! R9    R(4,5)                  1.5353         estimate D2E/DX2                !
 ! R10   R(4,13)                 1.0938         estimate D2E/DX2                !
 ! R11   R(4,14)                 1.0938         estimate D2E/DX2                !
 ! R12   R(5,6)                  1.4495         estimate D2E/DX2                !
 ! R13   R(5,8)                  1.5582         estimate D2E/DX2                !
 ! R14   R(5,15)                 1.0954         estimate D2E/DX2                !
 ! R15   R(6,7)                  1.4408         estimate D2E/DX2                !
 ! R16   R(7,8)                  1.5413         estimate D2E/DX2                !
 ! R17   R(7,16)                 1.0979         estimate D2E/DX2                !
 ! R18   R(7,17)                 1.0977         estimate D2E/DX2                !
 ! R19   R(8,9)                  1.5302         estimate D2E/DX2                !
 ! R20   R(8,18)                 1.0917         estimate D2E/DX2                !
 ! R21   R(9,19)                 1.0917         estimate D2E/DX2                !
 ! A1    A(2,1,9)               92.0935         estimate D2E/DX2                !
 ! A2    A(2,1,10)             112.1833         estimate D2E/DX2                !
 ! A3    A(2,1,11)             111.7947         estimate D2E/DX2                !
 ! A4    A(9,1,10)             116.2617         estimate D2E/DX2                !
 ! A5    A(9,1,11)             114.8605         estimate D2E/DX2                !
 ! A6    A(10,1,11)            108.8265         estimate D2E/DX2                !
 ! A7    A(1,2,3)               92.0592         estimate D2E/DX2                !
 ! A8    A(2,3,4)              112.4418         estimate D2E/DX2                !
 ! A9    A(2,3,9)               91.0748         estimate D2E/DX2                !
 ! A10   A(2,3,12)             110.7857         estimate D2E/DX2                !
 ! A11   A(4,3,9)              109.3424         estimate D2E/DX2                !
 ! A12   A(4,3,12)             113.698          estimate D2E/DX2                !
 ! A13   A(9,3,12)             117.4938         estimate D2E/DX2                !
 ! A14   A(3,4,5)              106.509          estimate D2E/DX2                !
 ! A15   A(3,4,13)             112.2894         estimate D2E/DX2                !
 ! A16   A(3,4,14)             108.7647         estimate D2E/DX2                !
 ! A17   A(5,4,13)             108.7662         estimate D2E/DX2                !
 ! A18   A(5,4,14)             112.2872         estimate D2E/DX2                !
 ! A19   A(13,4,14)            108.2764         estimate D2E/DX2                !
 ! A20   A(4,5,6)              112.4406         estimate D2E/DX2                !
 ! A21   A(4,5,8)              109.3451         estimate D2E/DX2                !
 ! A22   A(4,5,15)             113.6987         estimate D2E/DX2                !
 ! A23   A(6,5,8)               91.0734         estimate D2E/DX2                !
 ! A24   A(6,5,15)             110.7857         estimate D2E/DX2                !
 ! A25   A(8,5,15)             117.4924         estimate D2E/DX2                !
 ! A26   A(5,6,7)               92.0585         estimate D2E/DX2                !
 ! A27   A(6,7,8)               92.0926         estimate D2E/DX2                !
 ! A28   A(6,7,16)             112.1833         estimate D2E/DX2                !
 ! A29   A(6,7,17)             111.7945         estimate D2E/DX2                !
 ! A30   A(8,7,16)             116.2645         estimate D2E/DX2                !
 ! A31   A(8,7,17)             114.8582         estimate D2E/DX2                !
 ! A32   A(16,7,17)            108.8269         estimate D2E/DX2                !
 ! A33   A(5,8,7)               84.3064         estimate D2E/DX2                !
 ! A34   A(5,8,9)              107.3248         estimate D2E/DX2                !
 ! A35   A(5,8,18)             117.4115         estimate D2E/DX2                !
 ! A36   A(7,8,9)              116.4708         estimate D2E/DX2                !
 ! A37   A(7,8,18)             115.395          estimate D2E/DX2                !
 ! A38   A(9,8,18)             112.8433         estimate D2E/DX2                !
 ! A39   A(1,9,3)               84.3067         estimate D2E/DX2                !
 ! A40   A(1,9,8)              116.475          estimate D2E/DX2                !
 ! A41   A(1,9,19)             115.3913         estimate D2E/DX2                !
 ! A42   A(3,9,8)              107.3289         estimate D2E/DX2                !
 ! A43   A(3,9,19)             117.4081         estimate D2E/DX2                !
 ! A44   A(8,9,19)             112.8426         estimate D2E/DX2                !
 ! D1    D(9,1,2,3)              5.3668         estimate D2E/DX2                !
 ! D2    D(10,1,2,3)           124.9092         estimate D2E/DX2                !
 ! D3    D(11,1,2,3)          -112.5179         estimate D2E/DX2                !
 ! D4    D(2,1,9,3)             -5.0131         estimate D2E/DX2                !
 ! D5    D(2,1,9,8)            101.5309         estimate D2E/DX2                !
 ! D6    D(2,1,9,19)          -122.7073         estimate D2E/DX2                !
 ! D7    D(10,1,9,3)          -121.0753         estimate D2E/DX2                !
 ! D8    D(10,1,9,8)           -14.5313         estimate D2E/DX2                !
 ! D9    D(10,1,9,19)          121.2305         estimate D2E/DX2                !
 ! D10   D(11,1,9,3)           110.227          estimate D2E/DX2                !
 ! D11   D(11,1,9,8)          -143.2291         estimate D2E/DX2                !
 ! D12   D(11,1,9,19)           -7.4672         estimate D2E/DX2                !
 ! D13   D(1,2,3,4)           -116.7851         estimate D2E/DX2                !
 ! D14   D(1,2,3,9)             -5.3059         estimate D2E/DX2                !
 ! D15   D(1,2,3,12)           114.7603         estimate D2E/DX2                !
 ! D16   D(2,3,4,5)             98.3564         estimate D2E/DX2                !
 ! D17   D(2,3,4,13)          -142.6882         estimate D2E/DX2                !
 ! D18   D(2,3,4,14)           -22.8722         estimate D2E/DX2                !
 ! D19   D(9,3,4,5)             -1.2275         estimate D2E/DX2                !
 ! D20   D(9,3,4,13)           117.7279         estimate D2E/DX2                !
 ! D21   D(9,3,4,14)          -122.4561         estimate D2E/DX2                !
 ! D22   D(12,3,4,5)          -134.731          estimate D2E/DX2                !
 ! D23   D(12,3,4,13)          -15.7756         estimate D2E/DX2                !
 ! D24   D(12,3,4,14)          104.0403         estimate D2E/DX2                !
 ! D25   D(2,3,9,1)              4.9804         estimate D2E/DX2                !
 ! D26   D(2,3,9,8)           -111.0094         estimate D2E/DX2                !
 ! D27   D(2,3,9,19)           120.684          estimate D2E/DX2                !
 ! D28   D(4,3,9,1)            119.2631         estimate D2E/DX2                !
 ! D29   D(4,3,9,8)              3.2733         estimate D2E/DX2                !
 ! D30   D(4,3,9,19)          -125.0334         estimate D2E/DX2                !
 ! D31   D(12,3,9,1)          -109.2174         estimate D2E/DX2                !
 ! D32   D(12,3,9,8)           134.7927         estimate D2E/DX2                !
 ! D33   D(12,3,9,19)            6.4861         estimate D2E/DX2                !
 ! D34   D(3,4,5,6)             98.323          estimate D2E/DX2                !
 ! D35   D(3,4,5,8)             -1.2601         estimate D2E/DX2                !
 ! D36   D(3,4,5,15)          -134.7648         estimate D2E/DX2                !
 ! D37   D(13,4,5,6)           -22.9092         estimate D2E/DX2                !
 ! D38   D(13,4,5,8)          -122.4922         estimate D2E/DX2                !
 ! D39   D(13,4,5,15)          104.003          estimate D2E/DX2                !
 ! D40   D(14,4,5,6)          -142.7248         estimate D2E/DX2                !
 ! D41   D(14,4,5,8)           117.6922         estimate D2E/DX2                !
 ! D42   D(14,4,5,15)          -15.8126         estimate D2E/DX2                !
 ! D43   D(4,5,6,7)           -116.8054         estimate D2E/DX2                !
 ! D44   D(8,5,6,7)             -5.324          estimate D2E/DX2                !
 ! D45   D(15,5,6,7)           114.74           estimate D2E/DX2                !
 ! D46   D(4,5,8,7)            119.2788         estimate D2E/DX2                !
 ! D47   D(4,5,8,9)              3.2936         estimate D2E/DX2                !
 ! D48   D(4,5,8,18)          -125.0131         estimate D2E/DX2                !
 ! D49   D(6,5,8,7)              4.9975         estimate D2E/DX2                !
 ! D50   D(6,5,8,9)           -110.9877         estimate D2E/DX2                !
 ! D51   D(6,5,8,18)           120.7056         estimate D2E/DX2                !
 ! D52   D(15,5,8,7)          -109.1993         estimate D2E/DX2                !
 ! D53   D(15,5,8,9)           134.8155         estimate D2E/DX2                !
 ! D54   D(15,5,8,18)            6.5089         estimate D2E/DX2                !
 ! D55   D(5,6,7,8)              5.3852         estimate D2E/DX2                !
 ! D56   D(5,6,7,16)           124.9302         estimate D2E/DX2                !
 ! D57   D(5,6,7,17)          -112.4964         estimate D2E/DX2                !
 ! D58   D(6,7,8,5)             -5.0302         estimate D2E/DX2                !
 ! D59   D(6,7,8,9)            101.5088         estimate D2E/DX2                !
 ! D60   D(6,7,8,18)          -122.7287         estimate D2E/DX2                !
 ! D61   D(16,7,8,5)          -121.0927         estimate D2E/DX2                !
 ! D62   D(16,7,8,9)           -14.5537         estimate D2E/DX2                !
 ! D63   D(16,7,8,18)          121.2089         estimate D2E/DX2                !
 ! D64   D(17,7,8,5)           110.2086         estimate D2E/DX2                !
 ! D65   D(17,7,8,9)          -143.2524         estimate D2E/DX2                !
 ! D66   D(17,7,8,18)           -7.4899         estimate D2E/DX2                !
 ! D67   D(5,8,9,1)            -96.2063         estimate D2E/DX2                !
 ! D68   D(5,8,9,3)             -3.9539         estimate D2E/DX2                !
 ! D69   D(5,8,9,19)           126.9417         estimate D2E/DX2                !
 ! D70   D(7,8,9,1)            171.5452         estimate D2E/DX2                !
 ! D71   D(7,8,9,3)            -96.2025         estimate D2E/DX2                !
 ! D72   D(7,8,9,19)            34.6931         estimate D2E/DX2                !
 ! D73   D(18,8,9,1)            34.6911         estimate D2E/DX2                !
 ! D74   D(18,8,9,3)           126.9434         estimate D2E/DX2                !
 ! D75   D(18,8,9,19)         -102.161          estimate D2E/DX2                !
 --------------------------------------------------------------------------------
 Trust Radius=3.00D-01 FncErr=1.00D-07 GrdErr=1.00D-06
 Number of steps in this run=    114 maximum allowed number of steps=    114.
 GradGradGradGradGradGradGradGradGradGradGradGradGradGradGradGradGradGrad

                          Input orientation:                          
 ---------------------------------------------------------------------
 Center     Atomic      Atomic             Coordinates (Angstroms)
 Number     Number       Type             X           Y           Z
 ---------------------------------------------------------------------
      1          6           0        1.338715    0.085836   -0.201792
      2          8           0        0.032939   -0.112159    0.374163
      3          6           0       -0.474515    1.105005   -0.227596
      4          6           0       -0.898404    2.144234    0.820064
      5          6           0        0.270148    3.131113    0.953304
      6          8           0        0.066466    4.337962    0.176677
      7          6           0        1.210918    4.059292   -0.653114
      8          6           0        1.430672    2.686904    0.013140
      9          6           0        0.942665    1.464103   -0.766749
     10          1           0        2.131708    0.081688    0.557563
     11          1           0        1.569595   -0.674365   -0.959224
     12          1           0       -1.253440    0.879159   -0.963926
     13          1           0       -1.792883    2.696691    0.518137
     14          1           0       -1.114859    1.628270    1.759954
     15          1           0        0.524675    3.374641    1.990527
     16          1           0        0.955370    4.045692   -1.720812
     17          1           0        2.018126    4.785341   -0.491295
     18          1           0        2.413559    2.537404    0.464061
     19          1           0        1.055660    1.577408   -1.846629
 ---------------------------------------------------------------------
                    Distance matrix (angstroms):
                    1          2          3          4          5
     1  C    0.000000
     2  O    1.440825   0.000000
     3  C    2.080186   1.449521   0.000000
     4  C    3.207164   2.481439   1.535342   0.000000
     5  C    3.427798   3.303102   2.460521   1.535316   0.000000
     6  O    4.454485   4.454627   3.302743   2.481403   1.449524
     7  C    4.001047   4.454653   3.427763   3.207326   2.080178
     8  C    2.611553   3.149405   2.487991   2.523929   1.558219
     9  C    1.541316   2.147996   1.558216   2.523904   2.487927
    10  H    1.097941   2.115666   2.907929   3.674859   3.594581
    11  H    1.097685   2.110760   2.807101   4.147455   4.452862
    12  H    2.815934   2.104274   1.095406   2.215646   3.326918
    13  H    4.140262   3.353206   2.197198   1.093829   2.152717
    14  H    3.499654   2.503388   2.152720   1.093830   2.197149
    15  H    4.035488   3.874559   3.327115   2.215634   1.095409
    16  H    4.258502   4.746317   3.594706   3.675333   2.908072
    17  H    4.757180   5.354950   4.452828   4.147440   2.806914
    18  H    2.758412   3.563091   3.297139   3.354164   2.277292
    19  H    2.238392   2.971954   2.277250   3.354238   3.297067
                    6          7          8          9         10
     6  O    0.000000
     7  C    1.440826   0.000000
     8  C    2.147975   1.541309   0.000000
     9  C    3.149102   2.611489   1.530235   0.000000
    10  H    4.746174   4.258512   2.752272   2.253597   0.000000
    11  H    5.354725   4.757085   3.501845   2.236768   1.785561
    12  H    3.873815   4.035208   3.380394   2.281210   3.796067
    13  H    2.503506   3.500190   3.262887   3.263959   4.716165
    14  H    3.353315   4.140290   3.263709   3.262604   3.791815
    15  H    2.104280   2.815761   2.281200   3.380450   3.934398
    16  H    2.115664   1.097938   2.253621   2.752272   4.721027
    17  H    2.110762   1.097688   2.236737   3.501873   4.820515
    18  H    2.972111   2.238430   1.091671   2.197816   2.473606
    19  H    3.562714   2.758320   2.197807   1.091671   3.029059
                   11         12         13         14         15
    11  H    0.000000
    12  H    3.222264   0.000000
    13  H    4.985265   2.406435   0.000000
    14  H    4.461205   2.828409   1.772950   0.000000
    15  H    5.117356   4.256514   2.828184   2.406459   0.000000
    16  H    4.820397   3.934291   3.792834   4.716515   3.796030
    17  H    5.498047   5.117107   4.461525   4.985059   3.221787
    18  H    3.612959   4.270340   4.209804   3.867246   2.568841
    19  H    2.474287   2.568785   3.867701   4.209653   4.270334
                   16         17         18         19
    16  H    0.000000
    17  H    1.785565   0.000000
    18  H    3.029013   2.474327   0.000000
    19  H    2.473523   3.613047   2.846888   0.000000
 Stoichiometry    C7H10O2
 Framework group  C1[X(C7H10O2)]
 Deg. of freedom    51
 Full point group                 C1      NOp   1
 Largest Abelian subgroup         C1      NOp   1
 Largest concise Abelian subgroup C1      NOp   1
                         Standard orientation:                         
 ---------------------------------------------------------------------
 Center     Atomic      Atomic             Coordinates (Angstroms)
 Number     Number       Type             X           Y           Z
 ---------------------------------------------------------------------
      1          6           0       -1.978359   -0.957782    0.296758
      2          8           0       -2.222023    0.455166    0.154693
      3          6           0       -1.037146    0.630531   -0.661654
      4          6           0       -0.000085    1.549084    0.000189
      5          6           0        1.037226    0.630581    0.661653
      6          8           0        2.221816    0.455286   -0.155132
      7          6           0        1.978430   -0.957761   -0.296703
      8          6           0        0.627381   -0.856061    0.438115
      9          6           0       -0.627252   -0.856072   -0.437965
     10          1           0       -1.936886   -1.267534    1.349283
     11          1           0       -2.740172   -1.556602   -0.218964
     12          1           0       -1.307416    0.932956   -1.679204
     13          1           0        0.509234    2.190132   -0.725148
     14          1           0       -0.509606    2.189637    0.725823
     15          1           0        1.307853    0.933005    1.679112
     16          1           0        1.936966   -1.267879   -1.349117
     17          1           0        2.740389   -1.556250    0.219193
     18          1           0        0.526724   -1.488075    1.322520
     19          1           0       -0.526587   -1.488121   -1.322344
 ---------------------------------------------------------------------
 Rotational constants (GHZ):      3.5955039      1.4590062      1.1950440
 Standard basis: 6-31G(2df,p) (6D, 7F)
 There are   329 symmetry adapted cartesian basis functions of A   symmetry.
 There are   302 symmetry adapted basis functions of A   symmetry.
   302 basis functions,   466 primitive gaussians,   329 cartesian basis functions
    34 alpha electrons       34 beta electrons
       nuclear repulsion energy       479.5498027868 Hartrees.
 NAtoms=   19 NActive=   19 NUniq=   19 SFac= 1.00D+00 NAtFMM=   60 NAOKFM=F Big=F
 Integral buffers will be    131072 words long.
 Raffenetti 2 integral format.
 Two-electron integral symmetry is turned on.
 One-electron integrals computed using PRISM.
 NBasis=   302 RedAO= T EigKep=  4.51D-04  NBF=   302
 NBsUse=   302 1.00D-06 EigRej= -1.00D+00 NBFU=   302
 ExpMin= 1.61D-01 ExpMax= 5.48D+03 ExpMxC= 8.25D+02 IAcc=1 IRadAn=         1 AccDes= 0.00D+00
 Harris functional with IExCor=  402 and IRadAn=       1 diagonalized for initial guess.
 HarFok:  IExCor=  402 AccDes= 0.00D+00 IRadAn=         1 IDoV= 1 UseB2=F ITyADJ=14
 ICtDFT=  3500011 ScaDFX=  1.000000  1.000000  1.000000  1.000000
 FoFCou: FMM=F IPFlag=           0 FMFlag=      100000 FMFlg1=           0
         NFxFlg=           0 DoJE=T BraDBF=F KetDBF=T FulRan=T
         wScrn=  0.000000 ICntrl=     500 IOpCl=  0 I1Cent=   200000004 NGrid=           0
         NMat0=    1 NMatS0=      1 NMatT0=    0 NMatD0=    1 NMtDS0=    0 NMtDT0=    0
 Petite list used in FoFCou.
 Requested convergence on RMS density matrix=1.00D-08 within 128 cycles.
 Requested convergence on MAX density matrix=1.00D-06.
 Requested convergence on             energy=1.00D-06.
 No special actions if energy rises.
 Integral accuracy reduced to 1.0D-05 until final iterations.
 Initial convergence to 1.0D-05 achieved.  Increase integral accuracy.
 SCF Done:  E(RB3LYP) =  -423.158991169     A.U. after   13 cycles
            NFock= 13  Conv=0.42D-08     -V/T= 2.0074

 **********************************************************************

            Population analysis using the SCF density.

 **********************************************************************

 Orbital symmetries:
       Occupied  (A) (A) (A) (A) (A) (A) (A) (A) (A) (A) (A) (A)
                 (A) (A) (A) (A) (A) (A) (A) (A) (A) (A) (A) (A)
                 (A) (A) (A) (A) (A) (A) (A) (A) (A) (A)
       Virtual   (A) (A) (A) (A) (A) (A) (A) (A) (A) (A) (A) (A)
                 (A) (A) (A) (A) (A) (A) (A) (A) (A) (A) (A) (A)
                 (A) (A) (A) (A) (A) (A) (A) (A) (A) (A) (A) (A)
                 (A) (A) (A) (A) (A) (A) (A) (A) (A) (A) (A) (A)
                 (A) (A) (A) (A) (A) (A) (A) (A) (A) (A) (A) (A)
                 (A) (A) (A) (A) (A) (A) (A) (A) (A) (A) (A) (A)
                 (A) (A) (A) (A) (A) (A) (A) (A) (A) (A) (A) (A)
                 (A) (A) (A) (A) (A) (A) (A) (A) (A) (A) (A) (A)
                 (A) (A) (A) (A) (A) (A) (A) (A) (A) (A) (A) (A)
                 (A) (A) (A) (A) (A) (A) (A) (A) (A) (A) (A) (A)
                 (A) (A) (A) (A) (A) (A) (A) (A) (A) (A) (A) (A)
                 (A) (A) (A) (A) (A) (A) (A) (A) (A) (A) (A) (A)
                 (A) (A) (A) (A) (A) (A) (A) (A) (A) (A) (A) (A)
                 (A) (A) (A) (A) (A) (A) (A) (A) (A) (A) (A) (A)
                 (A) (A) (A) (A) (A) (A) (A) (A) (A) (A) (A) (A)
                 (A) (A) (A) (A) (A) (A) (A) (A) (A) (A) (A) (A)
                 (A) (A) (A) (A) (A) (A) (A) (A) (A) (A) (A) (A)
                 (A) (A) (A) (A) (A) (A) (A) (A) (A) (A) (A) (A)
                 (A) (A) (A) (A) (A) (A) (A) (A) (A) (A) (A) (A)
                 (A) (A) (A) (A) (A) (A) (A) (A) (A) (A) (A) (A)
                 (A) (A) (A) (A) (A) (A) (A) (A) (A) (A) (A) (A)
                 (A) (A) (A) (A) (A) (A) (A) (A) (A) (A) (A) (A)
                 (A) (A) (A) (A)
 The electronic state is 1-A.
 Alpha  occ. eigenvalues --  -19.13065 -19.13064 -10.23390 -10.23390 -10.23104
 Alpha  occ. eigenvalues --  -10.23103 -10.19572 -10.19551 -10.17856  -1.04052
 Alpha  occ. eigenvalues --   -1.03331  -0.80698  -0.75494  -0.70026  -0.68076
 Alpha  occ. eigenvalues --   -0.63229  -0.54844  -0.54024  -0.51126  -0.51063
 Alpha  occ. eigenvalues --   -0.46282  -0.45712  -0.43825  -0.43297  -0.41348
 Alpha  occ. eigenvalues --   -0.38893  -0.35994  -0.35969  -0.33296  -0.31162
 Alpha  occ. eigenvalues --   -0.29797  -0.29298  -0.25507  -0.24309
 Alpha virt. eigenvalues --    0.06291   0.07666   0.09290   0.09970   0.12305
 Alpha virt. eigenvalues --    0.13093   0.14090   0.14421   0.15789   0.16889
 Alpha virt. eigenvalues --    0.17990   0.18295   0.18295   0.20617   0.22018
 Alpha virt. eigenvalues --    0.23435   0.25876   0.27061   0.28890   0.32474
 Alpha virt. eigenvalues --    0.35214   0.39413   0.41786   0.45201   0.46667
 Alpha virt. eigenvalues --    0.48012   0.49297   0.51076   0.51081   0.51912
 Alpha virt. eigenvalues --    0.53457   0.54909   0.55848   0.56832   0.57595
 Alpha virt. eigenvalues --    0.58656   0.62232   0.64209   0.68489   0.69139
 Alpha virt. eigenvalues --    0.71067   0.72331   0.72344   0.73737   0.74301
 Alpha virt. eigenvalues --    0.76673   0.77435   0.78235   0.79613   0.80790
 Alpha virt. eigenvalues --    0.82277   0.83559   0.85075   0.86474   0.87115
 Alpha virt. eigenvalues --    0.90780   0.92990   0.94972   0.96943   0.98441
 Alpha virt. eigenvalues --    1.00607   1.03509   1.09238   1.14456   1.15141
 Alpha virt. eigenvalues --    1.16829   1.17138   1.19693   1.23125   1.25271
 Alpha virt. eigenvalues --    1.26434   1.28259   1.28864   1.32457   1.34527
 Alpha virt. eigenvalues --    1.37872   1.40605   1.41593   1.42214   1.42608
 Alpha virt. eigenvalues --    1.44355   1.45072   1.45266   1.46374   1.50540
 Alpha virt. eigenvalues --    1.52412   1.53755   1.56564   1.57977   1.58051
 Alpha virt. eigenvalues --    1.59848   1.60257   1.62878   1.65029   1.69665
 Alpha virt. eigenvalues --    1.71075   1.72341   1.74872   1.77168   1.77817
 Alpha virt. eigenvalues --    1.83324   1.87036   1.88721   1.90626   1.92440
 Alpha virt. eigenvalues --    2.00529   2.00640   2.03264   2.07453   2.09624
 Alpha virt. eigenvalues --    2.12876   2.18998   2.21267   2.25202   2.27822
 Alpha virt. eigenvalues --    2.32651   2.35141   2.36948   2.37653   2.41213
 Alpha virt. eigenvalues --    2.42062   2.44285   2.46333   2.48827   2.53727
 Alpha virt. eigenvalues --    2.59718   2.60669   2.63991   2.66709   2.68329
 Alpha virt. eigenvalues --    2.68711   2.77014   2.80102   2.81879   2.83509
 Alpha virt. eigenvalues --    2.87120   2.90209   2.90995   2.91527   2.94352
 Alpha virt. eigenvalues --    2.95743   2.96252   3.01297   3.04888   3.05348
 Alpha virt. eigenvalues --    3.06638   3.09115   3.10909   3.12776   3.16133
 Alpha virt. eigenvalues --    3.18055   3.19871   3.25381   3.26131   3.26344
 Alpha virt. eigenvalues --    3.30201   3.32508   3.35824   3.36904   3.37284
 Alpha virt. eigenvalues --    3.41195   3.42384   3.43309   3.44731   3.46510
 Alpha virt. eigenvalues --    3.50775   3.52774   3.55470   3.57256   3.59452
 Alpha virt. eigenvalues --    3.62631   3.63332   3.66787   3.75554   3.81709
 Alpha virt. eigenvalues --    3.84228   3.84617   3.85610   3.94144   3.94258
 Alpha virt. eigenvalues --    3.97874   4.03835   4.10543   4.15165   4.20104
 Alpha virt. eigenvalues --    4.25713   4.26589   4.28968   4.33765   4.35570
 Alpha virt. eigenvalues --    4.38894   4.38943   4.40792   4.40798   4.42030
 Alpha virt. eigenvalues --    4.44511   4.45280   4.46210   4.48908   4.50859
 Alpha virt. eigenvalues --    4.52795   4.55768   4.56027   4.60526   4.61258
 Alpha virt. eigenvalues --    4.62906   4.64649   4.66417   4.70387   4.70982
 Alpha virt. eigenvalues --    4.71412   4.72987   4.73584   4.75785   4.78437
 Alpha virt. eigenvalues --    4.80177   4.82660   4.84633   4.88110   4.89276
 Alpha virt. eigenvalues --    4.89357   4.89978   4.91029   4.93532   4.95412
 Alpha virt. eigenvalues --    5.04079   5.04418   5.08807   5.10236   5.16533
 Alpha virt. eigenvalues --    5.17865   5.20705   5.23466   5.30206   5.36832
 Alpha virt. eigenvalues --    5.42976   5.46518   5.47123   5.48352   5.54467
 Alpha virt. eigenvalues --    5.64172   5.67618   5.69931   5.73237   5.74003
 Alpha virt. eigenvalues --    5.78043   5.78116   5.88387   5.90578   6.01193
 Alpha virt. eigenvalues --    6.01393   6.06868   6.14499   6.24327   6.25210
 Alpha virt. eigenvalues --    6.58805   6.85644   7.22840   7.27952  10.78147
 Alpha virt. eigenvalues --   11.29769  11.55936  12.00382  12.20954  12.70717
 Alpha virt. eigenvalues --   12.73699  13.54221  13.56675
          Condensed to atoms (all electrons):
               1          2          3          4          5          6
     1  C    4.867199   0.344567  -0.150835   0.003182   0.003297  -0.000050
     2  O    0.344567   7.795967   0.330780  -0.033063   0.001235   0.000022
     3  C   -0.150835   0.330780   4.686095   0.382404  -0.038900   0.001238
     4  C    0.003182  -0.033063   0.382404   5.074162   0.382429  -0.033057
     5  C    0.003297   0.001235  -0.038900   0.382429   4.686054   0.330777
     6  O   -0.000050   0.000022   0.001238  -0.033057   0.330777   7.795996
     7  C    0.001635  -0.000050   0.003300   0.003181  -0.150811   0.344566
     8  C   -0.004315   0.005001  -0.031492  -0.038218   0.386255  -0.074452
     9  C    0.358192  -0.074432   0.386277  -0.038240  -0.031472   0.005004
    10  H    0.351184  -0.025253   0.006233   0.000866   0.000052  -0.000004
    11  H    0.350645  -0.028097   0.002489  -0.000731  -0.000109   0.000001
    12  H    0.010301  -0.033320   0.358934  -0.062010   0.003079  -0.000167
    13  H   -0.000206   0.002506  -0.019203   0.333864  -0.022588   0.000421
    14  H    0.000502   0.000426  -0.022590   0.333847  -0.019196   0.002506
    15  H   -0.000347  -0.000167   0.003081  -0.062007   0.358927  -0.033323
    16  H    0.000219  -0.000004   0.000051   0.000864   0.006236  -0.025248
    17  H   -0.000131   0.000001  -0.000109  -0.000731   0.002485  -0.028102
    18  H   -0.010082  -0.000171   0.003371   0.005646  -0.030427   0.006081
    19  H   -0.033198   0.006081  -0.030426   0.005649   0.003370  -0.000171
               7          8          9         10         11         12
     1  C    0.001635  -0.004315   0.358192   0.351184   0.350645   0.010301
     2  O   -0.000050   0.005001  -0.074432  -0.025253  -0.028097  -0.033320
     3  C    0.003300  -0.031492   0.386277   0.006233   0.002489   0.358934
     4  C    0.003181  -0.038218  -0.038240   0.000866  -0.000731  -0.062010
     5  C   -0.150811   0.386255  -0.031472   0.000052  -0.000109   0.003079
     6  O    0.344566  -0.074452   0.005004  -0.000004   0.000001  -0.000167
     7  C    4.867171   0.358174  -0.004307   0.000219  -0.000131  -0.000347
     8  C    0.358174   4.927239   0.319878  -0.012606   0.003736   0.008563
     9  C   -0.004307   0.319878   4.927101  -0.017701  -0.019001  -0.045466
    10  H    0.000219  -0.012606  -0.017701   0.648848  -0.058683  -0.000988
    11  H   -0.000131   0.003736  -0.019001  -0.058683   0.655262   0.001400
    12  H   -0.000347   0.008563  -0.045466  -0.000988   0.001400   0.689578
    13  H    0.000500   0.003549   0.004013  -0.000009   0.000019  -0.003826
    14  H   -0.000206   0.004012   0.003546  -0.000038   0.000053   0.004314
    15  H    0.010299  -0.045478   0.008564   0.000024  -0.000002  -0.000266
    16  H    0.351193  -0.017694  -0.012606   0.000014  -0.000001   0.000024
    17  H    0.350644  -0.019016   0.003738  -0.000001   0.000002  -0.000002
    18  H   -0.033199   0.354092  -0.041709   0.005946   0.000052  -0.000177
    19  H   -0.010084  -0.041713   0.354092   0.004232  -0.006023  -0.005878
              13         14         15         16         17         18
     1  C   -0.000206   0.000502  -0.000347   0.000219  -0.000131  -0.010082
     2  O    0.002506   0.000426  -0.000167  -0.000004   0.000001  -0.000171
     3  C   -0.019203  -0.022590   0.003081   0.000051  -0.000109   0.003371
     4  C    0.333864   0.333847  -0.062007   0.000864  -0.000731   0.005646
     5  C   -0.022588  -0.019196   0.358927   0.006236   0.002485  -0.030427
     6  O    0.000421   0.002506  -0.033323  -0.025248  -0.028102   0.006081
     7  C    0.000500  -0.000206   0.010299   0.351193   0.350644  -0.033199
     8  C    0.003549   0.004012  -0.045478  -0.017694  -0.019016   0.354092
     9  C    0.004013   0.003546   0.008564  -0.012606   0.003738  -0.041709
    10  H   -0.000009  -0.000038   0.000024   0.000014  -0.000001   0.005946
    11  H    0.000019   0.000053  -0.000002  -0.000001   0.000002   0.000052
    12  H   -0.003826   0.004314  -0.000266   0.000024  -0.000002  -0.000177
    13  H    0.610322  -0.029740   0.004311  -0.000038   0.000053  -0.000168
    14  H   -0.029740   0.610328  -0.003823  -0.000009   0.000019  -0.000066
    15  H    0.004311  -0.003823   0.689599  -0.000988   0.001403  -0.005875
    16  H   -0.000038  -0.000009  -0.000988   0.648820  -0.058681   0.004230
    17  H    0.000053   0.000019   0.001403  -0.058681   0.655285  -0.006019
    18  H   -0.000168  -0.000066  -0.005875   0.004230  -0.006019   0.664815
    19  H   -0.000066  -0.000168  -0.000177   0.005947   0.000052   0.003985
              19
     1  C   -0.033198
     2  O    0.006081
     3  C   -0.030426
     4  C    0.005649
     5  C    0.003370
     6  O   -0.000171
     7  C   -0.010084
     8  C   -0.041713
     9  C    0.354092
    10  H    0.004232
    11  H   -0.006023
    12  H   -0.005878
    13  H   -0.000066
    14  H   -0.000168
    15  H   -0.000177
    16  H    0.005947
    17  H    0.000052
    18  H    0.003985
    19  H    0.664818
 Mulliken charges:
               1
     1  C   -0.091758
     2  O   -0.292030
     3  C    0.129301
     4  C   -0.258038
     5  C    0.129306
     6  O   -0.292038
     7  C   -0.091746
     8  C   -0.085513
     9  C   -0.085470
    10  H    0.097664
    11  H    0.099120
    12  H    0.076253
    13  H    0.116287
    14  H    0.116285
    15  H    0.076243
    16  H    0.097671
    17  H    0.099111
    18  H    0.079673
    19  H    0.079678
 Sum of Mulliken charges =   0.00000
 Mulliken charges with hydrogens summed into heavy atoms:
               1
     1  C    0.105026
     2  O   -0.292030
     3  C    0.205554
     4  C   -0.025466
     5  C    0.205549
     6  O   -0.292038
     7  C    0.105036
     8  C   -0.005839
     9  C   -0.005793
 Electronic spatial extent (au):  <R**2>=           1048.6737
 Charge=              0.0000 electrons
 Dipole moment (field-independent basis, Debye):
    X=              0.0004    Y=             -1.8132    Z=              0.0007  Tot=              1.8132
 Quadrupole moment (field-independent basis, Debye-Ang):
   XX=            -61.7470   YY=            -50.8096   ZZ=            -50.8624
   XY=              0.0000   XZ=              1.8263   YZ=              0.0007
 Traceless Quadrupole moment (field-independent basis, Debye-Ang):
   XX=             -7.2740   YY=              3.6634   ZZ=              3.6106
   XY=              0.0000   XZ=              1.8263   YZ=              0.0007
 Octapole moment (field-independent basis, Debye-Ang**2):
  XXX=              0.0066  YYY=              5.2306  ZZZ=             -0.0020  XYY=             -0.0011
  XXY=            -15.0679  XXZ=              0.0039  XZZ=             -0.0011  YZZ=              0.8924
  YYZ=             -0.0014  XYZ=              2.3229
 Hexadecapole moment (field-independent basis, Debye-Ang**3):
 XXXX=           -872.1003 YYYY=           -363.4822 ZZZZ=           -152.9962 XXXY=              0.0035
 XXXZ=              4.5833 YYYX=              0.0033 YYYZ=             -0.0015 ZZZX=             -1.4323
 ZZZY=             -0.0001 XXYY=           -192.8660 XXZZ=           -157.0782 YYZZ=            -82.6761
 XXYZ=              0.0036 YYXZ=              0.5115 ZZXY=             -0.0017
 N-N= 4.795498027868D+02 E-N=-1.946049369610D+03  KE= 4.200583346831D+02
 Calling FoFJK, ICntrl=      2127 FMM=F ISym2X=0 I1Cent= 0 IOpClX= 0 NMat=1 NMatS=1 NMatT=0.
 ***** Axes restored to original set *****
 -------------------------------------------------------------------
 Center     Atomic                   Forces (Hartrees/Bohr)
 Number     Number              X              Y              Z
 -------------------------------------------------------------------
      1        6           0.000019360    0.000042048   -0.000041280
      2        8           0.000027672   -0.000109008    0.000061197
      3        6          -0.000020477    0.000151767   -0.000067170
      4        6          -0.000023323   -0.000000092    0.000013064
      5        6           0.000041538   -0.000150988    0.000055800
      6        8          -0.000033325    0.000109578   -0.000057006
      7        6           0.000044321   -0.000043441    0.000006269
      8        6          -0.000046581    0.000083191    0.000014433
      9        6          -0.000039438   -0.000081936    0.000033156
     10        1           0.000007677   -0.000008423    0.000003111
     11        1           0.000007915   -0.000004864    0.000005905
     12        1           0.000008562   -0.000000773    0.000001933
     13        1           0.000010856    0.000011288    0.000011355
     14        1          -0.000005295   -0.000011333   -0.000014827
     15        1           0.000002300    0.000000081   -0.000008393
     16        1           0.000001550    0.000007586   -0.000008626
     17        1          -0.000001209    0.000004802   -0.000010470
     18        1          -0.000001800   -0.000003485   -0.000000098
     19        1          -0.000000302    0.000004001    0.000001646
 -------------------------------------------------------------------
 Cartesian Forces:  Max     0.000151767 RMS     0.000045296

 GradGradGradGradGradGradGradGradGradGradGradGradGradGradGradGradGradGrad
 Berny optimization.
 FormGI is forming the generalized inverse of G from B-inverse, IUseBI=4.
 Internal  Forces:  Max     0.000108319 RMS     0.000016533
 Search for a local minimum.
 Step number   1 out of a maximum of  114
 All quantities printed in internal units (Hartrees-Bohrs-Radians)
 Mixed Optimization -- En-DIIS/RFO-DIIS
 Second derivative matrix not updated -- first step.
 ITU=  0
     Eigenvalues ---    0.00376   0.00437   0.01358   0.01772   0.02525
     Eigenvalues ---    0.02700   0.03498   0.03658   0.03864   0.04981
     Eigenvalues ---    0.05053   0.05186   0.05415   0.05426   0.05632
     Eigenvalues ---    0.05691   0.06653   0.07248   0.07276   0.07659
     Eigenvalues ---    0.08058   0.08642   0.09236   0.09462   0.09903
     Eigenvalues ---    0.10021   0.10606   0.10732   0.16045   0.17835
     Eigenvalues ---    0.19885   0.21622   0.26391   0.27089   0.27099
     Eigenvalues ---    0.28296   0.29205   0.33911   0.33911   0.33939
     Eigenvalues ---    0.33939   0.34195   0.34195   0.34374   0.34374
     Eigenvalues ---    0.34620   0.34620   0.35549   0.35855   0.35952
     Eigenvalues ---    0.36265
 RFO step:  Lambda=-1.62458183D-07 EMin= 3.75740462D-03
 Linear search not attempted -- first point.
 Iteration  1 RMS(Cart)=  0.00012600 RMS(Int)=  0.00000001
 Iteration  2 RMS(Cart)=  0.00000001 RMS(Int)=  0.00000000
 Variable       Old X    -DE/DX   Delta X   Delta X   Delta X     New X
                                 (Linear)    (Quad)   (Total)
    R1        2.72277   0.00002   0.00000   0.00007   0.00007   2.72283
    R2        2.91266  -0.00001   0.00000  -0.00010  -0.00010   2.91257
    R3        2.07481   0.00001   0.00000   0.00003   0.00003   2.07483
    R4        2.07432   0.00000   0.00000   0.00000   0.00000   2.07432
    R5        2.73920   0.00011   0.00000   0.00034   0.00034   2.73953
    R6        2.90137  -0.00001   0.00000  -0.00001  -0.00001   2.90137
    R7        2.94460  -0.00003   0.00000  -0.00014  -0.00014   2.94446
    R8        2.07002  -0.00001   0.00000  -0.00002  -0.00002   2.06999
    R9        2.90133  -0.00001   0.00000  -0.00001  -0.00001   2.90132
   R10        2.06704  -0.00001   0.00000  -0.00002  -0.00002   2.06702
   R11        2.06704  -0.00001   0.00000  -0.00002  -0.00002   2.06702
   R12        2.73920   0.00011   0.00000   0.00034   0.00034   2.73954
   R13        2.94461  -0.00003   0.00000  -0.00014  -0.00014   2.94446
   R14        2.07002  -0.00001   0.00000  -0.00002  -0.00002   2.07000
   R15        2.72277   0.00002   0.00000   0.00007   0.00007   2.72283
   R16        2.91265  -0.00001   0.00000  -0.00010  -0.00010   2.91256
   R17        2.07480   0.00001   0.00000   0.00003   0.00003   2.07483
   R18        2.07433   0.00000   0.00000   0.00000   0.00000   2.07433
   R19        2.89173   0.00002   0.00000   0.00004   0.00004   2.89176
   R20        2.06296   0.00000   0.00000   0.00000   0.00000   2.06296
   R21        2.06296   0.00000   0.00000   0.00000   0.00000   2.06296
    A1        1.60734   0.00001   0.00000  -0.00003  -0.00003   1.60730
    A2        1.95797  -0.00001   0.00000  -0.00001  -0.00001   1.95796
    A3        1.95119   0.00000   0.00000   0.00002   0.00002   1.95121
    A4        2.02915   0.00000   0.00000   0.00005   0.00005   2.02920
    A5        2.00469   0.00000   0.00000   0.00007   0.00007   2.00476
    A6        1.89938  -0.00001   0.00000  -0.00008  -0.00008   1.89930
    A7        1.60674  -0.00003   0.00000  -0.00002  -0.00002   1.60671
    A8        1.96248  -0.00001   0.00000  -0.00003  -0.00003   1.96245
    A9        1.58956  -0.00001   0.00000  -0.00011  -0.00011   1.58944
   A10        1.93357   0.00000   0.00000  -0.00001  -0.00001   1.93357
   A11        1.90838   0.00002   0.00000   0.00008   0.00008   1.90846
   A12        1.98440   0.00000   0.00000   0.00005   0.00005   1.98446
   A13        2.05065  -0.00001   0.00000  -0.00002  -0.00002   2.05063
   A14        1.85893  -0.00002   0.00000  -0.00010  -0.00010   1.85883
   A15        1.95982   0.00002   0.00000   0.00015   0.00015   1.95997
   A16        1.89830   0.00000   0.00000  -0.00011  -0.00011   1.89819
   A17        1.89833   0.00000   0.00000  -0.00011  -0.00011   1.89822
   A18        1.95978   0.00002   0.00000   0.00016   0.00016   1.95994
   A19        1.88978   0.00000   0.00000   0.00001   0.00001   1.88979
   A20        1.96246  -0.00001   0.00000  -0.00003  -0.00003   1.96243
   A21        1.90843   0.00002   0.00000   0.00008   0.00008   1.90851
   A22        1.98442   0.00000   0.00000   0.00005   0.00005   1.98447
   A23        1.58953  -0.00001   0.00000  -0.00011  -0.00011   1.58942
   A24        1.93358   0.00000   0.00000  -0.00001  -0.00001   1.93357
   A25        2.05063  -0.00001   0.00000  -0.00002  -0.00002   2.05061
   A26        1.60672  -0.00003   0.00000  -0.00002  -0.00002   1.60670
   A27        1.60732   0.00001   0.00000  -0.00003  -0.00003   1.60729
   A28        1.95797  -0.00001   0.00000  -0.00001  -0.00001   1.95796
   A29        1.95118   0.00000   0.00000   0.00002   0.00002   1.95120
   A30        2.02920   0.00000   0.00000   0.00004   0.00004   2.02924
   A31        2.00465   0.00000   0.00000   0.00007   0.00007   2.00473
   A32        1.89939  -0.00001   0.00000  -0.00008  -0.00008   1.89931
   A33        1.47142   0.00003   0.00000   0.00019   0.00019   1.47161
   A34        1.87317  -0.00001   0.00000  -0.00002  -0.00002   1.87316
   A35        2.04922   0.00000   0.00000  -0.00004  -0.00004   2.04918
   A36        2.03280   0.00000   0.00000   0.00000   0.00000   2.03280
   A37        2.01402  -0.00001   0.00000  -0.00001  -0.00001   2.01401
   A38        1.96949   0.00000   0.00000  -0.00007  -0.00007   1.96942
   A39        1.47143   0.00003   0.00000   0.00019   0.00019   1.47162
   A40        2.03287   0.00000   0.00000   0.00000   0.00000   2.03287
   A41        2.01396  -0.00001   0.00000  -0.00001  -0.00001   2.01395
   A42        1.87324  -0.00001   0.00000  -0.00002  -0.00002   1.87322
   A43        2.04916   0.00000   0.00000  -0.00003  -0.00003   2.04913
   A44        1.96948   0.00000   0.00000  -0.00007  -0.00007   1.96941
    D1        0.09367  -0.00001   0.00000  -0.00012  -0.00012   0.09355
    D2        2.18008   0.00000   0.00000  -0.00008  -0.00008   2.17999
    D3       -1.96381  -0.00001   0.00000  -0.00018  -0.00018  -1.96399
    D4       -0.08749   0.00000   0.00000   0.00009   0.00009  -0.08740
    D5        1.77205   0.00001   0.00000   0.00016   0.00016   1.77221
    D6       -2.14165  -0.00001   0.00000   0.00004   0.00004  -2.14161
    D7       -2.11316   0.00000   0.00000   0.00011   0.00011  -2.11305
    D8       -0.25362   0.00000   0.00000   0.00018   0.00018  -0.25344
    D9        2.11587  -0.00001   0.00000   0.00006   0.00006   2.11593
   D10        1.92382   0.00000   0.00000   0.00012   0.00012   1.92394
   D11       -2.49982   0.00001   0.00000   0.00019   0.00019  -2.49963
   D12       -0.13033   0.00000   0.00000   0.00007   0.00007  -0.13026
   D13       -2.03828  -0.00001   0.00000   0.00008   0.00008  -2.03820
   D14       -0.09260   0.00001   0.00000   0.00011   0.00011  -0.09249
   D15        2.00294  -0.00001   0.00000   0.00004   0.00004   2.00298
   D16        1.71664   0.00000   0.00000  -0.00004  -0.00004   1.71661
   D17       -2.49038  -0.00001   0.00000  -0.00014  -0.00014  -2.49052
   D18       -0.39920  -0.00001   0.00000  -0.00011  -0.00011  -0.39930
   D19       -0.02142   0.00001   0.00000   0.00007   0.00007  -0.02136
   D20        2.05474   0.00000   0.00000  -0.00004  -0.00004   2.05470
   D21       -2.13726   0.00000   0.00000   0.00000   0.00000  -2.13726
   D22       -2.35150   0.00000   0.00000  -0.00003  -0.00003  -2.35153
   D23       -0.27534  -0.00001   0.00000  -0.00013  -0.00013  -0.27547
   D24        1.81585  -0.00001   0.00000  -0.00010  -0.00010   1.81575
   D25        0.08693   0.00000   0.00000  -0.00010  -0.00010   0.08682
   D26       -1.93748  -0.00001   0.00000  -0.00016  -0.00016  -1.93764
   D27        2.10633   0.00000   0.00000  -0.00002  -0.00002   2.10632
   D28        2.08153  -0.00001   0.00000  -0.00016  -0.00016   2.08137
   D29        0.05713  -0.00002   0.00000  -0.00022  -0.00022   0.05691
   D30       -2.18224  -0.00001   0.00000  -0.00008  -0.00008  -2.18232
   D31       -1.90620   0.00000   0.00000  -0.00002  -0.00002  -1.90623
   D32        2.35258   0.00000   0.00000  -0.00008  -0.00008   2.35250
   D33        0.11320   0.00001   0.00000   0.00006   0.00006   0.11327
   D34        1.71606   0.00000   0.00000   0.00000   0.00000   1.71606
   D35       -0.02199   0.00001   0.00000   0.00010   0.00010  -0.02189
   D36       -2.35209   0.00000   0.00000   0.00001   0.00001  -2.35208
   D37       -0.39984  -0.00001   0.00000  -0.00006  -0.00006  -0.39990
   D38       -2.13789   0.00000   0.00000   0.00004   0.00004  -2.13786
   D39        1.81520  -0.00001   0.00000  -0.00006  -0.00006   1.81514
   D40       -2.49102  -0.00001   0.00000  -0.00010  -0.00010  -2.49112
   D41        2.05412   0.00000   0.00000   0.00000   0.00000   2.05411
   D42       -0.27598  -0.00001   0.00000  -0.00009  -0.00009  -0.27608
   D43       -2.03864  -0.00001   0.00000   0.00011   0.00011  -2.03853
   D44       -0.09292   0.00001   0.00000   0.00014   0.00014  -0.09279
   D45        2.00259  -0.00001   0.00000   0.00006   0.00006   2.00266
   D46        2.08181  -0.00001   0.00000  -0.00018  -0.00018   2.08163
   D47        0.05748  -0.00002   0.00000  -0.00024  -0.00024   0.05724
   D48       -2.18189  -0.00001   0.00000  -0.00010  -0.00010  -2.18199
   D49        0.08722   0.00000   0.00000  -0.00012  -0.00012   0.08710
   D50       -1.93710  -0.00001   0.00000  -0.00018  -0.00018  -1.93728
   D51        2.10671   0.00000   0.00000  -0.00004  -0.00004   2.10667
   D52       -1.90589   0.00000   0.00000  -0.00005  -0.00005  -1.90593
   D53        2.35297   0.00000   0.00000  -0.00010  -0.00010   2.35287
   D54        0.11360   0.00001   0.00000   0.00003   0.00003   0.11363
   D55        0.09399  -0.00001   0.00000  -0.00014  -0.00014   0.09385
   D56        2.18044   0.00000   0.00000  -0.00011  -0.00011   2.18033
   D57       -1.96343  -0.00001   0.00000  -0.00021  -0.00021  -1.96364
   D58       -0.08779   0.00000   0.00000   0.00012   0.00012  -0.08768
   D59        1.77166   0.00001   0.00000   0.00019   0.00019   1.77185
   D60       -2.14202  -0.00001   0.00000   0.00007   0.00007  -2.14195
   D61       -2.11347   0.00000   0.00000   0.00013   0.00013  -2.11333
   D62       -0.25401   0.00000   0.00000   0.00021   0.00021  -0.25380
   D63        2.11549  -0.00001   0.00000   0.00009   0.00009   2.11558
   D64        1.92350   0.00000   0.00000   0.00014   0.00014   1.92365
   D65       -2.50023   0.00001   0.00000   0.00022   0.00022  -2.50001
   D66       -0.13072   0.00000   0.00000   0.00009   0.00009  -0.13063
   D67       -1.67912  -0.00001   0.00000   0.00007   0.00007  -1.67905
   D68       -0.06901   0.00002   0.00000   0.00028   0.00028  -0.06873
   D69        2.21555   0.00001   0.00000   0.00016   0.00016   2.21571
   D70        2.99403  -0.00003   0.00000  -0.00014  -0.00014   2.99389
   D71       -1.67905  -0.00001   0.00000   0.00007   0.00007  -1.67898
   D72        0.60551  -0.00002   0.00000  -0.00005  -0.00005   0.60546
   D73        0.60547  -0.00002   0.00000  -0.00005  -0.00005   0.60543
   D74        2.21558   0.00001   0.00000   0.00016   0.00016   2.21574
   D75       -1.78305   0.00000   0.00000   0.00005   0.00005  -1.78300
         Item               Value     Threshold  Converged?
 Maximum Force            0.000108     0.000450     YES
 RMS     Force            0.000017     0.000300     YES
 Maximum Displacement     0.000542     0.001800     YES
 RMS     Displacement     0.000126     0.001200     YES
 Predicted change in Energy=-8.123031D-08
 Optimization completed.
    -- Stationary point found.
                           ----------------------------
                           !   Optimized Parameters   !
                           ! (Angstroms and Degrees)  !
 --------------------------                            --------------------------
 ! Name  Definition              Value          Derivative Info.                !
 --------------------------------------------------------------------------------
 ! R1    R(1,2)                  1.4408         -DE/DX =    0.0                 !
 ! R2    R(1,9)                  1.5413         -DE/DX =    0.0                 !
 ! R3    R(1,10)                 1.0979         -DE/DX =    0.0                 !
 ! R4    R(1,11)                 1.0977         -DE/DX =    0.0                 !
 ! R5    R(2,3)                  1.4495         -DE/DX =    0.0001              !
 ! R6    R(3,4)                  1.5353         -DE/DX =    0.0                 !
 ! R7    R(3,9)                  1.5582         -DE/DX =    0.0                 !
 ! R8    R(3,12)                 1.0954         -DE/DX =    0.0                 !
 ! R9    R(4,5)                  1.5353         -DE/DX =    0.0                 !
 ! R10   R(4,13)                 1.0938         -DE/DX =    0.0                 !
 ! R11   R(4,14)                 1.0938         -DE/DX =    0.0                 !
 ! R12   R(5,6)                  1.4495         -DE/DX =    0.0001              !
 ! R13   R(5,8)                  1.5582         -DE/DX =    0.0                 !
 ! R14   R(5,15)                 1.0954         -DE/DX =    0.0                 !
 ! R15   R(6,7)                  1.4408         -DE/DX =    0.0                 !
 ! R16   R(7,8)                  1.5413         -DE/DX =    0.0                 !
 ! R17   R(7,16)                 1.0979         -DE/DX =    0.0                 !
 ! R18   R(7,17)                 1.0977         -DE/DX =    0.0                 !
 ! R19   R(8,9)                  1.5302         -DE/DX =    0.0                 !
 ! R20   R(8,18)                 1.0917         -DE/DX =    0.0                 !
 ! R21   R(9,19)                 1.0917         -DE/DX =    0.0                 !
 ! A1    A(2,1,9)               92.0935         -DE/DX =    0.0                 !
 ! A2    A(2,1,10)             112.1833         -DE/DX =    0.0                 !
 ! A3    A(2,1,11)             111.7947         -DE/DX =    0.0                 !
 ! A4    A(9,1,10)             116.2617         -DE/DX =    0.0                 !
 ! A5    A(9,1,11)             114.8605         -DE/DX =    0.0                 !
 ! A6    A(10,1,11)            108.8265         -DE/DX =    0.0                 !
 ! A7    A(1,2,3)               92.0592         -DE/DX =    0.0                 !
 ! A8    A(2,3,4)              112.4418         -DE/DX =    0.0                 !
 ! A9    A(2,3,9)               91.0748         -DE/DX =    0.0                 !
 ! A10   A(2,3,12)             110.7857         -DE/DX =    0.0                 !
 ! A11   A(4,3,9)              109.3424         -DE/DX =    0.0                 !
 ! A12   A(4,3,12)             113.698          -DE/DX =    0.0                 !
 ! A13   A(9,3,12)             117.4938         -DE/DX =    0.0                 !
 ! A14   A(3,4,5)              106.509          -DE/DX =    0.0                 !
 ! A15   A(3,4,13)             112.2894         -DE/DX =    0.0                 !
 ! A16   A(3,4,14)             108.7647         -DE/DX =    0.0                 !
 ! A17   A(5,4,13)             108.7662         -DE/DX =    0.0                 !
 ! A18   A(5,4,14)             112.2872         -DE/DX =    0.0                 !
 ! A19   A(13,4,14)            108.2764         -DE/DX =    0.0                 !
 ! A20   A(4,5,6)              112.4406         -DE/DX =    0.0                 !
 ! A21   A(4,5,8)              109.3451         -DE/DX =    0.0                 !
 ! A22   A(4,5,15)             113.6987         -DE/DX =    0.0                 !
 ! A23   A(6,5,8)               91.0734         -DE/DX =    0.0                 !
 ! A24   A(6,5,15)             110.7857         -DE/DX =    0.0                 !
 ! A25   A(8,5,15)             117.4924         -DE/DX =    0.0                 !
 ! A26   A(5,6,7)               92.0585         -DE/DX =    0.0                 !
 ! A27   A(6,7,8)               92.0926         -DE/DX =    0.0                 !
 ! A28   A(6,7,16)             112.1833         -DE/DX =    0.0                 !
 ! A29   A(6,7,17)             111.7945         -DE/DX =    0.0                 !
 ! A30   A(8,7,16)             116.2645         -DE/DX =    0.0                 !
 ! A31   A(8,7,17)             114.8582         -DE/DX =    0.0                 !
 ! A32   A(16,7,17)            108.8269         -DE/DX =    0.0                 !
 ! A33   A(5,8,7)               84.3064         -DE/DX =    0.0                 !
 ! A34   A(5,8,9)              107.3248         -DE/DX =    0.0                 !
 ! A35   A(5,8,18)             117.4115         -DE/DX =    0.0                 !
 ! A36   A(7,8,9)              116.4708         -DE/DX =    0.0                 !
 ! A37   A(7,8,18)             115.395          -DE/DX =    0.0                 !
 ! A38   A(9,8,18)             112.8433         -DE/DX =    0.0                 !
 ! A39   A(1,9,3)               84.3067         -DE/DX =    0.0                 !
 ! A40   A(1,9,8)              116.475          -DE/DX =    0.0                 !
 ! A41   A(1,9,19)             115.3913         -DE/DX =    0.0                 !
 ! A42   A(3,9,8)              107.3289         -DE/DX =    0.0                 !
 ! A43   A(3,9,19)             117.4081         -DE/DX =    0.0                 !
 ! A44   A(8,9,19)             112.8426         -DE/DX =    0.0                 !
 ! D1    D(9,1,2,3)              5.3668         -DE/DX =    0.0                 !
 ! D2    D(10,1,2,3)           124.9092         -DE/DX =    0.0                 !
 ! D3    D(11,1,2,3)          -112.5179         -DE/DX =    0.0                 !
 ! D4    D(2,1,9,3)             -5.0131         -DE/DX =    0.0                 !
 ! D5    D(2,1,9,8)            101.5309         -DE/DX =    0.0                 !
 ! D6    D(2,1,9,19)          -122.7073         -DE/DX =    0.0                 !
 ! D7    D(10,1,9,3)          -121.0753         -DE/DX =    0.0                 !
 ! D8    D(10,1,9,8)           -14.5313         -DE/DX =    0.0                 !
 ! D9    D(10,1,9,19)          121.2305         -DE/DX =    0.0                 !
 ! D10   D(11,1,9,3)           110.227          -DE/DX =    0.0                 !
 ! D11   D(11,1,9,8)          -143.2291         -DE/DX =    0.0                 !
 ! D12   D(11,1,9,19)           -7.4672         -DE/DX =    0.0                 !
 ! D13   D(1,2,3,4)           -116.7851         -DE/DX =    0.0                 !
 ! D14   D(1,2,3,9)             -5.3059         -DE/DX =    0.0                 !
 ! D15   D(1,2,3,12)           114.7603         -DE/DX =    0.0                 !
 ! D16   D(2,3,4,5)             98.3564         -DE/DX =    0.0                 !
 ! D17   D(2,3,4,13)          -142.6882         -DE/DX =    0.0                 !
 ! D18   D(2,3,4,14)           -22.8722         -DE/DX =    0.0                 !
 ! D19   D(9,3,4,5)             -1.2275         -DE/DX =    0.0                 !
 ! D20   D(9,3,4,13)           117.7279         -DE/DX =    0.0                 !
 ! D21   D(9,3,4,14)          -122.4561         -DE/DX =    0.0                 !
 ! D22   D(12,3,4,5)          -134.731          -DE/DX =    0.0                 !
 ! D23   D(12,3,4,13)          -15.7756         -DE/DX =    0.0                 !
 ! D24   D(12,3,4,14)          104.0403         -DE/DX =    0.0                 !
 ! D25   D(2,3,9,1)              4.9804         -DE/DX =    0.0                 !
 ! D26   D(2,3,9,8)           -111.0094         -DE/DX =    0.0                 !
 ! D27   D(2,3,9,19)           120.684          -DE/DX =    0.0                 !
 ! D28   D(4,3,9,1)            119.2631         -DE/DX =    0.0                 !
 ! D29   D(4,3,9,8)              3.2733         -DE/DX =    0.0                 !
 ! D30   D(4,3,9,19)          -125.0334         -DE/DX =    0.0                 !
 ! D31   D(12,3,9,1)          -109.2174         -DE/DX =    0.0                 !
 ! D32   D(12,3,9,8)           134.7927         -DE/DX =    0.0                 !
 ! D33   D(12,3,9,19)            6.4861         -DE/DX =    0.0                 !
 ! D34   D(3,4,5,6)             98.323          -DE/DX =    0.0                 !
 ! D35   D(3,4,5,8)             -1.2601         -DE/DX =    0.0                 !
 ! D36   D(3,4,5,15)          -134.7648         -DE/DX =    0.0                 !
 ! D37   D(13,4,5,6)           -22.9092         -DE/DX =    0.0                 !
 ! D38   D(13,4,5,8)          -122.4922         -DE/DX =    0.0                 !
 ! D39   D(13,4,5,15)          104.003          -DE/DX =    0.0                 !
 ! D40   D(14,4,5,6)          -142.7248         -DE/DX =    0.0                 !
 ! D41   D(14,4,5,8)           117.6922         -DE/DX =    0.0                 !
 ! D42   D(14,4,5,15)          -15.8126         -DE/DX =    0.0                 !
 ! D43   D(4,5,6,7)           -116.8054         -DE/DX =    0.0                 !
 ! D44   D(8,5,6,7)             -5.324          -DE/DX =    0.0                 !
 ! D45   D(15,5,6,7)           114.74           -DE/DX =    0.0                 !
 ! D46   D(4,5,8,7)            119.2788         -DE/DX =    0.0                 !
 ! D47   D(4,5,8,9)              3.2936         -DE/DX =    0.0                 !
 ! D48   D(4,5,8,18)          -125.0131         -DE/DX =    0.0                 !
 ! D49   D(6,5,8,7)              4.9975         -DE/DX =    0.0                 !
 ! D50   D(6,5,8,9)           -110.9877         -DE/DX =    0.0                 !
 ! D51   D(6,5,8,18)           120.7056         -DE/DX =    0.0                 !
 ! D52   D(15,5,8,7)          -109.1993         -DE/DX =    0.0                 !
 ! D53   D(15,5,8,9)           134.8155         -DE/DX =    0.0                 !
 ! D54   D(15,5,8,18)            6.5089         -DE/DX =    0.0                 !
 ! D55   D(5,6,7,8)              5.3852         -DE/DX =    0.0                 !
 ! D56   D(5,6,7,16)           124.9302         -DE/DX =    0.0                 !
 ! D57   D(5,6,7,17)          -112.4964         -DE/DX =    0.0                 !
 ! D58   D(6,7,8,5)             -5.0302         -DE/DX =    0.0                 !
 ! D59   D(6,7,8,9)            101.5088         -DE/DX =    0.0                 !
 ! D60   D(6,7,8,18)          -122.7287         -DE/DX =    0.0                 !
 ! D61   D(16,7,8,5)          -121.0927         -DE/DX =    0.0                 !
 ! D62   D(16,7,8,9)           -14.5537         -DE/DX =    0.0                 !
 ! D63   D(16,7,8,18)          121.2089         -DE/DX =    0.0                 !
 ! D64   D(17,7,8,5)           110.2086         -DE/DX =    0.0                 !
 ! D65   D(17,7,8,9)          -143.2524         -DE/DX =    0.0                 !
 ! D66   D(17,7,8,18)           -7.4899         -DE/DX =    0.0                 !
 ! D67   D(5,8,9,1)            -96.2063         -DE/DX =    0.0                 !
 ! D68   D(5,8,9,3)             -3.9539         -DE/DX =    0.0                 !
 ! D69   D(5,8,9,19)           126.9417         -DE/DX =    0.0                 !
 ! D70   D(7,8,9,1)            171.5452         -DE/DX =    0.0                 !
 ! D71   D(7,8,9,3)            -96.2025         -DE/DX =    0.0                 !
 ! D72   D(7,8,9,19)            34.6931         -DE/DX =    0.0                 !
 ! D73   D(18,8,9,1)            34.6911         -DE/DX =    0.0                 !
 ! D74   D(18,8,9,3)           126.9434         -DE/DX =    0.0                 !
 ! D75   D(18,8,9,19)         -102.161          -DE/DX =    0.0                 !
 --------------------------------------------------------------------------------
 GradGradGradGradGradGradGradGradGradGradGradGradGradGradGradGradGradGrad

                          Input orientation:                          
 ---------------------------------------------------------------------
 Center     Atomic      Atomic             Coordinates (Angstroms)
 Number     Number       Type             X           Y           Z
 ---------------------------------------------------------------------
      1          6           0        1.338715    0.085836   -0.201792
      2          8           0        0.032939   -0.112159    0.374163
      3          6           0       -0.474515    1.105005   -0.227596
      4          6           0       -0.898404    2.144234    0.820064
      5          6           0        0.270148    3.131113    0.953304
      6          8           0        0.066466    4.337962    0.176677
      7          6           0        1.210918    4.059292   -0.653114
      8          6           0        1.430672    2.686904    0.013140
      9          6           0        0.942665    1.464103   -0.766749
     10          1           0        2.131708    0.081688    0.557563
     11          1           0        1.569595   -0.674365   -0.959224
     12          1           0       -1.253440    0.879159   -0.963926
     13          1           0       -1.792883    2.696691    0.518137
     14          1           0       -1.114859    1.628270    1.759954
     15          1           0        0.524675    3.374641    1.990527
     16          1           0        0.955370    4.045692   -1.720812
     17          1           0        2.018126    4.785341   -0.491295
     18          1           0        2.413559    2.537404    0.464061
     19          1           0        1.055660    1.577408   -1.846629
 ---------------------------------------------------------------------
                    Distance matrix (angstroms):
                    1          2          3          4          5
     1  C    0.000000
     2  O    1.440825   0.000000
     3  C    2.080186   1.449521   0.000000
     4  C    3.207164   2.481439   1.535342   0.000000
     5  C    3.427798   3.303102   2.460521   1.535316   0.000000
     6  O    4.454485   4.454627   3.302743   2.481403   1.449524
     7  C    4.001047   4.454653   3.427763   3.207326   2.080178
     8  C    2.611553   3.149405   2.487991   2.523929   1.558219
     9  C    1.541316   2.147996   1.558216   2.523904   2.487927
    10  H    1.097941   2.115666   2.907929   3.674859   3.594581
    11  H    1.097685   2.110760   2.807101   4.147455   4.452862
    12  H    2.815934   2.104274   1.095406   2.215646   3.326918
    13  H    4.140262   3.353206   2.197198   1.093829   2.152717
    14  H    3.499654   2.503388   2.152720   1.093830   2.197149
    15  H    4.035488   3.874559   3.327115   2.215634   1.095409
    16  H    4.258502   4.746317   3.594706   3.675333   2.908072
    17  H    4.757180   5.354950   4.452828   4.147440   2.806914
    18  H    2.758412   3.563091   3.297139   3.354164   2.277292
    19  H    2.238392   2.971954   2.277250   3.354238   3.297067
                    6          7          8          9         10
     6  O    0.000000
     7  C    1.440826   0.000000
     8  C    2.147975   1.541309   0.000000
     9  C    3.149102   2.611489   1.530235   0.000000
    10  H    4.746174   4.258512   2.752272   2.253597   0.000000
    11  H    5.354725   4.757085   3.501845   2.236768   1.785561
    12  H    3.873815   4.035208   3.380394   2.281210   3.796067
    13  H    2.503506   3.500190   3.262887   3.263959   4.716165
    14  H    3.353315   4.140290   3.263709   3.262604   3.791815
    15  H    2.104280   2.815761   2.281200   3.380450   3.934398
    16  H    2.115664   1.097938   2.253621   2.752272   4.721027
    17  H    2.110762   1.097688   2.236737   3.501873   4.820515
    18  H    2.972111   2.238430   1.091671   2.197816   2.473606
    19  H    3.562714   2.758320   2.197807   1.091671   3.029059
                   11         12         13         14         15
    11  H    0.000000
    12  H    3.222264   0.000000
    13  H    4.985265   2.406435   0.000000
    14  H    4.461205   2.828409   1.772950   0.000000
    15  H    5.117356   4.256514   2.828184   2.406459   0.000000
    16  H    4.820397   3.934291   3.792834   4.716515   3.796030
    17  H    5.498047   5.117107   4.461525   4.985059   3.221787
    18  H    3.612959   4.270340   4.209804   3.867246   2.568841
    19  H    2.474287   2.568785   3.867701   4.209653   4.270334
                   16         17         18         19
    16  H    0.000000
    17  H    1.785565   0.000000
    18  H    3.029013   2.474327   0.000000
    19  H    2.473523   3.613047   2.846888   0.000000
 Stoichiometry    C7H10O2
 Framework group  C1[X(C7H10O2)]
 Deg. of freedom    51
 Full point group                 C1      NOp   1
 Largest Abelian subgroup         C1      NOp   1
 Largest concise Abelian subgroup C1      NOp   1
                         Standard orientation:                         
 ---------------------------------------------------------------------
 Center     Atomic      Atomic             Coordinates (Angstroms)
 Number     Number       Type             X           Y           Z
 ---------------------------------------------------------------------
      1          6           0       -1.978359   -0.957782    0.296758
      2          8           0       -2.222023    0.455166    0.154693
      3          6           0       -1.037146    0.630531   -0.661654
      4          6           0       -0.000085    1.549084    0.000189
      5          6           0        1.037226    0.630581    0.661653
      6          8           0        2.221816    0.455286   -0.155132
      7          6           0        1.978430   -0.957761   -0.296703
      8          6           0        0.627381   -0.856061    0.438115
      9          6           0       -0.627252   -0.856072   -0.437965
     10          1           0       -1.936886   -1.267534    1.349283
     11          1           0       -2.740172   -1.556602   -0.218964
     12          1           0       -1.307416    0.932956   -1.679204
     13          1           0        0.509234    2.190132   -0.725148
     14          1           0       -0.509606    2.189637    0.725823
     15          1           0        1.307853    0.933005    1.679112
     16          1           0        1.936966   -1.267879   -1.349117
     17          1           0        2.740389   -1.556250    0.219193
     18          1           0        0.526724   -1.488075    1.322520
     19          1           0       -0.526587   -1.488121   -1.322344
 ---------------------------------------------------------------------
 Rotational constants (GHZ):      3.5955039      1.4590062      1.1950440
 1\1\GINC-ALCHEMY-O\FOpt\RB3LYP\6-31G(2df,p)\C7H10O2\PUCK\27-Jan-2020\0
 \\# b3lyp 6-31G(2df,p) opt Freq\\titel\\0,1\C,1.3387152884,0.085835569
 8,-0.201792107\O,0.0329391797,-0.1121587917,0.3741631913\C,-0.47451473
 08,1.1050046173,-0.2275961652\C,-0.8984041421,2.1442344914,0.820064380
 4\C,0.2701478541,3.1311128226,0.9533037911\O,0.0664656531,4.3379617597
 ,0.1766767265\C,1.2109176205,4.0592916491,-0.6531141483\C,1.4306723363
 ,2.6869043497,0.0131397446\C,0.9426654312,1.4641033024,-0.7667491411\H
 ,2.1317083532,0.0816875205,0.5575625439\H,1.5695950713,-0.6743646844,-
 0.9592235799\H,-1.253440305,0.8791594501,-0.9639263913\H,-1.7928833048
 ,2.6966908842,0.5181367521\H,-1.1148586904,1.628270343,1.7599544821\H,
 0.5246746596,3.3746410504,1.9905265357\H,0.9553700588,4.0456923293,-1.
 7208119349\H,2.0181264312,4.7853412085,-0.4912948194\H,2.4135586494,2.
 5374042522,0.4640611344\H,1.0556596165,1.5774079357,-1.846628955\\Vers
 ion=ES64L-G09RevD.01\State=1-A\HF=-423.1589912\RMSD=4.225e-09\RMSF=4.5
 30e-05\Dipole=0.6185895,-0.0202843,-0.3547348\Quadrupole=2.7559731,-5.
 4861382,2.7301652,0.3295912,0.0378086,1.0467044\PG=C01 [X(C7H10O2)]\\@


 I FIND THAT THE THREE TRULY GREAT TIMES FOR THINKING THOUGHTS
 ARE WHEN I AM STANDING IN THE SHOWER, SITTING ON THE JOHN, OR WALKING.

                                    -- COLIN FLETCHER
 Job cpu time:       0 days  0 hours  6 minutes 41.4 seconds.
 File lengths (MBytes):  RWF=     52 Int=      0 D2E=      0 Chk=      7 Scr=      1
 Normal termination of Gaussian 09 at Mon Jan 27 12:18:58 2020.
 Link1:  Proceeding to internal job step number  2.
 ----------------------------------------------------------------------
 #N Geom=AllCheck Guess=TCheck SCRF=Check GenChk RB3LYP/6-31G(2df,p) Fr
 eq
 ----------------------------------------------------------------------
 1/10=4,29=7,30=1,38=1,40=1/1,3;
 2/12=2,40=1/2;
 3/5=1,6=6,7=104,11=2,14=-4,16=1,25=1,30=1,70=2,71=2,74=-5,116=1,140=1/1,2,3;
 4/5=101/1;
 5/5=2,98=1/2;
 8/6=4,10=90,11=11/1;
 11/6=1,8=1,9=11,15=111,16=1/1,2,10;
 10/6=1/2;
 6/7=2,8=2,9=2,10=2,18=1,28=1/1;
 7/8=1,10=1,25=1/1,2,3,16;
 1/10=4,30=1/3;
 99//99;
 Structure from the checkpoint file:  "/scratch/puck/g09_54a69331-104b-48ac-bd13-783d511fad09/Gau-165632.chk"
 -----
 titel
 -----
 Charge =  0 Multiplicity = 1
 Redundant internal coordinates found in file.
 C,0,1.3387152884,0.0858355698,-0.201792107
 O,0,0.0329391797,-0.1121587917,0.3741631913
 C,0,-0.4745147308,1.1050046173,-0.2275961652
 C,0,-0.8984041421,2.1442344914,0.8200643804
 C,0,0.2701478541,3.1311128226,0.9533037911
 O,0,0.0664656531,4.3379617597,0.1766767265
 C,0,1.2109176205,4.0592916491,-0.6531141483
 C,0,1.4306723363,2.6869043497,0.0131397446
 C,0,0.9426654312,1.4641033024,-0.7667491411
 H,0,2.1317083532,0.0816875205,0.5575625439
 H,0,1.5695950713,-0.6743646844,-0.9592235799
 H,0,-1.253440305,0.8791594501,-0.9639263913
 H,0,-1.7928833048,2.6966908842,0.5181367521
 H,0,-1.1148586904,1.628270343,1.7599544821
 H,0,0.5246746596,3.3746410504,1.9905265357
 H,0,0.9553700588,4.0456923293,-1.7208119349
 H,0,2.0181264312,4.7853412085,-0.4912948194
 H,0,2.4135586494,2.5374042522,0.4640611344
 H,0,1.0556596165,1.5774079357,-1.846628955
 Recover connectivity data from disk.

 GradGradGradGradGradGradGradGradGradGradGradGradGradGradGradGradGradGrad
 Berny optimization.
 Initialization pass.
                           ----------------------------
                           !    Initial Parameters    !
                           ! (Angstroms and Degrees)  !
 --------------------------                            --------------------------
 ! Name  Definition              Value          Derivative Info.                !
 --------------------------------------------------------------------------------
 ! R1    R(1,2)                  1.4408         calculate D2E/DX2 analytically  !
 ! R2    R(1,9)                  1.5413         calculate D2E/DX2 analytically  !
 ! R3    R(1,10)                 1.0979         calculate D2E/DX2 analytically  !
 ! R4    R(1,11)                 1.0977         calculate D2E/DX2 analytically  !
 ! R5    R(2,3)                  1.4495         calculate D2E/DX2 analytically  !
 ! R6    R(3,4)                  1.5353         calculate D2E/DX2 analytically  !
 ! R7    R(3,9)                  1.5582         calculate D2E/DX2 analytically  !
 ! R8    R(3,12)                 1.0954         calculate D2E/DX2 analytically  !
 ! R9    R(4,5)                  1.5353         calculate D2E/DX2 analytically  !
 ! R10   R(4,13)                 1.0938         calculate D2E/DX2 analytically  !
 ! R11   R(4,14)                 1.0938         calculate D2E/DX2 analytically  !
 ! R12   R(5,6)                  1.4495         calculate D2E/DX2 analytically  !
 ! R13   R(5,8)                  1.5582         calculate D2E/DX2 analytically  !
 ! R14   R(5,15)                 1.0954         calculate D2E/DX2 analytically  !
 ! R15   R(6,7)                  1.4408         calculate D2E/DX2 analytically  !
 ! R16   R(7,8)                  1.5413         calculate D2E/DX2 analytically  !
 ! R17   R(7,16)                 1.0979         calculate D2E/DX2 analytically  !
 ! R18   R(7,17)                 1.0977         calculate D2E/DX2 analytically  !
 ! R19   R(8,9)                  1.5302         calculate D2E/DX2 analytically  !
 ! R20   R(8,18)                 1.0917         calculate D2E/DX2 analytically  !
 ! R21   R(9,19)                 1.0917         calculate D2E/DX2 analytically  !
 ! A1    A(2,1,9)               92.0935         calculate D2E/DX2 analytically  !
 ! A2    A(2,1,10)             112.1833         calculate D2E/DX2 analytically  !
 ! A3    A(2,1,11)             111.7947         calculate D2E/DX2 analytically  !
 ! A4    A(9,1,10)             116.2617         calculate D2E/DX2 analytically  !
 ! A5    A(9,1,11)             114.8605         calculate D2E/DX2 analytically  !
 ! A6    A(10,1,11)            108.8265         calculate D2E/DX2 analytically  !
 ! A7    A(1,2,3)               92.0592         calculate D2E/DX2 analytically  !
 ! A8    A(2,3,4)              112.4418         calculate D2E/DX2 analytically  !
 ! A9    A(2,3,9)               91.0748         calculate D2E/DX2 analytically  !
 ! A10   A(2,3,12)             110.7857         calculate D2E/DX2 analytically  !
 ! A11   A(4,3,9)              109.3424         calculate D2E/DX2 analytically  !
 ! A12   A(4,3,12)             113.698          calculate D2E/DX2 analytically  !
 ! A13   A(9,3,12)             117.4938         calculate D2E/DX2 analytically  !
 ! A14   A(3,4,5)              106.509          calculate D2E/DX2 analytically  !
 ! A15   A(3,4,13)             112.2894         calculate D2E/DX2 analytically  !
 ! A16   A(3,4,14)             108.7647         calculate D2E/DX2 analytically  !
[...]
 ,-0.00458375,-0.00036714,0.01902865,-0.02583322,-0.01195467,0.00888170
 ,-0.10888387,-0.03968101,-0.05171686,0.47710998,0.00317910,0.00054650,
 -0.00225172,-0.00398579,0.01110350,0.01265274,0.01599998,-0.04355220,-
 0.12735446,-0.00733503,-0.08679073,0.52640768,0.00107554,0.00145274,-0
 .00095094,-0.00458279,0.00194874,0.00074100,0.00637005,-0.01035605,-0.
 01354082,-0.13318991,-0.03793387,-0.01238177,0.42847099,0.00091496,-0.
 00122678,-0.00142521,-0.00095414,0.00127088,0.00128214,-0.01222015,-0.
 02356277,-0.01694119,-0.04450449,-0.10534676,-0.00728338,0.04866836,0.
 42181935,-0.00033952,-0.00124703,-0.00036449,0.00175213,-0.00126009,0.
 00026056,-0.01473543,-0.01797767,-0.00876073,-0.01201534,-0.01089603,-
 0.07759686,0.01428419,0.04949886,0.61543845,-0.00044020,0.00082250,0.0
 0105350,0.00218421,-0.00069353,-0.00077479,-0.00206497,0.00182036,0.00
 221246,0.00610293,-0.02106872,0.01508791,-0.06458993,0.00382748,-0.003
 03343,0.27175440,-0.00085931,0.00017097,0.00043494,0.00046606,-0.00021
 222,-0.00036749,-0.00180848,0.00130345,0.00083524,-0.00005137,-0.02397
 873,0.01961788,0.03613241,-0.14666372,0.03330647,-0.09011996,0.2846971
 3,0.00054497,-0.00016993,-0.00031068,-0.00142225,0.00031943,0.00090596
 ,0.00326591,-0.00043962,-0.00228248,0.00295308,0.01101888,0.00077723,-
 0.03045864,0.06557897,-0.09357961,-0.10116837,-0.07881585,0.23255104,0
 .00026226,-0.00107483,-0.00257509,-0.00102484,0.00088782,0.00070965,0.
 00038401,-0.00180795,-0.00116595,-0.00292975,0.00052511,-0.00193121,-0
 .01566009,-0.01310905,0.03591405,-0.14926322,0.00884154,0.07211595,0.4
 7187517,-0.00153122,0.00028879,-0.00205326,-0.00049779,0.00015649,0.00
 059304,-0.00190537,-0.00102608,0.00072082,0.00007822,-0.00464116,0.001
 13168,-0.01873376,-0.01485993,0.03839380,0.04098557,-0.06675641,-0.035
 52383,0.10295912,0.48075621,-0.00239561,-0.00232095,-0.00247310,0.0001
 8287,-0.00052915,0.00028716,-0.00057913,0.00013775,0.00012442,0.001896
 61,-0.00182915,-0.00019275,0.04157356,0.03541532,-0.05691721,0.0449869
 5,-0.00300201,-0.10329124,0.04039937,-0.02457298,0.58220600,0.00349792
 ,0.00710623,0.00983364,0.00125074,-0.00142671,0.00174213,-0.01974125,-
 0.02257858,-0.01166511,-0.02572030,-0.00113179,0.00875127,-0.11249290,
 0.01605926,0.02302141,-0.04133604,0.05460727,0.01842667,-0.05945375,-0
 .00344708,-0.02447108,0.59149781,-0.00818388,-0.02365993,-0.01375532,-
 0.00179362,0.00071850,0.00138612,-0.01402790,-0.00886294,0.00050770,-0
 .01163021,0.00800163,0.00025873,0.00324819,-0.04698054,-0.02075179,0.0
 4781404,-0.05766625,0.00936641,0.00999290,-0.15205570,0.03686352,-0.04
 281836,0.48500265,0.00423871,0.00603146,0.00941222,0.00056307,0.000481
 58,-0.00434844,-0.00822724,-0.00317619,0.00382793,0.00752597,0.0027570
 4,0.00128515,0.04062378,-0.03567430,-0.09323507,0.01527927,0.00867433,
 -0.00793378,-0.03554450,0.05037288,-0.08454438,0.09305062,0.00313996,0
 .40261227,-0.04872264,0.03925197,-0.03096020,-0.03294254,-0.02058287,0
 .02410968,-0.12853661,-0.03391789,0.03339886,-0.01215255,0.00437254,0.
 01451521,0.00726507,0.00801443,0.00625798,-0.00375748,0.00128025,-0.00
 253595,0.00142234,0.00045419,0.00252976,-0.08442022,-0.02190929,-0.021
 07960,0.37226908,0.02111857,-0.15384313,0.03047852,-0.01646776,-0.0530
 9986,0.04589693,-0.01506943,-0.04469784,-0.01026994,0.00754224,0.00717
 015,-0.01118984,0.00677573,-0.01059181,-0.01253891,0.00228224,0.000504
 18,-0.00071676,-0.00873810,-0.02342681,-0.01315741,-0.02570278,-0.1355
 7365,-0.03670869,0.02880344,0.48052633,-0.01962186,0.02514201,-0.09348
 325,0.02740368,0.05123822,-0.02088852,0.01545691,-0.00585560,-0.079479
 51,0.01617084,-0.00094205,-0.01145375,0.00240281,-0.02160004,-0.021455
 50,-0.00139269,-0.00091547,0.00087905,0.00953146,0.00971676,0.01124998
 ,-0.02084598,-0.03889414,-0.10594388,-0.03894226,-0.02943025,0.6263175
 6,-0.16422255,-0.00211420,-0.12146834,-0.03142576,0.00251905,-0.011180
 11,-0.00236047,-0.00443667,0.00001743,-0.00027019,0.00017212,-0.000453
 60,-0.00048939,-0.00015176,0.00005983,0.00028878,-0.00007075,-0.000009
 52,0.00021370,0.00010844,0.00019971,0.00081702,-0.00073820,-0.00021274
 ,-0.00020687,0.00173861,-0.00244066,0.19222034,-0.00006901,-0.05329962
 ,-0.00126276,-0.00493629,0.00421028,-0.00213135,0.00077509,-0.00352909
 ,0.00019636,0.00023356,0.00012288,-0.00004481,0.00020598,-0.00012931,-
 0.00007517,-0.00015165,0.00014745,-0.00003573,-0.00008461,0.00003860,0
 .00014122,0.00073540,0.00271813,0.00135875,0.01698372,0.00115290,0.018
 86397,-0.00084731,0.04931189,-0.12612241,-0.00084796,-0.18385325,0.013
 54475,-0.00041687,0.01619294,0.00145105,0.00185891,-0.00082537,0.00003
 026,-0.00030505,0.00007141,0.00024816,0.00013303,0.00016861,0.00013766
 ,-0.00006921,-0.00008903,0.00016710,-0.00000825,-0.00001832,-0.0002179
 1,-0.00188355,0.00083871,-0.00642230,-0.00231369,-0.00683240,0.1338921
 3,0.00227029,0.18795512,-0.05466364,0.02697845,0.02328643,-0.01927427,
 0.02113015,0.02543898,-0.00003537,-0.00343872,0.00371957,-0.00045334,0
 .00154006,-0.00040788,-0.00045300,-0.00002841,0.00012737,0.00025315,0.
 00016787,-0.00024677,-0.00007013,0.00006305,0.00019206,-0.00086020,-0.
 00078082,-0.00004717,0.00071931,0.00377336,0.00100884,0.00643158,-0.01
 458200,-0.01602678,0.06732078,0.02996719,-0.17591736,-0.12171040,0.001
 38893,0.01178613,0.00507040,-0.00012312,-0.00071864,0.00135014,0.00012
 247,0.00044093,-0.00033372,-0.00031783,0.00004878,0.00008495,0.0004398
 6,-0.00020804,-0.00005795,-0.00067408,-0.00018457,-0.00098020,0.002720
 03,-0.00281407,0.00277402,0.00134678,-0.01664440,-0.01864887,0.0011481
 5,0.00154498,-0.00004323,-0.03558578,0.18155402,0.02380685,-0.12056453
 ,-0.16979817,0.01506206,-0.00590265,-0.00550201,-0.00107951,0.00206505
 ,-0.00362937,0.00014740,-0.00079945,0.00049489,0.00030933,0.00039912,0
 .00009893,-0.00021498,-0.00027646,0.00019576,0.00052620,0.00031116,0.0
 0027215,-0.00195300,0.00122706,-0.00070397,-0.00231573,0.01073250,0.01
 055152,0.00143051,-0.01847727,-0.01489091,-0.03667611,0.13234152,0.181
 28919,0.00040351,0.00038030,-0.00104775,-0.00633666,0.00848501,-0.0084
 4162,-0.17836478,-0.04627109,-0.11881952,0.00790157,0.00503461,0.00787
 383,-0.00155681,0.00053815,0.00221362,0.00039293,0.00002104,-0.0002444
 0,-0.00052472,0.00015033,-0.00021190,-0.00283405,0.00060278,0.00027505
 ,-0.01065554,-0.00577331,-0.01496247,-0.00100421,0.00059707,-0.0001255
 6,-0.00050446,0.00028056,0.00014501,0.19016230,-0.00186758,-0.00148470
 ,0.00363360,0.02801238,-0.00143765,0.02290860,-0.04870645,-0.06218404,
 -0.04272280,-0.01183151,-0.00182498,-0.01218888,-0.00056943,-0.0009531
 4,-0.00260760,-0.00006537,-0.00061310,0.00056396,-0.00000722,-0.000109
 86,-0.00045033,-0.00102798,-0.00080352,-0.00046444,-0.00297596,-0.0007
 2790,-0.00757879,0.00159252,0.00058871,-0.00080923,0.00027926,-0.00010
 704,-0.00028414,0.03799721,0.07083373,0.00174388,0.00024795,-0.0034037
 9,-0.01353501,0.00787042,-0.00652917,-0.11612183,-0.04254551,-0.164235
 64,-0.01590521,-0.00751819,-0.01009404,0.00178864,-0.00066571,-0.00338
 455,-0.00022837,-0.00061121,0.00080908,0.00047583,-0.00009905,-0.00028
 491,0.00258458,-0.00036524,-0.00035079,0.00891262,0.00333818,0.0108409
 0,-0.00086370,-0.00061271,0.00063187,-0.00022997,-0.00007951,0.0002126
 1,0.13327470,0.04088383,0.17373001,0.00023630,-0.00010910,0.00003190,0
 .00064744,0.00001576,0.00059863,-0.00487648,0.00147822,-0.00361970,-0.
 22166728,0.11077988,-0.06102815,-0.02251364,0.01150752,-0.00686919,0.0
 0422491,0.00163876,0.00010665,-0.00050425,0.00079489,0.00055955,-0.001
 90408,-0.00187359,-0.00058890,-0.00055934,-0.00050145,0.00034392,0.000
 02110,-0.00000950,-0.00002820,-0.00008748,0.00006933,0.00003547,0.0009
 9595,-0.00031135,0.00036195,0.24088074,-0.00102794,-0.00090308,0.00042
 443,0.00302265,-0.00413360,-0.00372806,0.01509143,-0.00861078,0.009891
 66,0.11029507,-0.11180192,0.03635259,-0.01956232,0.00946029,-0.0054634
 7,0.00180446,0.00213802,-0.00084813,-0.00091258,0.00081202,0.00069268,
 -0.00224691,-0.00262594,-0.00049196,0.00035766,-0.00034283,-0.00078279
 ,0.00020562,-0.00000493,-0.00002470,0.00041621,0.00005542,-0.00025029,
 -0.00080488,0.00056125,0.00040878,-0.11844700,0.12277523,-0.00052783,-
 0.00022509,0.00030613,0.00194002,-0.00308771,-0.00129438,0.01783043,-0
 .01045454,0.00831310,-0.06306211,0.03775102,-0.06796572,-0.00325979,0.
 00248177,-0.00143261,0.00119998,0.00020369,0.00037138,0.00069716,0.000
 08719,-0.00006289,0.00065422,-0.00022101,-0.00160041,0.00105497,0.0004
 2232,-0.00167760,0.00014507,-0.00004704,-0.00003753,0.00015803,0.00003
 229,-0.00009112,-0.00051850,0.00051697,0.00137511,0.06749182,-0.039662
 20,0.07061986,-0.00068141,-0.00023475,0.00055508,0.00066908,-0.0005960
 5,-0.00073413,-0.00226781,-0.00285671,0.00757938,-0.05542351,-0.024767
 84,0.04153172,-0.00166215,-0.00952592,0.02111279,-0.00228088,-0.002754
 27,0.00056614,0.00053882,-0.00022313,-0.00039849,-0.00200801,0.0007074
 7,0.00018843,-0.00163534,0.00072269,0.00063931,0.00007596,0.00007979,-
 0.00005929,0.00017605,0.00006227,-0.00014499,-0.00023392,-0.00006668,0
 .00029800,0.00650821,0.01168998,-0.02391798,0.05772553,0.00114491,0.00
 077765,-0.00048434,-0.00161846,0.00232757,0.00121142,0.00585803,0.0090
 7202,-0.02091649,-0.02567026,-0.10305972,0.10792358,0.00055961,-0.0077
 7785,0.01736549,-0.00486247,-0.00377815,0.00085546,0.00081761,-0.00096
 157,-0.00062598,-0.00078763,-0.00034214,-0.00009114,0.00064002,-0.0028
 0477,-0.00219422,-0.00013002,-0.00016580,0.00017077,-0.00018468,0.0000
 6853,0.00009312,0.00007880,-0.00102978,-0.00034581,-0.00361640,-0.0064
 1898,0.01294044,0.02723274,0.11340395,0.00043652,0.00069009,0.00014789
 ,-0.00177806,0.00165442,0.00373762,0.00524796,0.01006542,-0.02129176,0
 .04364108,0.10894599,-0.24295529,-0.00169353,-0.00355461,0.00426469,-0
 .00082788,-0.00135218,0.00127902,0.00015438,-0.00018840,0.00006259,-0.
 00048426,-0.00019174,-0.00022628,-0.00057618,-0.00167409,-0.00168800,-
 0.00000039,-0.00011718,0.00001743,-0.00032468,-0.00018885,0.00020792,0
 .00071945,-0.00141775,-0.00087716,0.00187225,0.00330500,-0.00695500,-0
 .04755967,-0.11608418,0.26315098,-0.00048725,-0.00012844,0.00050492,0.
 00090506,-0.00061212,0.00010088,-0.00479300,-0.00065895,-0.00009023,-0
 .00270100,-0.00963232,-0.02221499,-0.06684715,-0.01474919,-0.05302163,
 0.00347755,0.00210163,-0.00632897,-0.00253366,0.00007263,-0.00008292,0
 .00803400,0.00591842,0.01930045,-0.00224769,-0.00046447,0.00289573,0.0
 0007114,-0.00001066,-0.00004720,0.00005611,0.00013224,-0.00016221,0.00
 075521,-0.00069287,-0.00101702,-0.00123001,-0.00033416,-0.00026734,0.0
 0141213,0.00073211,0.00054506,0.06352082,-0.00037180,-0.00008872,-0.00
 026578,0.00044600,-0.00061010,0.00024924,-0.00176447,-0.00087183,-0.00
 178542,-0.00445971,-0.00158282,-0.01522804,-0.01374960,-0.06454431,-0.
 06715536,0.00536367,-0.00047557,0.03564849,0.00404789,-0.00166427,0.00
 026138,-0.00559994,-0.00105197,-0.00755533,0.00020652,-0.00081008,-0.0
 0127066,0.00013005,-0.00005955,0.00006175,0.00005900,-0.00008114,0.000
 07597,0.00015042,-0.00075871,-0.00059427,-0.00117490,-0.00097711,-0.00
 072873,0.00055147,0.00048148,-0.00002111,0.01828823,0.07231682,-0.0001
 5979,0.00008114,-0.00034391,0.00002934,-0.00026663,0.00029364,0.000460
 24,0.00012732,-0.00023000,0.00223497,0.00049879,0.00026514,-0.05563700
 ,-0.06483476,-0.27338281,-0.00254300,0.01098311,-0.01730767,-0.0029746
 0,0.00063526,-0.00028392,-0.00407180,-0.00329723,-0.00752593,0.0006406
 0,0.00030081,-0.00093143,0.00008670,-0.00007467,0.00005254,0.00003348,
 -0.00009595,0.00006950,-0.00015224,-0.00013806,0.00010257,0.00020914,-
 0.00008564,0.00006933,-0.00035368,-0.00045806,0.00103790,0.06054055,0.
 05708690,0.29888069,-0.00011365,-0.00005494,-0.00002566,-0.00004731,-0
 .00001629,-0.00006636,-0.00013152,0.00020458,0.00045726,0.00014435,-0.
 00034330,0.00030527,-0.00168107,0.00380034,0.00167520,0.00301958,-0.00
 062079,0.03339795,-0.07106729,-0.00082743,-0.07170440,-0.00104359,-0.0
 0293304,-0.00576843,0.00100207,-0.00117041,0.00000064,0.00001040,-0.00
 004752,0.00000076,0.00003322,0.00001788,0.00002763,0.00003624,-0.00001
 890,-0.00006707,0.00006157,0.00020003,-0.00007470,-0.00008149,-0.00012
 373,-0.00008141,0.00053157,-0.00147361,0.00089010,0.07263453,0.0001723
 2,0.00003586,0.00000730,0.00004926,0.00013935,-0.00014258,-0.00016101,
 -0.00012914,0.00011555,-0.00016364,0.00015321,0.00014977,-0.00030733,-
 0.00376643,0.00075229,0.00096283,0.00408099,-0.00763451,-0.00208648,-0
 .05337672,-0.00351764,0.00774670,0.00161399,0.02428616,0.00088323,0.00
 272744,0.00126431,-0.00012854,0.00010600,-0.00013559,-0.00004944,0.000
 01259,-0.00007826,-0.00006171,-0.00005295,-0.00003965,-0.00015294,-0.0
 0016911,0.00001913,-0.00002908,0.00000670,-0.00002621,-0.00082273,0.00
 073450,0.00011516,0.00305378,0.04918380,0.00000516,0.00009704,0.000311
 84,-0.00021257,-0.00008235,0.00025493,0.00026907,-0.00007936,-0.000189
 27,-0.00019322,-0.00001074,-0.00037240,0.00017908,-0.00283512,-0.00126
 945,0.00900762,0.00088476,-0.01811921,-0.06709243,-0.00530440,-0.27694
 317,-0.00327279,0.00027715,-0.00645481,-0.00019811,-0.00163997,0.00064
 416,0.00002911,-0.00018299,0.00003992,0.00000043,0.00009511,0.00000884
 ,0.00007743,0.00014365,0.00008076,-0.00000748,-0.00001973,0.00003516,0
 .00009881,0.00016198,0.00005320,0.00017063,0.00091053,-0.00105008,0.06
 386841,0.00461232,0.30767523,-0.00014086,0.00024721,0.00043201,0.00038
 049,-0.00035539,-0.00009536,-0.00020091,0.00038396,0.00041605,0.000277
 88,-0.00143993,0.00066484,-0.00362350,0.00356465,-0.00338639,-0.027140
 68,-0.01350318,0.01132920,-0.17282968,-0.11896576,-0.03662221,0.008094
 33,0.00619276,0.00171103,0.00024230,0.00126808,-0.00122644,0.00000434,
 -0.00004187,0.00001421,0.00001934,0.00010589,-0.00009209,0.00011598,0.
 00002270,-0.00012092,0.00040247,0.00015651,-0.00001857,-0.00019542,-0.
 00041394,0.00000042,0.00003767,-0.00037923,0.00049983,-0.00356202,-0.0
 0846681,-0.00385039,0.19732046,-0.00050440,-0.00019597,-0.00108446,-0.
 00030555,-0.00016682,0.00036254,0.00025333,0.00001569,-0.00025707,-0.0
 0033828,0.00055297,-0.00011863,0.00141067,-0.00099424,0.00077065,0.006
 22812,0.01277843,0.00290757,-0.12147703,-0.16600390,-0.03061141,-0.017
 83183,-0.01610366,-0.00780858,0.00088902,-0.00282329,0.00384385,0.0000
 7290,0.00001056,0.00006364,-0.00000209,-0.00039260,0.00014800,-0.00015
 704,-0.00007041,0.00007400,-0.00021659,0.00006627,-0.00004314,0.000008
 89,0.00008495,0.00007425,-0.00021392,-0.00006985,0.00017024,-0.0010082
 2,0.00142398,0.00098071,0.13234493,0.17036347,0.00018339,0.00021822,0.
 00035482,-0.00014523,0.00001920,0.00002676,0.00025770,0.00015957,-0.00
 011990,0.00012641,0.00089688,-0.00034930,0.00134610,-0.00196672,0.0002
 3859,0.02170513,0.01389735,0.00137054,-0.03716820,-0.03258578,-0.06153
 774,0.00655498,0.00891452,0.00263321,0.00050004,-0.00004966,-0.0017988
 1,-0.00002342,-0.00008039,0.00003975,0.00000458,0.00008290,-0.00004017
 ,0.00008090,0.00008765,-0.00000109,-0.00019080,-0.00010537,-0.00001599
 ,0.00011843,0.00022526,-0.00001289,0.00011427,0.00008396,-0.00036682,-
 0.02263802,-0.02100520,-0.00477618,0.02956545,0.03135244,0.06247481,-0
 .00019926,0.00070888,0.00016442,0.00125792,-0.00059770,0.00005737,-0.0
 0097831,0.00058973,-0.00100588,-0.00102901,0.00056676,0.00052873,-0.01
 123479,-0.00063031,-0.01255711,-0.00109160,0.00423895,-0.00022005,0.00
 072252,-0.00066239,0.00304037,-0.26448364,0.03238246,-0.09865735,-0.00
 561675,0.00094123,-0.00281370,0.00049383,-0.00101350,0.00060876,0.0003
 2579,0.00005277,0.00035637,-0.00045673,-0.00031424,0.00019346,-0.00046
 335,-0.00027452,-0.00002144,-0.00036915,-0.00019955,0.00004290,0.00152
 333,-0.00029236,0.00028491,0.00014754,-0.00043246,0.00085431,0.0009246
 2,0.00071547,-0.00026490,0.28120494,-0.00170425,0.00220222,-0.00104021
 ,0.00047040,-0.00034224,0.00045114,-0.00199375,-0.00236207,-0.00306533
 ,-0.00009520,-0.00103146,-0.00015763,0.00281123,-0.00288391,0.00303134
 ,0.00450430,-0.00511004,-0.00269971,0.02183569,0.00088536,0.01017801,0
 .03228794,-0.04977231,0.01630441,-0.02278050,0.00109426,-0.00937952,0.
 00081628,-0.00001030,0.00087063,0.00013153,0.00004758,0.00009101,-0.00
 085048,-0.00042331,0.00069343,0.00000537,0.00004087,0.00005342,-0.0000
 6165,0.00010408,0.00008601,0.00007341,0.00060980,-0.00036723,0.0010179
 9,-0.00269664,0.00083081,-0.00074431,0.00147525,-0.00032240,-0.0352914
 3,0.05897201,0.00069371,0.00158644,0.00109108,0.00049672,0.00002684,0.
 00022298,0.00054429,-0.00083625,-0.00325090,0.00211538,-0.00086949,-0.
 00139955,0.01624939,0.00179502,0.01257873,0.00007417,-0.00299780,0.002
 54435,-0.01281544,-0.00296563,-0.00817521,-0.09977388,0.01667381,-0.09
 447324,-0.01641695,0.00088579,-0.00538069,0.00044516,-0.00060015,0.000
 56800,0.00013724,0.00017717,-0.00000277,-0.00053431,-0.00010296,0.0005
 7684,0.00058238,0.00042922,0.00008921,0.00040639,0.00027992,0.00012525
 ,-0.00162471,0.00058129,0.00097284,-0.00050183,0.00242437,-0.00090193,
 0.00068556,-0.00096680,0.00143183,0.10953577,-0.01475256,0.09424940,-0
 .00187514,-0.00245780,-0.01293634,0.00120438,-0.00498402,0.00195675,0.
 00505545,0.00220865,0.02579423,-0.00251027,-0.00092682,0.00130056,-0.0
 0260452,-0.00102174,-0.00046052,0.00026655,0.00029235,-0.00007159,0.00
 044255,0.00112750,0.00090494,0.00310621,-0.00017008,-0.01263047,-0.051
 46661,-0.00107848,0.02639192,-0.00066875,0.00218330,-0.00104518,0.0010
 6658,-0.00115352,0.00079179,0.00170819,0.00055149,-0.00154456,-0.00017
 278,0.00037070,0.00049658,-0.00026672,0.00054331,0.00066605,0.00051515
 ,0.00002235,-0.00001776,0.00010686,-0.00000595,0.00026691,-0.00012682,
 0.00013161,-0.00012678,-0.00067789,-0.00043257,-0.00029905,0.04689758,
 -0.00202516,0.00173187,0.02445531,-0.00486860,-0.00449672,0.00255957,0
 .00071721,-0.00292437,0.00265645,-0.00002326,-0.00098333,-0.00019636,-
 0.00168347,-0.00231781,-0.00323071,0.00010627,-0.00035840,0.00068286,0
 .00006425,0.00212952,-0.00209268,0.00333678,0.00025771,-0.02420997,-0.
 00131726,-0.04778889,0.02742328,0.00011371,-0.00275378,0.00142831,0.00
 011301,0.00150890,-0.00085144,-0.00039778,0.00059742,-0.00003976,0.000
 12309,0.00007890,-0.00003876,0.00006078,0.00001184,-0.00000488,0.00100
 116,-0.00049656,-0.00038051,0.00034358,-0.00002743,0.00116060,0.000023
 72,0.00004918,0.00017756,-0.00048779,-0.00079914,-0.00076824,0.0047997
 6,0.05658109,0.00160174,-0.00235862,-0.00642750,0.00164293,0.00219901,
 -0.00036386,-0.00312887,0.00049590,-0.00367356,-0.00030000,0.00009510,
 0.00003161,-0.00182355,0.00019684,-0.00166967,-0.00056113,-0.00043010,
 0.00123030,0.00057625,0.00133899,0.00052256,0.00213628,0.00074503,-0.0
 1326850,0.02752755,0.02763414,-0.30946982,0.00034684,0.00091163,-0.000
 02951,-0.00014764,0.00013018,0.00125719,0.00039831,0.00002673,0.000801
 39,0.00013877,-0.00004202,-0.00004603,0.00007375,-0.00002723,-0.000078
 11,0.00068472,-0.00035482,-0.00032160,0.00030465,-0.00116673,0.0009724
 9,0.00009377,0.00014219,0.00044859,-0.00012690,-0.00080560,-0.00086620
 ,-0.02943748,-0.02873063,0.33095022\\-0.00001935,-0.00004204,0.0000412
 6,-0.00002767,0.00010900,-0.00006120,0.00002048,-0.00015176,0.00006717
 ,0.00002331,0.00000009,-0.00001306,-0.00004154,0.00015098,-0.00005580,
 0.00003332,-0.00010957,0.00005701,-0.00004430,0.00004343,-0.00000626,0
 .00004659,-0.00008317,-0.00001443,0.00003944,0.00008192,-0.00003317,-0
 .00000768,0.00000842,-0.00000311,-0.00000792,0.00000487,-0.00000590,-0
 .00000856,0.00000077,-0.00000193,-0.00001085,-0.00001130,-0.00001135,0
 .00000530,0.00001134,0.00001482,-0.00000230,-0.00000008,0.00000839,-0.
 00000155,-0.00000759,0.00000863,0.00000120,-0.00000481,0.00001047,0.00
 000179,0.00000349,0.00000009,0.00000030,-0.00000400,-0.00000164\\\@


 I FIND THAT THE THREE TRULY GREAT TIMES FOR THINKING THOUGHTS
 ARE WHEN I AM STANDING IN THE SHOWER, SITTING ON THE JOHN, OR WALKING.

                                    -- COLIN FLETCHER
 Job cpu time:       0 days  0 hours 42 minutes 12.0 seconds.
 File lengths (MBytes):  RWF=    152 Int=      0 D2E=      0 Chk=      8 Scr=      1
 Normal termination of Gaussian 09 at Mon Jan 27 13:01:09 2020.
