 Entering Gaussian System, Link 0=/home/puck/opt/gaussian_09/g09
 Input=dsC7O2H10nsd_3465.com
 Output=dsC7O2H10nsd_3465.log
 Initial command:
 /home/puck/opt/gaussian_09/l1.exe "/scratch/puck/g09_0fb7b78d-f3c7-473e-bba0-3b6dad0227b2/Gau-21287.inp" -scrdir="/scratch/puck/g09_0fb7b78d-f3c7-473e-bba0-3b6dad0227b2/"
 Entering Link 1 = /home/puck/opt/gaussian_09/l1.exe PID=     21332.
  
 Copyright (c) 1988,1990,1992,1993,1995,1998,2003,2009,2013,
            Gaussian, Inc.  All Rights Reserved.
  
 This is part of the Gaussian(R) 09 program.  It is based on
 the Gaussian(R) 03 system (copyright 2003, Gaussian, Inc.),
 the Gaussian(R) 98 system (copyright 1998, Gaussian, Inc.),
 the Gaussian(R) 94 system (copyright 1995, Gaussian, Inc.),
 the Gaussian 92(TM) system (copyright 1992, Gaussian, Inc.),
 the Gaussian 90(TM) system (copyright 1990, Gaussian, Inc.),
 the Gaussian 88(TM) system (copyright 1988, Gaussian, Inc.),
 the Gaussian 86(TM) system (copyright 1986, Carnegie Mellon
 University), and the Gaussian 82(TM) system (copyright 1983,
 Carnegie Mellon University). Gaussian is a federally registered
 trademark of Gaussian, Inc.
  
 This software contains proprietary and confidential information,
 including trade secrets, belonging to Gaussian, Inc.
  
 This software is provided under written license and may be
 used, copied, transmitted, or stored only in accord with that
 written license.
  
 The following legend is applicable only to US Government
 contracts under FAR:
  
                    RESTRICTED RIGHTS LEGEND
  
 Use, reproduction and disclosure by the US Government is
 subject to restrictions as set forth in subparagraphs (a)
 and (c) of the Commercial Computer Software - Restricted
 Rights clause in FAR 52.227-19.
  
 Gaussian, Inc.
 340 Quinnipiac St., Bldg. 40, Wallingford CT 06492
  
  
 ---------------------------------------------------------------
 Warning -- This program may not be used in any manner that
 competes with the business of Gaussian, Inc. or will provide
 assistance to any competitor of Gaussian, Inc.  The licensee
 of this program is prohibited from giving any competitor of
 Gaussian, Inc. access to this program.  By using this program,
 the user acknowledges that Gaussian, Inc. is engaged in the
 business of creating and licensing software in the field of
 computational chemistry and represents and warrants to the
 licensee that it is not a competitor of Gaussian, Inc. and that
 it will not use this program in any manner prohibited above.
 ---------------------------------------------------------------
  

 Cite this work as:
 Gaussian 09, Revision D.01,
 M. J. Frisch, G. W. Trucks, H. B. Schlegel, G. E. Scuseria, 
 M. A. Robb, J. R. Cheeseman, G. Scalmani, V. Barone, B. Mennucci, 
 G. A. Petersson, H. Nakatsuji, M. Caricato, X. Li, H. P. Hratchian, 
 A. F. Izmaylov, J. Bloino, G. Zheng, J. L. Sonnenberg, M. Hada, 
 M. Ehara, K. Toyota, R. Fukuda, J. Hasegawa, M. Ishida, T. Nakajima, 
 Y. Honda, O. Kitao, H. Nakai, T. Vreven, J. A. Montgomery, Jr., 
 J. E. Peralta, F. Ogliaro, M. Bearpark, J. J. Heyd, E. Brothers, 
 K. N. Kudin, V. N. Staroverov, T. Keith, R. Kobayashi, J. Normand, 
 K. Raghavachari, A. Rendell, J. C. Burant, S. S. Iyengar, J. Tomasi, 
 M. Cossi, N. Rega, J. M. Millam, M. Klene, J. E. Knox, J. B. Cross, 
 V. Bakken, C. Adamo, J. Jaramillo, R. Gomperts, R. E. Stratmann, 
 O. Yazyev, A. J. Austin, R. Cammi, C. Pomelli, J. W. Ochterski, 
 R. L. Martin, K. Morokuma, V. G. Zakrzewski, G. A. Voth, 
 P. Salvador, J. J. Dannenberg, S. Dapprich, A. D. Daniels, 
 O. Farkas, J. B. Foresman, J. V. Ortiz, J. Cioslowski, 
 and D. J. Fox, Gaussian, Inc., Wallingford CT, 2013.
 
 ******************************************
 Gaussian 09:  ES64L-G09RevD.01 24-Apr-2013
                27-Jan-2020 
 ******************************************
 -----------------------------
 # b3lyp 6-31G(2df,p) opt Freq
 -----------------------------
 1/14=-1,18=20,19=15,26=3,38=1/1,3;
 2/9=110,12=2,17=6,18=5,40=1/2;
 3/5=1,6=6,7=104,11=2,16=1,25=1,30=1,71=1,74=-5/1,2,3;
 4//1;
 5/5=2,38=5/2;
 6/7=2,8=2,9=2,10=2,28=1/1;
 7//1,2,3,16;
 1/14=-1,18=20,19=15,26=3/3(2);
 2/9=110/2;
 99//99;
 2/9=110/2;
 3/5=1,6=6,7=104,11=2,16=1,25=1,30=1,71=1,74=-5/1,2,3;
 4/5=5,16=3,69=1/1;
 5/5=2,38=5/2;
 7//1,2,3,16;
 1/14=-1,18=20,19=15,26=3/3(-5);
 2/9=110/2;
 6/7=2,8=2,9=2,10=2,19=2,28=1/1;
 99/9=1/99;
 -----
 titel
 -----
 Symbolic Z-matrix:
 Charge =  0 Multiplicity = 1
 C                    -2.56535   2.20814   3.05329 
 C                    -2.46947   0.90539   2.27264 
 C                    -2.91154  -0.39547   3.00132 
 O                    -1.66729  -1.04816   2.68416 
 C                    -1.10939   0.16254   2.12809 
 C                    -0.78738   0.02866   0.62648 
 O                     0.2957    0.84857   0.19629 
 C                    -2.05593   0.51303  -0.0309 
 C                    -2.94155   0.98831   0.84472 
 H                    -2.14842   2.09787   4.05964 
 H                    -2.02139   3.00973   2.54378 
 H                    -3.60888   2.52756   3.15726 
 H                    -3.04207  -0.2771    4.08578 
 H                    -3.77597  -0.92745   2.5876 
 H                    -0.25523   0.53251   2.70852 
 H                    -0.59067  -1.03069   0.40119 
 H                     1.11472   0.42012   0.46588 
 H                    -2.18661   0.47792  -1.10638 
 H                    -3.91744   1.3896    0.58775 
 

 GradGradGradGradGradGradGradGradGradGradGradGradGradGradGradGradGradGrad
 Berny optimization.
 Initialization pass.
                           ----------------------------
                           !    Initial Parameters    !
                           ! (Angstroms and Degrees)  !
 --------------------------                            --------------------------
 ! Name  Definition              Value          Derivative Info.                !
 --------------------------------------------------------------------------------
 ! R1    R(1,2)                  1.5218         estimate D2E/DX2                !
 ! R2    R(1,10)                 1.0949         estimate D2E/DX2                !
 ! R3    R(1,11)                 1.0945         estimate D2E/DX2                !
 ! R4    R(1,12)                 1.0963         estimate D2E/DX2                !
 ! R5    R(2,3)                  1.5552         estimate D2E/DX2                !
 ! R6    R(2,5)                  1.5565         estimate D2E/DX2                !
 ! R7    R(2,9)                  1.5062         estimate D2E/DX2                !
 ! R8    R(3,4)                  1.4404         estimate D2E/DX2                !
 ! R9    R(3,13)                 1.0987         estimate D2E/DX2                !
 ! R10   R(3,14)                 1.0961         estimate D2E/DX2                !
 ! R11   R(4,5)                  1.4444         estimate D2E/DX2                !
 ! R12   R(5,6)                  1.5416         estimate D2E/DX2                !
 ! R13   R(5,15)                 1.097          estimate D2E/DX2                !
 ! R14   R(6,7)                  1.4249         estimate D2E/DX2                !
 ! R15   R(6,8)                  1.5086         estimate D2E/DX2                !
 ! R16   R(6,16)                 1.1008         estimate D2E/DX2                !
 ! R17   R(7,17)                 0.9628         estimate D2E/DX2                !
 ! R18   R(8,9)                  1.333          estimate D2E/DX2                !
 ! R19   R(8,18)                 1.084          estimate D2E/DX2                !
 ! R20   R(9,19)                 1.086          estimate D2E/DX2                !
 ! A1    A(2,1,10)             111.1804         estimate D2E/DX2                !
 ! A2    A(2,1,11)             110.9064         estimate D2E/DX2                !
 ! A3    A(2,1,12)             110.9814         estimate D2E/DX2                !
 ! A4    A(10,1,11)            108.2023         estimate D2E/DX2                !
 ! A5    A(10,1,12)            107.7375         estimate D2E/DX2                !
 ! A6    A(11,1,12)            107.6875         estimate D2E/DX2                !
 ! A7    A(1,2,3)              117.2456         estimate D2E/DX2                !
 ! A8    A(1,2,5)              120.7489         estimate D2E/DX2                !
 ! A9    A(1,2,9)              114.7996         estimate D2E/DX2                !
 ! A10   A(3,2,5)               83.8398         estimate D2E/DX2                !
 ! A11   A(3,2,9)              113.6502         estimate D2E/DX2                !
 ! A12   A(5,2,9)              102.2458         estimate D2E/DX2                !
 ! A13   A(2,3,4)               91.7371         estimate D2E/DX2                !
 ! A14   A(2,3,13)             113.9624         estimate D2E/DX2                !
 ! A15   A(2,3,14)             116.9553         estimate D2E/DX2                !
 ! A16   A(4,3,13)             111.6407         estimate D2E/DX2                !
 ! A17   A(4,3,14)             112.2229         estimate D2E/DX2                !
 ! A18   A(13,3,14)            109.3393         estimate D2E/DX2                !
 ! A19   A(3,4,5)               92.2124         estimate D2E/DX2                !
 ! A20   A(2,5,4)               91.534          estimate D2E/DX2                !
 ! A21   A(2,5,6)              108.3273         estimate D2E/DX2                !
 ! A22   A(2,5,15)             118.0542         estimate D2E/DX2                !
 ! A23   A(4,5,6)              112.5126         estimate D2E/DX2                !
 ! A24   A(4,5,15)             112.3185         estimate D2E/DX2                !
 ! A25   A(6,5,15)             112.4603         estimate D2E/DX2                !
 ! A26   A(5,6,7)              113.7583         estimate D2E/DX2                !
 ! A27   A(5,6,8)              102.7632         estimate D2E/DX2                !
 ! A28   A(5,6,16)             108.6796         estimate D2E/DX2                !
 ! A29   A(7,6,8)              108.8344         estimate D2E/DX2                !
 ! A30   A(7,6,16)             110.8636         estimate D2E/DX2                !
 ! A31   A(8,6,16)             111.7198         estimate D2E/DX2                !
 ! A32   A(6,7,17)             107.8168         estimate D2E/DX2                !
 ! A33   A(6,8,9)              112.7613         estimate D2E/DX2                !
 ! A34   A(6,8,18)             121.5549         estimate D2E/DX2                !
 ! A35   A(9,8,18)             125.6744         estimate D2E/DX2                !
 ! A36   A(2,9,8)              113.2579         estimate D2E/DX2                !
 ! A37   A(2,9,19)             121.7554         estimate D2E/DX2                !
 ! A38   A(8,9,19)             124.9825         estimate D2E/DX2                !
 ! D1    D(10,1,2,3)            46.3635         estimate D2E/DX2                !
 ! D2    D(10,1,2,5)           -53.186          estimate D2E/DX2                !
 ! D3    D(10,1,2,9)          -176.3309         estimate D2E/DX2                !
 ! D4    D(11,1,2,3)           166.8029         estimate D2E/DX2                !
 ! D5    D(11,1,2,5)            67.2535         estimate D2E/DX2                !
 ! D6    D(11,1,2,9)           -55.8915         estimate D2E/DX2                !
 ! D7    D(12,1,2,3)           -73.539          estimate D2E/DX2                !
 ! D8    D(12,1,2,5)          -173.0884         estimate D2E/DX2                !
 ! D9    D(12,1,2,9)            63.7666         estimate D2E/DX2                !
 ! D10   D(1,2,3,4)           -127.5366         estimate D2E/DX2                !
 ! D11   D(1,2,3,13)           -12.8767         estimate D2E/DX2                !
 ! D12   D(1,2,3,14)           116.3642         estimate D2E/DX2                !
 ! D13   D(5,2,3,4)             -6.0135         estimate D2E/DX2                !
 ! D14   D(5,2,3,13)           108.6465         estimate D2E/DX2                !
 ! D15   D(5,2,3,14)          -122.1126         estimate D2E/DX2                !
 ! D16   D(9,2,3,4)             94.6846         estimate D2E/DX2                !
 ! D17   D(9,2,3,13)          -150.6555         estimate D2E/DX2                !
 ! D18   D(9,2,3,14)           -21.4146         estimate D2E/DX2                !
 ! D19   D(1,2,5,4)            124.133          estimate D2E/DX2                !
 ! D20   D(1,2,5,6)           -121.5137         estimate D2E/DX2                !
 ! D21   D(1,2,5,15)             7.7262         estimate D2E/DX2                !
 ! D22   D(3,2,5,4)              5.9962         estimate D2E/DX2                !
 ! D23   D(3,2,5,6)            120.3494         estimate D2E/DX2                !
 ! D24   D(3,2,5,15)          -110.4106         estimate D2E/DX2                !
 ! D25   D(9,2,5,4)           -106.9241         estimate D2E/DX2                !
 ! D26   D(9,2,5,6)              7.4292         estimate D2E/DX2                !
 ! D27   D(9,2,5,15)           136.6691         estimate D2E/DX2                !
 ! D28   D(1,2,9,8)            128.4339         estimate D2E/DX2                !
 ! D29   D(1,2,9,19)           -52.2734         estimate D2E/DX2                !
 ! D30   D(3,2,9,8)            -92.7235         estimate D2E/DX2                !
 ! D31   D(3,2,9,19)            86.5691         estimate D2E/DX2                !
 ! D32   D(5,2,9,8)             -4.1459         estimate D2E/DX2                !
 ! D33   D(5,2,9,19)           175.1467         estimate D2E/DX2                !
 ! D34   D(2,3,4,5)              6.4492         estimate D2E/DX2                !
 ! D35   D(13,3,4,5)          -110.2411         estimate D2E/DX2                !
 ! D36   D(14,3,4,5)           126.6004         estimate D2E/DX2                !
 ! D37   D(3,4,5,2)             -6.4433         estimate D2E/DX2                !
 ! D38   D(3,4,5,6)           -117.0288         estimate D2E/DX2                !
 ! D39   D(3,4,5,15)           114.8599         estimate D2E/DX2                !
 ! D40   D(2,5,6,7)            109.5637         estimate D2E/DX2                !
 ! D41   D(2,5,6,8)             -7.9121         estimate D2E/DX2                !
 ! D42   D(2,5,6,16)          -126.4098         estimate D2E/DX2                !
 ! D43   D(4,5,6,7)           -150.7753         estimate D2E/DX2                !
 ! D44   D(4,5,6,8)             91.749          estimate D2E/DX2                !
 ! D45   D(4,5,6,16)           -26.7488         estimate D2E/DX2                !
 ! D46   D(15,5,6,7)           -22.7385         estimate D2E/DX2                !
 ! D47   D(15,5,6,8)          -140.2143         estimate D2E/DX2                !
 ! D48   D(15,5,6,16)          101.288          estimate D2E/DX2                !
 ! D49   D(5,6,7,17)            78.0997         estimate D2E/DX2                !
 ! D50   D(8,6,7,17)          -167.998          estimate D2E/DX2                !
 ! D51   D(16,6,7,17)          -44.7376         estimate D2E/DX2                !
 ! D52   D(5,6,8,9)              5.5928         estimate D2E/DX2                !
 ! D53   D(5,6,8,18)          -175.4574         estimate D2E/DX2                !
 ! D54   D(7,6,8,9)           -115.3192         estimate D2E/DX2                !
 ! D55   D(7,6,8,18)            63.6306         estimate D2E/DX2                !
 ! D56   D(16,6,8,9)           121.9341         estimate D2E/DX2                !
 ! D57   D(16,6,8,18)          -59.116          estimate D2E/DX2                !
 ! D58   D(6,8,9,2)             -0.9166         estimate D2E/DX2                !
 ! D59   D(6,8,9,19)           179.8175         estimate D2E/DX2                !
 ! D60   D(18,8,9,2)          -179.8151         estimate D2E/DX2                !
 ! D61   D(18,8,9,19)            0.9191         estimate D2E/DX2                !
 --------------------------------------------------------------------------------
 Trust Radius=3.00D-01 FncErr=1.00D-07 GrdErr=1.00D-06
 Number of steps in this run=    114 maximum allowed number of steps=    114.
 GradGradGradGradGradGradGradGradGradGradGradGradGradGradGradGradGradGrad

                          Input orientation:                          
 ---------------------------------------------------------------------
 Center     Atomic      Atomic             Coordinates (Angstroms)
 Number     Number       Type             X           Y           Z
 ---------------------------------------------------------------------
      1          6           0       -2.565348    2.208139    3.053290
      2          6           0       -2.469471    0.905385    2.272641
      3          6           0       -2.911540   -0.395467    3.001323
      4          8           0       -1.667294   -1.048163    2.684159
      5          6           0       -1.109387    0.162542    2.128091
      6          6           0       -0.787377    0.028656    0.626480
      7          8           0        0.295699    0.848573    0.196286
      8          6           0       -2.055926    0.513027   -0.030899
      9          6           0       -2.941546    0.988307    0.844718
     10          1           0       -2.148419    2.097872    4.059641
     11          1           0       -2.021392    3.009729    2.543781
     12          1           0       -3.608882    2.527562    3.157262
     13          1           0       -3.042066   -0.277100    4.085780
     14          1           0       -3.775970   -0.927451    2.587602
     15          1           0       -0.255227    0.532513    2.708519
     16          1           0       -0.590669   -1.030685    0.401189
     17          1           0        1.114721    0.420116    0.465882
     18          1           0       -2.186613    0.477925   -1.106378
     19          1           0       -3.917436    1.389595    0.587750
 ---------------------------------------------------------------------
                    Distance matrix (angstroms):
                    1          2          3          4          5
     1  C    0.000000
     2  C    1.521766   0.000000
     3  C    2.627035   1.555191   0.000000
     4  O    3.397979   2.151554   1.440400   0.000000
     5  C    2.675871   1.556451   2.078861   1.444395   0.000000
     6  C    3.714934   2.511561   3.214316   2.483513   1.541575
     7  O    4.265733   3.458416   4.438722   3.693299   2.485312
     8  C    3.556000   2.373028   3.278994   3.155929   2.383278
     9  C    2.550942   1.506219   2.562553   3.025636   2.384480
    10  H    1.094865   2.172203   2.814095   3.467127   2.925060
    11  H    1.094548   2.168537   3.549235   4.075730   3.018447
    12  H    1.096268   2.170776   3.009103   4.096266   3.591655
    13  H    2.733077   2.239109   1.098679   2.109283   2.785871
    14  H    3.393286   2.272758   1.096089   2.114334   2.917173
    15  H    2.874587   2.287334   2.828936   2.119684   1.096979
    16  H    4.628496   3.283382   3.542688   2.524159   2.162187
    17  H    4.840931   4.043055   4.827465   3.849183   2.788537
    18  H    4.521053   3.417675   4.261636   4.119079   3.423693
    19  H    2.928659   2.273746   3.166008   3.924376   3.429789
                    6          7          8          9         10
     6  C    0.000000
     7  O    1.424916   0.000000
     8  C    1.508634   2.386282   0.000000
     9  C    2.368333   3.304503   1.333011   0.000000
    10  H    4.233283   4.739195   4.387802   3.492265   0.000000
    11  H    3.753083   3.943378   3.586598   2.796363   1.773541
    12  H    4.539854   5.179974   4.078528   2.857010   1.769710
    13  H    4.140515   5.247473   4.306253   3.480782   2.537673
    14  H    3.700247   5.044912   3.448198   2.721036   3.737432
    15  H    2.207247   2.591279   3.278308   3.301183   2.803579
    16  H    1.100751   2.087881   2.171802   3.130442   5.059518
    17  H    1.948592   0.962837   3.210674   4.113351   5.135957
    18  H    2.272114   2.827753   1.083959   2.153413   5.414189
    19  H    3.413345   4.265730   2.148561   1.086014   3.960442
                   11         12         13         14         15
    11  H    0.000000
    12  H    1.768889   0.000000
    13  H    3.771310   3.008248   0.000000
    14  H    4.310667   3.505644   1.790561   0.000000
    15  H    3.046814   3.927925   3.212288   3.813364   0.000000
    16  H    4.791932   5.419102   4.489259   3.864867   2.807112
    17  H    4.567161   5.830718   5.555956   5.498772   2.630363
    18  H    4.445333   4.939887   5.316048   4.259886   4.276292
    19  H    3.169522   2.827112   3.972450   3.064004   4.317872
                   16         17         18         19
    16  H    0.000000
    17  H    2.239948   0.000000
    18  H    2.663775   3.657068   0.000000
    19  H    4.118244   5.126143   2.587849   0.000000
 Stoichiometry    C7H10O2
 Framework group  C1[X(C7H10O2)]
 Deg. of freedom    51
 Full point group                 C1      NOp   1
 Largest Abelian subgroup         C1      NOp   1
 Largest concise Abelian subgroup C1      NOp   1
                         Standard orientation:                         
 ---------------------------------------------------------------------
 Center     Atomic      Atomic             Coordinates (Angstroms)
 Number     Number       Type             X           Y           Z
 ---------------------------------------------------------------------
      1          6           0       -1.693181   -1.241072   -1.042366
      2          6           0       -0.938350   -0.370147   -0.048640
      3          6           0       -1.674249    0.885004    0.500605
      4          8           0       -0.574553    1.742113    0.138964
      5          6           0        0.113229    0.667616   -0.538303
      6          6           0        1.468159    0.329817    0.114773
      7          8           0        2.432810   -0.186029   -0.798318
      8          6           0        1.102597   -0.752542    1.100086
      9          6           0       -0.172242   -1.129622    1.002537
     10          1           0       -2.174295   -0.633164   -1.815481
     11          1           0       -1.017506   -1.947793   -1.534345
     12          1           0       -2.475079   -1.822495   -0.539984
     13          1           0       -2.588169    1.143688   -0.051597
     14          1           0       -1.881482    0.908246    1.576674
     15          1           0        0.200499    0.843733   -1.617529
     16          1           0        1.849569    1.229712    0.621102
     17          1           0        2.794971    0.555481   -1.294360
     18          1           0        1.833423   -1.165993    1.785592
     19          1           0       -0.643762   -1.894411    1.612612
 ---------------------------------------------------------------------
 Rotational constants (GHZ):      2.5262505      1.5177448      1.3246807
 Standard basis: 6-31G(2df,p) (6D, 7F)
 There are   329 symmetry adapted cartesian basis functions of A   symmetry.
 There are   302 symmetry adapted basis functions of A   symmetry.
   302 basis functions,   466 primitive gaussians,   329 cartesian basis functions
    34 alpha electrons       34 beta electrons
       nuclear repulsion energy       471.1687101670 Hartrees.
 NAtoms=   19 NActive=   19 NUniq=   19 SFac= 1.00D+00 NAtFMM=   60 NAOKFM=F Big=F
 Integral buffers will be    131072 words long.
 Raffenetti 2 integral format.
 Two-electron integral symmetry is turned on.
 One-electron integrals computed using PRISM.
 NBasis=   302 RedAO= T EigKep=  3.97D-04  NBF=   302
 NBsUse=   302 1.00D-06 EigRej= -1.00D+00 NBFU=   302
 ExpMin= 1.61D-01 ExpMax= 5.48D+03 ExpMxC= 8.25D+02 IAcc=1 IRadAn=         1 AccDes= 0.00D+00
 Harris functional with IExCor=  402 and IRadAn=       1 diagonalized for initial guess.
 HarFok:  IExCor=  402 AccDes= 0.00D+00 IRadAn=         1 IDoV= 1 UseB2=F ITyADJ=14
 ICtDFT=  3500011 ScaDFX=  1.000000  1.000000  1.000000  1.000000
 FoFCou: FMM=F IPFlag=           0 FMFlag=      100000 FMFlg1=           0
         NFxFlg=           0 DoJE=T BraDBF=F KetDBF=T FulRan=T
         wScrn=  0.000000 ICntrl=     500 IOpCl=  0 I1Cent=   200000004 NGrid=           0
         NMat0=    1 NMatS0=      1 NMatT0=    0 NMatD0=    1 NMtDS0=    0 NMtDT0=    0
 Petite list used in FoFCou.
 Requested convergence on RMS density matrix=1.00D-08 within 128 cycles.
 Requested convergence on MAX density matrix=1.00D-06.
 Requested convergence on             energy=1.00D-06.
 No special actions if energy rises.
 Integral accuracy reduced to 1.0D-05 until final iterations.
 Initial convergence to 1.0D-05 achieved.  Increase integral accuracy.
 SCF Done:  E(RB3LYP) =  -423.175111348     A.U. after   13 cycles
            NFock= 13  Conv=0.63D-08     -V/T= 2.0074

 **********************************************************************

            Population analysis using the SCF density.

 **********************************************************************

 Orbital symmetries:
       Occupied  (A) (A) (A) (A) (A) (A) (A) (A) (A) (A) (A) (A)
                 (A) (A) (A) (A) (A) (A) (A) (A) (A) (A) (A) (A)
                 (A) (A) (A) (A) (A) (A) (A) (A) (A) (A)
       Virtual   (A) (A) (A) (A) (A) (A) (A) (A) (A) (A) (A) (A)
                 (A) (A) (A) (A) (A) (A) (A) (A) (A) (A) (A) (A)
                 (A) (A) (A) (A) (A) (A) (A) (A) (A) (A) (A) (A)
                 (A) (A) (A) (A) (A) (A) (A) (A) (A) (A) (A) (A)
                 (A) (A) (A) (A) (A) (A) (A) (A) (A) (A) (A) (A)
                 (A) (A) (A) (A) (A) (A) (A) (A) (A) (A) (A) (A)
                 (A) (A) (A) (A) (A) (A) (A) (A) (A) (A) (A) (A)
                 (A) (A) (A) (A) (A) (A) (A) (A) (A) (A) (A) (A)
                 (A) (A) (A) (A) (A) (A) (A) (A) (A) (A) (A) (A)
                 (A) (A) (A) (A) (A) (A) (A) (A) (A) (A) (A) (A)
                 (A) (A) (A) (A) (A) (A) (A) (A) (A) (A) (A) (A)
                 (A) (A) (A) (A) (A) (A) (A) (A) (A) (A) (A) (A)
                 (A) (A) (A) (A) (A) (A) (A) (A) (A) (A) (A) (A)
                 (A) (A) (A) (A) (A) (A) (A) (A) (A) (A) (A) (A)
                 (A) (A) (A) (A) (A) (A) (A) (A) (A) (A) (A) (A)
                 (A) (A) (A) (A) (A) (A) (A) (A) (A) (A) (A) (A)
                 (A) (A) (A) (A) (A) (A) (A) (A) (A) (A) (A) (A)
                 (A) (A) (A) (A) (A) (A) (A) (A) (A) (A) (A) (A)
                 (A) (A) (A) (A) (A) (A) (A) (A) (A) (A) (A) (A)
                 (A) (A) (A) (A) (A) (A) (A) (A) (A) (A) (A) (A)
                 (A) (A) (A) (A) (A) (A) (A) (A) (A) (A) (A) (A)
                 (A) (A) (A) (A) (A) (A) (A) (A) (A) (A) (A) (A)
                 (A) (A) (A) (A)
 The electronic state is 1-A.
 Alpha  occ. eigenvalues --  -19.13549 -19.13199 -10.23065 -10.22729 -10.22553
 Alpha  occ. eigenvalues --  -10.19979 -10.18620 -10.18199 -10.18126  -1.03926
 Alpha  occ. eigenvalues --   -1.01506  -0.83143  -0.75728  -0.70302  -0.66254
 Alpha  occ. eigenvalues --   -0.64537  -0.55419  -0.53682  -0.51431  -0.50031
 Alpha  occ. eigenvalues --   -0.45678  -0.44628  -0.43684  -0.40523  -0.40414
 Alpha  occ. eigenvalues --   -0.39094  -0.38371  -0.35064  -0.32814  -0.32638
 Alpha  occ. eigenvalues --   -0.29872  -0.27125  -0.25547  -0.24421
 Alpha virt. eigenvalues --    0.00939   0.07885   0.09118   0.10176   0.12854
 Alpha virt. eigenvalues --    0.13483   0.14253   0.15405   0.16188   0.16513
 Alpha virt. eigenvalues --    0.17177   0.17946   0.18998   0.21054   0.22935
 Alpha virt. eigenvalues --    0.23784   0.24357   0.28803   0.33092   0.36219
 Alpha virt. eigenvalues --    0.37330   0.41584   0.43573   0.44996   0.47065
 Alpha virt. eigenvalues --    0.47331   0.48494   0.51085   0.53473   0.53931
 Alpha virt. eigenvalues --    0.54977   0.56299   0.58072   0.58776   0.61803
 Alpha virt. eigenvalues --    0.63744   0.65099   0.66364   0.67520   0.69162
 Alpha virt. eigenvalues --    0.71741   0.72531   0.73975   0.74387   0.75711
 Alpha virt. eigenvalues --    0.76533   0.77394   0.77897   0.79268   0.80461
 Alpha virt. eigenvalues --    0.82580   0.82980   0.84307   0.87188   0.88548
 Alpha virt. eigenvalues --    0.89519   0.91199   0.93281   0.94094   0.96189
 Alpha virt. eigenvalues --    0.98488   1.00488   1.03632   1.06631   1.09267
 Alpha virt. eigenvalues --    1.11559   1.13441   1.14928   1.16413   1.20900
 Alpha virt. eigenvalues --    1.23444   1.26444   1.29391   1.30955   1.32199
 Alpha virt. eigenvalues --    1.34644   1.36970   1.39629   1.41661   1.42580
 Alpha virt. eigenvalues --    1.44784   1.46636   1.47353   1.50002   1.51013
 Alpha virt. eigenvalues --    1.51681   1.55125   1.56354   1.59323   1.60330
 Alpha virt. eigenvalues --    1.62559   1.63494   1.65609   1.66240   1.67207
 Alpha virt. eigenvalues --    1.72669   1.74735   1.77005   1.78178   1.82652
 Alpha virt. eigenvalues --    1.83286   1.87618   1.89487   1.91346   1.92693
 Alpha virt. eigenvalues --    1.95263   1.98052   2.00054   2.07143   2.10454
 Alpha virt. eigenvalues --    2.11861   2.18763   2.20204   2.24116   2.25815
 Alpha virt. eigenvalues --    2.32053   2.32677   2.34700   2.39854   2.42831
 Alpha virt. eigenvalues --    2.49713   2.50096   2.51597   2.52494   2.56194
 Alpha virt. eigenvalues --    2.59599   2.61131   2.65715   2.70266   2.70587
 Alpha virt. eigenvalues --    2.75930   2.79205   2.80039   2.80233   2.84341
 Alpha virt. eigenvalues --    2.86403   2.88112   2.89713   2.90211   2.93110
 Alpha virt. eigenvalues --    2.94692   2.96903   2.97600   3.00561   3.00856
 Alpha virt. eigenvalues --    3.04549   3.06210   3.08913   3.12569   3.15056
 Alpha virt. eigenvalues --    3.16998   3.19734   3.20794   3.23077   3.26939
 Alpha virt. eigenvalues --    3.27762   3.28664   3.31025   3.32682   3.34445
 Alpha virt. eigenvalues --    3.38026   3.40031   3.41199   3.44371   3.46571
 Alpha virt. eigenvalues --    3.49236   3.51010   3.52077   3.57122   3.57645
 Alpha virt. eigenvalues --    3.61849   3.64076   3.67405   3.70901   3.71488
 Alpha virt. eigenvalues --    3.76764   3.82219   3.85220   3.91497   3.93271
 Alpha virt. eigenvalues --    3.98800   4.01731   4.06258   4.10411   4.11073
 Alpha virt. eigenvalues --    4.15384   4.19359   4.20828   4.21996   4.26641
 Alpha virt. eigenvalues --    4.29061   4.35641   4.36946   4.39431   4.41211
 Alpha virt. eigenvalues --    4.43362   4.44371   4.44974   4.47790   4.48986
 Alpha virt. eigenvalues --    4.51323   4.51983   4.54553   4.55566   4.57273
 Alpha virt. eigenvalues --    4.59370   4.63014   4.64443   4.66473   4.67198
 Alpha virt. eigenvalues --    4.70861   4.71629   4.72175   4.76324   4.77633
 Alpha virt. eigenvalues --    4.77971   4.79968   4.80983   4.82953   4.84313
 Alpha virt. eigenvalues --    4.87212   4.88681   4.92059   4.93813   4.96730
 Alpha virt. eigenvalues --    4.98342   5.01974   5.05115   5.10991   5.19895
 Alpha virt. eigenvalues --    5.21344   5.26060   5.29683   5.33683   5.35367
 Alpha virt. eigenvalues --    5.38525   5.43864   5.47137   5.48569   5.50817
 Alpha virt. eigenvalues --    5.53782   5.56323   5.59129   5.61991   5.69196
 Alpha virt. eigenvalues --    5.71235   5.76822   5.85884   5.92352   5.96542
 Alpha virt. eigenvalues --    5.99256   6.01576   6.06537   6.12428   6.26716
 Alpha virt. eigenvalues --    6.49573   6.56460   7.20640   7.38601  10.37627
 Alpha virt. eigenvalues --   11.20462  11.51594  11.71056  12.00477  12.52126
 Alpha virt. eigenvalues --   12.83558  13.41356  13.66897
          Condensed to atoms (all electrons):
               1          2          3          4          5          6
     1  C    5.173122   0.372423  -0.041290   0.005261  -0.038092   0.005792
     2  C    0.372423   4.576123   0.385050  -0.051944   0.316489  -0.011182
     3  C   -0.041290   0.385050   4.942251   0.343140  -0.182416   0.002709
     4  O    0.005261  -0.051944   0.343140   7.814325   0.265807  -0.019877
     5  C   -0.038092   0.316489  -0.182416   0.265807   5.081962   0.293463
     6  C    0.005792  -0.011182   0.002709  -0.019877   0.293463   4.845719
     7  O   -0.000193   0.002966   0.000038   0.001298  -0.034265   0.314425
     8  C    0.002405  -0.002978   0.002830   0.002430  -0.044505   0.363889
     9  C   -0.062964   0.315727  -0.026344   0.006562   0.005623  -0.024588
    10  H    0.358214  -0.013110  -0.004545   0.000360  -0.003471  -0.000174
    11  H    0.362958  -0.013736   0.005072  -0.000138  -0.005141   0.000037
    12  H    0.360717  -0.015070  -0.004309  -0.000122   0.004070  -0.000077
    13  H   -0.011365  -0.015621   0.337204  -0.026963   0.000014  -0.000740
    14  H    0.004781  -0.008042   0.341092  -0.023769   0.007396   0.001257
    15  H   -0.009177  -0.039363   0.009480  -0.027329   0.341653  -0.069987
    16  H   -0.000204   0.006553   0.000444   0.006874  -0.066062   0.356986
    17  H   -0.000017  -0.000195   0.000011  -0.000023   0.001565  -0.059110
    18  H   -0.000177   0.006027  -0.000217  -0.000106   0.004447  -0.045780
    19  H   -0.002079  -0.050259  -0.002038  -0.000023   0.005728   0.006715
               7          8          9         10         11         12
     1  C   -0.000193   0.002405  -0.062964   0.358214   0.362958   0.360717
     2  C    0.002966  -0.002978   0.315727  -0.013110  -0.013736  -0.015070
     3  C    0.000038   0.002830  -0.026344  -0.004545   0.005072  -0.004309
     4  O    0.001298   0.002430   0.006562   0.000360  -0.000138  -0.000122
     5  C   -0.034265  -0.044505   0.005623  -0.003471  -0.005141   0.004070
     6  C    0.314425   0.363889  -0.024588  -0.000174   0.000037  -0.000077
     7  O    7.898824  -0.025093   0.000922   0.000002   0.000121   0.000002
     8  C   -0.025093   4.827411   0.649650  -0.000019   0.001454  -0.000161
     9  C    0.000922   0.649650   4.933214   0.004759  -0.000602  -0.002252
    10  H    0.000002  -0.000019   0.004759   0.595050  -0.030385  -0.032033
    11  H    0.000121   0.001454  -0.000602  -0.030385   0.580290  -0.031345
    12  H    0.000002  -0.000161  -0.002252  -0.032033  -0.031345   0.598839
    13  H    0.000007   0.000051   0.006065   0.004545  -0.000078   0.001010
    14  H   -0.000004   0.000130  -0.010219  -0.000168  -0.000165   0.000231
    15  H    0.004559   0.004799   0.008976   0.002516   0.001336  -0.000048
    16  H   -0.033633  -0.040580   0.003120   0.000002   0.000008   0.000005
    17  H    0.304841   0.007776  -0.000067   0.000002   0.000013   0.000000
    18  H    0.000152   0.369538  -0.043379   0.000004  -0.000022  -0.000003
    19  H   -0.000002  -0.048638   0.365856  -0.000129  -0.000028   0.002813
              13         14         15         16         17         18
     1  C   -0.011365   0.004781  -0.009177  -0.000204  -0.000017  -0.000177
     2  C   -0.015621  -0.008042  -0.039363   0.006553  -0.000195   0.006027
     3  C    0.337204   0.341092   0.009480   0.000444   0.000011  -0.000217
     4  O   -0.026963  -0.023769  -0.027329   0.006874  -0.000023  -0.000106
     5  C    0.000014   0.007396   0.341653  -0.066062   0.001565   0.004447
     6  C   -0.000740   0.001257  -0.069987   0.356986  -0.059110  -0.045780
     7  O    0.000007  -0.000004   0.004559  -0.033633   0.304841   0.000152
     8  C    0.000051   0.000130   0.004799  -0.040580   0.007776   0.369538
     9  C    0.006065  -0.010219   0.008976   0.003120  -0.000067  -0.043379
    10  H    0.004545  -0.000168   0.002516   0.000002   0.000002   0.000004
    11  H   -0.000078  -0.000165   0.001336   0.000008   0.000013  -0.000022
    12  H    0.001010   0.000231  -0.000048   0.000005   0.000000  -0.000003
    13  H    0.668432  -0.057635   0.001856   0.000027  -0.000001   0.000003
    14  H   -0.057635   0.642815  -0.000966   0.000020  -0.000001  -0.000041
    15  H    0.001856  -0.000966   0.698749   0.003764   0.003027  -0.000205
    16  H    0.000027   0.000020   0.003764   0.687695  -0.006522  -0.001941
    17  H   -0.000001  -0.000001   0.003027  -0.006522   0.465559  -0.000219
    18  H    0.000003  -0.000041  -0.000205  -0.001941  -0.000219   0.614630
    19  H   -0.000060   0.001449  -0.000130  -0.000177   0.000007  -0.004697
              19
     1  C   -0.002079
     2  C   -0.050259
     3  C   -0.002038
     4  O   -0.000023
     5  C    0.005728
     6  C    0.006715
     7  O   -0.000002
     8  C   -0.048638
     9  C    0.365856
    10  H   -0.000129
    11  H   -0.000028
    12  H    0.002813
    13  H   -0.000060
    14  H    0.001449
    15  H   -0.000130
    16  H   -0.000177
    17  H    0.000007
    18  H   -0.004697
    19  H    0.629847
 Mulliken charges:
               1
     1  C   -0.480114
     2  C    0.240143
     3  C   -0.108161
     4  O   -0.295762
     5  C    0.045735
     6  C    0.040521
     7  O   -0.434966
     8  C   -0.070387
     9  C   -0.130060
    10  H    0.118579
    11  H    0.130352
    12  H    0.117734
    13  H    0.093249
    14  H    0.101841
    15  H    0.066490
    16  H    0.083620
    17  H    0.283355
    18  H    0.101986
    19  H    0.095845
 Sum of Mulliken charges =   0.00000
 Mulliken charges with hydrogens summed into heavy atoms:
               1
     1  C   -0.113449
     2  C    0.240143
     3  C    0.086929
     4  O   -0.295762
     5  C    0.112225
     6  C    0.124141
     7  O   -0.151611
     8  C    0.031599
     9  C   -0.034215
 Electronic spatial extent (au):  <R**2>=           1063.8467
 Charge=              0.0000 electrons
 Dipole moment (field-independent basis, Debye):
    X=             -0.6564    Y=             -0.3907    Z=             -0.1557  Tot=              0.7796
 Quadrupole moment (field-independent basis, Debye-Ang):
   XX=            -50.2746   YY=            -56.6080   ZZ=            -50.8059
   XY=              5.0886   XZ=             -0.8379   YZ=             -3.1682
 Traceless Quadrupole moment (field-independent basis, Debye-Ang):
   XX=              2.2882   YY=             -4.0452   ZZ=              1.7570
   XY=              5.0886   XZ=             -0.8379   YZ=             -3.1682
 Octapole moment (field-independent basis, Debye-Ang**2):
  XXX=              7.0289  YYY=             -3.6228  ZZZ=             -5.6764  XYY=              5.4745
  XXY=             14.5792  XXZ=             -2.5200  XZZ=              6.7218  YZZ=              3.2967
  YYZ=             -0.4912  XYZ=             -5.1642
 Hexadecapole moment (field-independent basis, Debye-Ang**3):
 XXXX=           -693.0951 YYYY=           -395.0085 ZZZZ=           -268.5585 XXXY=             22.0249
 XXXZ=            -25.0030 YYYX=              5.7129 YYYZ=             -4.0411 ZZZX=            -16.8645
 ZZZY=             -6.7051 XXYY=           -172.6701 XXZZ=           -145.6011 YYZZ=           -101.6257
 XXYZ=            -16.6140 YYXZ=             -7.2633 ZZXY=              0.9976
 N-N= 4.711687101670D+02 E-N=-1.929558323831D+03  KE= 4.200739008877D+02
 Calling FoFJK, ICntrl=      2127 FMM=F ISym2X=0 I1Cent= 0 IOpClX= 0 NMat=1 NMatS=1 NMatT=0.
 ***** Axes restored to original set *****
 -------------------------------------------------------------------
 Center     Atomic                   Forces (Hartrees/Bohr)
 Number     Number              X              Y              Z
 -------------------------------------------------------------------
      1        6          -0.000002257   -0.000016206    0.000005948
      2        6          -0.000011608    0.000027677   -0.000010768
      3        6          -0.000035495   -0.000018435   -0.000008912
      4        8          -0.000000910    0.000016588   -0.000020685
      5        6           0.000007086   -0.000038971    0.000020985
      6        6           0.000019970    0.000015123   -0.000014892
      7        8          -0.000011455   -0.000011352    0.000021822
      8        6           0.000012824    0.000011017   -0.000010731
      9        6           0.000011486    0.000006475    0.000012474
     10        1          -0.000000104   -0.000010388    0.000008045
     11        1           0.000005226   -0.000003552    0.000013215
     12        1           0.000001533   -0.000001037    0.000005862
     13        1          -0.000006557   -0.000003113   -0.000010613
     14        1          -0.000004831    0.000003489   -0.000016492
     15        1          -0.000004096   -0.000009282    0.000006132
     16        1          -0.000002601   -0.000000231   -0.000002293
     17        1           0.000006452   -0.000004242    0.000007947
     18        1           0.000006395    0.000020251   -0.000000818
     19        1           0.000008941    0.000016190   -0.000006227
 -------------------------------------------------------------------
 Cartesian Forces:  Max     0.000038971 RMS     0.000013268

 GradGradGradGradGradGradGradGradGradGradGradGradGradGradGradGradGradGrad
 Berny optimization.
 FormGI is forming the generalized inverse of G from B-inverse, IUseBI=4.
 Internal  Forces:  Max     0.000021850 RMS     0.000004088
 Search for a local minimum.
 Step number   1 out of a maximum of  114
 All quantities printed in internal units (Hartrees-Bohrs-Radians)
 Mixed Optimization -- En-DIIS/RFO-DIIS
 Second derivative matrix not updated -- first step.
 ITU=  0
     Eigenvalues ---    0.00433   0.00478   0.00963   0.01284   0.01362
     Eigenvalues ---    0.01856   0.02356   0.03241   0.03427   0.04812
     Eigenvalues ---    0.05139   0.05573   0.05611   0.05616   0.05866
     Eigenvalues ---    0.06573   0.07074   0.07391   0.08251   0.09674
     Eigenvalues ---    0.10543   0.11868   0.12635   0.15996   0.15998
     Eigenvalues ---    0.16000   0.16000   0.16000   0.16000   0.16668
     Eigenvalues ---    0.18190   0.22632   0.26151   0.27186   0.29477
     Eigenvalues ---    0.30197   0.31294   0.33599   0.33829   0.34018
     Eigenvalues ---    0.34098   0.34118   0.34256   0.34292   0.35277
     Eigenvalues ---    0.35520   0.35872   0.36323   0.41729   0.54774
     Eigenvalues ---    0.54868
 RFO step:  Lambda=-1.31495648D-08 EMin= 4.32758449D-03
 Linear search not attempted -- first point.
 Iteration  1 RMS(Cart)=  0.00009177 RMS(Int)=  0.00000001
 Iteration  2 RMS(Cart)=  0.00000001 RMS(Int)=  0.00000000
 Variable       Old X    -DE/DX   Delta X   Delta X   Delta X     New X
                                 (Linear)    (Quad)   (Total)
    R1        2.87572  -0.00001   0.00000  -0.00002  -0.00002   2.87570
    R2        2.06900   0.00000   0.00000   0.00000   0.00000   2.06900
    R3        2.06840   0.00000   0.00000   0.00000   0.00000   2.06839
    R4        2.07165   0.00000   0.00000   0.00000   0.00000   2.07165
    R5        2.93889   0.00001   0.00000   0.00003   0.00003   2.93891
    R6        2.94127   0.00001   0.00000   0.00006   0.00006   2.94133
    R7        2.84634  -0.00001   0.00000  -0.00003  -0.00003   2.84631
    R8        2.72196   0.00001   0.00000   0.00001   0.00001   2.72197
    R9        2.07620   0.00000   0.00000   0.00000   0.00000   2.07620
   R10        2.07131   0.00000   0.00000  -0.00001  -0.00001   2.07129
   R11        2.72951  -0.00002   0.00000  -0.00006  -0.00006   2.72946
   R12        2.91315   0.00001   0.00000   0.00004   0.00004   2.91319
   R13        2.07299   0.00000   0.00000   0.00000   0.00000   2.07299
   R14        2.69270  -0.00002   0.00000  -0.00005  -0.00005   2.69265
   R15        2.85091   0.00000   0.00000   0.00001   0.00001   2.85091
   R16        2.08012   0.00000   0.00000   0.00001   0.00001   2.08013
   R17        1.81950   0.00000   0.00000   0.00000   0.00000   1.81950
   R18        2.51903   0.00000   0.00000   0.00000   0.00000   2.51903
   R19        2.04839   0.00000   0.00000   0.00000   0.00000   2.04838
   R20        2.05227   0.00000   0.00000   0.00000   0.00000   2.05227
    A1        1.94046   0.00000   0.00000   0.00001   0.00001   1.94048
    A2        1.93568   0.00000   0.00000  -0.00001  -0.00001   1.93568
    A3        1.93699   0.00000   0.00000   0.00001   0.00001   1.93700
    A4        1.88849   0.00000   0.00000  -0.00001  -0.00001   1.88847
    A5        1.88037   0.00000   0.00000   0.00000   0.00000   1.88038
    A6        1.87950   0.00000   0.00000  -0.00001  -0.00001   1.87949
    A7        2.04632   0.00000   0.00000  -0.00003  -0.00003   2.04629
    A8        2.10747   0.00000   0.00000   0.00002   0.00002   2.10749
    A9        2.00363   0.00000   0.00000   0.00002   0.00002   2.00365
   A10        1.46328   0.00000   0.00000  -0.00001  -0.00001   1.46327
   A11        1.98357   0.00000   0.00000   0.00000   0.00000   1.98357
   A12        1.78453   0.00000   0.00000   0.00000   0.00000   1.78452
   A13        1.60111  -0.00001   0.00000  -0.00002  -0.00002   1.60109
   A14        1.98902   0.00000   0.00000  -0.00006  -0.00006   1.98896
   A15        2.04125   0.00000   0.00000   0.00004   0.00004   2.04130
   A16        1.94850   0.00000   0.00000  -0.00003  -0.00003   1.94847
   A17        1.95866   0.00000   0.00000   0.00001   0.00001   1.95867
   A18        1.90833   0.00000   0.00000   0.00005   0.00005   1.90838
   A19        1.60941   0.00001   0.00000   0.00004   0.00004   1.60945
   A20        1.59757   0.00000   0.00000  -0.00001  -0.00001   1.59756
   A21        1.89067   0.00000   0.00000  -0.00002  -0.00002   1.89065
   A22        2.06043   0.00000   0.00000  -0.00001  -0.00001   2.06042
   A23        1.96372   0.00000   0.00000   0.00000   0.00000   1.96371
   A24        1.96033   0.00000   0.00000   0.00003   0.00003   1.96036
   A25        1.96280   0.00000   0.00000   0.00001   0.00001   1.96281
   A26        1.98546   0.00000   0.00000   0.00000   0.00000   1.98545
   A27        1.79356   0.00000   0.00000   0.00000   0.00000   1.79356
   A28        1.89682   0.00000   0.00000  -0.00001  -0.00001   1.89680
   A29        1.89952   0.00000   0.00000  -0.00002  -0.00002   1.89950
   A30        1.93493   0.00000   0.00000   0.00003   0.00003   1.93496
   A31        1.94988   0.00000   0.00000   0.00000   0.00000   1.94988
   A32        1.88176   0.00001   0.00000   0.00003   0.00003   1.88179
   A33        1.96806   0.00000   0.00000   0.00000   0.00000   1.96805
   A34        2.12153   0.00001   0.00000   0.00004   0.00004   2.12157
   A35        2.19343   0.00000   0.00000  -0.00003  -0.00003   2.19340
   A36        1.97672   0.00001   0.00000   0.00002   0.00002   1.97675
   A37        2.12503   0.00000   0.00000   0.00000   0.00000   2.12504
   A38        2.18136  -0.00001   0.00000  -0.00003  -0.00003   2.18133
    D1        0.80920   0.00000   0.00000   0.00031   0.00031   0.80951
    D2       -0.92827   0.00000   0.00000   0.00033   0.00033  -0.92794
    D3       -3.07755   0.00000   0.00000   0.00029   0.00029  -3.07726
    D4        2.91126   0.00000   0.00000   0.00030   0.00030   2.91156
    D5        1.17379   0.00000   0.00000   0.00031   0.00031   1.17411
    D6       -0.97549   0.00000   0.00000   0.00028   0.00028  -0.97521
    D7       -1.28350   0.00000   0.00000   0.00029   0.00029  -1.28321
    D8       -3.02096   0.00000   0.00000   0.00031   0.00031  -3.02066
    D9        1.11294   0.00000   0.00000   0.00027   0.00027   1.11321
   D10       -2.22593   0.00000   0.00000  -0.00001  -0.00001  -2.22594
   D11       -0.22474   0.00000   0.00000  -0.00007  -0.00007  -0.22481
   D12        2.03094   0.00000   0.00000  -0.00001  -0.00001   2.03092
   D13       -0.10495   0.00000   0.00000   0.00001   0.00001  -0.10495
   D14        1.89624   0.00000   0.00000  -0.00005  -0.00005   1.89619
   D15       -2.13127   0.00000   0.00000   0.00000   0.00000  -2.13127
   D16        1.65256   0.00000   0.00000   0.00000   0.00000   1.65256
   D17       -2.62943   0.00000   0.00000  -0.00006  -0.00006  -2.62949
   D18       -0.37376   0.00000   0.00000   0.00000   0.00000  -0.37376
   D19        2.16653   0.00000   0.00000  -0.00004  -0.00004   2.16649
   D20       -2.12081   0.00000   0.00000  -0.00005  -0.00005  -2.12086
   D21        0.13485   0.00000   0.00000  -0.00006  -0.00006   0.13478
   D22        0.10465   0.00000   0.00000   0.00000   0.00000   0.10465
   D23        2.10049   0.00000   0.00000  -0.00002  -0.00002   2.10048
   D24       -1.92703   0.00000   0.00000  -0.00003  -0.00003  -1.92706
   D25       -1.86618   0.00000   0.00000   0.00000   0.00000  -1.86618
   D26        0.12966   0.00000   0.00000  -0.00001  -0.00001   0.12965
   D27        2.38533   0.00000   0.00000  -0.00003  -0.00003   2.38530
   D28        2.24160   0.00000   0.00000   0.00004   0.00004   2.24163
   D29       -0.91234   0.00000   0.00000   0.00005   0.00005  -0.91229
   D30       -1.61833   0.00000   0.00000   0.00001   0.00001  -1.61832
   D31        1.51092   0.00000   0.00000   0.00002   0.00002   1.51094
   D32       -0.07236   0.00000   0.00000   0.00000   0.00000  -0.07236
   D33        3.05689   0.00000   0.00000   0.00002   0.00002   3.05690
   D34        0.11256   0.00000   0.00000   0.00000   0.00000   0.11256
   D35       -1.92407   0.00001   0.00000   0.00008   0.00008  -1.92399
   D36        2.20959   0.00000   0.00000   0.00004   0.00004   2.20963
   D37       -0.11246   0.00000   0.00000   0.00000   0.00000  -0.11245
   D38       -2.04254   0.00000   0.00000   0.00003   0.00003  -2.04251
   D39        2.00468   0.00000   0.00000  -0.00001  -0.00001   2.00468
   D40        1.91225   0.00000   0.00000   0.00000   0.00000   1.91224
   D41       -0.13809   0.00000   0.00000   0.00002   0.00002  -0.13808
   D42       -2.20627   0.00000   0.00000   0.00002   0.00002  -2.20625
   D43       -2.63152   0.00000   0.00000  -0.00003  -0.00003  -2.63155
   D44        1.60132   0.00000   0.00000  -0.00001  -0.00001   1.60132
   D45       -0.46685   0.00000   0.00000   0.00000   0.00000  -0.46686
   D46       -0.39686   0.00000   0.00000   0.00002   0.00002  -0.39684
   D47       -2.44720   0.00000   0.00000   0.00004   0.00004  -2.44716
   D48        1.76781   0.00000   0.00000   0.00005   0.00005   1.76785
   D49        1.36310   0.00000   0.00000   0.00012   0.00012   1.36322
   D50       -2.93212   0.00000   0.00000   0.00011   0.00011  -2.93200
   D51       -0.78082   0.00000   0.00000   0.00012   0.00012  -0.78070
   D52        0.09761   0.00000   0.00000  -0.00001  -0.00001   0.09760
   D53       -3.06231   0.00000   0.00000   0.00000   0.00000  -3.06231
   D54       -2.01270   0.00000   0.00000   0.00000   0.00000  -2.01270
   D55        1.11056   0.00000   0.00000   0.00001   0.00001   1.11058
   D56        2.12815   0.00000   0.00000  -0.00003  -0.00003   2.12812
   D57       -1.03177   0.00000   0.00000  -0.00001  -0.00001  -1.03178
   D58       -0.01600   0.00000   0.00000   0.00001   0.00001  -0.01599
   D59        3.13841   0.00000   0.00000  -0.00001  -0.00001   3.13840
   D60       -3.13836   0.00000   0.00000  -0.00001  -0.00001  -3.13837
   D61        0.01604   0.00000   0.00000  -0.00003  -0.00003   0.01601
         Item               Value     Threshold  Converged?
 Maximum Force            0.000022     0.000450     YES
 RMS     Force            0.000004     0.000300     YES
 Maximum Displacement     0.000523     0.001800     YES
 RMS     Displacement     0.000092     0.001200     YES
 Predicted change in Energy=-6.574750D-09
 Optimization completed.
    -- Stationary point found.
                           ----------------------------
                           !   Optimized Parameters   !
                           ! (Angstroms and Degrees)  !
 --------------------------                            --------------------------
 ! Name  Definition              Value          Derivative Info.                !
 --------------------------------------------------------------------------------
 ! R1    R(1,2)                  1.5218         -DE/DX =    0.0                 !
 ! R2    R(1,10)                 1.0949         -DE/DX =    0.0                 !
 ! R3    R(1,11)                 1.0945         -DE/DX =    0.0                 !
 ! R4    R(1,12)                 1.0963         -DE/DX =    0.0                 !
 ! R5    R(2,3)                  1.5552         -DE/DX =    0.0                 !
 ! R6    R(2,5)                  1.5565         -DE/DX =    0.0                 !
 ! R7    R(2,9)                  1.5062         -DE/DX =    0.0                 !
 ! R8    R(3,4)                  1.4404         -DE/DX =    0.0                 !
 ! R9    R(3,13)                 1.0987         -DE/DX =    0.0                 !
 ! R10   R(3,14)                 1.0961         -DE/DX =    0.0                 !
 ! R11   R(4,5)                  1.4444         -DE/DX =    0.0                 !
 ! R12   R(5,6)                  1.5416         -DE/DX =    0.0                 !
 ! R13   R(5,15)                 1.097          -DE/DX =    0.0                 !
 ! R14   R(6,7)                  1.4249         -DE/DX =    0.0                 !
 ! R15   R(6,8)                  1.5086         -DE/DX =    0.0                 !
 ! R16   R(6,16)                 1.1008         -DE/DX =    0.0                 !
 ! R17   R(7,17)                 0.9628         -DE/DX =    0.0                 !
 ! R18   R(8,9)                  1.333          -DE/DX =    0.0                 !
 ! R19   R(8,18)                 1.084          -DE/DX =    0.0                 !
 ! R20   R(9,19)                 1.086          -DE/DX =    0.0                 !
 ! A1    A(2,1,10)             111.1804         -DE/DX =    0.0                 !
 ! A2    A(2,1,11)             110.9064         -DE/DX =    0.0                 !
 ! A3    A(2,1,12)             110.9814         -DE/DX =    0.0                 !
 ! A4    A(10,1,11)            108.2023         -DE/DX =    0.0                 !
 ! A5    A(10,1,12)            107.7375         -DE/DX =    0.0                 !
 ! A6    A(11,1,12)            107.6875         -DE/DX =    0.0                 !
 ! A7    A(1,2,3)              117.2456         -DE/DX =    0.0                 !
 ! A8    A(1,2,5)              120.7489         -DE/DX =    0.0                 !
 ! A9    A(1,2,9)              114.7996         -DE/DX =    0.0                 !
 ! A10   A(3,2,5)               83.8398         -DE/DX =    0.0                 !
 ! A11   A(3,2,9)              113.6502         -DE/DX =    0.0                 !
 ! A12   A(5,2,9)              102.2458         -DE/DX =    0.0                 !
 ! A13   A(2,3,4)               91.7371         -DE/DX =    0.0                 !
 ! A14   A(2,3,13)             113.9624         -DE/DX =    0.0                 !
 ! A15   A(2,3,14)             116.9553         -DE/DX =    0.0                 !
 ! A16   A(4,3,13)             111.6407         -DE/DX =    0.0                 !
 ! A17   A(4,3,14)             112.2229         -DE/DX =    0.0                 !
 ! A18   A(13,3,14)            109.3393         -DE/DX =    0.0                 !
 ! A19   A(3,4,5)               92.2124         -DE/DX =    0.0                 !
 ! A20   A(2,5,4)               91.534          -DE/DX =    0.0                 !
 ! A21   A(2,5,6)              108.3273         -DE/DX =    0.0                 !
 ! A22   A(2,5,15)             118.0542         -DE/DX =    0.0                 !
 ! A23   A(4,5,6)              112.5126         -DE/DX =    0.0                 !
 ! A24   A(4,5,15)             112.3185         -DE/DX =    0.0                 !
 ! A25   A(6,5,15)             112.4603         -DE/DX =    0.0                 !
 ! A26   A(5,6,7)              113.7583         -DE/DX =    0.0                 !
 ! A27   A(5,6,8)              102.7632         -DE/DX =    0.0                 !
 ! A28   A(5,6,16)             108.6796         -DE/DX =    0.0                 !
 ! A29   A(7,6,8)              108.8344         -DE/DX =    0.0                 !
 ! A30   A(7,6,16)             110.8636         -DE/DX =    0.0                 !
 ! A31   A(8,6,16)             111.7198         -DE/DX =    0.0                 !
 ! A32   A(6,7,17)             107.8168         -DE/DX =    0.0                 !
 ! A33   A(6,8,9)              112.7613         -DE/DX =    0.0                 !
 ! A34   A(6,8,18)             121.5549         -DE/DX =    0.0                 !
 ! A35   A(9,8,18)             125.6744         -DE/DX =    0.0                 !
 ! A36   A(2,9,8)              113.2579         -DE/DX =    0.0                 !
 ! A37   A(2,9,19)             121.7554         -DE/DX =    0.0                 !
 ! A38   A(8,9,19)             124.9825         -DE/DX =    0.0                 !
 ! D1    D(10,1,2,3)            46.3635         -DE/DX =    0.0                 !
 ! D2    D(10,1,2,5)           -53.186          -DE/DX =    0.0                 !
 ! D3    D(10,1,2,9)          -176.3309         -DE/DX =    0.0                 !
 ! D4    D(11,1,2,3)           166.8029         -DE/DX =    0.0                 !
 ! D5    D(11,1,2,5)            67.2535         -DE/DX =    0.0                 !
 ! D6    D(11,1,2,9)           -55.8915         -DE/DX =    0.0                 !
 ! D7    D(12,1,2,3)           -73.539          -DE/DX =    0.0                 !
 ! D8    D(12,1,2,5)          -173.0884         -DE/DX =    0.0                 !
 ! D9    D(12,1,2,9)            63.7666         -DE/DX =    0.0                 !
 ! D10   D(1,2,3,4)           -127.5366         -DE/DX =    0.0                 !
 ! D11   D(1,2,3,13)           -12.8767         -DE/DX =    0.0                 !
 ! D12   D(1,2,3,14)           116.3642         -DE/DX =    0.0                 !
 ! D13   D(5,2,3,4)             -6.0135         -DE/DX =    0.0                 !
 ! D14   D(5,2,3,13)           108.6465         -DE/DX =    0.0                 !
 ! D15   D(5,2,3,14)          -122.1126         -DE/DX =    0.0                 !
 ! D16   D(9,2,3,4)             94.6846         -DE/DX =    0.0                 !
 ! D17   D(9,2,3,13)          -150.6555         -DE/DX =    0.0                 !
 ! D18   D(9,2,3,14)           -21.4146         -DE/DX =    0.0                 !
 ! D19   D(1,2,5,4)            124.133          -DE/DX =    0.0                 !
 ! D20   D(1,2,5,6)           -121.5137         -DE/DX =    0.0                 !
 ! D21   D(1,2,5,15)             7.7262         -DE/DX =    0.0                 !
 ! D22   D(3,2,5,4)              5.9962         -DE/DX =    0.0                 !
 ! D23   D(3,2,5,6)            120.3494         -DE/DX =    0.0                 !
 ! D24   D(3,2,5,15)          -110.4106         -DE/DX =    0.0                 !
 ! D25   D(9,2,5,4)           -106.9241         -DE/DX =    0.0                 !
 ! D26   D(9,2,5,6)              7.4292         -DE/DX =    0.0                 !
 ! D27   D(9,2,5,15)           136.6691         -DE/DX =    0.0                 !
 ! D28   D(1,2,9,8)            128.4339         -DE/DX =    0.0                 !
 ! D29   D(1,2,9,19)           -52.2734         -DE/DX =    0.0                 !
 ! D30   D(3,2,9,8)            -92.7235         -DE/DX =    0.0                 !
 ! D31   D(3,2,9,19)            86.5691         -DE/DX =    0.0                 !
 ! D32   D(5,2,9,8)             -4.1459         -DE/DX =    0.0                 !
 ! D33   D(5,2,9,19)           175.1467         -DE/DX =    0.0                 !
 ! D34   D(2,3,4,5)              6.4492         -DE/DX =    0.0                 !
 ! D35   D(13,3,4,5)          -110.2411         -DE/DX =    0.0                 !
 ! D36   D(14,3,4,5)           126.6004         -DE/DX =    0.0                 !
 ! D37   D(3,4,5,2)             -6.4433         -DE/DX =    0.0                 !
 ! D38   D(3,4,5,6)           -117.0288         -DE/DX =    0.0                 !
 ! D39   D(3,4,5,15)           114.8599         -DE/DX =    0.0                 !
 ! D40   D(2,5,6,7)            109.5637         -DE/DX =    0.0                 !
 ! D41   D(2,5,6,8)             -7.9121         -DE/DX =    0.0                 !
 ! D42   D(2,5,6,16)          -126.4098         -DE/DX =    0.0                 !
 ! D43   D(4,5,6,7)           -150.7753         -DE/DX =    0.0                 !
 ! D44   D(4,5,6,8)             91.749          -DE/DX =    0.0                 !
 ! D45   D(4,5,6,16)           -26.7488         -DE/DX =    0.0                 !
 ! D46   D(15,5,6,7)           -22.7385         -DE/DX =    0.0                 !
 ! D47   D(15,5,6,8)          -140.2143         -DE/DX =    0.0                 !
 ! D48   D(15,5,6,16)          101.288          -DE/DX =    0.0                 !
 ! D49   D(5,6,7,17)            78.0997         -DE/DX =    0.0                 !
 ! D50   D(8,6,7,17)          -167.998          -DE/DX =    0.0                 !
 ! D51   D(16,6,7,17)          -44.7376         -DE/DX =    0.0                 !
 ! D52   D(5,6,8,9)              5.5928         -DE/DX =    0.0                 !
 ! D53   D(5,6,8,18)          -175.4574         -DE/DX =    0.0                 !
 ! D54   D(7,6,8,9)           -115.3192         -DE/DX =    0.0                 !
 ! D55   D(7,6,8,18)            63.6306         -DE/DX =    0.0                 !
 ! D56   D(16,6,8,9)           121.9341         -DE/DX =    0.0                 !
 ! D57   D(16,6,8,18)          -59.116          -DE/DX =    0.0                 !
 ! D58   D(6,8,9,2)             -0.9166         -DE/DX =    0.0                 !
 ! D59   D(6,8,9,19)           179.8175         -DE/DX =    0.0                 !
 ! D60   D(18,8,9,2)          -179.8151         -DE/DX =    0.0                 !
 ! D61   D(18,8,9,19)            0.9191         -DE/DX =    0.0                 !
 --------------------------------------------------------------------------------
 GradGradGradGradGradGradGradGradGradGradGradGradGradGradGradGradGradGrad

                          Input orientation:                          
 ---------------------------------------------------------------------
 Center     Atomic      Atomic             Coordinates (Angstroms)
 Number     Number       Type             X           Y           Z
 ---------------------------------------------------------------------
      1          6           0       -2.565348    2.208139    3.053290
      2          6           0       -2.469471    0.905385    2.272641
      3          6           0       -2.911540   -0.395467    3.001323
      4          8           0       -1.667294   -1.048163    2.684159
      5          6           0       -1.109387    0.162542    2.128091
      6          6           0       -0.787377    0.028656    0.626480
      7          8           0        0.295699    0.848573    0.196286
      8          6           0       -2.055926    0.513027   -0.030899
      9          6           0       -2.941546    0.988307    0.844718
     10          1           0       -2.148419    2.097872    4.059641
     11          1           0       -2.021392    3.009729    2.543781
     12          1           0       -3.608882    2.527562    3.157262
     13          1           0       -3.042066   -0.277100    4.085780
     14          1           0       -3.775970   -0.927451    2.587602
     15          1           0       -0.255227    0.532513    2.708519
     16          1           0       -0.590669   -1.030685    0.401189
     17          1           0        1.114721    0.420116    0.465882
     18          1           0       -2.186613    0.477925   -1.106378
     19          1           0       -3.917436    1.389595    0.587750
 ---------------------------------------------------------------------
                    Distance matrix (angstroms):
                    1          2          3          4          5
     1  C    0.000000
     2  C    1.521766   0.000000
     3  C    2.627035   1.555191   0.000000
     4  O    3.397979   2.151554   1.440400   0.000000
     5  C    2.675871   1.556451   2.078861   1.444395   0.000000
     6  C    3.714934   2.511561   3.214316   2.483513   1.541575
     7  O    4.265733   3.458416   4.438722   3.693299   2.485312
     8  C    3.556000   2.373028   3.278994   3.155929   2.383278
     9  C    2.550942   1.506219   2.562553   3.025636   2.384480
    10  H    1.094865   2.172203   2.814095   3.467127   2.925060
    11  H    1.094548   2.168537   3.549235   4.075730   3.018447
    12  H    1.096268   2.170776   3.009103   4.096266   3.591655
    13  H    2.733077   2.239109   1.098679   2.109283   2.785871
    14  H    3.393286   2.272758   1.096089   2.114334   2.917173
    15  H    2.874587   2.287334   2.828936   2.119684   1.096979
    16  H    4.628496   3.283382   3.542688   2.524159   2.162187
    17  H    4.840931   4.043055   4.827465   3.849183   2.788537
    18  H    4.521053   3.417675   4.261636   4.119079   3.423693
    19  H    2.928659   2.273746   3.166008   3.924376   3.429789
                    6          7          8          9         10
     6  C    0.000000
     7  O    1.424916   0.000000
     8  C    1.508634   2.386282   0.000000
     9  C    2.368333   3.304503   1.333011   0.000000
    10  H    4.233283   4.739195   4.387802   3.492265   0.000000
    11  H    3.753083   3.943378   3.586598   2.796363   1.773541
    12  H    4.539854   5.179974   4.078528   2.857010   1.769710
    13  H    4.140515   5.247473   4.306253   3.480782   2.537673
    14  H    3.700247   5.044912   3.448198   2.721036   3.737432
    15  H    2.207247   2.591279   3.278308   3.301183   2.803579
    16  H    1.100751   2.087881   2.171802   3.130442   5.059518
    17  H    1.948592   0.962837   3.210674   4.113351   5.135957
    18  H    2.272114   2.827753   1.083959   2.153413   5.414189
    19  H    3.413345   4.265730   2.148561   1.086014   3.960442
                   11         12         13         14         15
    11  H    0.000000
    12  H    1.768889   0.000000
    13  H    3.771310   3.008248   0.000000
    14  H    4.310667   3.505644   1.790561   0.000000
    15  H    3.046814   3.927925   3.212288   3.813364   0.000000
    16  H    4.791932   5.419102   4.489259   3.864867   2.807112
    17  H    4.567161   5.830718   5.555956   5.498772   2.630363
    18  H    4.445333   4.939887   5.316048   4.259886   4.276292
    19  H    3.169522   2.827112   3.972450   3.064004   4.317872
                   16         17         18         19
    16  H    0.000000
    17  H    2.239948   0.000000
    18  H    2.663775   3.657068   0.000000
    19  H    4.118244   5.126143   2.587849   0.000000
 Stoichiometry    C7H10O2
 Framework group  C1[X(C7H10O2)]
 Deg. of freedom    51
 Full point group                 C1      NOp   1
 Largest Abelian subgroup         C1      NOp   1
 Largest concise Abelian subgroup C1      NOp   1
                         Standard orientation:                         
 ---------------------------------------------------------------------
 Center     Atomic      Atomic             Coordinates (Angstroms)
 Number     Number       Type             X           Y           Z
 ---------------------------------------------------------------------
      1          6           0       -1.693181   -1.241072   -1.042366
      2          6           0       -0.938350   -0.370147   -0.048640
      3          6           0       -1.674249    0.885004    0.500605
      4          8           0       -0.574553    1.742113    0.138964
      5          6           0        0.113229    0.667616   -0.538303
      6          6           0        1.468159    0.329817    0.114773
      7          8           0        2.432810   -0.186029   -0.798318
      8          6           0        1.102597   -0.752542    1.100086
      9          6           0       -0.172242   -1.129622    1.002537
     10          1           0       -2.174295   -0.633164   -1.815481
     11          1           0       -1.017506   -1.947793   -1.534345
     12          1           0       -2.475079   -1.822495   -0.539984
     13          1           0       -2.588169    1.143688   -0.051597
     14          1           0       -1.881482    0.908246    1.576674
     15          1           0        0.200499    0.843733   -1.617529
     16          1           0        1.849569    1.229712    0.621102
     17          1           0        2.794971    0.555481   -1.294360
     18          1           0        1.833423   -1.165993    1.785592
     19          1           0       -0.643762   -1.894411    1.612612
 ---------------------------------------------------------------------
 Rotational constants (GHZ):      2.5262505      1.5177448      1.3246807
 1\1\GINC-ALCHEMY-SE\FOpt\RB3LYP\6-31G(2df,p)\C7H10O2\PUCK\28-Jan-2020\
 0\\# b3lyp 6-31G(2df,p) opt Freq\\titel\\0,1\C,-2.5653481878,2.2081387
 156,3.0532900157\C,-2.469470715,0.9053850288,2.2726411748\C,-2.9115399
 224,-0.3954673542,3.0013230653\O,-1.6672942618,-1.0481628841,2.6841590
 208\C,-1.1093866276,0.1625418002,2.1280914903\C,-0.7873770713,0.028655
 7372,0.6264800088\O,0.2956989181,0.8485729977,0.1962861831\C,-2.055925
 9374,0.5130266791,-0.0308985587\C,-2.9415458578,0.9883067449,0.8447176
 256\H,-2.1484193074,2.0978723072,4.059640701\H,-2.0213915044,3.0097285
 779,2.5437809618\H,-3.6088819306,2.527561913,3.1572617649\H,-3.0420660
 185,-0.2771001165,4.0857800719\H,-3.7759698209,-0.9274508097,2.5876021
 767\H,-0.2552272699,0.5325126018,2.7085189473\H,-0.5906691526,-1.03068
 54204,0.4011890753\H,1.1147210684,0.4201162402,0.4658819703\H,-2.18661
 25746,0.4779249183,-1.1063781844\H,-3.9174355064,1.3895951329,0.587749
 9395\\Version=ES64L-G09RevD.01\State=1-A\HF=-423.1751113\RMSD=6.279e-0
 9\RMSF=1.327e-05\Dipole=-0.1763847,0.1837496,0.1708861\Quadrupole=4.23
 94048,-3.4776254,-0.7617795,-1.8765855,0.1674944,2.8634333\PG=C01 [X(C
 7H10O2)]\\@


 ACTORS ARE SO FORTUNATE.  THEY CAN CHOOSE WHETHER
 THEY WILL APPEAR IN A TRAGEDY OR IN COMEDY,
 WHETHER THEY WILL SUFFER OF MAKE MERRY,
 LAUGH OR SHED TEARS.  BUT IN REAL LIFE IT IS DIFFERENT.
 MOST MEN AND WOMEN ARE FORCED TO PERFORM
 PARTS FOR WHICH THEY HAVE NO QUALIFICATIONS.
 THE WORLD IS A STAGE, BUT THE PLAY IS BADLY CAST.

                                   -- OSCAR WILDE
 Job cpu time:       0 days  0 hours  7 minutes 43.1 seconds.
 File lengths (MBytes):  RWF=     52 Int=      0 D2E=      0 Chk=      7 Scr=      1
 Normal termination of Gaussian 09 at Tue Jan 28 00:05:55 2020.
 Link1:  Proceeding to internal job step number  2.
 ----------------------------------------------------------------------
 #N Geom=AllCheck Guess=TCheck SCRF=Check GenChk RB3LYP/6-31G(2df,p) Fr
 eq
 ----------------------------------------------------------------------
 1/10=4,29=7,30=1,38=1,40=1/1,3;
 2/12=2,40=1/2;
 3/5=1,6=6,7=104,11=2,14=-4,16=1,25=1,30=1,70=2,71=2,74=-5,116=1,140=1/1,2,3;
 4/5=101/1;
 5/5=2,98=1/2;
 8/6=4,10=90,11=11/1;
 11/6=1,8=1,9=11,15=111,16=1/1,2,10;
 10/6=1/2;
 6/7=2,8=2,9=2,10=2,18=1,28=1/1;
 7/8=1,10=1,25=1/1,2,3,16;
 1/10=4,30=1/3;
 99//99;
 Structure from the checkpoint file:  "/scratch/puck/g09_0fb7b78d-f3c7-473e-bba0-3b6dad0227b2/Gau-21332.chk"
 -----
 titel
 -----
 Charge =  0 Multiplicity = 1
 Redundant internal coordinates found in file.
 C,0,-2.5653481878,2.2081387156,3.0532900157
 C,0,-2.469470715,0.9053850288,2.2726411748
 C,0,-2.9115399224,-0.3954673542,3.0013230653
 O,0,-1.6672942618,-1.0481628841,2.6841590208
 C,0,-1.1093866276,0.1625418002,2.1280914903
 C,0,-0.7873770713,0.0286557372,0.6264800088
 O,0,0.2956989181,0.8485729977,0.1962861831
 C,0,-2.0559259374,0.5130266791,-0.0308985587
 C,0,-2.9415458578,0.9883067449,0.8447176256
 H,0,-2.1484193074,2.0978723072,4.059640701
 H,0,-2.0213915044,3.0097285779,2.5437809618
 H,0,-3.6088819306,2.527561913,3.1572617649
 H,0,-3.0420660185,-0.2771001165,4.0857800719
 H,0,-3.7759698209,-0.9274508097,2.5876021767
 H,0,-0.2552272699,0.5325126018,2.7085189473
 H,0,-0.5906691526,-1.0306854204,0.4011890753
 H,0,1.1147210684,0.4201162402,0.4658819703
 H,0,-2.1866125746,0.4779249183,-1.1063781844
 H,0,-3.9174355064,1.3895951329,0.5877499395
 Recover connectivity data from disk.

 GradGradGradGradGradGradGradGradGradGradGradGradGradGradGradGradGradGrad
 Berny optimization.
 Initialization pass.
                           ----------------------------
                           !    Initial Parameters    !
                           ! (Angstroms and Degrees)  !
 --------------------------                            --------------------------
 ! Name  Definition              Value          Derivative Info.                !
 --------------------------------------------------------------------------------
 ! R1    R(1,2)                  1.5218         calculate D2E/DX2 analytically  !
 ! R2    R(1,10)                 1.0949         calculate D2E/DX2 analytically  !
 ! R3    R(1,11)                 1.0945         calculate D2E/DX2 analytically  !
 ! R4    R(1,12)                 1.0963         calculate D2E/DX2 analytically  !
 ! R5    R(2,3)                  1.5552         calculate D2E/DX2 analytically  !
 ! R6    R(2,5)                  1.5565         calculate D2E/DX2 analytically  !
 ! R7    R(2,9)                  1.5062         calculate D2E/DX2 analytically  !
 ! R8    R(3,4)                  1.4404         calculate D2E/DX2 analytically  !
 ! R9    R(3,13)                 1.0987         calculate D2E/DX2 analytically  !
 ! R10   R(3,14)                 1.0961         calculate D2E/DX2 analytically  !
 ! R11   R(4,5)                  1.4444         calculate D2E/DX2 analytically  !
 ! R12   R(5,6)                  1.5416         calculate D2E/DX2 analytically  !
 ! R13   R(5,15)                 1.097          calculate D2E/DX2 analytically  !
 ! R14   R(6,7)                  1.4249         calculate D2E/DX2 analytically  !
 ! R15   R(6,8)                  1.5086         calculate D2E/DX2 analytically  !
 ! R16   R(6,16)                 1.1008         calculate D2E/DX2 analytically  !
 ! R17   R(7,17)                 0.9628         calculate D2E/DX2 analytically  !
 ! R18   R(8,9)                  1.333          calculate D2E/DX2 analytically  !
 ! R19   R(8,18)                 1.084          calculate D2E/DX2 analytically  !
 ! R20   R(9,19)                 1.086          calculate D2E/DX2 analytically  !
 ! A1    A(2,1,10)             111.1804         calculate D2E/DX2 analytically  !
 ! A2    A(2,1,11)             110.9064         calculate D2E/DX2 analytically  !
 ! A3    A(2,1,12)             110.9814         calculate D2E/DX2 analytically  !
 ! A4    A(10,1,11)            108.2023         calculate D2E/DX2 analytically  !
 ! A5    A(10,1,12)            107.7375         calculate D2E/DX2 analytically  !
 ! A6    A(11,1,12)            107.6875         calculate D2E/DX2 analytically  !
 ! A7    A(1,2,3)              117.2456         calculate D2E/DX2 analytically  !
 ! A8    A(1,2,5)              120.7489         calculate D2E/DX2 analytically  !
 ! A9    A(1,2,9)              114.7996         calculate D2E/DX2 analytically  !
 ! A10   A(3,2,5)               83.8398         calculate D2E/DX2 analytically  !
 ! A11   A(3,2,9)              113.6502         calculate D2E/DX2 analytically  !
 ! A12   A(5,2,9)              102.2458         calculate D2E/DX2 analytically  !
 ! A13   A(2,3,4)               91.7371         calculate D2E/DX2 analytically  !
 ! A14   A(2,3,13)             113.9624         calculate D2E/DX2 analytically  !
 ! A15   A(2,3,14)             116.9553         calculate D2E/DX2 analytically  !
 ! A16   A(4,3,13)             111.6407         calculate D2E/DX2 analytically  !
 ! A17   A(4,3,14)             112.2229         calculate D2E/DX2 analytically  !
 ! A18   A(13,3,14)            109.3393         calculate D2E/DX2 analytically  !
 ! A19   A(3,4,5)               92.2124         calculate D2E/DX2 analytically  !
 ! A20   A(2,5,4)               91.534          calculate D2E/DX2 analytically  !
 ! A21   A(2,5,6)              108.3273         calculate D2E/DX2 analytically  !
 ! A22   A(2,5,15)             118.0542         calculate D2E/DX2 analytically  !
 ! A23   A(4,5,6)              112.5126         calculate D2E/DX2 analytically  !
 ! A24   A(4,5,15)             112.3185         calculate D2E/DX2 analytically  !
 ! A25   A(6,5,15)             112.4603         calculate D2E/DX2 analytically  !
 ! A26   A(5,6,7)              113.7583         calculate D2E/DX2 analytically  !
 ! A27   A(5,6,8)              102.7632         calculate D2E/DX2 analytically  !
 ! A28   A(5,6,16)             108.6796         calculate D2E/DX2 analytically  !
 ! A29   A(7,6,8)              108.8344         calculate D2E/DX2 analytically  !
 ! A30   A(7,6,16)             110.8636         calculate D2E/DX2 analytically  !
 ! A31   A(8,6,16)             111.7198         calculate D2E/DX2 analytically  !
 ! A32   A(6,7,17)             107.8168         calculate D2E/DX2 analytically  !
 ! A33   A(6,8,9)              112.7613         calculate D2E/DX2 analytically  !
 ! A34   A(6,8,18)             121.5549         calculate D2E/DX2 analytically  !
 ! A35   A(9,8,18)             125.6744         calculate D2E/DX2 analytically  !
 ! A36   A(2,9,8)              113.2579         calculate D2E/DX2 analytically  !
 ! A37   A(2,9,19)             121.7554         calculate D2E/DX2 analytically  !
 ! A38   A(8,9,19)             124.9825         calculate D2E/DX2 analytically  !
 ! D1    D(10,1,2,3)            46.3635         calculate D2E/DX2 analytically  !
 ! D2    D(10,1,2,5)           -53.186          calculate D2E/DX2 analytically  !
 ! D3    D(10,1,2,9)          -176.3309         calculate D2E/DX2 analytically  !
 ! D4    D(11,1,2,3)           166.8029         calculate D2E/DX2 analytically  !
 ! D5    D(11,1,2,5)            67.2535         calculate D2E/DX2 analytically  !
 ! D6    D(11,1,2,9)           -55.8915         calculate D2E/DX2 analytically  !
 ! D7    D(12,1,2,3)           -73.539          calculate D2E/DX2 analytically  !
 ! D8    D(12,1,2,5)          -173.0884         calculate D2E/DX2 analytically  !
 ! D9    D(12,1,2,9)            63.7666         calculate D2E/DX2 analytically  !
 ! D10   D(1,2,3,4)           -127.5366         calculate D2E/DX2 analytically  !
 ! D11   D(1,2,3,13)           -12.8767         calculate D2E/DX2 analytically  !
 ! D12   D(1,2,3,14)           116.3642         calculate D2E/DX2 analytically  !
 ! D13   D(5,2,3,4)             -6.0135         calculate D2E/DX2 analytically  !
 ! D14   D(5,2,3,13)           108.6465         calculate D2E/DX2 analytically  !
 ! D15   D(5,2,3,14)          -122.1126         calculate D2E/DX2 analytically  !
 ! D16   D(9,2,3,4)             94.6846         calculate D2E/DX2 analytically  !
 ! D17   D(9,2,3,13)          -150.6555         calculate D2E/DX2 analytically  !
 ! D18   D(9,2,3,14)           -21.4146         calculate D2E/DX2 analytically  !
 ! D19   D(1,2,5,4)            124.133          calculate D2E/DX2 analytically  !
 ! D20   D(1,2,5,6)           -121.5137         calculate D2E/DX2 analytically  !
 ! D21   D(1,2,5,15)             7.7262         calculate D2E/DX2 analytically  !
 ! D22   D(3,2,5,4)              5.9962         calculate D2E/DX2 analytically  !
 ! D23   D(3,2,5,6)            120.3494         calculate D2E/DX2 analytically  !
 ! D24   D(3,2,5,15)          -110.4106         calculate D2E/DX2 analytically  !
 ! D25   D(9,2,5,4)           -106.9241         calculate D2E/DX2 analytically  !
 ! D26   D(9,2,5,6)              7.4292         calculate D2E/DX2 analytically  !
 ! D27   D(9,2,5,15)           136.6691         calculate D2E/DX2 analytically  !
 ! D28   D(1,2,9,8)            128.4339         calculate D2E/DX2 analytically  !
 ! D29   D(1,2,9,19)           -52.2734         calculate D2E/DX2 analytically  !
 ! D30   D(3,2,9,8)            -92.7235         calculate D2E/DX2 analytically  !
 ! D31   D(3,2,9,19)            86.5691         calculate D2E/DX2 analytically  !
 ! D32   D(5,2,9,8)             -4.1459         calculate D2E/DX2 analytically  !
 ! D33   D(5,2,9,19)           175.1467         calculate D2E/DX2 analytically  !
 ! D34   D(2,3,4,5)              6.4492         calculate D2E/DX2 analytically  !
 ! D35   D(13,3,4,5)          -110.2411         calculate D2E/DX2 analytically  !
 ! D36   D(14,3,4,5)           126.6004         calculate D2E/DX2 analytically  !
 ! D37   D(3,4,5,2)             -6.4433         calculate D2E/DX2 analytically  !
[...]
 ,0.57574482,0.00231924,0.00358391,-0.00369099,-0.02992562,0.03274342,0
 .00606057,-0.15709906,0.07662705,0.01344012,0.31065438,0.00408262,-0.0
 0364605,0.00411457,0.02540594,-0.08918017,0.01976950,0.03366798,-0.091
 84759,-0.00864179,-0.03641976,0.34913202,-0.00247188,0.00052484,-0.001
 26091,0.00588790,0.02366533,0.00596150,0.02909482,-0.02525101,-0.06891
 465,-0.08424738,-0.05995350,0.13355858,0.00525809,0.00209666,0.0025923
 2,-0.12619865,0.02083242,-0.00092994,-0.07566888,-0.02611432,0.0363361
 5,-0.07231388,-0.01459412,0.00518787,0.57873786,0.01784757,-0.01011247
 ,-0.00166829,0.04834750,-0.06185007,-0.01976480,-0.01842155,-0.0041577
 7,0.01016865,-0.06086929,-0.15876287,0.04717899,0.05760994,0.39697707,
 0.01762251,-0.00273797,-0.00270018,-0.00442335,-0.01561105,-0.06831257
 ,0.03891095,0.01557317,-0.00719236,0.02093010,0.03194380,-0.08045437,0
 .06857503,0.02643389,0.49959721,-0.00307108,0.00076527,-0.00108357,-0.
 00882000,0.00483253,0.01699230,-0.00172555,-0.00162316,0.00075399,-0.0
 0497630,-0.00369917,0.01372134,-0.07084715,0.00659723,0.00348099,0.498
 38303,0.00354061,-0.00006602,-0.00142234,0.00503942,-0.00878110,-0.017
 33162,0.00175760,-0.00335423,0.00442879,-0.01531750,-0.00360952,0.0305
 6825,0.01158113,-0.07682774,-0.02395346,-0.05568963,0.55745685,-0.0010
 1297,0.00038928,-0.00121694,0.01631862,-0.00559150,-0.00718595,0.00352
 163,-0.00248601,-0.00404254,0.00388317,0.00519072,-0.00371919,0.001478
 80,-0.02482919,-0.15752873,-0.00889478,0.02612228,0.44185878,-0.000435
 54,-0.00048615,0.00018891,-0.00110398,-0.00097652,0.00025647,0.0012809
 3,0.00004298,0.00058614,-0.00120256,0.00051146,0.00359336,-0.01328859,
 -0.01341328,0.00620454,-0.15230697,-0.08122416,0.04047408,0.58133247,-
 0.00058937,-0.00039339,0.00017364,0.00005255,0.00014853,0.00202533,0.0
 0089007,-0.00033699,0.00016463,-0.00126883,0.00166046,0.00205911,-0.00
 979526,-0.00207307,0.00425940,-0.02799428,-0.12990656,0.03724851,-0.08
 780622,0.28035525,0.00057906,-0.00013633,0.00039254,-0.00070974,0.0001
 4447,-0.00139000,-0.00164041,0.00185611,0.00002266,0.00732712,0.000337
 76,-0.00831364,0.02526282,0.02415676,-0.00488993,0.01274611,0.03542709
 ,-0.08029988,0.06422264,-0.13636579,0.12624205,-0.00077224,-0.00043931
 ,-0.00254589,0.00650252,-0.00099765,0.00617765,-0.00066685,0.00154667,
 -0.00218191,-0.00125055,-0.00055992,0.00025951,0.00332700,0.00249939,-
 0.01256327,-0.14354831,0.03434016,-0.04695869,-0.04206191,0.00226680,-
 0.00781172,0.54896043,0.00040639,0.00015518,0.00046330,0.00019823,0.00
 787610,-0.00793183,0.00018650,-0.00179434,0.00111007,-0.00006440,0.000
 83037,-0.00009447,-0.00064256,0.00076529,0.00236538,0.04394209,-0.0884
 9505,0.02003442,-0.01922636,0.01053990,-0.00844274,-0.17992437,0.23281
 166,-0.00233752,0.00290523,-0.00279130,0.01393950,-0.00792220,-0.04164
 774,-0.00036412,-0.00332931,-0.00351273,0.00133945,0.00077099,0.000649
 78,-0.02300779,0.00510633,-0.03493061,-0.04742442,0.01599201,-0.110834
 83,0.01217978,-0.00351075,0.00951152,-0.10679378,0.10179295,0.80145669
 ,0.00310740,-0.00135617,0.00323498,-0.09218129,0.00570598,-0.03351471,
 0.00417674,0.00129512,0.01698624,0.00197674,0.00230153,-0.00036313,-0.
 02734790,0.00741529,-0.02674255,-0.03197149,0.01961596,0.01059589,-0.0
 0150208,0.00158554,-0.00137094,-0.29002367,0.12216123,0.18654021,0.707
 40600,-0.01207737,0.00231968,-0.02965785,0.00779814,-0.07418838,0.0053
 6182,0.00812288,0.00071782,0.02106764,0.00120485,-0.00234580,-0.000854
 12,0.00888300,-0.00349946,0.00878140,0.01726991,-0.00237372,-0.0042784
 0,0.00095847,-0.00032408,0.00028247,0.12234518,-0.11251213,-0.10464221
 ,-0.25599504,0.27421050,-0.00440113,-0.00566491,-0.02225519,-0.0401796
 8,0.00129675,-0.17493783,-0.00493790,0.01356809,-0.02191147,0.00259725
 ,-0.00231665,-0.00106565,-0.01480406,0.01047878,-0.00054850,0.00356642
 ,-0.00148866,0.00919160,-0.00495556,-0.00057830,-0.00094536,0.18959584
 ,-0.10434948,-0.29218263,-0.08760791,0.07864429,0.58926350,-0.08530130
 ,0.01070582,-0.09226509,-0.00002872,0.00036695,0.00308373,0.00051827,-
 0.00009712,-0.00107436,-0.00049613,-0.00030599,0.00034590,0.00085283,-
 0.00003295,0.00036928,0.00002013,0.00006512,0.00006305,0.00003586,0.00
 000800,-0.00001342,0.00016563,0.00006057,0.00007561,0.00074017,0.00047
 119,0.00004488,0.08843934,0.01159924,-0.05045204,0.02909106,-0.0122347
 6,0.00190222,-0.02767203,0.00006461,0.00137032,-0.00110245,-0.00051322
 ,0.00030538,0.00022086,-0.00012896,0.00133386,0.00012883,-0.00045037,-
 0.00011117,-0.00017801,0.00008644,0.00004303,0.00009029,-0.00060186,0.
 00017952,-0.00144298,0.00144575,-0.00505537,-0.00145462,-0.01291368,0.
 05450422,-0.09223070,0.02723846,-0.26598124,-0.00619907,0.00186444,-0.
 01614576,0.00056051,0.00110627,0.00013075,0.00013413,-0.00003571,0.000
 33879,-0.00085792,0.00044201,0.00015479,-0.00033354,0.00012009,-0.0002
 7624,0.00026545,0.00005508,0.00015283,-0.00087659,-0.00001845,-0.00038
 967,0.00131533,-0.00386145,-0.00004479,0.10164016,-0.02742695,0.290138
 14,-0.11299484,-0.09616443,0.06216331,0.00084855,0.00241129,-0.0016183
 8,0.00106372,0.00166732,0.00032098,0.00027642,-0.00014885,-0.00025621,
 0.00067724,-0.00040792,-0.00038173,0.00020877,-0.00011228,0.00008195,-
 0.00003812,-0.00004440,-0.00013482,0.00013851,-0.00005909,-0.00020330,
 0.00017512,0.00011553,0.00009418,0.00651689,0.01048824,-0.00609265,0.1
 1857774,-0.09529969,-0.18389252,0.09019203,-0.01489976,-0.02234780,0.0
 1368965,-0.00100760,-0.00143459,-0.00461030,0.00186684,-0.00033967,-0.
 00020573,-0.00044088,-0.00003907,0.00091303,-0.00015947,-0.00025233,0.
 00015300,0.00010001,0.00036021,-0.00001461,0.00059492,0.00013593,-0.00
 062649,-0.00001051,0.00120965,0.00159904,-0.00125649,-0.00242665,0.001
 21464,0.10520623,0.20278865,0.06275934,0.09124326,-0.10721904,-0.01042
 161,-0.01370278,0.00837652,0.00018922,-0.00191176,-0.00247398,0.000488
 70,-0.00038534,0.00031453,0.00029920,0.00053992,0.00058742,0.00016115,
 -0.00013475,0.00022845,-0.00013100,-0.00001706,-0.00013729,0.00017845,
 0.00021101,0.00011256,-0.00049281,0.00004142,0.00111189,0.01580982,0.0
 2063140,-0.01301516,-0.06884838,-0.09740322,0.11313134,-0.28300856,0.0
 6889251,0.02152227,-0.00126145,0.00099478,0.00033037,-0.00014360,0.000
 74866,0.00036910,0.00066005,0.00063934,-0.00031546,0.00153752,-0.00144
 319,0.00020036,0.00001679,0.00020633,-0.00049118,-0.00007960,-0.000028
 69,0.00021247,0.00015257,0.00001189,0.00029312,0.00047924,0.00005828,-
 0.00028614,-0.01135171,0.00250022,0.00163766,-0.01503889,0.00473946,0.
 00035865,0.30751751,0.06922548,-0.06683608,-0.00630203,0.03068717,-0.0
 0972344,-0.00292650,0.00062210,0.00095850,0.00028292,-0.00063746,-0.00
 099500,0.00089888,-0.00244181,-0.00145727,-0.00406550,0.00059077,-0.00
 138067,0.00072493,0.00024051,0.00035033,-0.00022446,0.00000929,0.00000
 757,0.00007671,-0.00030068,0.00110767,0.00113454,0.00349789,-0.0018541
 0,-0.00023892,-0.02297348,0.00739700,0.00125758,-0.07769297,0.07253411
 ,0.02149584,-0.00645111,-0.04866089,0.01828798,-0.00484371,-0.00290585
 ,-0.00003450,-0.00007087,0.00042399,-0.00020144,-0.00092466,0.00034156
 ,-0.00204896,-0.00112613,-0.00120156,0.00050906,-0.00027741,0.00029773
 ,0.00005895,0.00004170,-0.00023336,-0.00012083,0.00010189,0.00005254,0
 .00076597,0.00056712,0.00118304,-0.02895309,0.00833931,0.00357661,0.01
 499378,-0.00495298,-0.00188127,-0.02424385,0.00985358,0.04938625,0.001
 20795,0.00005359,0.00041080,0.00075186,-0.00125320,0.00427371,-0.05046
 518,-0.00151399,0.01318278,-0.01461625,0.00718302,0.03314152,0.0003699
 5,0.00447661,-0.00012635,-0.00078188,-0.00072709,0.00002759,-0.0003151
 6,-0.00039999,0.00076974,0.00005817,0.00030130,0.00015765,-0.00021038,
 0.00008340,-0.00040251,-0.00010246,-0.00019317,-0.00027458,-0.00009375
 ,0.00015762,-0.00007431,-0.00000760,-0.00025691,-0.00015021,0.05993802
 ,0.00102973,0.00224879,0.00068274,-0.00010333,0.00235778,0.02599895,-0
 .00338942,-0.05297052,-0.02196746,0.01162551,0.00035212,-0.01741375,-0
 .00092858,-0.00425012,-0.00090274,0.00038781,0.00023680,0.00056291,-0.
 00013379,0.00022176,-0.00049059,0.00027226,0.00024896,0.00124573,-0.00
 350855,-0.00305070,0.00049788,-0.00032884,-0.00029258,-0.00075456,-0.0
 0001606,0.00035345,-0.00018619,0.00029297,-0.00019332,-0.00007953,-0.0
 0397894,0.05229720,-0.00084337,-0.00155145,0.00049068,-0.00161873,-0.0
 0186258,-0.01156535,0.01551877,-0.02387042,-0.29377813,0.01122899,-0.0
 0385523,0.00055662,-0.00085872,-0.00172856,-0.00021729,0.00006388,0.00
 036812,-0.00021436,0.00052026,0.00022350,-0.00036135,-0.00033801,0.000
 23623,-0.00013420,0.00234432,0.00167948,-0.00031320,0.00038919,0.00054
 794,0.00088467,0.00007610,-0.00017864,0.00042044,-0.00011697,0.0004884
 2,0.00009430,-0.02702317,0.02958176,0.31614963,-0.00048362,0.00011261,
 0.00051069,-0.00032991,-0.00212739,0.00044090,-0.19354642,-0.09425960,
 -0.07872704,-0.02996502,-0.00758872,-0.00250754,-0.00214834,0.00260401
 ,-0.00250400,-0.00035004,-0.00050475,-0.00097750,-0.00015441,-0.000106
 42,0.00074058,-0.00030718,0.00042551,0.00036304,0.00144930,-0.00035389
 ,-0.00067527,0.00001090,0.00004641,-0.00008290,-0.00009420,0.00000344,
 -0.00012326,0.00005709,-0.00010067,-0.00009337,0.00442495,-0.00113615,
 0.00043085,0.22215685,-0.00216921,-0.00160440,0.00210648,-0.01679327,-
 0.00769088,-0.01205810,-0.10048389,-0.11856950,-0.05217347,0.01665115,
 0.01181130,0.00527007,0.00030014,-0.00314012,0.00279641,-0.00033428,0.
 00054987,-0.00034031,0.00014852,-0.00006057,0.00002673,0.00011078,0.00
 030742,0.00050156,0.00075545,0.00143592,-0.00234070,0.00006055,0.00015
 707,0.00018161,0.00035933,-0.00121426,-0.00036633,0.00024203,-0.000087
 24,-0.00011898,-0.00333406,0.00130921,-0.00005045,0.10465946,0.1158517
 7,0.00082099,0.00037441,-0.00108635,0.01036051,0.00709223,0.00481423,-
 0.08079755,-0.05302926,-0.09497528,0.00827225,0.00507920,0.00720902,0.
 00219610,0.00084530,-0.00118136,0.00046000,0.00007265,0.00022269,-0.00
 010088,-0.00002335,-0.00016094,0.00008454,-0.00025405,0.00015858,-0.00
 009319,0.00013242,0.00146201,0.00021340,0.00026582,0.00030954,0.000011
 26,0.00043940,0.00052407,-0.00010789,-0.00006111,0.00007112,-0.0238332
 8,-0.01708209,-0.01198756,0.08205648,0.05598565,0.09486946,0.00175212,
 -0.00104245,-0.00123093,-0.01126447,-0.00682140,-0.01304106,0.00036384
 ,-0.00164896,-0.00092057,-0.00752748,-0.01180768,0.00183980,-0.2001206
 5,-0.05613478,-0.10978883,0.00372648,0.00123230,0.00708186,0.00256296,
 0.00134530,-0.00047740,-0.00070805,0.00026589,0.00107940,-0.00290973,0
 .00090444,0.00127557,-0.00001119,0.00025366,0.00079149,0.00001505,0.00
 063770,0.00005306,0.00026988,-0.00005979,0.00022232,-0.00040966,0.0001
 0295,0.00038610,-0.00102288,-0.00033508,0.00067673,0.21514619,-0.00108
 030,0.00149978,0.00042557,0.01099126,0.00770924,0.01066664,0.00175152,
 -0.00430479,-0.00233053,-0.02836154,-0.01575144,-0.00632844,-0.0532170
 0,-0.07056702,-0.04594701,-0.00663224,0.00148480,-0.00331693,0.0009507
 9,0.00041952,0.00115509,0.00100952,-0.00052282,-0.00086705,0.00321764,
 -0.00087997,-0.00044778,-0.00017067,0.00001105,-0.00019339,-0.00022672
 ,-0.00005518,0.00013789,-0.00014387,0.00010082,0.00003572,-0.00019347,
 0.00026320,0.00023997,-0.00143130,0.00141264,0.00006069,0.07331467,0.0
 7926914,-0.00014608,-0.00008185,0.00075901,0.00397277,0.00022128,0.002
 08600,-0.00029190,0.00133386,-0.00009572,0.01448556,0.00688350,0.01087
 665,-0.10968579,-0.04554429,-0.12839045,-0.02408103,-0.00842816,-0.014
 18422,0.00030659,0.00061841,0.00514033,0.00091718,-0.00081491,-0.00458
 759,0.00044763,-0.00004569,-0.00135789,-0.00010194,0.00021196,0.000196
 88,-0.00010540,0.00001806,-0.00004091,-0.00000385,0.00013707,0.0000123
 5,0.00003287,0.00000857,-0.00013701,0.00067266,-0.00021622,-0.00022246
 ,0.11375885,0.04551894,0.13255755,-0.00023905,-0.00023832,0.00042547,-
 0.00106887,0.00225677,-0.00030979,-0.00020193,0.00067713,0.00022840,0.
 00039999,-0.00008874,-0.00074096,0.00158742,0.00182188,0.00055871,-0.0
 5681838,0.05550153,0.00863074,-0.00547238,-0.03697453,-0.00030392,-0.0
 0627793,0.02515452,0.00737577,-0.00244126,0.00147942,-0.00225432,-0.00
 000828,0.00012336,0.00019791,-0.00002654,-0.00007407,-0.00007257,0.000
 04183,0.00008222,0.00005231,0.00005230,-0.00013316,0.00003669,0.000055
 73,0.00003424,0.00001045,-0.00012034,0.00021427,0.00039310,0.06841458,
 0.00028314,0.00007908,-0.00002817,-0.00076586,-0.00082631,-0.00001779,
 -0.00026984,0.00029232,0.00037815,0.00012253,0.00241118,-0.00000331,0.
 00238474,-0.00535890,-0.00067196,0.05013316,-0.26314316,-0.05204863,-0
 .01140601,-0.02354548,0.00075966,0.00469127,-0.00701326,-0.00310694,0.
 00055005,-0.00023789,0.00132593,-0.00002260,-0.00001266,-0.00003878,-0
 .00000577,0.00006633,0.00002671,0.00002598,-0.00007116,-0.00007367,-0.
 00022213,0.00017122,0.00001914,0.00009209,-0.00006815,-0.00003895,0.00
 006529,-0.00010584,-0.00041079,-0.04640605,0.29624143,0.00154955,0.000
 02709,0.00016370,-0.00027692,-0.00062106,-0.00431156,0.00031199,-0.000
 37826,0.00084613,-0.00200144,0.00127403,0.00386222,0.01047668,-0.02999
 237,-0.00917859,0.00996365,-0.05249930,-0.06272551,0.00214732,0.015162
 47,0.00445596,-0.00391519,0.01540246,0.00578223,-0.00192290,0.00046321
 ,-0.00208815,-0.00007457,0.00010087,0.00006532,-0.00007297,0.00002886,
 -0.00001717,0.00011447,-0.00053825,-0.00021231,-0.00027670,0.00006827,
 0.00021527,-0.00005292,0.00029736,-0.00011078,-0.00023495,0.00029271,-
 0.00112708,-0.01474042,0.05284675,0.06298270,0.00024869,-0.00003007,0.
 00006454,-0.00046902,-0.00032765,-0.00002365,-0.00063030,0.00060250,0.
 00034087,0.00134054,0.00022899,-0.00102894,-0.00000653,0.00036626,0.00
 079616,-0.02980418,0.01707421,-0.01136748,-0.36923464,0.15957909,-0.10
 120074,-0.00521968,-0.00446669,0.00373470,-0.00032619,-0.00052837,-0.0
 0148632,-0.00000589,0.00003992,0.00004028,-0.00004988,0.00001843,-0.00
 000764,0.00006684,-0.00010042,-0.00006246,0.00013841,-0.00018549,-0.00
 003902,0.00015687,0.00003119,-0.00005043,0.00011528,0.00017428,0.00080
 171,0.00299445,0.00017485,-0.00099926,0.40017513,-0.00003983,-0.000013
 58,-0.00000560,-0.00000138,-0.00015296,-0.00022685,0.00002814,-0.00012
 480,-0.00002324,-0.00022897,-0.00045876,0.00011156,0.00038946,-0.00002
 871,0.00053053,-0.03064856,0.00643379,-0.00615669,0.20811904,-0.136118
 29,0.08121235,-0.00255496,-0.00252639,0.00179622,-0.00105891,0.0008471
 6,-0.00002873,0.00002296,0.00000536,-0.00003197,0.00001223,-0.00001760
 ,0.00004025,-0.00002038,-0.00001318,-0.00001495,0.00002681,-0.00000297
 ,-0.00001247,-0.00002686,0.00001576,0.00001278,0.00014372,0.00015656,-
 0.00031415,-0.00080848,0.00083109,-0.00062611,-0.17339604,0.13056748,0
 .00003268,-0.00005421,-0.00006513,0.00013655,-0.00029034,-0.00020305,0
 .00028478,-0.00027994,-0.00007969,-0.00101488,-0.00065196,-0.00001118,
 0.00224603,0.00133705,0.00192169,0.01406258,-0.00375966,0.00059062,-0.
 12585656,0.07890659,-0.05049080,-0.00024026,0.00028315,0.00010406,0.00
 012228,0.00006665,0.00012404,0.00003625,-0.00000553,-0.00002432,0.0000
 2552,0.00000539,0.00003275,-0.00005955,0.00002234,0.00000134,0.0000044
 6,0.00002887,-0.00001915,-0.00013310,-0.00002979,0.00003456,-0.0004084
 0,-0.00027362,-0.00128548,0.00006092,0.00098580,0.00051738,0.11044962,
 -0.07626457,0.04887761,0.00094992,-0.00065849,0.00161546,-0.00144259,0
 .00610683,0.00107435,-0.00054176,0.00065613,-0.00077031,0.00104008,0.0
 0043812,-0.00071191,-0.00419388,0.00112358,-0.00144921,0.00225265,-0.0
 0217345,-0.02315392,0.00155735,-0.00007514,0.00138692,-0.05713489,0.00
 566621,-0.03699239,0.00728712,-0.00003111,0.02246201,-0.00008438,0.000
 57703,0.00039580,-0.00001248,-0.00004845,-0.00002910,-0.00001384,-0.00
 010613,-0.00007581,0.00000541,0.00002557,-0.00001992,0.00007004,-0.000
 12397,-0.00003142,0.00032253,-0.00030002,-0.00125396,0.00047225,0.0002
 8525,0.00065664,0.00018670,0.00000077,0.00025468,0.04949708,0.00045000
 ,-0.00015305,0.00168184,0.00545020,0.00963038,-0.00145949,-0.00023979,
 -0.00041096,-0.00297445,-0.00040710,-0.00002938,-0.00027935,0.00404411
 ,0.00056466,0.00001482,-0.00018883,0.00162781,0.01155148,0.00015724,0.
 00011785,-0.00070550,0.00591961,-0.04109751,-0.00982988,-0.00220472,0.
 00289992,-0.01173762,-0.00020044,0.00040188,0.00018733,0.00003884,-0.0
 0018810,0.00001818,-0.00004863,0.00000175,-0.00002184,-0.00009084,0.00
 078125,-0.00024745,-0.00007265,-0.00015840,0.00003517,-0.00052079,0.00
 025288,0.00091348,-0.00088359,0.00020855,-0.00047852,0.00004521,0.0000
 2764,0.00009105,-0.00900746,0.02971699,-0.00012116,0.00036312,-0.00069
 201,0.00095328,-0.00171454,-0.00050693,-0.00035410,-0.00001014,0.00000
 050,0.00049701,0.00048955,-0.00030873,-0.00101745,-0.00040330,-0.00010
 473,0.00417538,-0.00129244,-0.00655448,-0.00048615,-0.00046375,0.00080
 516,-0.03341263,-0.01179399,-0.33654599,-0.00772001,0.00206125,-0.0123
 1442,0.00004128,-0.00026426,-0.00009608,-0.00003236,-0.00003277,0.0000
 0377,0.00004598,-0.00005389,-0.00002748,0.00004618,0.00001886,-0.00001
 335,0.00008604,0.00009550,-0.00002658,0.00002217,0.00004658,-0.0004664
 9,-0.00031101,0.00033096,0.00016414,-0.00010198,-0.00012197,-0.0000138
 2,0.03718924,0.01247075,0.35604344,0.00024568,0.00014528,0.00024662,-0
 .00320143,0.00208854,0.00276866,-0.00069295,0.00029352,-0.00037552,0.0
 0070544,0.00075394,-0.00042862,-0.00021345,0.00001371,0.00033068,0.000
 41349,0.00579448,0.00069914,0.00042637,-0.00064422,0.00041563,-0.01133
 357,0.00560315,-0.00995492,-0.27788384,0.09929107,-0.05764534,0.000090
 03,-0.00018885,-0.00003077,-0.00014931,-0.00012772,-0.00009694,0.00010
 593,-0.00028510,-0.00040169,0.00005529,0.00010552,-0.00013724,0.000020
 31,0.00022093,-0.00014806,-0.00017988,0.00013317,-0.00011897,-0.001343
 59,0.00028992,-0.00065203,0.00032340,0.00004123,-0.00000360,-0.0002173
 0,-0.00224038,0.00050028,0.29282940,-0.00007531,0.00042776,0.00074349,
 0.00107353,0.00043248,-0.00076280,0.00001730,0.00048807,-0.00047936,-0
 .00033720,0.00046345,-0.00011420,0.00018191,0.00248378,0.00014900,0.00
 290121,0.01051134,-0.00275187,0.00335705,-0.00145840,0.00093125,0.0094
 7222,0.00010359,0.00509008,0.09838505,-0.08028081,0.02186214,0.0000697
 2,-0.00000933,0.00019024,-0.00014001,-0.00010347,-0.00004020,0.0000253
 1,0.00015369,0.00001653,-0.00011858,-0.00008152,-0.00002731,-0.0002351
 3,-0.00025743,0.00009309,0.00010499,-0.00039257,-0.00000906,-0.0017384
 0,0.00008161,-0.00083021,0.00069981,0.00057240,-0.00011727,-0.00235527
 ,-0.00419416,0.00027448,-0.11128818,0.07105951,-0.00001273,0.00097544,
 0.00174774,-0.02397047,0.00979283,-0.00071951,-0.00063703,-0.00085311,
 0.00072863,0.00047168,0.00091121,0.00037906,-0.00144037,-0.00163073,-0
 .00542988,0.00116048,-0.00251148,-0.00360701,0.00052567,0.00002065,0.0
 0049950,0.02054558,-0.00830093,0.00972933,-0.06252468,0.02419054,-0.07
 237101,0.00036992,-0.00008151,0.00002493,-0.00002088,-0.00022837,-0.00
 005892,0.00054045,-0.00046632,-0.00031811,0.00011381,0.00018238,-0.000
 07065,0.00057569,0.00043300,0.00007603,-0.00108521,0.00112494,0.000266
 53,0.00076252,-0.00023412,0.00071608,0.00014004,0.00012362,-0.00001144
 ,-0.00054714,0.00076999,0.00065407,0.06503269,-0.02421802,0.06776463\\
 0.00000221,0.00001620,-0.00000589,0.00001162,-0.00002777,0.00001079,0.
 00003541,0.00001852,0.00000887,0.00000097,-0.00001660,0.00002067,-0.00
 000709,0.00003900,-0.00002103,-0.00002009,-0.00001530,0.00001499,0.000
 01151,0.00001142,-0.00002188,-0.00001277,-0.00001102,0.00001071,-0.000
 01154,-0.00000644,-0.00001243,0.00000010,0.00001039,-0.00000806,-0.000
 00521,0.00000358,-0.00001323,-0.00000151,0.00000104,-0.00000587,0.0000
 0657,0.00000311,0.00001061,0.00000486,-0.00000348,0.00001650,0.0000040
 9,0.00000927,-0.00000612,0.00000261,0.00000029,0.00000229,-0.00000641,
 0.00000424,-0.00000794,-0.00000640,-0.00002025,0.00000079,-0.00000893,
 -0.00001619,0.00000622\\\@


 In the beginning there was nothing, which exploded.
 Job cpu time:       0 days  0 hours 51 minutes 33.5 seconds.
 File lengths (MBytes):  RWF=    152 Int=      0 D2E=      0 Chk=      8 Scr=      1
 Normal termination of Gaussian 09 at Tue Jan 28 00:57:25 2020.
