 Entering Gaussian System, Link 0=/home/puck/opt/gaussian_09/g09
 Input=dsC7O2H10nsd_4823.com
 Output=dsC7O2H10nsd_4823.log
 Initial command:
 /home/puck/opt/gaussian_09/l1.exe "/scratch/puck/g09_c3b5ed9e-6249-4446-8346-6b1e4af5f3a1/Gau-74486.inp" -scrdir="/scratch/puck/g09_c3b5ed9e-6249-4446-8346-6b1e4af5f3a1/"
 Entering Link 1 = /home/puck/opt/gaussian_09/l1.exe PID=     74503.
  
 Copyright (c) 1988,1990,1992,1993,1995,1998,2003,2009,2013,
            Gaussian, Inc.  All Rights Reserved.
  
 This is part of the Gaussian(R) 09 program.  It is based on
 the Gaussian(R) 03 system (copyright 2003, Gaussian, Inc.),
 the Gaussian(R) 98 system (copyright 1998, Gaussian, Inc.),
 the Gaussian(R) 94 system (copyright 1995, Gaussian, Inc.),
 the Gaussian 92(TM) system (copyright 1992, Gaussian, Inc.),
 the Gaussian 90(TM) system (copyright 1990, Gaussian, Inc.),
 the Gaussian 88(TM) system (copyright 1988, Gaussian, Inc.),
 the Gaussian 86(TM) system (copyright 1986, Carnegie Mellon
 University), and the Gaussian 82(TM) system (copyright 1983,
 Carnegie Mellon University). Gaussian is a federally registered
 trademark of Gaussian, Inc.
  
 This software contains proprietary and confidential information,
 including trade secrets, belonging to Gaussian, Inc.
  
 This software is provided under written license and may be
 used, copied, transmitted, or stored only in accord with that
 written license.
  
 The following legend is applicable only to US Government
 contracts under FAR:
  
                    RESTRICTED RIGHTS LEGEND
  
 Use, reproduction and disclosure by the US Government is
 subject to restrictions as set forth in subparagraphs (a)
 and (c) of the Commercial Computer Software - Restricted
 Rights clause in FAR 52.227-19.
  
 Gaussian, Inc.
 340 Quinnipiac St., Bldg. 40, Wallingford CT 06492
  
  
 ---------------------------------------------------------------
 Warning -- This program may not be used in any manner that
 competes with the business of Gaussian, Inc. or will provide
 assistance to any competitor of Gaussian, Inc.  The licensee
 of this program is prohibited from giving any competitor of
 Gaussian, Inc. access to this program.  By using this program,
 the user acknowledges that Gaussian, Inc. is engaged in the
 business of creating and licensing software in the field of
 computational chemistry and represents and warrants to the
 licensee that it is not a competitor of Gaussian, Inc. and that
 it will not use this program in any manner prohibited above.
 ---------------------------------------------------------------
  

 Cite this work as:
 Gaussian 09, Revision D.01,
 M. J. Frisch, G. W. Trucks, H. B. Schlegel, G. E. Scuseria, 
 M. A. Robb, J. R. Cheeseman, G. Scalmani, V. Barone, B. Mennucci, 
 G. A. Petersson, H. Nakatsuji, M. Caricato, X. Li, H. P. Hratchian, 
 A. F. Izmaylov, J. Bloino, G. Zheng, J. L. Sonnenberg, M. Hada, 
 M. Ehara, K. Toyota, R. Fukuda, J. Hasegawa, M. Ishida, T. Nakajima, 
 Y. Honda, O. Kitao, H. Nakai, T. Vreven, J. A. Montgomery, Jr., 
 J. E. Peralta, F. Ogliaro, M. Bearpark, J. J. Heyd, E. Brothers, 
 K. N. Kudin, V. N. Staroverov, T. Keith, R. Kobayashi, J. Normand, 
 K. Raghavachari, A. Rendell, J. C. Burant, S. S. Iyengar, J. Tomasi, 
 M. Cossi, N. Rega, J. M. Millam, M. Klene, J. E. Knox, J. B. Cross, 
 V. Bakken, C. Adamo, J. Jaramillo, R. Gomperts, R. E. Stratmann, 
 O. Yazyev, A. J. Austin, R. Cammi, C. Pomelli, J. W. Ochterski, 
 R. L. Martin, K. Morokuma, V. G. Zakrzewski, G. A. Voth, 
 P. Salvador, J. J. Dannenberg, S. Dapprich, A. D. Daniels, 
 O. Farkas, J. B. Foresman, J. V. Ortiz, J. Cioslowski, 
 and D. J. Fox, Gaussian, Inc., Wallingford CT, 2013.
 
 ******************************************
 Gaussian 09:  ES64L-G09RevD.01 24-Apr-2013
                28-Jan-2020 
 ******************************************
 -----------------------------
 # b3lyp 6-31G(2df,p) opt Freq
 -----------------------------
 1/14=-1,18=20,19=15,26=3,38=1/1,3;
 2/9=110,12=2,17=6,18=5,40=1/2;
 3/5=1,6=6,7=104,11=2,16=1,25=1,30=1,71=1,74=-5/1,2,3;
 4//1;
 5/5=2,38=5/2;
 6/7=2,8=2,9=2,10=2,28=1/1;
 7//1,2,3,16;
 1/14=-1,18=20,19=15,26=3/3(2);
 2/9=110/2;
 99//99;
 2/9=110/2;
 3/5=1,6=6,7=104,11=2,16=1,25=1,30=1,71=1,74=-5/1,2,3;
 4/5=5,16=3,69=1/1;
 5/5=2,38=5/2;
 7//1,2,3,16;
 1/14=-1,18=20,19=15,26=3/3(-5);
 2/9=110/2;
 6/7=2,8=2,9=2,10=2,19=2,28=1/1;
 99/9=1/99;
 -----
 titel
 -----
 Symbolic Z-matrix:
 Charge =  0 Multiplicity = 1
 C                     1.20877  -0.15704   1.08505 
 C                     0.88062   0.25208  -0.35449 
 C                     1.63226  -0.55539  -1.38668 
 O                     3.02574  -0.3752   -1.34679 
 C                     1.11878  -0.78401  -2.77627 
 O                     2.00829  -0.72296  -3.82813 
 C                     1.15157  -1.96585  -1.77609 
 C                     2.13911  -2.98878  -1.89295 
 C                     3.03101  -3.79737  -1.95217 
 H                     0.9358   -1.20093   1.27292 
 H                     2.27932  -0.04769   1.27962 
 H                     0.66815   0.46698   1.80228 
 H                    -0.19434   0.14932  -0.54506 
 H                     1.12524   1.31071  -0.50717 
 H                     3.43795  -1.22368  -1.12945 
 H                     0.12762  -0.42577  -3.03942 
 H                     2.86473  -0.49685  -3.43387 
 H                     0.19061  -2.26968  -1.37089 
 H                     3.78247  -4.5425   -2.04068 
 

 GradGradGradGradGradGradGradGradGradGradGradGradGradGradGradGradGradGrad
 Berny optimization.
 Initialization pass.
                           ----------------------------
                           !    Initial Parameters    !
                           ! (Angstroms and Degrees)  !
 --------------------------                            --------------------------
 ! Name  Definition              Value          Derivative Info.                !
 --------------------------------------------------------------------------------
 ! R1    R(1,2)                  1.5321         estimate D2E/DX2                !
 ! R2    R(1,10)                 1.0952         estimate D2E/DX2                !
 ! R3    R(1,11)                 1.0936         estimate D2E/DX2                !
 ! R4    R(1,12)                 1.0937         estimate D2E/DX2                !
 ! R5    R(2,3)                  1.5108         estimate D2E/DX2                !
 ! R6    R(2,13)                 1.0965         estimate D2E/DX2                !
 ! R7    R(2,14)                 1.0972         estimate D2E/DX2                !
 ! R8    R(3,4)                  1.4056         estimate D2E/DX2                !
 ! R9    R(3,5)                  1.499          estimate D2E/DX2                !
 ! R10   R(3,7)                  1.5402         estimate D2E/DX2                !
 ! R11   R(4,15)                 0.968          estimate D2E/DX2                !
 ! R12   R(5,6)                  1.3789         estimate D2E/DX2                !
 ! R13   R(5,7)                  1.5486         estimate D2E/DX2                !
 ! R14   R(5,16)                 1.0863         estimate D2E/DX2                !
 ! R15   R(6,17)                 0.9696         estimate D2E/DX2                !
 ! R16   R(7,8)                  1.4266         estimate D2E/DX2                !
 ! R17   R(7,18)                 1.0862         estimate D2E/DX2                !
 ! R18   R(8,9)                  1.2053         estimate D2E/DX2                !
 ! R19   R(9,19)                 1.062          estimate D2E/DX2                !
 ! A1    A(2,1,10)             111.2418         estimate D2E/DX2                !
 ! A2    A(2,1,11)             110.4966         estimate D2E/DX2                !
 ! A3    A(2,1,12)             110.9737         estimate D2E/DX2                !
 ! A4    A(10,1,11)            107.9858         estimate D2E/DX2                !
 ! A5    A(10,1,12)            107.9471         estimate D2E/DX2                !
 ! A6    A(11,1,12)            108.0702         estimate D2E/DX2                !
 ! A7    A(1,2,3)              113.12           estimate D2E/DX2                !
 ! A8    A(1,2,13)             110.3794         estimate D2E/DX2                !
 ! A9    A(1,2,14)             109.9159         estimate D2E/DX2                !
 ! A10   A(3,2,13)             108.5968         estimate D2E/DX2                !
 ! A11   A(3,2,14)             108.0409         estimate D2E/DX2                !
 ! A12   A(13,2,14)            106.5468         estimate D2E/DX2                !
 ! A13   A(2,3,4)              113.9107         estimate D2E/DX2                !
 ! A14   A(2,3,5)              122.9877         estimate D2E/DX2                !
 ! A15   A(2,3,7)              120.4599         estimate D2E/DX2                !
 ! A16   A(4,3,5)              112.672          estimate D2E/DX2                !
 ! A17   A(4,3,7)              115.7201         estimate D2E/DX2                !
 ! A18   A(3,4,15)             108.4302         estimate D2E/DX2                !
 ! A19   A(3,5,6)              118.6484         estimate D2E/DX2                !
 ! A20   A(3,5,16)             119.1333         estimate D2E/DX2                !
 ! A21   A(6,5,7)              120.8509         estimate D2E/DX2                !
 ! A22   A(6,5,16)             112.9052         estimate D2E/DX2                !
 ! A23   A(7,5,16)             115.3068         estimate D2E/DX2                !
 ! A24   A(5,6,17)             105.6615         estimate D2E/DX2                !
 ! A25   A(3,7,8)              117.4714         estimate D2E/DX2                !
 ! A26   A(3,7,18)             115.9726         estimate D2E/DX2                !
 ! A27   A(5,7,8)              120.5944         estimate D2E/DX2                !
 ! A28   A(5,7,18)             115.8271         estimate D2E/DX2                !
 ! A29   A(8,7,18)             116.2555         estimate D2E/DX2                !
 ! A30   L(7,8,9,15,-1)        175.7907         estimate D2E/DX2                !
 ! A31   L(8,9,19,15,-1)       183.0503         estimate D2E/DX2                !
 ! A32   L(7,8,9,15,-2)        179.443          estimate D2E/DX2                !
 ! A33   L(8,9,19,15,-2)       181.2621         estimate D2E/DX2                !
 ! D1    D(10,1,2,3)           -61.3877         estimate D2E/DX2                !
 ! D2    D(10,1,2,13)           60.5175         estimate D2E/DX2                !
 ! D3    D(10,1,2,14)          177.7585         estimate D2E/DX2                !
 ! D4    D(11,1,2,3)            58.5454         estimate D2E/DX2                !
 ! D5    D(11,1,2,13)         -179.5494         estimate D2E/DX2                !
 ! D6    D(11,1,2,14)          -62.3084         estimate D2E/DX2                !
 ! D7    D(12,1,2,3)           178.4092         estimate D2E/DX2                !
 ! D8    D(12,1,2,13)          -59.6856         estimate D2E/DX2                !
 ! D9    D(12,1,2,14)           57.5554         estimate D2E/DX2                !
 ! D10   D(1,2,3,4)            -64.3517         estimate D2E/DX2                !
 ! D11   D(1,2,3,5)            153.4191         estimate D2E/DX2                !
 ! D12   D(1,2,3,7)             79.8879         estimate D2E/DX2                !
 ! D13   D(13,2,3,4)           172.7491         estimate D2E/DX2                !
 ! D14   D(13,2,3,5)            30.5199         estimate D2E/DX2                !
 ! D15   D(13,2,3,7)           -43.0113         estimate D2E/DX2                !
 ! D16   D(14,2,3,4)            57.5593         estimate D2E/DX2                !
 ! D17   D(14,2,3,5)           -84.6699         estimate D2E/DX2                !
 ! D18   D(14,2,3,7)          -158.2011         estimate D2E/DX2                !
 ! D19   D(2,3,4,15)           117.3757         estimate D2E/DX2                !
 ! D20   D(5,3,4,15)           -96.4581         estimate D2E/DX2                !
 ! D21   D(7,3,4,15)           -28.6282         estimate D2E/DX2                !
 ! D22   D(2,3,5,6)            139.225          estimate D2E/DX2                !
 ! D23   D(2,3,5,16)            -5.089          estimate D2E/DX2                !
 ! D24   D(4,3,5,6)             -3.4144         estimate D2E/DX2                !
 ! D25   D(4,3,5,16)          -147.7283         estimate D2E/DX2                !
 ! D26   D(2,3,7,8)           -135.9574         estimate D2E/DX2                !
 ! D27   D(2,3,7,18)             7.9327         estimate D2E/DX2                !
 ! D28   D(4,3,7,8)              7.6728         estimate D2E/DX2                !
 ! D29   D(4,3,7,18)           151.563          estimate D2E/DX2                !
 ! D30   D(3,5,6,17)            -1.8681         estimate D2E/DX2                !
 ! D31   D(7,5,6,17)           -72.9928         estimate D2E/DX2                !
 ! D32   D(16,5,6,17)          144.5478         estimate D2E/DX2                !
 ! D33   D(6,5,7,8)              2.5181         estimate D2E/DX2                !
 ! D34   D(6,5,7,18)          -146.4766         estimate D2E/DX2                !
 ! D35   D(16,5,7,8)           144.1391         estimate D2E/DX2                !
 ! D36   D(16,5,7,18)           -4.8556         estimate D2E/DX2                !
 --------------------------------------------------------------------------------
 Trust Radius=3.00D-01 FncErr=1.00D-07 GrdErr=1.00D-06
 Number of steps in this run=     98 maximum allowed number of steps=    114.
 GradGradGradGradGradGradGradGradGradGradGradGradGradGradGradGradGradGrad

                          Input orientation:                          
 ---------------------------------------------------------------------
 Center     Atomic      Atomic             Coordinates (Angstroms)
 Number     Number       Type             X           Y           Z
 ---------------------------------------------------------------------
      1          6           0        1.208773   -0.157042    1.085051
      2          6           0        0.880615    0.252083   -0.354490
      3          6           0        1.632259   -0.555393   -1.386682
      4          8           0        3.025739   -0.375203   -1.346789
      5          6           0        1.118777   -0.784011   -2.776269
      6          8           0        2.008289   -0.722965   -3.828131
      7          6           0        1.151565   -1.965848   -1.776092
      8          6           0        2.139107   -2.988778   -1.892955
      9          6           0        3.031011   -3.797368   -1.952175
     10          1           0        0.935805   -1.200933    1.272918
     11          1           0        2.279319   -0.047686    1.279625
     12          1           0        0.668145    0.466976    1.802277
     13          1           0       -0.194341    0.149321   -0.545057
     14          1           0        1.125238    1.310713   -0.507170
     15          1           0        3.437946   -1.223684   -1.129449
     16          1           0        0.127620   -0.425769   -3.039421
     17          1           0        2.864733   -0.496847   -3.433871
     18          1           0        0.190612   -2.269678   -1.370888
     19          1           0        3.782465   -4.542502   -2.040683
 ---------------------------------------------------------------------
                    Distance matrix (angstroms):
                    1          2          3          4          5
     1  C    0.000000
     2  C    1.532106   0.000000
     3  C    2.539190   1.510764   0.000000
     4  O    3.043485   2.445343   1.405648   0.000000
     5  C    3.912925   2.644849   1.498960   2.418066   0.000000
     6  O    5.009876   3.780020   2.475915   2.704294   1.378902
     7  C    3.385438   2.648317   1.540159   2.495392   1.548602
     8  C    4.213403   3.801822   2.536645   2.813395   2.585017
     9  C    5.079100   4.855394   3.575847   3.475303   3.662798
    10  H    1.095223   2.182374   2.824047   3.451451   4.074705
    11  H    1.093566   2.171765   2.790277   2.749992   4.282442
    12  H    1.093659   2.177835   3.484855   4.022950   4.767717
    13  H    2.172519   1.096543   2.131062   3.359586   2.752036
    14  H    2.167130   1.097200   2.124374   2.675664   3.088158
    15  H    3.318274   3.052603   1.942494   0.968024   2.878172
    16  H    4.272280   2.869729   2.238814   3.356585   1.086269
    17  H    4.824761   3.739011   2.390272   2.096815   1.887661
    18  H    3.395809   2.805075   2.239948   3.409921   2.245839
    19  H    5.968782   5.852523   4.576914   4.291912   4.665038
                    6          7          8          9         10
     6  O    0.000000
     7  C    2.547469   0.000000
     8  C    2.982605   1.426632   0.000000
     9  C    3.743945   2.630168   1.205329   0.000000
    10  H    5.234442   3.150890   3.829762   4.640321   0.000000
    11  H    5.159325   3.780024   4.328388   5.006963   1.770608
    12  H    5.908760   4.353970   5.268842   6.153346   1.770249
    13  H    4.048585   2.793001   4.136360   5.287649   2.530898
    14  H    3.993045   3.513788   4.629681   5.640257   3.084309
    15  H    3.094758   2.489275   2.320664   2.732457   3.468802
    16  H    2.060900   2.239712   3.453908   4.580334   4.455369
    17  H    0.969571   2.800203   3.018390   3.621672   5.135208
    18  H    3.425539   1.086248   2.141563   3.277132   2.947412
    19  H    4.575100   3.691990   2.266387   1.061952   5.499955
                   11         12         13         14         15
    11  H    0.000000
    12  H    1.770289   0.000000
    13  H    3.080141   2.520866   0.000000
    14  H    2.523844   2.500875   1.758282   0.000000
    15  H    2.920449   4.373230   3.926852   3.486978   0.000000
    16  H    4.840136   4.952899   2.579969   3.228453   3.904218
    17  H    4.770901   5.759444   4.256843   3.854697   2.483390
    18  H    4.040441   4.217379   2.584907   3.799833   3.420171
    19  H    5.786818   7.040042   6.329699   6.608528   3.458844
                   16         17         18         19
    16  H    0.000000
    17  H    2.766303   0.000000
    18  H    2.487563   3.814414   0.000000
    19  H    5.594896   4.376132   4.302995   0.000000
 Stoichiometry    C7H10O2
 Framework group  C1[X(C7H10O2)]
 Deg. of freedom    51
 Full point group                 C1      NOp   1
 Largest Abelian subgroup         C1      NOp   1
 Largest concise Abelian subgroup C1      NOp   1
                         Standard orientation:                         
 ---------------------------------------------------------------------
 Center     Atomic      Atomic             Coordinates (Angstroms)
 Number     Number       Type             X           Y           Z
 ---------------------------------------------------------------------
      1          6           0        2.668875    0.985903   -0.009009
      2          6           0        1.983500   -0.364076   -0.243880
      3          6           0        0.506838   -0.343041    0.074606
      4          8           0        0.219680   -0.106422    1.430113
      5          6           0       -0.480880   -1.266287   -0.572628
      6          8           0       -1.475717   -1.820417    0.204939
      7          6           0       -0.501132    0.239490   -0.933730
      8          6           0       -1.522660    1.094818   -0.423657
      9          6           0       -2.340350    1.820317    0.084134
     10          1           0        2.241290    1.764739   -0.649399
     11          1           0        2.548635    1.300510    1.031400
     12          1           0        3.739585    0.923829   -0.223061
     13          1           0        2.112076   -0.681489   -1.285574
     14          1           0        2.454334   -1.135526    0.378237
     15          1           0       -0.275777    0.722438    1.497826
     16          1           0       -0.144697   -1.929267   -1.364726
     17          1           0       -1.313657   -1.499264    1.105308
     18          1           0       -0.101890    0.497310   -1.910495
     19          1           0       -3.096756    2.448694    0.485051
 ---------------------------------------------------------------------
 Rotational constants (GHZ):      2.2407244      1.3252480      1.0521853
 Standard basis: 6-31G(2df,p) (6D, 7F)
 There are   329 symmetry adapted cartesian basis functions of A   symmetry.
 There are   302 symmetry adapted basis functions of A   symmetry.
   302 basis functions,   466 primitive gaussians,   329 cartesian basis functions
    34 alpha electrons       34 beta electrons
       nuclear repulsion energy       450.8736048650 Hartrees.
 NAtoms=   19 NActive=   19 NUniq=   19 SFac= 1.00D+00 NAtFMM=   60 NAOKFM=F Big=F
 Integral buffers will be    131072 words long.
 Raffenetti 2 integral format.
 Two-electron integral symmetry is turned on.
 One-electron integrals computed using PRISM.
 NBasis=   302 RedAO= T EigKep=  1.57D-04  NBF=   302
 NBsUse=   302 1.00D-06 EigRej= -1.00D+00 NBFU=   302
 ExpMin= 1.61D-01 ExpMax= 5.48D+03 ExpMxC= 8.25D+02 IAcc=1 IRadAn=         1 AccDes= 0.00D+00
 Harris functional with IExCor=  402 and IRadAn=       1 diagonalized for initial guess.
 HarFok:  IExCor=  402 AccDes= 0.00D+00 IRadAn=         1 IDoV= 1 UseB2=F ITyADJ=14
 ICtDFT=  3500011 ScaDFX=  1.000000  1.000000  1.000000  1.000000
 FoFCou: FMM=F IPFlag=           0 FMFlag=      100000 FMFlg1=           0
         NFxFlg=           0 DoJE=T BraDBF=F KetDBF=T FulRan=T
         wScrn=  0.000000 ICntrl=     500 IOpCl=  0 I1Cent=   200000004 NGrid=           0
         NMat0=    1 NMatS0=      1 NMatT0=    0 NMatD0=    1 NMtDS0=    0 NMtDT0=    0
 Petite list used in FoFCou.
 Requested convergence on RMS density matrix=1.00D-08 within 128 cycles.
 Requested convergence on MAX density matrix=1.00D-06.
 Requested convergence on             energy=1.00D-06.
 No special actions if energy rises.
 Integral accuracy reduced to 1.0D-05 until final iterations.
 Initial convergence to 1.0D-05 achieved.  Increase integral accuracy.
 SCF Done:  E(RB3LYP) =  -423.133315464     A.U. after   14 cycles
            NFock= 14  Conv=0.47D-08     -V/T= 2.0074

 **********************************************************************

            Population analysis using the SCF density.

 **********************************************************************

 Orbital symmetries:
       Occupied  (A) (A) (A) (A) (A) (A) (A) (A) (A) (A) (A) (A)
                 (A) (A) (A) (A) (A) (A) (A) (A) (A) (A) (A) (A)
                 (A) (A) (A) (A) (A) (A) (A) (A) (A) (A)
       Virtual   (A) (A) (A) (A) (A) (A) (A) (A) (A) (A) (A) (A)
                 (A) (A) (A) (A) (A) (A) (A) (A) (A) (A) (A) (A)
                 (A) (A) (A) (A) (A) (A) (A) (A) (A) (A) (A) (A)
                 (A) (A) (A) (A) (A) (A) (A) (A) (A) (A) (A) (A)
                 (A) (A) (A) (A) (A) (A) (A) (A) (A) (A) (A) (A)
                 (A) (A) (A) (A) (A) (A) (A) (A) (A) (A) (A) (A)
                 (A) (A) (A) (A) (A) (A) (A) (A) (A) (A) (A) (A)
                 (A) (A) (A) (A) (A) (A) (A) (A) (A) (A) (A) (A)
                 (A) (A) (A) (A) (A) (A) (A) (A) (A) (A) (A) (A)
                 (A) (A) (A) (A) (A) (A) (A) (A) (A) (A) (A) (A)
                 (A) (A) (A) (A) (A) (A) (A) (A) (A) (A) (A) (A)
                 (A) (A) (A) (A) (A) (A) (A) (A) (A) (A) (A) (A)
                 (A) (A) (A) (A) (A) (A) (A) (A) (A) (A) (A) (A)
                 (A) (A) (A) (A) (A) (A) (A) (A) (A) (A) (A) (A)
                 (A) (A) (A) (A) (A) (A) (A) (A) (A) (A) (A) (A)
                 (A) (A) (A) (A) (A) (A) (A) (A) (A) (A) (A) (A)
                 (A) (A) (A) (A) (A) (A) (A) (A) (A) (A) (A) (A)
                 (A) (A) (A) (A) (A) (A) (A) (A) (A) (A) (A) (A)
                 (A) (A) (A) (A) (A) (A) (A) (A) (A) (A) (A) (A)
                 (A) (A) (A) (A) (A) (A) (A) (A) (A) (A) (A) (A)
                 (A) (A) (A) (A) (A) (A) (A) (A) (A) (A) (A) (A)
                 (A) (A) (A) (A) (A) (A) (A) (A) (A) (A) (A) (A)
                 (A) (A) (A) (A)
 The electronic state is 1-A.
 Alpha  occ. eigenvalues --  -19.16087 -19.14152 -10.25170 -10.24374 -10.21253
 Alpha  occ. eigenvalues --  -10.19277 -10.19259 -10.18132 -10.17888  -1.05751
 Alpha  occ. eigenvalues --   -1.02092  -0.85407  -0.77477  -0.74661  -0.65893
 Alpha  occ. eigenvalues --   -0.62791  -0.59175  -0.55455  -0.52242  -0.50100
 Alpha  occ. eigenvalues --   -0.48703  -0.44498  -0.43309  -0.41468  -0.40580
 Alpha  occ. eigenvalues --   -0.39045  -0.36527  -0.35680  -0.34992  -0.31776
 Alpha  occ. eigenvalues --   -0.30840  -0.28621  -0.25668  -0.23384
 Alpha virt. eigenvalues --    0.03535   0.03903   0.07269   0.09967   0.11492
 Alpha virt. eigenvalues --    0.12643   0.13214   0.14207   0.15029   0.15887
 Alpha virt. eigenvalues --    0.17177   0.18581   0.19408   0.19631   0.22154
 Alpha virt. eigenvalues --    0.23382   0.28306   0.30022   0.31443   0.33276
 Alpha virt. eigenvalues --    0.39250   0.41667   0.42786   0.44469   0.48280
 Alpha virt. eigenvalues --    0.48500   0.49456   0.50612   0.51395   0.51855
 Alpha virt. eigenvalues --    0.53873   0.55745   0.56596   0.60489   0.61390
 Alpha virt. eigenvalues --    0.62140   0.62886   0.65988   0.67406   0.68837
 Alpha virt. eigenvalues --    0.70269   0.70931   0.72251   0.73207   0.74362
 Alpha virt. eigenvalues --    0.74705   0.75578   0.77028   0.78705   0.78999
 Alpha virt. eigenvalues --    0.80913   0.81156   0.82851   0.85628   0.86597
 Alpha virt. eigenvalues --    0.88975   0.90323   0.91733   0.93457   0.94370
 Alpha virt. eigenvalues --    0.96528   0.98659   1.01130   1.03510   1.07397
 Alpha virt. eigenvalues --    1.08466   1.10218   1.12842   1.12963   1.13820
 Alpha virt. eigenvalues --    1.18755   1.19373   1.21282   1.22340   1.22980
 Alpha virt. eigenvalues --    1.27072   1.29508   1.30285   1.32866   1.34705
 Alpha virt. eigenvalues --    1.36661   1.37506   1.42953   1.43710   1.46422
 Alpha virt. eigenvalues --    1.47536   1.50044   1.51120   1.55373   1.57422
 Alpha virt. eigenvalues --    1.59587   1.59910   1.61725   1.64705   1.67798
 Alpha virt. eigenvalues --    1.71443   1.72245   1.75188   1.77266   1.80431
 Alpha virt. eigenvalues --    1.86917   1.87827   1.91173   1.93357   1.93878
 Alpha virt. eigenvalues --    1.95930   1.99409   2.09818   2.12790   2.13065
 Alpha virt. eigenvalues --    2.14888   2.18477   2.23056   2.29241   2.32879
 Alpha virt. eigenvalues --    2.34415   2.39112   2.41702   2.44934   2.47165
 Alpha virt. eigenvalues --    2.49655   2.54572   2.54765   2.56204   2.57575
 Alpha virt. eigenvalues --    2.59105   2.62759   2.64515   2.66639   2.68125
 Alpha virt. eigenvalues --    2.70073   2.71112   2.73783   2.74705   2.77403
 Alpha virt. eigenvalues --    2.79497   2.81623   2.81907   2.87183   2.89296
 Alpha virt. eigenvalues --    2.90577   2.92628   2.95122   2.96027   2.98295
 Alpha virt. eigenvalues --    2.98752   3.03619   3.04363   3.04972   3.08961
 Alpha virt. eigenvalues --    3.10964   3.12863   3.15917   3.17542   3.20275
 Alpha virt. eigenvalues --    3.20765   3.21576   3.25150   3.29204   3.32292
 Alpha virt. eigenvalues --    3.33023   3.36531   3.37722   3.38587   3.41896
 Alpha virt. eigenvalues --    3.45261   3.48522   3.50046   3.53164   3.54929
 Alpha virt. eigenvalues --    3.57898   3.59091   3.61946   3.62677   3.66669
 Alpha virt. eigenvalues --    3.68167   3.72571   3.77211   3.79297   3.84800
 Alpha virt. eigenvalues --    3.86136   3.90259   3.94383   3.95962   3.99457
 Alpha virt. eigenvalues --    4.06538   4.12077   4.13032   4.14912   4.15762
 Alpha virt. eigenvalues --    4.17552   4.22535   4.23574   4.28563   4.28898
 Alpha virt. eigenvalues --    4.29704   4.34741   4.35655   4.39139   4.41759
 Alpha virt. eigenvalues --    4.42690   4.44818   4.46496   4.48992   4.52644
 Alpha virt. eigenvalues --    4.53949   4.54575   4.58122   4.59934   4.61470
 Alpha virt. eigenvalues --    4.62668   4.66291   4.69761   4.71283   4.72039
 Alpha virt. eigenvalues --    4.75255   4.75788   4.77921   4.79885   4.82194
 Alpha virt. eigenvalues --    4.83376   4.83747   4.89507   4.91188   4.93108
 Alpha virt. eigenvalues --    4.96538   4.98209   5.05442   5.06802   5.12421
 Alpha virt. eigenvalues --    5.21679   5.22030   5.23518   5.29889   5.31887
 Alpha virt. eigenvalues --    5.33702   5.38680   5.40669   5.45072   5.46831
 Alpha virt. eigenvalues --    5.47201   5.51902   5.53212   5.57124   5.62293
 Alpha virt. eigenvalues --    5.64807   5.68061   5.79519   5.93461   6.00978
 Alpha virt. eigenvalues --    6.06177   6.06788   6.15058   6.20458   6.34582
 Alpha virt. eigenvalues --    6.45567   6.83490   7.19935   7.30082   9.73940
 Alpha virt. eigenvalues --   10.74267  11.34073  11.67382  12.08958  12.34663
 Alpha virt. eigenvalues --   12.48906  13.38183  13.53380
          Condensed to atoms (all electrons):
               1          2          3          4          5          6
     1  C    4.959432   0.380073  -0.019829  -0.001404   0.005104  -0.000048
     2  C    0.380073   5.005461   0.406878  -0.053805  -0.079902   0.001554
     3  C   -0.019829   0.406878   4.521816   0.421429   0.293318  -0.015428
     4  O   -0.001404  -0.053805   0.421429   7.841505  -0.038542  -0.011763
     5  C    0.005104  -0.079902   0.293318  -0.038542   4.939772   0.420989
     6  O   -0.000048   0.001554  -0.015428  -0.011763   0.420989   7.773408
     7  C   -0.005962  -0.035559   0.241380  -0.038588   0.130548  -0.037781
     8  C   -0.000052   0.002559  -0.001658  -0.003730  -0.017387   0.004630
     9  C   -0.000021   0.000181  -0.003856  -0.002149  -0.006597  -0.001129
    10  H    0.378560  -0.032438  -0.002393  -0.000081   0.000318   0.000000
    11  H    0.380075  -0.033488  -0.003384   0.008119   0.000441   0.000001
    12  H    0.373943  -0.018884   0.001366   0.000101  -0.000144   0.000000
    13  H   -0.031745   0.350996  -0.018621   0.002421   0.000328   0.000012
    14  H   -0.037352   0.351729  -0.018022  -0.001856  -0.000102   0.000059
    15  H    0.001191   0.003311  -0.078333   0.311711   0.009244   0.000389
    16  H    0.000094  -0.006379  -0.028244   0.001043   0.381714  -0.027068
    17  H   -0.000042   0.001434  -0.001609   0.038722  -0.098925   0.316394
    18  H    0.001627  -0.008537  -0.031545   0.001895  -0.022868   0.000952
    19  H    0.000000   0.000000   0.000091   0.000004   0.000047  -0.000013
               7          8          9         10         11         12
     1  C   -0.005962  -0.000052  -0.000021   0.378560   0.380075   0.373943
     2  C   -0.035559   0.002559   0.000181  -0.032438  -0.033488  -0.018884
     3  C    0.241380  -0.001658  -0.003856  -0.002393  -0.003384   0.001366
     4  O   -0.038588  -0.003730  -0.002149  -0.000081   0.008119   0.000101
     5  C    0.130548  -0.017387  -0.006597   0.000318   0.000441  -0.000144
     6  O   -0.037781   0.004630  -0.001129   0.000000   0.000001   0.000000
     7  C    5.381593   0.443883  -0.030065   0.004704   0.000081   0.000054
     8  C    0.443883   4.380021   0.893498  -0.000457   0.000092  -0.000001
     9  C   -0.030065   0.893498   5.190647  -0.000079   0.000007   0.000000
    10  H    0.004704  -0.000457  -0.000079   0.595001  -0.031426  -0.032007
    11  H    0.000081   0.000092   0.000007  -0.031426   0.580423  -0.031247
    12  H    0.000054  -0.000001   0.000000  -0.032007  -0.031247   0.595917
    13  H   -0.002695   0.000952   0.000020  -0.004055   0.005402  -0.002173
    14  H    0.004778  -0.000177  -0.000007   0.005443  -0.003259  -0.002194
    15  H   -0.007195   0.020573   0.009613  -0.000072  -0.000055  -0.000006
    16  H   -0.059883   0.002374  -0.000031   0.000028   0.000004  -0.000002
    17  H    0.005024   0.002909   0.000684  -0.000001  -0.000016   0.000000
    18  H    0.372408  -0.032446  -0.002263   0.000728   0.000012  -0.000079
    19  H   -0.000126   0.001494   0.372903   0.000000   0.000000   0.000000
              13         14         15         16         17         18
     1  C   -0.031745  -0.037352   0.001191   0.000094  -0.000042   0.001627
     2  C    0.350996   0.351729   0.003311  -0.006379   0.001434  -0.008537
     3  C   -0.018621  -0.018022  -0.078333  -0.028244  -0.001609  -0.031545
     4  O    0.002421  -0.001856   0.311711   0.001043   0.038722   0.001895
     5  C    0.000328  -0.000102   0.009244   0.381714  -0.098925  -0.022868
     6  O    0.000012   0.000059   0.000389  -0.027068   0.316394   0.000952
     7  C   -0.002695   0.004778  -0.007195  -0.059883   0.005024   0.372408
     8  C    0.000952  -0.000177   0.020573   0.002374   0.002909  -0.032446
     9  C    0.000020  -0.000007   0.009613  -0.000031   0.000684  -0.002263
    10  H   -0.004055   0.005443  -0.000072   0.000028  -0.000001   0.000728
    11  H    0.005402  -0.003259  -0.000055   0.000004  -0.000016   0.000012
    12  H   -0.002173  -0.002194  -0.000006  -0.000002   0.000000  -0.000079
    13  H    0.633704  -0.037206  -0.000196   0.002404  -0.000059   0.001590
    14  H   -0.037206   0.624921  -0.000496   0.001208   0.000093  -0.000061
    15  H   -0.000196  -0.000496   0.438254  -0.000268  -0.003576   0.001016
    16  H    0.002404   0.001208  -0.000268   0.622043   0.005828  -0.004240
    17  H   -0.000059   0.000093  -0.003576   0.005828   0.442009  -0.000293
    18  H    0.001590  -0.000061   0.001016  -0.004240  -0.000293   0.607430
    19  H    0.000000   0.000000  -0.000127   0.000001   0.000003  -0.000079
              19
     1  C    0.000000
     2  C    0.000000
     3  C    0.000091
     4  O    0.000004
     5  C    0.000047
     6  O   -0.000013
     7  C   -0.000126
     8  C    0.001494
     9  C    0.372903
    10  H    0.000000
    11  H    0.000000
    12  H    0.000000
    13  H    0.000000
    14  H    0.000000
    15  H   -0.000127
    16  H    0.000001
    17  H    0.000003
    18  H   -0.000079
    19  H    0.424835
 Mulliken charges:
               1
     1  C   -0.383644
     2  C   -0.235184
     3  C    0.336647
     4  O   -0.475034
     5  C    0.082643
     6  O   -0.425158
     7  C   -0.366597
     8  C    0.302923
     9  C   -0.421355
    10  H    0.118228
    11  H    0.128219
    12  H    0.115353
    13  H    0.098920
    14  H    0.112501
    15  H    0.295021
    16  H    0.109374
    17  H    0.291421
    18  H    0.114755
    19  H    0.200967
 Sum of Mulliken charges =   0.00000
 Mulliken charges with hydrogens summed into heavy atoms:
               1
     1  C   -0.021844
     2  C   -0.023762
     3  C    0.336647
     4  O   -0.180013
     5  C    0.192018
     6  O   -0.133737
     7  C   -0.251843
     8  C    0.302923
     9  C   -0.220388
 Electronic spatial extent (au):  <R**2>=           1231.8346
 Charge=              0.0000 electrons
 Dipole moment (field-independent basis, Debye):
    X=              1.2266    Y=              1.3401    Z=             -0.2281  Tot=              1.8310
 Quadrupole moment (field-independent basis, Debye-Ang):
   XX=            -53.2153   YY=            -54.3959   ZZ=            -51.3980
   XY=             -5.2044   XZ=             -4.2033   YZ=              2.4267
 Traceless Quadrupole moment (field-independent basis, Debye-Ang):
   XX=             -0.2122   YY=             -1.3928   ZZ=              1.6050
   XY=             -5.2044   XZ=             -4.2033   YZ=              2.4267
 Octapole moment (field-independent basis, Debye-Ang**2):
  XXX=             -3.1854  YYY=             -0.4229  ZZZ=              5.2859  XYY=             -3.2325
  XXY=             11.8039  XXZ=             10.4862  XZZ=             -4.2018  YZZ=             -4.0331
  YYZ=              6.8433  XYZ=             -2.8662
 Hexadecapole moment (field-independent basis, Debye-Ang**3):
 XXXX=           -893.1581 YYYY=           -479.4096 ZZZZ=           -207.1803 XXXY=            -43.3480
 XXXZ=            -23.5798 YYYX=            -26.8675 YYYZ=             10.1081 ZZZX=            -11.2632
 ZZZY=              2.0069 XXYY=           -212.4253 XXZZ=           -189.2137 YYZZ=           -103.9461
 XXYZ=              9.5193 YYXZ=            -13.1518 ZZXY=              8.5708
 N-N= 4.508736048650D+02 E-N=-1.888317552617D+03  KE= 4.200051328929D+02
 Calling FoFJK, ICntrl=      2127 FMM=F ISym2X=0 I1Cent= 0 IOpClX= 0 NMat=1 NMatS=1 NMatT=0.
 ***** Axes restored to original set *****
 -------------------------------------------------------------------
 Center     Atomic                   Forces (Hartrees/Bohr)
 Number     Number              X              Y              Z
 -------------------------------------------------------------------
      1        6           0.000008704    0.000001906    0.000002157
      2        6          -0.000002941   -0.000002945   -0.000001200
      3        6           0.000103849    0.000021760    0.000032144
      4        8          -0.000074541   -0.000022009   -0.000012560
      5        6          -0.000007110    0.000014579   -0.000069150
      6        8          -0.000000958   -0.000006337    0.000055987
      7        6          -0.000010201   -0.000024474    0.000008838
      8        6           0.000003128    0.000002885   -0.000014116
      9        6          -0.000019883    0.000006062   -0.000008733
     10        1           0.000007332   -0.000003757    0.000002696
     11        1           0.000005687   -0.000000370   -0.000002522
     12        1           0.000008078   -0.000005985    0.000004510
     13        1           0.000006129   -0.000002715    0.000009000
     14        1          -0.000007741   -0.000001134    0.000001730
     15        1          -0.000009659    0.000015205   -0.000005075
     16        1          -0.000003755    0.000002233    0.000008154
     17        1          -0.000034631    0.000006729   -0.000015416
     18        1           0.000007209   -0.000000179    0.000009717
     19        1           0.000021303   -0.000001454   -0.000006163
 -------------------------------------------------------------------
 Cartesian Forces:  Max     0.000103849 RMS     0.000023435

 GradGradGradGradGradGradGradGradGradGradGradGradGradGradGradGradGradGrad
 Berny optimization.
 FormGI is forming the generalized inverse of G from B-inverse, IUseBI=4.
 Internal  Forces:  Max     0.000083951 RMS     0.000012005
 Search for a local minimum.
 Step number   1 out of a maximum of   98
 All quantities printed in internal units (Hartrees-Bohrs-Radians)
 Mixed Optimization -- En-DIIS/RFO-DIIS
 Second derivative matrix not updated -- first step.
 ITU=  0
     Eigenvalues ---    0.00341   0.00606   0.00606   0.00624   0.01617
     Eigenvalues ---    0.01944   0.01971   0.02422   0.02897   0.03334
     Eigenvalues ---    0.03581   0.04383   0.04463   0.04664   0.04664
     Eigenvalues ---    0.04890   0.05489   0.05559   0.08484   0.10323
     Eigenvalues ---    0.11253   0.12026   0.12288   0.16000   0.16000
     Eigenvalues ---    0.16000   0.16000   0.16000   0.19146   0.20399
     Eigenvalues ---    0.21068   0.21917   0.24059   0.26667   0.29230
     Eigenvalues ---    0.30435   0.31274   0.33994   0.34067   0.34216
     Eigenvalues ---    0.34393   0.34404   0.35247   0.35250   0.38266
     Eigenvalues ---    0.41477   0.44697   0.49303   0.53465   0.53783
     Eigenvalues ---    1.02190
 RFO step:  Lambda=-1.17163743D-07 EMin= 3.41249904D-03
 Linear search not attempted -- first point.
 Iteration  1 RMS(Cart)=  0.00066722 RMS(Int)=  0.00000121
 Iteration  2 RMS(Cart)=  0.00000122 RMS(Int)=  0.00000000
 Iteration  3 RMS(Cart)=  0.00000000 RMS(Int)=  0.00000000
 Variable       Old X    -DE/DX   Delta X   Delta X   Delta X     New X
                                 (Linear)    (Quad)   (Total)
    R1        2.89526   0.00000   0.00000   0.00000   0.00000   2.89526
    R2        2.06967   0.00000   0.00000   0.00000   0.00000   2.06968
    R3        2.06654   0.00000   0.00000   0.00000   0.00000   2.06654
    R4        2.06672   0.00000   0.00000   0.00000   0.00000   2.06671
    R5        2.85493   0.00000   0.00000   0.00000   0.00000   2.85493
    R6        2.07217  -0.00001   0.00000  -0.00002  -0.00002   2.07215
    R7        2.07341   0.00000   0.00000   0.00000   0.00000   2.07341
    R8        2.65629  -0.00008   0.00000  -0.00019  -0.00019   2.65610
    R9        2.83262   0.00001   0.00000   0.00006   0.00006   2.83268
   R10        2.91048   0.00002   0.00000   0.00004   0.00004   2.91052
   R11        1.82930  -0.00001   0.00000  -0.00003  -0.00003   1.82927
   R12        2.60575  -0.00005   0.00000  -0.00009  -0.00009   2.60565
   R13        2.92643   0.00001   0.00000   0.00005   0.00005   2.92649
   R14        2.05275   0.00000   0.00000  -0.00001  -0.00001   2.05274
   R15        1.83222  -0.00003   0.00000  -0.00005  -0.00005   1.83217
   R16        2.69594   0.00000   0.00000   0.00000   0.00000   2.69595
   R17        2.05271   0.00000   0.00000  -0.00001  -0.00001   2.05270
   R18        2.27774   0.00000   0.00000   0.00000   0.00000   2.27774
   R19        2.00680   0.00002   0.00000   0.00004   0.00004   2.00684
    A1        1.94154   0.00000   0.00000  -0.00001  -0.00001   1.94153
    A2        1.92853   0.00000   0.00000   0.00000   0.00000   1.92853
    A3        1.93686   0.00000   0.00000   0.00002   0.00002   1.93687
    A4        1.88471   0.00000   0.00000   0.00000   0.00000   1.88471
    A5        1.88403   0.00000   0.00000  -0.00001  -0.00001   1.88402
    A6        1.88618   0.00000   0.00000   0.00001   0.00001   1.88619
    A7        1.97432   0.00000   0.00000  -0.00001  -0.00001   1.97431
    A8        1.92648   0.00000   0.00000  -0.00001  -0.00001   1.92648
    A9        1.91839   0.00000   0.00000   0.00002   0.00002   1.91842
   A10        1.89537   0.00000   0.00000  -0.00001  -0.00001   1.89536
   A11        1.88567   0.00000   0.00000   0.00003   0.00003   1.88570
   A12        1.85959   0.00000   0.00000  -0.00003  -0.00003   1.85956
   A13        1.98812   0.00001   0.00000   0.00004   0.00004   1.98815
   A14        2.14654   0.00000   0.00000  -0.00004  -0.00004   2.14650
   A15        2.10242   0.00000   0.00000  -0.00001  -0.00001   2.10242
   A16        1.96650   0.00000   0.00000  -0.00001  -0.00001   1.96649
   A17        2.01970   0.00000   0.00000  -0.00001  -0.00001   2.01969
   A18        1.89246  -0.00001   0.00000  -0.00005  -0.00005   1.89242
   A19        2.07080  -0.00001   0.00000  -0.00012  -0.00012   2.07068
   A20        2.07927   0.00000   0.00000   0.00002   0.00002   2.07929
   A21        2.10925  -0.00001   0.00000  -0.00003  -0.00003   2.10922
   A22        1.97057   0.00001   0.00000   0.00006   0.00006   1.97063
   A23        2.01248   0.00000   0.00000   0.00004   0.00004   2.01253
   A24        1.84414   0.00000   0.00000  -0.00001  -0.00001   1.84414
   A25        2.05026  -0.00001   0.00000   0.00002   0.00002   2.05028
   A26        2.02410   0.00000   0.00000  -0.00007  -0.00007   2.02403
   A27        2.10477   0.00000   0.00000  -0.00006  -0.00006   2.10471
   A28        2.02156   0.00000   0.00000   0.00008   0.00008   2.02165
   A29        2.02904   0.00000   0.00000   0.00001   0.00001   2.02905
   A30        3.06813  -0.00001   0.00000  -0.00026  -0.00026   3.06786
   A31        3.19483  -0.00002   0.00000  -0.00332  -0.00332   3.19151
   A32        3.13187  -0.00001   0.00000  -0.00019  -0.00019   3.13168
   A33        3.16362   0.00000   0.00000  -0.00049  -0.00049   3.16313
    D1       -1.07142   0.00000   0.00000   0.00004   0.00004  -1.07138
    D2        1.05623   0.00000   0.00000   0.00001   0.00001   1.05624
    D3        3.10247   0.00000   0.00000  -0.00001  -0.00001   3.10246
    D4        1.02181   0.00000   0.00000   0.00003   0.00003   1.02184
    D5       -3.13373   0.00000   0.00000   0.00001   0.00001  -3.13372
    D6       -1.08749   0.00000   0.00000  -0.00002  -0.00002  -1.08750
    D7        3.11383   0.00000   0.00000   0.00005   0.00005   3.11388
    D8       -1.04171   0.00000   0.00000   0.00003   0.00003  -1.04168
    D9        1.00453   0.00000   0.00000   0.00000   0.00000   1.00453
   D10       -1.12315   0.00000   0.00000   0.00017   0.00017  -1.12298
   D11        2.67767   0.00000   0.00000   0.00018   0.00018   2.67785
   D12        1.39431   0.00000   0.00000   0.00020   0.00020   1.39450
   D13        3.01504   0.00000   0.00000   0.00019   0.00019   3.01523
   D14        0.53267   0.00000   0.00000   0.00020   0.00020   0.53287
   D15       -0.75069   0.00000   0.00000   0.00022   0.00022  -0.75047
   D16        1.00460   0.00000   0.00000   0.00021   0.00021   1.00481
   D17       -1.47777   0.00000   0.00000   0.00022   0.00022  -1.47754
   D18       -2.76113   0.00000   0.00000   0.00024   0.00024  -2.76089
   D19        2.04859   0.00000   0.00000  -0.00015  -0.00015   2.04844
   D20       -1.68351   0.00000   0.00000  -0.00017  -0.00017  -1.68369
   D21       -0.49966   0.00000   0.00000  -0.00018  -0.00018  -0.49983
   D22        2.42993   0.00000   0.00000  -0.00002  -0.00002   2.42991
   D23       -0.08882   0.00000   0.00000   0.00004   0.00004  -0.08878
   D24       -0.05959   0.00000   0.00000  -0.00003  -0.00003  -0.05962
   D25       -2.57835   0.00000   0.00000   0.00004   0.00004  -2.57831
   D26       -2.37290  -0.00001   0.00000  -0.00012  -0.00012  -2.37303
   D27        0.13845   0.00000   0.00000  -0.00018  -0.00018   0.13827
   D28        0.13392   0.00000   0.00000  -0.00008  -0.00008   0.13384
   D29        2.64527   0.00000   0.00000  -0.00014  -0.00014   2.64513
   D30       -0.03260  -0.00001   0.00000  -0.00029  -0.00029  -0.03290
   D31       -1.27396   0.00000   0.00000  -0.00022  -0.00022  -1.27419
   D32        2.52283  -0.00001   0.00000  -0.00036  -0.00036   2.52248
   D33        0.04395  -0.00001   0.00000  -0.00020  -0.00020   0.04375
   D34       -2.55650  -0.00001   0.00000  -0.00027  -0.00027  -2.55677
   D35        2.51570   0.00000   0.00000  -0.00006  -0.00006   2.51565
   D36       -0.08475   0.00000   0.00000  -0.00013  -0.00013  -0.08488
         Item               Value     Threshold  Converged?
 Maximum Force            0.000084     0.000450     YES
 RMS     Force            0.000012     0.000300     YES
 Maximum Displacement     0.003379     0.001800     NO 
 RMS     Displacement     0.000667     0.001200     YES
 Predicted change in Energy=-5.858185D-08
 GradGradGradGradGradGradGradGradGradGradGradGradGradGradGradGradGradGrad

                          Input orientation:                          
 ---------------------------------------------------------------------
 Center     Atomic      Atomic             Coordinates (Angstroms)
 Number     Number       Type             X           Y           Z
 ---------------------------------------------------------------------
      1          6           0        1.208968   -0.157138    1.085006
      2          6           0        0.880762    0.252024   -0.354512
      3          6           0        1.632228   -0.555562   -1.386746
      4          8           0        3.025658   -0.375765   -1.346850
      5          6           0        1.118672   -0.783913   -2.776382
      6          8           0        2.008290   -0.722944   -3.828095
      7          6           0        1.151157   -1.965874   -1.776299
      8          6           0        2.138424   -2.989046   -1.893372
      9          6           0        3.030272   -3.797708   -1.952438
     10          1           0        0.935903   -1.201006    1.272878
     11          1           0        2.279535   -0.047891    1.279510
     12          1           0        0.668444    0.466913    1.802279
     13          1           0       -0.194210    0.149382   -0.544999
     14          1           0        1.125461    1.310630   -0.507222
     15          1           0        3.437581   -1.224348   -1.129439
     16          1           0        0.127631   -0.425357   -3.039524
     17          1           0        2.864659   -0.496817   -3.433742
     18          1           0        0.190188   -2.269476   -1.370977
     19          1           0        3.784052   -4.540714   -2.039328
 ---------------------------------------------------------------------
                    Distance matrix (angstroms):
                    1          2          3          4          5
     1  C    0.000000
     2  C    1.532105   0.000000
     3  C    2.539183   1.510762   0.000000
     4  O    3.043367   2.445287   1.405549   0.000000
     5  C    3.912968   2.644848   1.498990   2.418004   0.000000
     6  O    5.009752   3.779902   2.475807   2.704098   1.378853
     7  C    3.385548   2.648332   1.540182   2.495321   1.548630
     8  C    4.213589   3.801886   2.536681   2.813381   2.584998
     9  C    5.079071   4.855316   3.575758   3.475120   3.662794
    10  H    1.095225   2.182368   2.824016   3.451242   4.074785
    11  H    1.093564   2.171760   2.790279   2.749903   4.282475
    12  H    1.093657   2.177844   3.484855   4.022881   4.767746
    13  H    2.172505   1.096534   2.131046   3.359508   2.752048
    14  H    2.167143   1.097199   2.124393   2.675753   3.088080
    15  H    3.318045   3.052459   1.942366   0.968010   2.878149
    16  H    4.272351   2.869729   2.238849   3.356512   1.086264
    17  H    4.824498   3.738752   2.390090   2.096591   1.887595
    18  H    3.395841   2.805005   2.239917   3.409783   2.245917
    19  H    5.967266   5.851328   4.575768   4.289696   4.664874
                    6          7          8          9         10
     6  O    0.000000
     7  C    2.547433   0.000000
     8  C    2.982500   1.426633   0.000000
     9  C    3.743890   2.630155   1.205328   0.000000
    10  H    5.234356   3.151006   3.829920   4.640249   0.000000
    11  H    5.159157   3.780194   4.328682   5.007017   1.770611
    12  H    5.908642   4.354042   5.268997   6.153302   1.770240
    13  H    4.048540   2.792924   4.136306   5.287503   2.530885
    14  H    3.992869   3.513787   4.629765   5.640220   3.084316
    15  H    3.094677   2.489181   2.320681   2.732290   3.468439
    16  H    2.060893   2.239763   3.453905   4.580376   4.455530
    17  H    0.969544   2.800238   3.018503   3.621818   5.135003
    18  H    3.425592   1.086242   2.141566   3.277144   2.947489
    19  H    4.574756   3.692035   2.266510   1.061975   5.498756
                   11         12         13         14         15
    11  H    0.000000
    12  H    1.770289   0.000000
    13  H    3.080124   2.520855   0.000000
    14  H    2.523863   2.500904   1.758253   0.000000
    15  H    2.920301   4.373037   3.926654   3.487000   0.000000
    16  H    4.840169   4.952947   2.580032   3.228292   3.904176
    17  H    4.770603   5.759171   4.256652   3.854373   2.483416
    18  H    4.040532   4.217358   2.584739   3.799733   3.419970
    19  H    5.784783   7.038557   6.329028   6.607094   3.456331
                   16         17         18         19
    16  H    0.000000
    17  H    2.766196   0.000000
    18  H    2.487718   3.814461   0.000000
    19  H    5.595175   4.375246   4.303612   0.000000
 Stoichiometry    C7H10O2
 Framework group  C1[X(C7H10O2)]
 Deg. of freedom    51
 Full point group                 C1      NOp   1
 Largest Abelian subgroup         C1      NOp   1
 Largest concise Abelian subgroup C1      NOp   1
                         Standard orientation:                         
 ---------------------------------------------------------------------
 Center     Atomic      Atomic             Coordinates (Angstroms)
 Number     Number       Type             X           Y           Z
 ---------------------------------------------------------------------
      1          6           0        2.668895    0.985788   -0.008954
      2          6           0        1.983447   -0.364158   -0.243799
      3          6           0        0.506775   -0.343008    0.074624
      4          8           0        0.219542   -0.106121    1.429965
      5          6           0       -0.480925   -1.266406   -0.572490
      6          8           0       -1.475701   -1.820287    0.205246
      7          6           0       -0.501150    0.239323   -0.933909
      8          6           0       -1.522780    1.094680   -0.424086
      9          6           0       -2.340280    1.820379    0.083724
     10          1           0        2.241354    1.764627   -0.649374
     11          1           0        2.548656    1.300425    1.031444
     12          1           0        3.739601    0.923667   -0.223000
     13          1           0        2.112033   -0.681602   -1.285471
     14          1           0        2.454223   -1.135637    0.378323
     15          1           0       -0.275770    0.722827    1.497439
     16          1           0       -0.144706   -1.929585   -1.364400
     17          1           0       -1.313433   -1.499115    1.105542
     18          1           0       -0.101753    0.497043   -1.910631
     19          1           0       -3.094824    2.449023    0.487781
 ---------------------------------------------------------------------
 Rotational constants (GHZ):      2.2407764      1.3252972      1.0522336
 Standard basis: 6-31G(2df,p) (6D, 7F)
 There are   329 symmetry adapted cartesian basis functions of A   symmetry.
 There are   302 symmetry adapted basis functions of A   symmetry.
   302 basis functions,   466 primitive gaussians,   329 cartesian basis functions
    34 alpha electrons       34 beta electrons
       nuclear repulsion energy       450.8805974555 Hartrees.
 NAtoms=   19 NActive=   19 NUniq=   19 SFac= 1.00D+00 NAtFMM=   60 NAOKFM=F Big=F
 Integral buffers will be    131072 words long.
 Raffenetti 2 integral format.
 Two-electron integral symmetry is turned on.
 One-electron integrals computed using PRISM.
 NBasis=   302 RedAO= T EigKep=  1.57D-04  NBF=   302
 NBsUse=   302 1.00D-06 EigRej= -1.00D+00 NBFU=   302
 Initial guess from the checkpoint file:  "/scratch/puck/g09_c3b5ed9e-6249-4446-8346-6b1e4af5f3a1/Gau-74503.chk"
 B after Tr=     0.000000    0.000000    0.000000
         Rot=    1.000000    0.000058    0.000000    0.000020 Ang=   0.01 deg.
 Requested convergence on RMS density matrix=1.00D-08 within 128 cycles.
 Requested convergence on MAX density matrix=1.00D-06.
 Requested convergence on             energy=1.00D-06.
 No special actions if energy rises.
 SCF Done:  E(RB3LYP) =  -423.133315185     A.U. after    7 cycles
            NFock=  7  Conv=0.44D-08     -V/T= 2.0074
 Calling FoFJK, ICntrl=      2127 FMM=F ISym2X=0 I1Cent= 0 IOpClX= 0 NMat=1 NMatS=1 NMatT=0.
 ***** Axes restored to original set *****
 -------------------------------------------------------------------
 Center     Atomic                   Forces (Hartrees/Bohr)
 Number     Number              X              Y              Z
 -------------------------------------------------------------------
      1        6           0.000007485    0.000000160    0.000002061
      2        6          -0.000007999   -0.000008794    0.000002724
      3        6           0.000051417    0.000000096    0.000019028
      4        8          -0.000023260   -0.000000885   -0.000007692
      5        6          -0.000025934    0.000013945   -0.000022993
      6        8          -0.000007590   -0.000013908    0.000013641
      7        6          -0.000039140   -0.000032040   -0.000019686
      8        6           0.000033355   -0.000005140    0.000020560
      9        6           0.000068860    0.000084433    0.000021386
     10        1           0.000008345   -0.000002980    0.000002269
     11        1           0.000006862   -0.000000411   -0.000001243
     12        1           0.000007949   -0.000004000    0.000004839
     13        1          -0.000000497   -0.000003493    0.000008292
     14        1          -0.000003127   -0.000000838    0.000001680
     15        1           0.000001727    0.000005993   -0.000006678
     16        1          -0.000007636    0.000003358    0.000007443
     17        1          -0.000008896    0.000007979   -0.000007657
     18        1          -0.000003255    0.000002564   -0.000000514
     19        1          -0.000058666   -0.000046041   -0.000037460
 -------------------------------------------------------------------
 Cartesian Forces:  Max     0.000084433 RMS     0.000023020

 GradGradGradGradGradGradGradGradGradGradGradGradGradGradGradGradGradGrad
 Berny optimization.
 Using GEDIIS/GDIIS optimizer.
 FormGI is forming the generalized inverse of G from B-inverse, IUseBI=4.
 Internal  Forces:  Max     0.000168387 RMS     0.000022156
 Search for a local minimum.
 Step number   2 out of a maximum of   98
 All quantities printed in internal units (Hartrees-Bohrs-Radians)
 Mixed Optimization -- En-DIIS/RFO-DIIS
 Swapping is turned off.
 Update second derivatives using D2CorX and points    1    2
 DE=  2.79D-07 DEPred=-5.86D-08 R=-4.76D+00
 Trust test=-4.76D+00 RLast= 3.52D-03 DXMaxT set to 1.50D-01
 ITU= -1  0
     Eigenvalues ---    0.00341   0.00589   0.00613   0.01580   0.01821
     Eigenvalues ---    0.01943   0.02417   0.02787   0.02862   0.03323
     Eigenvalues ---    0.03576   0.04337   0.04454   0.04637   0.04884
     Eigenvalues ---    0.05489   0.05558   0.08484   0.09274   0.10277
     Eigenvalues ---    0.11215   0.12012   0.12290   0.15950   0.16000
     Eigenvalues ---    0.16000   0.16000   0.16018   0.18816   0.20408
     Eigenvalues ---    0.20997   0.21906   0.24052   0.26365   0.29229
     Eigenvalues ---    0.29762   0.31274   0.33989   0.34013   0.34213
     Eigenvalues ---    0.34390   0.34402   0.35213   0.35248   0.37422
     Eigenvalues ---    0.39466   0.41487   0.48624   0.53191   0.53741
     Eigenvalues ---    1.02231
 En-DIIS/RFO-DIIS IScMMF=        0 using points:     2    1
 RFO step:  Lambda=-1.48810567D-07.
 DidBck=T Rises=F RFO-DIIS coefs:    0.16647    0.83353
 Iteration  1 RMS(Cart)=  0.00066180 RMS(Int)=  0.00000101
 Iteration  2 RMS(Cart)=  0.00000098 RMS(Int)=  0.00000000
 Variable       Old X    -DE/DX   Delta X   Delta X   Delta X     New X
                                 (Linear)    (Quad)   (Total)
    R1        2.89526   0.00000   0.00000   0.00000   0.00000   2.89526
    R2        2.06968   0.00000   0.00000   0.00001   0.00000   2.06968
    R3        2.06654   0.00000   0.00000  -0.00001   0.00000   2.06653
    R4        2.06671   0.00000   0.00000  -0.00001   0.00000   2.06671
    R5        2.85493   0.00000   0.00000   0.00000   0.00000   2.85493
    R6        2.07215   0.00000   0.00002  -0.00002  -0.00001   2.07214
    R7        2.07341   0.00000   0.00000   0.00000   0.00000   2.07340
    R8        2.65610  -0.00002   0.00016  -0.00025  -0.00010   2.65600
    R9        2.83268   0.00001  -0.00005   0.00008   0.00004   2.83272
   R10        2.91052   0.00000  -0.00004   0.00006   0.00002   2.91054
   R11        1.82927   0.00000   0.00002  -0.00004  -0.00001   1.82926
   R12        2.60565  -0.00001   0.00008  -0.00012  -0.00005   2.60561
   R13        2.92649   0.00001  -0.00004   0.00007   0.00003   2.92651
   R14        2.05274   0.00000   0.00001  -0.00001   0.00000   2.05274
   R15        1.83217   0.00000   0.00004  -0.00007  -0.00002   1.83215
   R16        2.69595   0.00001   0.00000   0.00000   0.00000   2.69595
   R17        2.05270   0.00000   0.00001  -0.00001   0.00000   2.05270
   R18        2.27774  -0.00002   0.00000   0.00000   0.00000   2.27774
   R19        2.00684  -0.00001  -0.00004   0.00005   0.00002   2.00686
    A1        1.94153   0.00000   0.00001  -0.00001  -0.00001   1.94152
    A2        1.92853   0.00000   0.00000   0.00000   0.00000   1.92853
    A3        1.93687   0.00000  -0.00001   0.00002   0.00001   1.93688
    A4        1.88471   0.00000   0.00000   0.00001   0.00000   1.88471
    A5        1.88402   0.00000   0.00001  -0.00002  -0.00001   1.88401
    A6        1.88619   0.00000  -0.00001   0.00001   0.00000   1.88619
    A7        1.97431   0.00000   0.00001  -0.00001   0.00000   1.97431
    A8        1.92648   0.00000   0.00001  -0.00001   0.00000   1.92647
    A9        1.91842   0.00000  -0.00002   0.00003   0.00001   1.91843
   A10        1.89536   0.00000   0.00001  -0.00001   0.00000   1.89536
   A11        1.88570   0.00000  -0.00003   0.00004   0.00001   1.88571
   A12        1.85956   0.00000   0.00003  -0.00004  -0.00002   1.85955
   A13        1.98815   0.00000  -0.00003   0.00005   0.00002   1.98818
   A14        2.14650  -0.00001   0.00003  -0.00005  -0.00002   2.14648
   A15        2.10242   0.00000   0.00000  -0.00002  -0.00001   2.10240
   A16        1.96649   0.00000   0.00001  -0.00002  -0.00001   1.96648
   A17        2.01969   0.00000   0.00001   0.00000   0.00001   2.01969
   A18        1.89242   0.00000   0.00004  -0.00006  -0.00002   1.89240
   A19        2.07068  -0.00001   0.00010  -0.00016  -0.00006   2.07062
   A20        2.07929   0.00000  -0.00001   0.00002   0.00001   2.07929
   A21        2.10922  -0.00001   0.00002  -0.00005  -0.00003   2.10919
   A22        1.97063   0.00000  -0.00005   0.00008   0.00004   1.97066
   A23        2.01253   0.00000  -0.00004   0.00007   0.00003   2.01256
   A24        1.84414   0.00001   0.00001   0.00000   0.00000   1.84414
   A25        2.05028  -0.00001  -0.00002   0.00001   0.00000   2.05028
   A26        2.02403   0.00000   0.00006  -0.00009  -0.00003   2.02400
   A27        2.10471   0.00000   0.00005  -0.00008  -0.00002   2.10468
   A28        2.02165  -0.00001  -0.00007   0.00010   0.00003   2.02168
   A29        2.02905   0.00001  -0.00001   0.00002   0.00001   2.02906
   A30        3.06786   0.00011   0.00022   0.00005   0.00027   3.06813
   A31        3.19151   0.00017   0.00277   0.00026   0.00302   3.19453
   A32        3.13168   0.00002   0.00016  -0.00016   0.00000   3.13168
   A33        3.16313   0.00000   0.00041  -0.00053  -0.00013   3.16300
    D1       -1.07138   0.00000  -0.00003   0.00005   0.00002  -1.07136
    D2        1.05624   0.00000  -0.00001   0.00002   0.00001   1.05625
    D3        3.10246   0.00000   0.00001  -0.00002  -0.00001   3.10245
    D4        1.02184   0.00000  -0.00003   0.00004   0.00002   1.02186
    D5       -3.13372   0.00000  -0.00001   0.00002   0.00001  -3.13371
    D6       -1.08750   0.00000   0.00001  -0.00002  -0.00001  -1.08751
    D7        3.11388   0.00000  -0.00004   0.00007   0.00002   3.11390
    D8       -1.04168   0.00000  -0.00002   0.00004   0.00002  -1.04167
    D9        1.00453   0.00000   0.00000   0.00000   0.00000   1.00453
   D10       -1.12298   0.00000  -0.00014   0.00024   0.00010  -1.12288
   D11        2.67785   0.00000  -0.00015   0.00026   0.00011   2.67796
   D12        1.39450   0.00000  -0.00016   0.00029   0.00013   1.39463
   D13        3.01523   0.00000  -0.00016   0.00026   0.00011   3.01533
   D14        0.53287   0.00000  -0.00017   0.00028   0.00012   0.53299
   D15       -0.75047   0.00000  -0.00018   0.00032   0.00014  -0.75034
   D16        1.00481   0.00000  -0.00018   0.00030   0.00012   1.00493
   D17       -1.47754   0.00000  -0.00019   0.00032   0.00013  -1.47741
   D18       -2.76089   0.00000  -0.00020   0.00035   0.00015  -2.76074
   D19        2.04844   0.00000   0.00013  -0.00019  -0.00007   2.04838
   D20       -1.68369   0.00000   0.00015  -0.00023  -0.00008  -1.68377
   D21       -0.49983   0.00000   0.00015  -0.00024  -0.00009  -0.49992
   D22        2.42991   0.00001   0.00002   0.00000   0.00002   2.42993
   D23       -0.08878   0.00000  -0.00003   0.00007   0.00004  -0.08874
   D24       -0.05962   0.00001   0.00002   0.00000   0.00002  -0.05959
   D25       -2.57831   0.00000  -0.00003   0.00007   0.00004  -2.57827
   D26       -2.37303   0.00000   0.00010  -0.00015  -0.00005  -2.37308
   D27        0.13827   0.00000   0.00015  -0.00023  -0.00007   0.13820
   D28        0.13384   0.00000   0.00007  -0.00008  -0.00001   0.13382
   D29        2.64513   0.00001   0.00011  -0.00015  -0.00004   2.64510
   D30       -0.03290  -0.00001   0.00024  -0.00041  -0.00017  -0.03307
   D31       -1.27419   0.00000   0.00019  -0.00031  -0.00013  -1.27431
   D32        2.52248   0.00000   0.00030  -0.00049  -0.00019   2.52228
   D33        0.04375   0.00000   0.00017  -0.00024  -0.00007   0.04367
   D34       -2.55677   0.00000   0.00023  -0.00034  -0.00011  -2.55689
   D35        2.51565   0.00001   0.00005  -0.00005   0.00000   2.51564
   D36       -0.08488   0.00000   0.00011  -0.00015  -0.00004  -0.08492
         Item               Value     Threshold  Converged?
 Maximum Force            0.000168     0.000450     YES
 RMS     Force            0.000022     0.000300     YES
 Maximum Displacement     0.003742     0.001800     NO 
 RMS     Displacement     0.000662     0.001200     YES
 Predicted change in Energy=-2.727389D-07
 GradGradGradGradGradGradGradGradGradGradGradGradGradGradGradGradGradGrad

                          Input orientation:                          
 ---------------------------------------------------------------------
 Center     Atomic      Atomic             Coordinates (Angstroms)
 Number     Number       Type             X           Y           Z
 ---------------------------------------------------------------------
      1          6           0        1.208933   -0.156945    1.085030
      2          6           0        0.880571    0.251983   -0.354519
      3          6           0        1.632273   -0.555459   -1.386692
      4          8           0        3.025609   -0.375340   -1.346782
      5          6           0        1.118798   -0.783971   -2.776351
      6          8           0        2.008476   -0.722832   -3.827970
      7          6           0        1.151527   -1.965902   -1.776219
      8          6           0        2.139036   -2.988845   -1.893269
      9          6           0        3.030861   -3.797524   -1.952415
     10          1           0        0.936215   -1.200888    1.272991
     11          1           0        2.279466   -0.047326    1.279507
     12          1           0        0.668211    0.466979    1.802262
     13          1           0       -0.194368    0.148975   -0.544974
     14          1           0        1.124904    1.310658   -0.507334
     15          1           0        3.437707   -1.223804   -1.129267
     16          1           0        0.127696   -0.425624   -3.039544
     17          1           0        2.864720   -0.496356   -3.433576
     18          1           0        0.190638   -2.269699   -1.370859
     19          1           0        3.782403   -4.542695   -2.040269
 ---------------------------------------------------------------------
                    Distance matrix (angstroms):
                    1          2          3          4          5
     1  C    0.000000
     2  C    1.532104   0.000000
     3  C    2.539180   1.510761   0.000000
     4  O    3.043307   2.445263   1.405497   0.000000
     5  C    3.912998   2.644849   1.499009   2.417970   0.000000
     6  O    5.009697   3.779854   2.475759   2.703999   1.378828
     7  C    3.385611   2.648332   1.540194   2.495293   1.548643
     8  C    4.213670   3.801902   2.536690   2.813374   2.584993
     9  C    5.079303   4.855464   3.575903   3.475366   3.662835
    10  H    1.095227   2.182365   2.824002   3.451131   4.074841
    11  H    1.093563   2.171759   2.790282   2.749857   4.282497
    12  H    1.093656   2.177849   3.484856   4.022848   4.767767
    13  H    2.172499   1.096529   2.131040   3.359472   2.752060
    14  H    2.167150   1.097198   2.124403   2.675806   3.088033
    15  H    3.317941   3.052397   1.942303   0.968002   2.878137
    16  H    4.272397   2.869727   2.238868   3.356468   1.086263
    17  H    4.824378   3.738643   2.390011   2.096483   1.887567
    18  H    3.395887   2.804966   2.239907   3.409727   2.245947
    19  H    5.968672   5.852463   4.576928   4.291912   4.665256
                    6          7          8          9         10
     6  O    0.000000
     7  C    2.547404   0.000000
     8  C    2.982437   1.426635   0.000000
     9  C    3.743890   2.630168   1.205326   0.000000
    10  H    5.234318   3.151077   3.829984   4.640400   0.000000
    11  H    5.159076   3.780297   4.328830   5.007385   1.770613
    12  H    5.908593   4.354082   5.269061   6.153512   1.770235
    13  H    4.048534   2.792866   4.136253   5.287518   2.530878
    14  H    3.992794   3.513776   4.629796   5.640431   3.084319
    15  H    3.094620   2.489151   2.320693   2.732605   3.468260
    16  H    2.060893   2.239794   3.453916   4.580385   4.455636
    17  H    0.969531   2.800255   3.018553   3.622037   5.134907
    18  H    3.425599   1.086240   2.141574   3.277091   2.947573
    19  H    4.575373   3.692031   2.266431   1.061985   5.499650
                   11         12         13         14         15
    11  H    0.000000
    12  H    1.770290   0.000000
    13  H    3.080117   2.520850   0.000000
    14  H    2.523873   2.500919   1.758239   0.000000
    15  H    2.920243   4.372953   3.926561   3.487026   0.000000
    16  H    4.840189   4.952978   2.580072   3.228187   3.904154
    17  H    4.770462   5.759051   4.256582   3.854238   2.483412
    18  H    4.040617   4.217367   2.584628   3.799670   3.419900
    19  H    5.786888   7.039891   6.329485   6.608625   3.458869
                   16         17         18         19
    16  H    0.000000
    17  H    2.766146   0.000000
    18  H    2.487787   3.814480   0.000000
    19  H    5.595150   4.376791   4.302952   0.000000
 Stoichiometry    C7H10O2
 Framework group  C1[X(C7H10O2)]
 Deg. of freedom    51
 Full point group                 C1      NOp   1
 Largest Abelian subgroup         C1      NOp   1
 Largest concise Abelian subgroup C1      NOp   1
                         Standard orientation:                         
 ---------------------------------------------------------------------
 Center     Atomic      Atomic             Coordinates (Angstroms)
 Number     Number       Type             X           Y           Z
 ---------------------------------------------------------------------
      1          6           0        2.668869    0.986002   -0.008865
      2          6           0        1.983483   -0.363915   -0.244053
      3          6           0        0.506851   -0.342965    0.074565
      4          8           0        0.219750   -0.106415    1.429939
      5          6           0       -0.480839   -1.266339   -0.572641
      6          8           0       -1.475436   -1.820420    0.205138
      7          6           0       -0.501251    0.239477   -0.933745
      8          6           0       -1.522933    1.094598   -0.423624
      9          6           0       -2.340613    1.820120    0.084143
     10          1           0        2.241178    1.765016   -0.648974
     11          1           0        2.548754    1.300291    1.031651
     12          1           0        3.739547    0.924038   -0.223088
     13          1           0        2.111952   -0.681009   -1.285842
     14          1           0        2.454399   -1.135573    0.377741
     15          1           0       -0.275574    0.722500    1.497639
     16          1           0       -0.144641   -1.929343   -1.364704
     17          1           0       -1.312973   -1.499515    1.105480
     18          1           0       -0.101950    0.497475   -1.910430
     19          1           0       -3.096609    2.448933    0.485237
 ---------------------------------------------------------------------
 Rotational constants (GHZ):      2.2408753      1.3252378      1.0521878
 Standard basis: 6-31G(2df,p) (6D, 7F)
 There are   329 symmetry adapted cartesian basis functions of A   symmetry.
 There are   302 symmetry adapted basis functions of A   symmetry.
   302 basis functions,   466 primitive gaussians,   329 cartesian basis functions
    34 alpha electrons       34 beta electrons
       nuclear repulsion energy       450.8804341651 Hartrees.
 NAtoms=   19 NActive=   19 NUniq=   19 SFac= 1.00D+00 NAtFMM=   60 NAOKFM=F Big=F
 Integral buffers will be    131072 words long.
 Raffenetti 2 integral format.
 Two-electron integral symmetry is turned on.
 One-electron integrals computed using PRISM.
 NBasis=   302 RedAO= T EigKep=  1.57D-04  NBF=   302
 NBsUse=   302 1.00D-06 EigRej= -1.00D+00 NBFU=   302
 Initial guess from the checkpoint file:  "/scratch/puck/g09_c3b5ed9e-6249-4446-8346-6b1e4af5f3a1/Gau-74503.chk"
 B after Tr=     0.000000    0.000000    0.000000
         Rot=    1.000000   -0.000064   -0.000018   -0.000056 Ang=  -0.01 deg.
 Requested convergence on RMS density matrix=1.00D-08 within 128 cycles.
 Requested convergence on MAX density matrix=1.00D-06.
 Requested convergence on             energy=1.00D-06.
 No special actions if energy rises.
 SCF Done:  E(RB3LYP) =  -423.133315519     A.U. after    7 cycles
            NFock=  7  Conv=0.43D-08     -V/T= 2.0074
 Calling FoFJK, ICntrl=      2127 FMM=F ISym2X=0 I1Cent= 0 IOpClX= 0 NMat=1 NMatS=1 NMatT=0.
 ***** Axes restored to original set *****
 -------------------------------------------------------------------
 Center     Atomic                   Forces (Hartrees/Bohr)
 Number     Number              X              Y              Z
 -------------------------------------------------------------------
      1        6           0.000007038   -0.000001047    0.000001835
      2        6          -0.000009177   -0.000007964    0.000003673
      3        6           0.000010512   -0.000000422    0.000007392
      4        8           0.000002105    0.000002750   -0.000004351
      5        6          -0.000025021    0.000015468    0.000002113
      6        8          -0.000012571   -0.000016512   -0.000007703
      7        6          -0.000002203    0.000002882   -0.000009553
      8        6          -0.000000491    0.000001565    0.000008760
      9        6           0.000004329   -0.000011333    0.000003221
     10        1           0.000008962   -0.000002622    0.000002166
     11        1           0.000007338   -0.000000635   -0.000000824
     12        1           0.000007783   -0.000002949    0.000004806
     13        1          -0.000003638   -0.000003909    0.000007848
     14        1          -0.000001173   -0.000000298    0.000002712
     15        1           0.000013673    0.000002998   -0.000005823
     16        1          -0.000010382    0.000001206    0.000007756
     17        1           0.000003921    0.000009073   -0.000003680
     18        1          -0.000000818   -0.000004885   -0.000001117
     19        1          -0.000000186    0.000016634   -0.000019232
 -------------------------------------------------------------------
 Cartesian Forces:  Max     0.000025021 RMS     0.000007984

 GradGradGradGradGradGradGradGradGradGradGradGradGradGradGradGradGradGrad
 Berny optimization.
 Using GEDIIS/GDIIS optimizer.
 FormGI is forming the generalized inverse of G from B-inverse, IUseBI=4.
 Internal  Forces:  Max     0.000022488 RMS     0.000005730
 Search for a local minimum.
 Step number   3 out of a maximum of   98
 All quantities printed in internal units (Hartrees-Bohrs-Radians)
 Mixed Optimization -- En-DIIS/RFO-DIIS
 Swapping is turned off.
 Update second derivatives using D2CorX and points    1    2    3
 DE= -3.34D-07 DEPred=-2.73D-07 R= 1.23D+00
 Trust test= 1.23D+00 RLast= 3.09D-03 DXMaxT set to 1.50D-01
 ITU=  0 -1  0
     Eigenvalues ---    0.00341   0.00503   0.00783   0.01548   0.01750
     Eigenvalues ---    0.02082   0.02409   0.02830   0.02903   0.03413
     Eigenvalues ---    0.03578   0.04222   0.04451   0.04873   0.05448
     Eigenvalues ---    0.05504   0.05566   0.08484   0.09314   0.10217
     Eigenvalues ---    0.11017   0.11823   0.12290   0.15943   0.16000
     Eigenvalues ---    0.16000   0.16002   0.16520   0.18552   0.20503
     Eigenvalues ---    0.21172   0.21920   0.24078   0.26233   0.29229
     Eigenvalues ---    0.29261   0.31293   0.33995   0.34098   0.34214
     Eigenvalues ---    0.34394   0.34404   0.35238   0.35267   0.38500
     Eigenvalues ---    0.41210   0.41501   0.48856   0.53665   0.53851
     Eigenvalues ---    1.02230
 En-DIIS/RFO-DIIS IScMMF=        0 using points:     3    2    1
 RFO step:  Lambda= 0.00000000D+00.
 DidBck=T Rises=F RFO-DIIS coefs:    0.68029    0.04981    0.26990
 Iteration  1 RMS(Cart)=  0.00043147 RMS(Int)=  0.00000033
 Iteration  2 RMS(Cart)=  0.00000034 RMS(Int)=  0.00000000
 Variable       Old X    -DE/DX   Delta X   Delta X   Delta X     New X
                                 (Linear)    (Quad)   (Total)
    R1        2.89526   0.00000   0.00000   0.00000   0.00000   2.89526
    R2        2.06968   0.00000   0.00000   0.00001   0.00000   2.06968
    R3        2.06653   0.00000   0.00000   0.00000   0.00000   2.06653
    R4        2.06671   0.00000   0.00000   0.00000   0.00000   2.06671
    R5        2.85493   0.00000   0.00000   0.00001   0.00001   2.85493
    R6        2.07214   0.00000   0.00001  -0.00002  -0.00001   2.07213
    R7        2.07340   0.00000   0.00000   0.00000   0.00000   2.07340
    R8        2.65600   0.00002   0.00008  -0.00022  -0.00014   2.65586
    R9        2.83272   0.00001  -0.00003   0.00011   0.00008   2.83280
   R10        2.91054   0.00000  -0.00002   0.00006   0.00004   2.91059
   R11        1.82926   0.00001   0.00001  -0.00003  -0.00002   1.82924
   R12        2.60561   0.00001   0.00004  -0.00011  -0.00007   2.60554
   R13        2.92651   0.00000  -0.00002   0.00006   0.00004   2.92655
   R14        2.05274   0.00000   0.00000   0.00000   0.00000   2.05274
   R15        1.83215   0.00001   0.00002  -0.00005  -0.00003   1.83212
   R16        2.69595   0.00000   0.00000   0.00000   0.00000   2.69595
   R17        2.05270   0.00000   0.00000  -0.00001  -0.00001   2.05269
   R18        2.27774   0.00000   0.00000   0.00000   0.00000   2.27773
   R19        2.00686  -0.00001  -0.00002   0.00003   0.00002   2.00688
    A1        1.94152   0.00000   0.00000  -0.00001  -0.00001   1.94151
    A2        1.92853   0.00000   0.00000   0.00000   0.00000   1.92853
    A3        1.93688   0.00000  -0.00001   0.00002   0.00001   1.93689
    A4        1.88471   0.00000   0.00000   0.00000   0.00000   1.88472
    A5        1.88401   0.00000   0.00001  -0.00002  -0.00001   1.88400
    A6        1.88619   0.00000   0.00000   0.00001   0.00000   1.88619
    A7        1.97431   0.00000   0.00000   0.00000   0.00000   1.97431
    A8        1.92647   0.00000   0.00000  -0.00001  -0.00001   1.92647
    A9        1.91843   0.00000  -0.00001   0.00002   0.00001   1.91844
   A10        1.89536   0.00000   0.00000   0.00000   0.00000   1.89536
   A11        1.88571   0.00000  -0.00001   0.00003   0.00002   1.88573
   A12        1.85955   0.00000   0.00001  -0.00004  -0.00003   1.85952
   A13        1.98818   0.00000  -0.00002   0.00007   0.00006   1.98823
   A14        2.14648  -0.00001   0.00002  -0.00007  -0.00006   2.14643
   A15        2.10240  -0.00001   0.00001  -0.00007  -0.00006   2.10234
   A16        1.96648   0.00000   0.00000  -0.00003  -0.00002   1.96646
   A17        2.01969   0.00000   0.00000   0.00005   0.00005   2.01975
   A18        1.89240   0.00002   0.00002   0.00004   0.00006   1.89246
   A19        2.07062   0.00000   0.00005  -0.00011  -0.00006   2.07056
   A20        2.07929   0.00000  -0.00001   0.00001   0.00000   2.07929
   A21        2.10919   0.00000   0.00002  -0.00013  -0.00011   2.10908
   A22        1.97066   0.00000  -0.00003   0.00010   0.00008   1.97074
   A23        2.01256   0.00000  -0.00002   0.00007   0.00005   2.01261
   A24        1.84414   0.00001   0.00000   0.00004   0.00004   1.84418
   A25        2.05028   0.00000   0.00000  -0.00001  -0.00002   2.05026
   A26        2.02400   0.00000   0.00003  -0.00003  -0.00001   2.02400
   A27        2.10468   0.00000   0.00002  -0.00005  -0.00002   2.10466
   A28        2.02168   0.00000  -0.00003   0.00005   0.00002   2.02170
[...]
 0064732,0.00013277,0.00022939,0.01931851,0.00555168,0.00284880,0.00504
 302,-0.08976262,0.00576397,-0.13163182,0.48764998,-0.00149566,0.000081
 33,0.00009094,0.01983669,0.00300257,0.00421209,-0.00705014,0.00241857,
 -0.05738144,0.05807208,-0.09683176,0.08605697,-0.00245345,0.00378246,0
 .00304784,0.00787739,-0.00875979,0.01295455,-0.07867970,-0.01366469,-0
 .02697230,-0.03523268,0.01109218,-0.02617019,0.66666647,0.00112136,0.0
 0047186,0.00003128,-0.00182730,-0.00038958,-0.01404822,-0.00181583,-0.
 02478301,-0.00276558,-0.00267750,-0.00145792,-0.00519996,-0.10321823,0
 .27013734,0.00056685,-0.00217976,0.00059895,-0.00052304,0.00323386,-0.
 01749048,-0.06221865,-0.05178603,-0.19393713,-0.00976418,-0.00118715,-
 0.00950794,0.01324450,-0.05662755,0.54894311,-0.00034051,0.00009646,0.
 00011222,0.00100711,-0.00048054,0.00043288,-0.00255805,0.00351573,0.00
 110113,0.00193679,-0.00126307,-0.01397079,-0.17729369,0.00363523,0.116
 06220,0.57436024,0.00047187,-0.00113587,-0.00036623,-0.00149368,0.0019
 8221,-0.00305940,0.01458451,-0.00258331,-0.00811615,0.00063226,0.00291
 384,0.00170645,-0.01220212,-0.05432311,0.00484391,0.11511083,0.0716900
 6,0.00163965,-0.00200555,-0.00120885,-0.00338707,0.00554508,-0.0035749
 3,0.02202293,0.00142156,-0.03167722,0.00378109,-0.00366788,-0.00119825
 ,0.06724923,-0.00622455,-0.19899918,0.03175421,0.04089936,0.37743615,-
 0.00000109,-0.00034063,-0.00099719,0.00420473,0.01358152,-0.00663750,-
 0.07103031,-0.01900185,-0.00919949,-0.02128781,-0.03285612,0.00354631,
 -0.05781859,0.01232685,0.01492009,-0.00546324,-0.02275080,0.01016482,0
 .60626160,-0.00050317,0.00093756,0.00195264,-0.00350310,-0.02059565,0.
 00041071,-0.02917320,-0.13812851,-0.06949194,-0.01274701,-0.00233868,-
 0.00107339,0.03970144,-0.09206304,0.07798355,-0.01454510,0.00641924,0.
 01313189,-0.03765283,0.50228038,-0.00081486,0.00116903,0.00167259,-0.0
 0303051,-0.02094953,0.00073088,0.00795582,-0.01042103,-0.02971382,-0.0
 0222048,-0.00166934,-0.00228197,-0.00430587,0.02945825,-0.07583762,0.0
 1365197,0.02206816,-0.01816785,-0.13271636,-0.04320542,0.24729566,0.00
 038807,-0.00022600,0.00032841,-0.00223525,-0.00316245,0.00135794,0.016
 12165,0.01049271,-0.00392015,-0.00759465,-0.00041732,-0.00055225,-0.00
 074603,0.01771369,-0.00796402,-0.00430706,-0.00147404,0.00573176,-0.18
 988825,0.10724225,0.02471824,0.79364499,-0.00020707,0.00031329,-0.0001
 2198,0.00026875,-0.00019534,0.00129547,0.00839803,-0.03856833,0.007047
 02,0.00993270,-0.00440721,-0.00201272,0.00005143,-0.03048969,0.0010203
 7,0.00507088,0.00284402,-0.00269745,0.12168983,-0.16974170,-0.01700511
 ,-0.66335796,0.73347539,0.00001166,-0.00001867,0.00039116,-0.00167392,
 -0.00403493,0.00135271,0.01545314,-0.01199320,-0.00567862,0.00323026,0
 .00123327,0.00173913,-0.02634599,0.01588564,0.01036967,0.00251111,-0.0
 0461173,-0.00028608,0.01871573,-0.00868448,-0.06007671,-0.05887034,0.0
 5375917,0.08799854,-0.00027506,0.00013532,-0.00023904,0.00126717,0.001
 55357,-0.00093638,-0.00902871,-0.00872428,0.00178411,0.00688535,-0.003
 41873,-0.00017911,-0.00512344,-0.00702104,0.00566651,0.00399185,-0.000
 74464,-0.00299903,-0.00562560,0.01825769,-0.00182496,-0.59011743,0.522
 47985,0.04039489,0.82261145,0.00015023,-0.00022685,0.00011487,-0.00059
 029,-0.00078205,0.00023111,0.00087641,0.00522410,-0.00160709,-0.000786
 29,-0.00053809,-0.00034869,0.00470862,0.00637262,-0.00317717,-0.002439
 34,0.00017944,0.00155247,0.01084850,-0.00872113,0.00320772,0.52300986,
 -0.51218232,-0.03769749,-0.73491116,0.73564671,-0.00001836,0.00009132,
 -0.00011958,0.00031230,0.00045550,-0.00040646,-0.00278993,-0.00119228,
 0.00138937,0.00126059,-0.00061650,0.00051918,0.00278357,0.00107615,-0.
 00306231,-0.00160479,0.00090102,0.00112530,0.00218514,-0.00054313,0.00
 724939,0.04310290,-0.04002951,-0.02903558,-0.06862524,0.06164906,0.040
 68261,-0.06514928,-0.06380524,0.01053310,0.00144975,0.00863454,-0.0011
 2860,0.00002372,-0.00078172,0.00021717,-0.00009344,0.00033397,0.000327
 44,-0.00019536,-0.00019911,0.00012229,0.00006040,0.00008285,-0.0000292
 9,0.00022015,0.00023408,-0.00013680,-0.00003097,-0.00004196,0.00004857
 ,-0.00005325,0.00005637,-0.00006084,0.06538093,-0.06359249,-0.28406370
 ,0.03901603,-0.00169437,-0.00828667,0.00201083,0.00041653,0.00006277,-
 0.00058816,-0.00015846,0.00016713,0.00016416,-0.00000221,-0.00029239,-
 0.00018592,0.00001309,0.00021577,0.00000434,-0.00035392,0.00086477,0.0
 0001673,0.00017922,0.00004605,0.00011537,-0.00009053,0.00007289,-0.000
 06701,0.06967032,0.30922159,0.01043529,0.03796816,-0.05325652,0.008755
 67,0.03179435,-0.00592612,0.00017626,0.00187522,0.00182810,0.00015876,
 -0.00031887,-0.00012287,-0.00020911,0.00016488,0.00037395,-0.00012147,
 -0.00017384,0.00034093,0.00022403,-0.00111342,-0.00006338,-0.00003546,
 -0.00029985,-0.00006751,-0.00004531,0.00003399,0.00001020,-0.01021753,
 -0.04538065,0.05844548,-0.30218912,-0.02752488,-0.04362759,-0.00631110
 ,-0.00073661,-0.00248769,-0.00129879,0.00047459,0.00022554,0.00082524,
 0.00011340,0.00154240,-0.00000949,-0.00001545,-0.00000963,0.00013253,-
 0.00004467,-0.00006103,0.00002542,-0.00009641,-0.00006435,-0.00010707,
 0.00011123,-0.00001974,0.00013728,-0.00006817,0.00004196,-0.00667107,-
 0.00022142,-0.00064146,0.32840099,-0.02795810,-0.05142904,-0.00500587,
 0.00997821,0.00049434,0.00160804,-0.00071870,0.00017026,-0.00045193,0.
 00005463,-0.00023869,0.00044906,0.00011360,-0.00011019,-0.00000691,0.0
 0006073,0.00002795,0.00003120,-0.00018694,-0.00004697,-0.00008007,-0.0
 0002893,0.00006507,-0.00000996,0.00006887,-0.00001058,0.00004618,-0.03
 123862,-0.00240293,-0.00534371,0.02957295,0.05102613,-0.04149267,-0.00
 490123,-0.05277156,-0.03265619,-0.00351881,-0.00652556,-0.00268807,-0.
 00021336,0.00123744,0.00136512,0.00017967,0.00131653,-0.00009136,0.000
 05647,0.00009645,0.00037650,-0.00002918,0.00011360,0.00018539,-0.00014
 023,-0.00017084,-0.00006026,0.00004532,-0.00006594,0.00012542,0.000004
 38,0.00002134,0.00489832,-0.00014489,-0.00004406,0.04917297,0.00365085
 ,0.05864613,-0.11308461,0.07662747,0.08666739,0.00383818,-0.00572662,-
 0.00666134,-0.00130819,0.00039628,-0.00213437,0.00083416,0.00012169,0.
 00109041,0.00033874,-0.00012115,-0.00032114,0.00007719,-0.00007468,-0.
 00011742,0.00001444,0.00025675,0.00007643,-0.00003601,0.00006601,0.000
 00994,0.00006774,-0.00000886,0.00002818,0.00403992,-0.00544162,-0.0067
 2555,-0.01478728,0.01923973,0.02083064,0.11919956,0.07676851,-0.135366
 00,-0.09992294,-0.00599208,0.00558819,0.00770611,0.00051312,-0.0006401
 2,0.00186932,0.00003440,0.00009844,-0.00006491,-0.00023872,0.00020481,
 0.00013893,0.00000057,0.00018088,0.00002179,0.00013979,0.00053516,0.00
 005331,0.00002659,0.00003583,0.00007008,-0.00000285,0.00000739,-0.0000
 4845,0.01623056,-0.01704471,-0.01992216,-0.00243177,0.00184782,0.00352
 421,-0.08458395,0.14378192,0.08559229,-0.09845791,-0.15641245,0.016185
 83,-0.01878957,-0.01987370,-0.00374242,0.00304895,-0.00619428,0.000101
 64,-0.00007629,0.00066741,0.00174201,0.00023487,-0.00004198,0.00023098
 ,-0.00049568,-0.00103155,-0.00020670,0.00000165,0.00070917,-0.00027204
 ,0.00018883,-0.00001359,0.00021408,-0.00016774,0.00003521,-0.00345144,
 0.00308344,0.00347912,-0.00265273,0.00411699,0.00367455,-0.09340862,0.
 10754367,0.17263084,-0.00560016,-0.00055799,-0.00142556,-0.29211256,-0
 .02454513,-0.03873647,-0.01690124,-0.00443980,-0.00446724,-0.00201521,
 0.00313687,0.00213485,-0.00058331,-0.00014996,-0.00066286,0.00072953,-
 0.00001534,0.00020127,0.00005250,-0.00050093,-0.00009014,0.00012327,0.
 00038451,-0.00022422,0.00026984,-0.00009646,0.00001824,0.00043017,0.00
 035784,-0.00008819,0.00118038,0.00047115,-0.00102903,0.00056507,-0.000
 10290,-0.00038196,0.31990345,0.00937711,0.00056904,0.00209151,-0.02747
 038,-0.05133345,-0.00560152,0.01736247,0.00045895,0.00350737,0.0033699
 8,-0.00118233,-0.00256122,0.00003324,0.00059506,0.00004895,-0.00022993
 ,-0.00001893,0.00003863,0.00049119,0.00030928,0.00034914,-0.00012489,0
 .00001635,0.00024676,-0.00010440,0.00012530,-0.00002405,0.00039533,0.0
 0038363,-0.00063922,0.00075721,0.00043620,0.00178518,-0.00045661,0.000
 13933,-0.00043986,0.02707739,0.05223533,-0.03236863,-0.00307849,-0.006
 89690,-0.04164628,-0.00618339,-0.05353263,0.02016798,0.00434964,0.0035
 3467,0.00462888,-0.00352820,-0.00191893,0.00062664,0.00018755,0.000062
 79,-0.00050866,0.00005454,0.00015303,0.00009034,0.00009378,0.00046485,
 -0.00002648,-0.00002385,0.00004260,-0.00010029,0.00001669,-0.00000895,
 0.00066232,0.00006013,0.00143900,-0.00097672,0.00218531,-0.00626613,0.
 00048926,-0.00065581,0.00119604,0.04469781,0.00614255,0.06266859,0.001
 71634,0.00770729,-0.00171409,-0.06250811,-0.05811255,0.00783855,0.0027
 6399,0.01812451,-0.00024993,0.00185224,-0.00101392,-0.00069397,0.00016
 200,-0.00072955,-0.00097619,-0.00011791,-0.00001690,-0.00005575,-0.001
 68407,0.00176735,0.00169408,0.00085531,0.00014905,0.00035033,-0.000374
 93,0.00013257,-0.00009277,0.00070401,0.00087625,-0.00156867,0.00042614
 ,0.00044552,0.00049146,0.00008419,-0.00037250,0.00043234,-0.00709300,-
 0.03071308,0.00370683,0.06270158,-0.00200281,-0.00797036,0.00204943,-0
 .05707742,-0.28183630,0.03325834,-0.00446139,-0.02170432,-0.00095324,-
 0.00023675,0.00217136,0.00030760,-0.00041551,0.00060825,0.00023043,0.0
 0037228,0.00020737,-0.00048474,0.00253867,-0.00009568,-0.00084012,-0.0
 0068354,0.00013971,-0.00095784,0.00047679,-0.00017078,0.00012197,0.000
 51664,0.00105508,0.00148800,0.00028634,0.00028120,-0.00003831,-0.00008
 042,0.00063949,0.00031216,-0.00085918,-0.00255798,0.00024250,0.0616700
 0,0.30938235,0.00757871,0.03185174,-0.00656591,0.00829854,0.03282659,-
 0.05065807,-0.00569539,-0.02508735,0.00038445,-0.00107447,0.00161509,0
 .00046449,-0.00067730,0.00100367,0.00223579,0.00025063,0.00027803,-0.0
 0005608,0.00365017,-0.00293236,-0.00142786,-0.00109638,-0.00034035,-0.
 00126023,0.00062896,-0.00033957,0.00017911,-0.00194419,0.00161427,-0.0
 0620578,-0.00018673,-0.00059186,0.00138749,0.00059556,-0.00054529,0.00
 120561,-0.00083901,-0.00469875,-0.00002912,-0.00923236,-0.03485773,0.0
 6048568,0.00019797,0.00002828,-0.00011460,-0.00382833,-0.00036865,-0.0
 0162722,-0.03196393,0.03446144,-0.01110577,-0.11026048,0.13412491,-0.0
 3632769,-0.00465398,0.00245481,0.00057617,0.00068693,0.00012335,0.0012
 8584,0.00261633,0.00203876,0.00115730,0.00137489,-0.00365630,-0.001421
 30,-0.00209873,0.00020863,-0.00028489,-0.00011077,-0.00007126,0.000099
 35,0.00018592,0.00006277,0.00039138,0.00012718,-0.00009236,-0.00002033
 ,-0.00042160,0.00044280,0.00081832,0.00015469,-0.00005475,-0.00019579,
 0.14686904,0.00056177,0.00045290,0.00037106,-0.00089218,-0.00110228,0.
 00068899,-0.00030639,0.00788567,-0.00423968,0.17986082,-0.39232712,0.1
 0294793,-0.00176839,0.00153488,-0.00139878,-0.00095431,-0.00046323,-0.
 00032990,-0.00454158,-0.00291880,-0.00095506,-0.00665230,0.00602906,0.
 00133991,0.00497828,-0.00096306,0.00137948,-0.00013799,-0.00009556,0.0
 0005218,-0.00023233,-0.00013725,-0.00045327,-0.00024954,-0.00008710,0.
 00002545,-0.00052450,0.00031287,0.00016100,0.00001058,-0.00012874,-0.0
 0008808,-0.16962284,0.38338392,0.00071906,0.00016387,0.00059865,0.0036
 2398,-0.00004818,0.00043321,-0.00051226,-0.00228590,-0.00478442,-0.046
 57009,0.10001078,-0.02656367,-0.00543459,0.00112599,-0.00094652,0.0003
 2699,-0.00133333,0.00034783,0.00007675,0.00024794,0.00180577,-0.000828
 98,-0.00030910,-0.00053570,0.00073220,0.00013427,-0.00107112,0.0001744
 7,0.00015016,-0.00011415,-0.00032232,-0.00055179,-0.00057410,-0.000432
 03,0.00013236,-0.00015111,0.00073622,-0.00022606,-0.00087787,-0.000156
 69,0.00024147,-0.00000552,0.04795906,-0.09991707,0.03319718,0.00018098
 ,0.00006238,-0.00014271,-0.00009558,-0.00004041,0.00144073,-0.00587339
 ,0.00405765,-0.00087590,-0.00005718,0.00098002,-0.00103908,-0.27742290
 ,0.08638862,-0.06640622,-0.02356469,0.00094693,0.00329238,0.00419525,-
 0.00388901,-0.00048229,0.00012330,0.00003246,0.00163705,0.00056015,-0.
 00044188,-0.00021915,0.00000532,-0.00004063,0.00005590,0.00003548,-0.0
 0001554,0.00016462,0.00001257,-0.00000936,-0.00003971,0.00085054,-0.00
 015454,-0.00023449,0.00020039,-0.00007691,-0.00025127,-0.00026758,-0.0
 0046638,-0.00007476,0.30197526,-0.00007221,0.00009714,0.00009761,0.000
 69600,0.00063595,0.00163131,-0.01391694,0.00408261,0.00054107,-0.00376
 198,0.00152423,-0.00299486,0.08986520,-0.06960908,0.02348131,-0.003819
 08,0.00410196,-0.00176876,0.02443989,-0.01233624,0.00866015,-0.0006301
 5,0.00108323,0.00549428,0.00153931,-0.00139249,-0.00048933,0.00005116,
 -0.00002687,-0.00004164,0.00000030,-0.00000656,0.00007509,0.00003236,-
 0.00001472,0.00002611,0.00003845,0.00004718,-0.00010276,-0.00020677,-0
 .00007458,0.00010503,-0.00079023,-0.00100152,-0.00054654,-0.09074774,0
 .07153389,0.00032295,0.00011870,0.00003445,-0.00123401,-0.00072232,0.0
 0173237,-0.01630409,0.00924647,-0.00141711,-0.00274785,0.00197600,-0.0
 0198617,-0.07112021,0.02685603,-0.06809776,0.03265898,-0.00507676,0.00
 368808,-0.00537239,0.00230661,-0.00303721,-0.00001165,-0.00136604,-0.0
 0133663,-0.00022740,0.00023969,-0.00000945,-0.00003969,-0.00001526,0.0
 0006943,0.00005299,-0.00001633,0.00020425,0.00000978,-0.00004747,-0.00
 000077,0.00057200,0.00000882,-0.00041735,0.00012705,-0.00044534,-0.000
 39079,-0.00073057,-0.00062645,-0.00068825,0.06115096,-0.03126649,0.074
 33217,0.00040701,-0.00033873,-0.00029673,-0.00151735,0.00045531,-0.000
 47118,0.00162499,0.00014399,-0.00271038,-0.00052144,-0.00048594,0.0007
 2480,-0.04082108,-0.00603862,0.00056595,-0.37045497,-0.09477733,-0.139
 46474,-0.00116212,0.00093202,-0.00088572,0.00089281,-0.00038874,-0.000
 12601,-0.00072767,0.00043154,-0.00002315,-0.00002434,0.00000640,0.0000
 5481,-0.00000960,-0.00002656,-0.00008021,-0.00001945,0.00001105,-0.000
 23254,-0.00007371,0.00012205,0.00021106,0.00009371,-0.00011169,-0.0000
 1347,0.00050608,0.00055788,-0.00044079,-0.00144194,-0.00189896,0.00287
 099,0.41320976,-0.00009576,-0.00000838,0.00004859,0.00009472,-0.000229
 24,0.00030295,-0.00054529,0.00419747,-0.00139740,0.00231881,-0.0047369
 5,-0.00145653,-0.00033540,-0.00065409,0.00281995,-0.10343254,-0.031042
 37,-0.04495537,-0.00245828,-0.00192421,0.00085695,-0.00137516,0.000264
 78,0.00046375,0.00092495,-0.00017792,-0.00062940,-0.00001860,-0.000045
 36,0.00007043,0.00000248,0.00001149,-0.00003870,0.00000920,-0.00003106
 ,0.00003598,-0.00015744,-0.00000938,0.00008068,0.00009027,-0.00023087,
 -0.00016858,-0.00023243,0.00045065,0.00314796,0.00342404,-0.00007771,-
 0.00257643,0.10156542,0.03482897,0.00010866,0.00022177,-0.00001820,-0.
 00087777,-0.00064175,-0.00009648,0.00897439,0.00028352,-0.00367519,-0.
 00157156,-0.00051122,0.00604285,0.03567685,0.00812904,0.01109690,-0.18
 537540,-0.05330693,-0.12339274,0.00212317,0.00138465,-0.00148715,0.000
 15808,-0.00010065,-0.00030683,-0.00032261,0.00000367,-0.00019776,-0.00
 002877,-0.00004478,0.00001230,-0.00004334,-0.00010173,-0.00038413,-0.0
 0010642,0.00001029,0.00006681,-0.00049153,0.00019669,0.00036943,0.0001
 5502,-0.00011307,-0.00005779,-0.00144110,0.00155789,-0.00041156,0.0027
 2566,-0.00006648,-0.00386616,0.14080738,0.04295165,0.11725082,0.000110
 42,-0.00032624,-0.00010306,0.00047709,0.00187900,0.00061646,-0.0085478
 9,-0.00090077,0.00400385,-0.00038842,-0.00212127,0.00022236,0.00555139
 ,-0.00053664,-0.00283013,0.00136537,0.00183405,-0.00121944,-0.26716020
 ,-0.06948500,0.09723313,-0.01969349,-0.00035795,0.00656734,0.00063888,
 -0.00070483,0.00003235,0.00001953,0.00015186,-0.00033141,0.00004869,0.
 00010741,0.00009432,0.00003503,0.00011500,-0.00006264,0.00071554,-0.00
 018601,-0.00023716,0.00004736,0.00025009,0.00022296,0.00033648,0.00016
 376,0.00028829,0.00062158,-0.00069970,-0.00005624,-0.00006297,0.000171
 52,-0.00042505,0.28536974,0.00031428,-0.00045285,-0.00044183,-0.001500
 03,0.00232321,-0.00104492,-0.01559328,-0.00542165,0.00900489,-0.001792
 14,-0.00318562,0.00135850,-0.00856652,-0.00576915,0.00250634,-0.000732
 17,-0.00114230,-0.00042846,-0.06855886,-0.06626454,0.03000062,0.024540
 24,0.00703396,-0.01014611,0.00124137,-0.00191136,0.00021638,0.00000614
 ,0.00017909,-0.00021068,0.00005213,0.00003662,0.00017481,0.00000524,0.
 00011415,-0.00021555,0.00050744,-0.00052429,-0.00001203,0.00022009,0.0
 0025388,0.00029687,0.00057572,-0.00059446,-0.00008756,0.00001634,0.001
 32142,0.00137810,-0.00017267,-0.00050681,0.00011789,0.07017192,0.07519
 251,-0.00036531,-0.00004913,0.00018337,0.00100710,0.00146424,0.0006757
 7,-0.01753493,0.00154525,0.00615607,-0.00426962,-0.00534690,0.00004025
 ,0.02261808,0.00099327,-0.00558034,0.00222335,0.00564456,-0.00353173,0
 .09900020,0.03121391,-0.07373110,0.00150028,-0.00108696,-0.00092512,-0
 .00039877,0.00025675,0.00031926,0.00003685,0.00018012,-0.00020030,0.00
 007072,0.00008817,0.00010194,0.00011762,0.00012922,0.00007044,0.000069
 81,-0.00021523,0.00001740,-0.00005615,0.00040618,0.00027140,0.00069916
 ,-0.00034397,0.00018598,-0.00059927,-0.00244570,0.00114036,-0.00048045
 ,0.00037302,-0.00105538,-0.10377723,-0.03297139,0.07568119,0.00003492,
 -0.00000427,0.00000990,-0.00007028,0.00001970,0.00004131,-0.00023086,0
 .00090326,-0.00036922,-0.00028270,-0.00040905,-0.00001846,0.00043771,0
 .00070982,-0.00004849,-0.00024783,-0.00019245,0.00021060,0.00353086,0.
 00166543,0.00008537,0.00123191,-0.00062474,-0.00024852,-0.22300489,0.1
 9962455,0.02395389,-0.00000543,-0.00000461,0.00002407,-0.00001457,-0.0
 0000218,0.00000165,0.00000157,-0.00001311,-0.00002803,-0.00001949,0.00
 001106,-0.00000075,0.00001606,-0.00005045,-0.00001917,0.00054989,0.000
 21565,0.00013549,-0.00003755,-0.00011892,0.00007842,0.00010227,0.00004
 947,-0.00004566,0.00051584,-0.00073523,0.00013858,0.21749257,-0.000016
 56,0.00002366,0.00000297,0.00007416,0.00011577,-0.00007824,-0.00033143
 ,0.00035652,-0.00008195,-0.00023882,-0.00003421,0.00010787,-0.00017660
 ,0.00001642,0.00024167,0.00002026,-0.00005364,-0.00008365,0.00264557,0
 .00382876,-0.00071437,-0.00507182,0.00423786,-0.00045381,0.20336163,-0
 .22055182,-0.02229739,0.00001128,-0.00001059,-0.00000319,0.00000108,-0
 .00001486,-0.00001797,-0.00001127,0.00001030,0.00002453,-0.00002402,-0
 .00000217,0.00001016,-0.00002822,0.00003092,0.00005862,0.00036734,-0.0
 0023086,-0.00004926,-0.00002603,0.00011215,0.00002846,0.00001359,-0.00
 007904,0.00002955,0.00047379,-0.00068183,0.00016458,-0.20104393,0.2129
 2667,0.00001628,-0.00002734,-0.00000833,0.00003825,0.00018909,-0.00001
 683,-0.00043863,0.00056672,0.00008169,-0.00026028,-0.00010285,-0.00018
 861,0.00138363,-0.00033722,-0.00027635,-0.00011205,0.00017320,-0.00008
 046,0.00024748,-0.00154297,0.00606721,-0.00325960,0.00203741,-0.002305
 28,0.02635197,-0.02410692,-0.01761973,0.00001663,0.00001111,0.00000218
 ,-0.00001326,-0.00001565,0.00000261,-0.00000833,0.00000774,-0.00001576
 ,0.00000604,-0.00000966,-0.00000052,0.00000092,0.00003231,0.00004312,0
 .00028271,-0.00017163,0.00015536,-0.00010247,-0.00038939,0.00004654,-0
 .00000962,0.00007049,0.00011024,-0.00023871,0.00050413,0.00018054,-0.0
 2390097,0.02311145,0.01382238\\-0.00000612,0.00000358,-0.00000156,0.00
 000247,0.00000100,-0.00000231,0.00001105,0.00000793,0.00001058,-0.0000
 1247,-0.00000722,0.00000125,0.00001442,0.00000211,-0.00002035,0.000008
 26,0.00000069,0.00001608,0.00000168,-0.00000560,-0.00000093,0.00000003
 ,-0.00000333,0.00000328,-0.00000608,0.00000247,0.00000593,-0.00000939,
 0.00000242,-0.00000243,-0.00000714,0.00000050,0.00000140,-0.00000763,0
 .00000250,-0.00000414,0.00000118,0.00000492,-0.00000656,0.00000088,0.0
 0000011,-0.00000431,-0.00000174,0.00000068,0.00000540,0.00000822,0.000
 00061,-0.00000569,0.00000282,-0.00000760,0.00000046,-0.00000102,0.0000
 0275,-0.00000597,0.00000058,-0.00000853,0.00000987\\\@


 SUCCESS-- IF YOU HAVE TRIED TO DO SOMETHING AND FAILED
           YOU ARE BETTER OFF THAN IF YOU HAD TRIED TO DO
           NOTHING AND SUCCEEDED.

                   -- FROM THE BACK OF A SUGAR PACKET
 Job cpu time:       0 days  0 hours 44 minutes  7.2 seconds.
 File lengths (MBytes):  RWF=    152 Int=      0 D2E=      0 Chk=      8 Scr=      1
 Normal termination of Gaussian 09 at Tue Jan 28 09:22:18 2020.
