 Entering Gaussian System, Link 0=/home/puck/opt/gaussian_09/g09
 Input=dsC7O2H10nsd_2084.com
 Output=dsC7O2H10nsd_2084.log
 Initial command:
 /home/puck/opt/gaussian_09/l1.exe "/scratch/puck/g09_cdd2ef11-c63a-46ab-a4c8-7b1bdb2e3a90/Gau-61676.inp" -scrdir="/scratch/puck/g09_cdd2ef11-c63a-46ab-a4c8-7b1bdb2e3a90/"
 Entering Link 1 = /home/puck/opt/gaussian_09/l1.exe PID=     61678.
  
 Copyright (c) 1988,1990,1992,1993,1995,1998,2003,2009,2013,
            Gaussian, Inc.  All Rights Reserved.
  
 This is part of the Gaussian(R) 09 program.  It is based on
 the Gaussian(R) 03 system (copyright 2003, Gaussian, Inc.),
 the Gaussian(R) 98 system (copyright 1998, Gaussian, Inc.),
 the Gaussian(R) 94 system (copyright 1995, Gaussian, Inc.),
 the Gaussian 92(TM) system (copyright 1992, Gaussian, Inc.),
 the Gaussian 90(TM) system (copyright 1990, Gaussian, Inc.),
 the Gaussian 88(TM) system (copyright 1988, Gaussian, Inc.),
 the Gaussian 86(TM) system (copyright 1986, Carnegie Mellon
 University), and the Gaussian 82(TM) system (copyright 1983,
 Carnegie Mellon University). Gaussian is a federally registered
 trademark of Gaussian, Inc.
  
 This software contains proprietary and confidential information,
 including trade secrets, belonging to Gaussian, Inc.
  
 This software is provided under written license and may be
 used, copied, transmitted, or stored only in accord with that
 written license.
  
 The following legend is applicable only to US Government
 contracts under FAR:
  
                    RESTRICTED RIGHTS LEGEND
  
 Use, reproduction and disclosure by the US Government is
 subject to restrictions as set forth in subparagraphs (a)
 and (c) of the Commercial Computer Software - Restricted
 Rights clause in FAR 52.227-19.
  
 Gaussian, Inc.
 340 Quinnipiac St., Bldg. 40, Wallingford CT 06492
  
  
 ---------------------------------------------------------------
 Warning -- This program may not be used in any manner that
 competes with the business of Gaussian, Inc. or will provide
 assistance to any competitor of Gaussian, Inc.  The licensee
 of this program is prohibited from giving any competitor of
 Gaussian, Inc. access to this program.  By using this program,
 the user acknowledges that Gaussian, Inc. is engaged in the
 business of creating and licensing software in the field of
 computational chemistry and represents and warrants to the
 licensee that it is not a competitor of Gaussian, Inc. and that
 it will not use this program in any manner prohibited above.
 ---------------------------------------------------------------
  

 Cite this work as:
 Gaussian 09, Revision D.01,
 M. J. Frisch, G. W. Trucks, H. B. Schlegel, G. E. Scuseria, 
 M. A. Robb, J. R. Cheeseman, G. Scalmani, V. Barone, B. Mennucci, 
 G. A. Petersson, H. Nakatsuji, M. Caricato, X. Li, H. P. Hratchian, 
 A. F. Izmaylov, J. Bloino, G. Zheng, J. L. Sonnenberg, M. Hada, 
 M. Ehara, K. Toyota, R. Fukuda, J. Hasegawa, M. Ishida, T. Nakajima, 
 Y. Honda, O. Kitao, H. Nakai, T. Vreven, J. A. Montgomery, Jr., 
 J. E. Peralta, F. Ogliaro, M. Bearpark, J. J. Heyd, E. Brothers, 
 K. N. Kudin, V. N. Staroverov, T. Keith, R. Kobayashi, J. Normand, 
 K. Raghavachari, A. Rendell, J. C. Burant, S. S. Iyengar, J. Tomasi, 
 M. Cossi, N. Rega, J. M. Millam, M. Klene, J. E. Knox, J. B. Cross, 
 V. Bakken, C. Adamo, J. Jaramillo, R. Gomperts, R. E. Stratmann, 
 O. Yazyev, A. J. Austin, R. Cammi, C. Pomelli, J. W. Ochterski, 
 R. L. Martin, K. Morokuma, V. G. Zakrzewski, G. A. Voth, 
 P. Salvador, J. J. Dannenberg, S. Dapprich, A. D. Daniels, 
 O. Farkas, J. B. Foresman, J. V. Ortiz, J. Cioslowski, 
 and D. J. Fox, Gaussian, Inc., Wallingford CT, 2013.
 
 ******************************************
 Gaussian 09:  ES64L-G09RevD.01 24-Apr-2013
                27-Jan-2020 
 ******************************************
 -----------------------------
 # b3lyp 6-31G(2df,p) opt Freq
 -----------------------------
 1/14=-1,18=20,19=15,26=3,38=1/1,3;
 2/9=110,12=2,17=6,18=5,40=1/2;
 3/5=1,6=6,7=104,11=2,16=1,25=1,30=1,71=1,74=-5/1,2,3;
 4//1;
 5/5=2,38=5/2;
 6/7=2,8=2,9=2,10=2,28=1/1;
 7//1,2,3,16;
 1/14=-1,18=20,19=15,26=3/3(2);
 2/9=110/2;
 99//99;
 2/9=110/2;
 3/5=1,6=6,7=104,11=2,16=1,25=1,30=1,71=1,74=-5/1,2,3;
 4/5=5,16=3,69=1/1;
 5/5=2,38=5/2;
 7//1,2,3,16;
 1/14=-1,18=20,19=15,26=3/3(-5);
 2/9=110/2;
 6/7=2,8=2,9=2,10=2,19=2,28=1/1;
 99/9=1/99;
 -----
 titel
 -----
 Symbolic Z-matrix:
 Charge =  0 Multiplicity = 1
 O                    -0.22422   2.49009  -0.27294 
 C                    -0.93952   1.35296   0.06696 
 C                    -2.07538   1.50845   1.0663 
 C                    -2.39247   1.23239  -0.37903 
 C                    -2.96846  -0.12648  -0.78593 
 C                    -1.9047   -1.2187   -0.98413 
 C                    -0.847    -1.20571   0.14047 
 C                    -0.11246   0.11629   0.09268 
 O                     1.09701   0.21202  -0.01776 
 H                     0.70015   2.19113  -0.29148 
 H                    -2.25408   0.72682   1.79807 
 H                    -2.20405   2.52072   1.43203 
 H                    -2.73084   2.09223  -0.9481 
 H                    -3.68465  -0.45307  -0.02093 
 H                    -3.54093  -0.01335  -1.71182 
 H                    -2.38025  -2.20346  -1.03718 
 H                    -1.3929   -1.0656   -1.94202 
 H                    -1.33663  -1.33588   1.11397 
 H                    -0.11317  -2.00614   0.02343 
 

 GradGradGradGradGradGradGradGradGradGradGradGradGradGradGradGradGradGrad
 Berny optimization.
 Initialization pass.
                           ----------------------------
                           !    Initial Parameters    !
                           ! (Angstroms and Degrees)  !
 --------------------------                            --------------------------
 ! Name  Definition              Value          Derivative Info.                !
 --------------------------------------------------------------------------------
 ! R1    R(1,2)                  1.3857         estimate D2E/DX2                !
 ! R2    R(1,10)                 0.9717         estimate D2E/DX2                !
 ! R3    R(2,3)                  1.5209         estimate D2E/DX2                !
 ! R4    R(2,4)                  1.5246         estimate D2E/DX2                !
 ! R5    R(2,8)                  1.488          estimate D2E/DX2                !
 ! R6    R(3,4)                  1.5052         estimate D2E/DX2                !
 ! R7    R(3,11)                 1.0855         estimate D2E/DX2                !
 ! R8    R(3,12)                 1.084          estimate D2E/DX2                !
 ! R9    R(4,5)                  1.531          estimate D2E/DX2                !
 ! R10   R(4,13)                 1.0852         estimate D2E/DX2                !
 ! R11   R(5,6)                  1.5375         estimate D2E/DX2                !
 ! R12   R(5,14)                 1.0976         estimate D2E/DX2                !
 ! R13   R(5,15)                 1.0944         estimate D2E/DX2                !
 ! R14   R(6,7)                  1.5439         estimate D2E/DX2                !
 ! R15   R(6,16)                 1.0949         estimate D2E/DX2                !
 ! R16   R(6,17)                 1.0968         estimate D2E/DX2                !
 ! R17   R(7,8)                  1.5131         estimate D2E/DX2                !
 ! R18   R(7,18)                 1.0974         estimate D2E/DX2                !
 ! R19   R(7,19)                 1.0922         estimate D2E/DX2                !
 ! R20   R(8,9)                  1.2183         estimate D2E/DX2                !
 ! A1    A(2,1,10)             104.0787         estimate D2E/DX2                !
 ! A2    A(1,2,3)              117.5679         estimate D2E/DX2                !
 ! A3    A(1,2,4)              119.0169         estimate D2E/DX2                !
 ! A4    A(1,2,8)              113.5369         estimate D2E/DX2                !
 ! A5    A(3,2,8)              119.2572         estimate D2E/DX2                !
 ! A6    A(4,2,8)              117.9708         estimate D2E/DX2                !
 ! A7    A(2,3,11)             119.491          estimate D2E/DX2                !
 ! A8    A(2,3,12)             113.9422         estimate D2E/DX2                !
 ! A9    A(4,3,11)             118.7216         estimate D2E/DX2                !
 ! A10   A(4,3,12)             118.0494         estimate D2E/DX2                !
 ! A11   A(11,3,12)            115.178          estimate D2E/DX2                !
 ! A12   A(2,4,5)              120.4298         estimate D2E/DX2                !
 ! A13   A(2,4,13)             112.8224         estimate D2E/DX2                !
 ! A14   A(3,4,5)              119.8176         estimate D2E/DX2                !
 ! A15   A(3,4,13)             115.0805         estimate D2E/DX2                !
 ! A16   A(5,4,13)             116.5247         estimate D2E/DX2                !
 ! A17   A(4,5,6)              113.8596         estimate D2E/DX2                !
 ! A18   A(4,5,14)             108.9254         estimate D2E/DX2                !
 ! A19   A(4,5,15)             109.2625         estimate D2E/DX2                !
 ! A20   A(6,5,14)             109.2639         estimate D2E/DX2                !
 ! A21   A(6,5,15)             109.0436         estimate D2E/DX2                !
 ! A22   A(14,5,15)            106.205          estimate D2E/DX2                !
 ! A23   A(5,6,7)              111.9706         estimate D2E/DX2                !
 ! A24   A(5,6,16)             110.1629         estimate D2E/DX2                !
 ! A25   A(5,6,17)             109.6508         estimate D2E/DX2                !
 ! A26   A(7,6,16)             109.9027         estimate D2E/DX2                !
 ! A27   A(7,6,17)             108.3793         estimate D2E/DX2                !
 ! A28   A(16,6,17)            106.6136         estimate D2E/DX2                !
 ! A29   A(6,7,8)              108.4765         estimate D2E/DX2                !
 ! A30   A(6,7,18)             109.8461         estimate D2E/DX2                !
 ! A31   A(6,7,19)             112.0912         estimate D2E/DX2                !
 ! A32   A(8,7,18)             110.379          estimate D2E/DX2                !
 ! A33   A(8,7,19)             108.1043         estimate D2E/DX2                !
 ! A34   A(18,7,19)            107.9325         estimate D2E/DX2                !
 ! A35   A(2,8,7)              117.1849         estimate D2E/DX2                !
 ! A36   A(2,8,9)              119.0086         estimate D2E/DX2                !
 ! A37   A(7,8,9)              123.6045         estimate D2E/DX2                !
 ! D1    D(10,1,2,3)           138.2901         estimate D2E/DX2                !
 ! D2    D(10,1,2,4)          -153.4359         estimate D2E/DX2                !
 ! D3    D(10,1,2,8)            -7.6817         estimate D2E/DX2                !
 ! D4    D(1,2,3,11)          -142.6478         estimate D2E/DX2                !
 ! D5    D(1,2,3,12)            -0.8441         estimate D2E/DX2                !
 ! D6    D(8,2,3,11)             1.3327         estimate D2E/DX2                !
 ! D7    D(8,2,3,12)           143.1364         estimate D2E/DX2                !
 ! D8    D(1,2,4,5)            144.2173         estimate D2E/DX2                !
 ! D9    D(1,2,4,13)             0.2085         estimate D2E/DX2                !
 ! D10   D(8,2,4,5)             -0.0388         estimate D2E/DX2                !
 ! D11   D(8,2,4,13)          -144.0476         estimate D2E/DX2                !
 ! D12   D(1,2,8,7)           -166.4528         estimate D2E/DX2                !
 ! D13   D(1,2,8,9)              8.5703         estimate D2E/DX2                !
 ! D14   D(3,2,8,7)             48.1998         estimate D2E/DX2                !
 ! D15   D(3,2,8,9)           -136.7771         estimate D2E/DX2                !
 ! D16   D(4,2,8,7)            -20.3148         estimate D2E/DX2                !
 ! D17   D(4,2,8,9)            154.7082         estimate D2E/DX2                !
 ! D18   D(11,3,4,5)             0.6028         estimate D2E/DX2                !
 ! D19   D(11,3,4,13)          147.3791         estimate D2E/DX2                !
 ! D20   D(12,3,4,5)          -146.7123         estimate D2E/DX2                !
 ! D21   D(12,3,4,13)            0.0641         estimate D2E/DX2                !
 ! D22   D(2,4,5,6)            -12.3419         estimate D2E/DX2                !
 ! D23   D(2,4,5,14)           109.8675         estimate D2E/DX2                !
 ! D24   D(2,4,5,15)          -134.5165         estimate D2E/DX2                !
 ! D25   D(3,4,5,6)            -83.2826         estimate D2E/DX2                !
 ! D26   D(3,4,5,14)            38.9268         estimate D2E/DX2                !
 ! D27   D(3,4,5,15)           154.5428         estimate D2E/DX2                !
 ! D28   D(13,4,5,6)           130.4023         estimate D2E/DX2                !
 ! D29   D(13,4,5,14)         -107.3883         estimate D2E/DX2                !
 ! D30   D(13,4,5,15)            8.2278         estimate D2E/DX2                !
 ! D31   D(4,5,6,7)             43.9943         estimate D2E/DX2                !
 ! D32   D(4,5,6,16)           166.6225         estimate D2E/DX2                !
 ! D33   D(4,5,6,17)           -76.3425         estimate D2E/DX2                !
 ! D34   D(14,5,6,7)           -78.0284         estimate D2E/DX2                !
 ! D35   D(14,5,6,16)           44.5998         estimate D2E/DX2                !
 ! D36   D(14,5,6,17)          161.6348         estimate D2E/DX2                !
 ! D37   D(15,5,6,7)           166.2895         estimate D2E/DX2                !
 ! D38   D(15,5,6,16)          -71.0824         estimate D2E/DX2                !
 ! D39   D(15,5,6,17)           45.9527         estimate D2E/DX2                !
 ! D40   D(5,6,7,8)            -63.0017         estimate D2E/DX2                !
 ! D41   D(5,6,7,18)            57.7247         estimate D2E/DX2                !
 ! D42   D(5,6,7,19)           177.7093         estimate D2E/DX2                !
 ! D43   D(16,6,7,8)           174.2224         estimate D2E/DX2                !
 ! D44   D(16,6,7,18)          -65.0513         estimate D2E/DX2                !
 ! D45   D(16,6,7,19)           54.9334         estimate D2E/DX2                !
 ! D46   D(17,6,7,8)            58.0729         estimate D2E/DX2                !
 ! D47   D(17,6,7,18)          178.7993         estimate D2E/DX2                !
 ! D48   D(17,6,7,19)          -61.2161         estimate D2E/DX2                !
 ! D49   D(6,7,8,2)             50.9798         estimate D2E/DX2                !
 ! D50   D(6,7,8,9)           -123.7936         estimate D2E/DX2                !
 ! D51   D(18,7,8,2)           -69.4161         estimate D2E/DX2                !
 ! D52   D(18,7,8,9)           115.8105         estimate D2E/DX2                !
 ! D53   D(19,7,8,2)           172.7433         estimate D2E/DX2                !
 ! D54   D(19,7,8,9)            -2.0301         estimate D2E/DX2                !
 --------------------------------------------------------------------------------
 Trust Radius=3.00D-01 FncErr=1.00D-07 GrdErr=1.00D-06
 Number of steps in this run=    114 maximum allowed number of steps=    114.
 GradGradGradGradGradGradGradGradGradGradGradGradGradGradGradGradGradGrad

                          Input orientation:                          
 ---------------------------------------------------------------------
 Center     Atomic      Atomic             Coordinates (Angstroms)
 Number     Number       Type             X           Y           Z
 ---------------------------------------------------------------------
      1          8           0       -0.224217    2.490091   -0.272944
      2          6           0       -0.939516    1.352964    0.066956
      3          6           0       -2.075383    1.508446    1.066303
      4          6           0       -2.392467    1.232386   -0.379031
      5          6           0       -2.968460   -0.126481   -0.785930
      6          6           0       -1.904703   -1.218697   -0.984125
      7          6           0       -0.847000   -1.205713    0.140466
      8          6           0       -0.112462    0.116292    0.092675
      9          8           0        1.097008    0.212020   -0.017762
     10          1           0        0.700149    2.191131   -0.291476
     11          1           0       -2.254083    0.726817    1.798074
     12          1           0       -2.204046    2.520718    1.432033
     13          1           0       -2.730837    2.092230   -0.948104
     14          1           0       -3.684652   -0.453071   -0.020926
     15          1           0       -3.540935   -0.013353   -1.711816
     16          1           0       -2.380249   -2.203456   -1.037175
     17          1           0       -1.392900   -1.065601   -1.942017
     18          1           0       -1.336628   -1.335879    1.113966
     19          1           0       -0.113171   -2.006138    0.023427
 ---------------------------------------------------------------------
                    Distance matrix (angstroms):
                    1          2          3          4          5
     1  O    0.000000
     2  C    1.385729   0.000000
     3  C    2.486770   1.520876   0.000000
     4  C    2.508861   1.524634   1.505238   0.000000
     5  C    3.826287   2.651940   2.627041   1.530966   0.000000
     6  C    4.133391   2.941054   3.416241   2.571354   1.537464
     7  C    3.770641   2.561403   3.119737   2.933030   2.554123
     8  C    2.404390   1.487964   2.595979   2.581975   2.997934
     9  O    2.645820   2.335885   3.594439   3.653505   4.151229
    10  H    0.971686   1.876033   3.164365   3.239001   4.367437
    11  H    3.393908   2.262060   1.085526   2.239315   2.813455
    12  H    2.612969   2.196844   1.083977   2.230528   3.537140
    13  H    2.626267   2.187623   2.197330   1.085205   2.237285
    14  H    4.549761   3.287134   2.760319   2.153774   1.097644
    15  H    4.397522   3.434855   3.490223   2.155727   1.094436
    16  H    5.221294   3.992861   4.277357   3.498330   2.173233
    17  H    4.098118   3.176630   4.017647   2.953439   2.168149
    18  H    4.218889   2.912697   2.939085   3.152748   2.781209
    19  H    4.507355   3.459524   4.158145   3.980603   3.512954
                    6          7          8          9         10
     6  C    0.000000
     7  C    1.543894   0.000000
     8  C    2.480690   1.513118   0.000000
     9  O    3.462814   2.411259   1.218269   0.000000
    10  H    4.346487   3.757498   2.261165   2.036982   0.000000
    11  H    3.412876   2.908989   2.804936   3.846049   3.903578
    12  H    4.462136   4.170852   3.456859   4.281233   3.393149
    13  H    3.412628   3.950981   3.441430   4.364989   3.494654
    14  H    2.163829   2.940201   3.619063   4.827694   5.127521
    15  H    2.158621   3.479936   3.876522   4.942785   4.986372
    16  H    1.094855   2.175588   3.435207   4.354888   5.418239
    17  H    1.096785   2.157400   2.678873   3.396280   4.208496
    18  H    2.176793   1.097443   2.156482   3.098287   4.308541
    19  H    2.201094   1.092193   2.123559   2.527144   4.286924
                   11         12         13         14         15
    11  H    0.000000
    12  H    1.831549   0.000000
    13  H    3.103730   2.475109   0.000000
    14  H    2.597579   3.625838   2.871929   0.000000
    15  H    3.810927   4.253537   2.381804   1.753031   0.000000
    16  H    4.079345   5.333466   4.310888   2.407920   2.568829
    17  H    4.235879   4.990376   3.570690   3.052525   2.402971
    18  H    2.358907   3.965719   4.236494   2.753279   3.820090
    19  H    3.898964   5.181540   4.959100   3.894800   4.328029
                   16         17         18         19
    16  H    0.000000
    17  H    1.757359   0.000000
    18  H    2.543471   3.068428   0.000000
    19  H    2.510669   2.526913   1.770697   0.000000
 Stoichiometry    C7H10O2
 Framework group  C1[X(C7H10O2)]
 Deg. of freedom    51
 Full point group                 C1      NOp   1
 Largest Abelian subgroup         C1      NOp   1
 Largest concise Abelian subgroup C1      NOp   1
                         Standard orientation:                         
 ---------------------------------------------------------------------
 Center     Atomic      Atomic             Coordinates (Angstroms)
 Number     Number       Type             X           Y           Z
 ---------------------------------------------------------------------
      1          8           0       -2.034348   -0.683235   -0.618748
      2          6           0       -0.817301   -0.446544    0.000137
      3          6           0       -0.364689   -1.434695    1.063981
      4          6           0        0.343976   -1.398612   -0.263510
      5          6           0        1.777774   -0.868395   -0.346869
      6          6           0        1.869740    0.663177   -0.444978
      7          6           0        0.911694    1.363795    0.542388
      8          6           0       -0.509365    0.999004    0.172194
      9          8           0       -1.373110    1.820907   -0.078006
     10          1           0       -2.445332    0.195405   -0.675819
     11          1           0        0.156890   -1.071060    1.943806
     12          1           0       -1.068060   -2.239466    1.244593
     13          1           0        0.083640   -2.201251   -0.945908
     14          1           0        2.335106   -1.208876    0.535331
     15          1           0        2.277083   -1.312377   -1.213679
     16          1           0        2.898134    0.991909   -0.263182
     17          1           0        1.613229    0.983681   -1.462041
     18          1           0        1.133768    1.042943    1.568117
     19          1           0        1.004228    2.451338    0.502747
 ---------------------------------------------------------------------
 Rotational constants (GHZ):      2.2500527      1.8495160      1.2198121
 Standard basis: 6-31G(2df,p) (6D, 7F)
 There are   329 symmetry adapted cartesian basis functions of A   symmetry.
 There are   302 symmetry adapted basis functions of A   symmetry.
   302 basis functions,   466 primitive gaussians,   329 cartesian basis functions
    34 alpha electrons       34 beta electrons
       nuclear repulsion energy       469.9592165636 Hartrees.
 NAtoms=   19 NActive=   19 NUniq=   19 SFac= 1.00D+00 NAtFMM=   60 NAOKFM=F Big=F
 Integral buffers will be    131072 words long.
 Raffenetti 2 integral format.
 Two-electron integral symmetry is turned on.
 One-electron integrals computed using PRISM.
 NBasis=   302 RedAO= T EigKep=  4.95D-04  NBF=   302
 NBsUse=   302 1.00D-06 EigRej= -1.00D+00 NBFU=   302
 ExpMin= 1.61D-01 ExpMax= 5.48D+03 ExpMxC= 8.25D+02 IAcc=1 IRadAn=         1 AccDes= 0.00D+00
 Harris functional with IExCor=  402 and IRadAn=       1 diagonalized for initial guess.
 HarFok:  IExCor=  402 AccDes= 0.00D+00 IRadAn=         1 IDoV= 1 UseB2=F ITyADJ=14
 ICtDFT=  3500011 ScaDFX=  1.000000  1.000000  1.000000  1.000000
 FoFCou: FMM=F IPFlag=           0 FMFlag=      100000 FMFlg1=           0
         NFxFlg=           0 DoJE=T BraDBF=F KetDBF=T FulRan=T
         wScrn=  0.000000 ICntrl=     500 IOpCl=  0 I1Cent=   200000004 NGrid=           0
         NMat0=    1 NMatS0=      1 NMatT0=    0 NMatD0=    1 NMtDS0=    0 NMtDT0=    0
 Petite list used in FoFCou.
 Requested convergence on RMS density matrix=1.00D-08 within 128 cycles.
 Requested convergence on MAX density matrix=1.00D-06.
 Requested convergence on             energy=1.00D-06.
 No special actions if energy rises.
 Integral accuracy reduced to 1.0D-05 until final iterations.
 Initial convergence to 1.0D-05 achieved.  Increase integral accuracy.
 SCF Done:  E(RB3LYP) =  -423.212782172     A.U. after   14 cycles
            NFock= 14  Conv=0.34D-08     -V/T= 2.0075

 **********************************************************************

            Population analysis using the SCF density.

 **********************************************************************

 Orbital symmetries:
       Occupied  (A) (A) (A) (A) (A) (A) (A) (A) (A) (A) (A) (A)
                 (A) (A) (A) (A) (A) (A) (A) (A) (A) (A) (A) (A)
                 (A) (A) (A) (A) (A) (A) (A) (A) (A) (A)
       Virtual   (A) (A) (A) (A) (A) (A) (A) (A) (A) (A) (A) (A)
                 (A) (A) (A) (A) (A) (A) (A) (A) (A) (A) (A) (A)
                 (A) (A) (A) (A) (A) (A) (A) (A) (A) (A) (A) (A)
                 (A) (A) (A) (A) (A) (A) (A) (A) (A) (A) (A) (A)
                 (A) (A) (A) (A) (A) (A) (A) (A) (A) (A) (A) (A)
                 (A) (A) (A) (A) (A) (A) (A) (A) (A) (A) (A) (A)
                 (A) (A) (A) (A) (A) (A) (A) (A) (A) (A) (A) (A)
                 (A) (A) (A) (A) (A) (A) (A) (A) (A) (A) (A) (A)
                 (A) (A) (A) (A) (A) (A) (A) (A) (A) (A) (A) (A)
                 (A) (A) (A) (A) (A) (A) (A) (A) (A) (A) (A) (A)
                 (A) (A) (A) (A) (A) (A) (A) (A) (A) (A) (A) (A)
                 (A) (A) (A) (A) (A) (A) (A) (A) (A) (A) (A) (A)
                 (A) (A) (A) (A) (A) (A) (A) (A) (A) (A) (A) (A)
                 (A) (A) (A) (A) (A) (A) (A) (A) (A) (A) (A) (A)
                 (A) (A) (A) (A) (A) (A) (A) (A) (A) (A) (A) (A)
                 (A) (A) (A) (A) (A) (A) (A) (A) (A) (A) (A) (A)
                 (A) (A) (A) (A) (A) (A) (A) (A) (A) (A) (A) (A)
                 (A) (A) (A) (A) (A) (A) (A) (A) (A) (A) (A) (A)
                 (A) (A) (A) (A) (A) (A) (A) (A) (A) (A) (A) (A)
                 (A) (A) (A) (A) (A) (A) (A) (A) (A) (A) (A) (A)
                 (A) (A) (A) (A) (A) (A) (A) (A) (A) (A) (A) (A)
                 (A) (A) (A) (A) (A) (A) (A) (A) (A) (A) (A) (A)
                 (A) (A) (A) (A)
 The electronic state is 1-A.
 Alpha  occ. eigenvalues --  -19.13579 -19.13578 -10.27070 -10.24672 -10.20380
 Alpha  occ. eigenvalues --  -10.20013 -10.19855 -10.19725 -10.19596  -1.05621
 Alpha  occ. eigenvalues --   -1.01669  -0.87324  -0.79749  -0.73314  -0.64436
 Alpha  occ. eigenvalues --   -0.62284  -0.59255  -0.54106  -0.51009  -0.48533
 Alpha  occ. eigenvalues --   -0.46170  -0.44834  -0.44122  -0.42748  -0.40772
 Alpha  occ. eigenvalues --   -0.39925  -0.36778  -0.36180  -0.35435  -0.34513
 Alpha  occ. eigenvalues --   -0.33110  -0.30369  -0.25312  -0.24090
 Alpha virt. eigenvalues --   -0.01948   0.07687   0.08474   0.10738   0.12297
 Alpha virt. eigenvalues --    0.13342   0.14626   0.15268   0.16432   0.16793
 Alpha virt. eigenvalues --    0.18056   0.18794   0.20392   0.21261   0.24006
 Alpha virt. eigenvalues --    0.25700   0.26973   0.27270   0.30423   0.34228
 Alpha virt. eigenvalues --    0.37405   0.41781   0.44058   0.46262   0.48028
 Alpha virt. eigenvalues --    0.49080   0.49321   0.51061   0.52366   0.53529
 Alpha virt. eigenvalues --    0.54683   0.56268   0.57420   0.59686   0.60655
 Alpha virt. eigenvalues --    0.61755   0.61832   0.64169   0.66359   0.67617
 Alpha virt. eigenvalues --    0.69103   0.70447   0.72204   0.73016   0.73930
 Alpha virt. eigenvalues --    0.75824   0.77443   0.77673   0.79673   0.81084
 Alpha virt. eigenvalues --    0.81774   0.83094   0.84166   0.86618   0.88745
 Alpha virt. eigenvalues --    0.91066   0.92031   0.93534   0.95967   0.98911
 Alpha virt. eigenvalues --    1.00075   1.03652   1.04536   1.06750   1.09015
 Alpha virt. eigenvalues --    1.13373   1.15269   1.16542   1.19065   1.21548
 Alpha virt. eigenvalues --    1.22821   1.25157   1.28121   1.29102   1.32378
 Alpha virt. eigenvalues --    1.33039   1.35144   1.35952   1.39288   1.39653
 Alpha virt. eigenvalues --    1.41410   1.42433   1.45155   1.45711   1.47468
 Alpha virt. eigenvalues --    1.49940   1.52927   1.54245   1.56151   1.57854
 Alpha virt. eigenvalues --    1.60098   1.61275   1.64929   1.65589   1.66801
 Alpha virt. eigenvalues --    1.71564   1.73641   1.74730   1.76836   1.79947
 Alpha virt. eigenvalues --    1.82963   1.84806   1.86476   1.91526   1.92893
 Alpha virt. eigenvalues --    1.95673   1.96861   2.06455   2.07852   2.11589
 Alpha virt. eigenvalues --    2.16018   2.19952   2.22853   2.24337   2.28306
 Alpha virt. eigenvalues --    2.30684   2.32561   2.35002   2.37320   2.42376
 Alpha virt. eigenvalues --    2.44323   2.47281   2.49483   2.55271   2.59253
 Alpha virt. eigenvalues --    2.64581   2.67242   2.68216   2.69820   2.71913
 Alpha virt. eigenvalues --    2.74653   2.75856   2.80984   2.81794   2.82934
 Alpha virt. eigenvalues --    2.84999   2.89062   2.89395   2.90655   2.93307
 Alpha virt. eigenvalues --    2.96075   2.97620   3.01192   3.03146   3.05888
 Alpha virt. eigenvalues --    3.07463   3.08328   3.11493   3.14283   3.16739
 Alpha virt. eigenvalues --    3.17392   3.19608   3.21191   3.25627   3.27194
 Alpha virt. eigenvalues --    3.28672   3.31749   3.32785   3.33623   3.38188
 Alpha virt. eigenvalues --    3.39463   3.41425   3.42307   3.47454   3.51883
 Alpha virt. eigenvalues --    3.54216   3.55828   3.59378   3.60673   3.65276
 Alpha virt. eigenvalues --    3.68423   3.73001   3.75170   3.77610   3.79440
 Alpha virt. eigenvalues --    3.81257   3.84420   3.86559   3.91540   3.95114
 Alpha virt. eigenvalues --    3.99271   4.02195   4.06893   4.11113   4.12579
 Alpha virt. eigenvalues --    4.14695   4.16772   4.19218   4.21069   4.24149
 Alpha virt. eigenvalues --    4.28451   4.30509   4.35484   4.37303   4.38210
 Alpha virt. eigenvalues --    4.39335   4.42426   4.44543   4.46428   4.50112
 Alpha virt. eigenvalues --    4.50976   4.54702   4.56717   4.59556   4.60554
 Alpha virt. eigenvalues --    4.62554   4.65762   4.66632   4.68279   4.70777
 Alpha virt. eigenvalues --    4.72337   4.72890   4.74373   4.75393   4.77146
 Alpha virt. eigenvalues --    4.78807   4.80882   4.82607   4.83134   4.84914
 Alpha virt. eigenvalues --    4.88088   4.89263   4.91495   4.93694   4.94547
 Alpha virt. eigenvalues --    4.97457   5.01625   5.06401   5.07925   5.09838
 Alpha virt. eigenvalues --    5.10944   5.13694   5.27140   5.31797   5.33579
 Alpha virt. eigenvalues --    5.38359   5.40378   5.44284   5.46831   5.48130
 Alpha virt. eigenvalues --    5.49182   5.53464   5.55956   5.59134   5.64783
 Alpha virt. eigenvalues --    5.67919   5.71553   5.81128   5.92845   5.97685
 Alpha virt. eigenvalues --    6.03669   6.09334   6.20268   6.23661   6.42997
 Alpha virt. eigenvalues --    6.50155   6.81566   6.97778   7.19472  10.76344
 Alpha virt. eigenvalues --   11.41381  11.49084  12.21011  12.39226  12.41255
 Alpha virt. eigenvalues --   12.66843  13.16089  13.55025
          Condensed to atoms (all electrons):
               1          2          3          4          5          6
     1  O    7.843860   0.433860  -0.027385  -0.033531   0.001288  -0.000052
     2  C    0.433860   4.677489   0.235227   0.299768  -0.021404  -0.002449
     3  C   -0.027385   0.235227   5.197795   0.256574  -0.000763  -0.002426
     4  C   -0.033531   0.299768   0.256574   4.940268   0.382989  -0.025398
     5  C    0.001288  -0.021404  -0.000763   0.382989   4.879732   0.411009
     6  C   -0.000052  -0.002449  -0.002426  -0.025398   0.411009   4.842804
     7  C    0.003504  -0.088035   0.006704  -0.022364  -0.024344   0.373523
     8  C   -0.042488   0.337900  -0.010380  -0.006375  -0.011948  -0.017163
     9  O   -0.016296  -0.086741  -0.000288   0.001889   0.000307  -0.001413
    10  H    0.315420  -0.100933   0.005797   0.006279  -0.000209  -0.000098
    11  H    0.001395  -0.020890   0.362937  -0.014873  -0.011796  -0.000108
    12  H   -0.000479  -0.001230   0.357434  -0.014725   0.001787   0.000046
    13  H   -0.000044  -0.023237  -0.027006   0.370595  -0.041155   0.003291
    14  H   -0.000043  -0.000062  -0.013566  -0.022411   0.356136  -0.033122
    15  H    0.000000   0.001936   0.003403  -0.024882   0.363435  -0.028096
    16  H    0.000000   0.000490  -0.000231   0.003782  -0.026659   0.363648
    17  H   -0.000095   0.001258   0.000004  -0.001614  -0.032450   0.374293
    18  H   -0.000024  -0.001329   0.000403  -0.001261  -0.004377  -0.031421
    19  H   -0.000048   0.003753  -0.000086   0.000238   0.003147  -0.020742
               7          8          9         10         11         12
     1  O    0.003504  -0.042488  -0.016296   0.315420   0.001395  -0.000479
     2  C   -0.088035   0.337900  -0.086741  -0.100933  -0.020890  -0.001230
     3  C    0.006704  -0.010380  -0.000288   0.005797   0.362937   0.357434
     4  C   -0.022364  -0.006375   0.001889   0.006279  -0.014873  -0.014725
     5  C   -0.024344  -0.011948   0.000307  -0.000209  -0.011796   0.001787
     6  C    0.373523  -0.017163  -0.001413  -0.000098  -0.000108   0.000046
     7  C    5.167565   0.337310  -0.063350   0.002602   0.001075  -0.000341
     8  C    0.337310   4.331891   0.773112   0.001229  -0.005285   0.001458
     9  O   -0.063350   0.773112   7.704051   0.042471   0.000191  -0.000028
    10  H    0.002602   0.001229   0.042471   0.435777   0.000011  -0.000147
    11  H    0.001075  -0.005285   0.000191   0.000011   0.593196  -0.033369
    12  H   -0.000341   0.001458  -0.000028  -0.000147  -0.033369   0.562615
    13  H   -0.000211   0.002522  -0.000032  -0.000126   0.002881  -0.006562
    14  H   -0.005017   0.000508  -0.000003   0.000005   0.005617   0.000275
    15  H    0.003889   0.000538   0.000000  -0.000003   0.000104  -0.000116
    16  H   -0.025411   0.001430  -0.000040   0.000003  -0.000013   0.000005
    17  H   -0.039820  -0.002695   0.000659  -0.000014   0.000044   0.000006
    18  H    0.347192  -0.016359   0.001700  -0.000052   0.004119   0.000098
    19  H    0.342490  -0.011059   0.002484  -0.000087  -0.000110   0.000000
              13         14         15         16         17         18
     1  O   -0.000044  -0.000043   0.000000   0.000000  -0.000095  -0.000024
     2  C   -0.023237  -0.000062   0.001936   0.000490   0.001258  -0.001329
     3  C   -0.027006  -0.013566   0.003403  -0.000231   0.000004   0.000403
     4  C    0.370595  -0.022411  -0.024882   0.003782  -0.001614  -0.001261
     5  C   -0.041155   0.356136   0.363435  -0.026659  -0.032450  -0.004377
     6  C    0.003291  -0.033122  -0.028096   0.363648   0.374293  -0.031421
     7  C   -0.000211  -0.005017   0.003889  -0.025411  -0.039820   0.347192
     8  C    0.002522   0.000508   0.000538   0.001430  -0.002695  -0.016359
     9  O   -0.000032  -0.000003   0.000000  -0.000040   0.000659   0.001700
    10  H   -0.000126   0.000005  -0.000003   0.000003  -0.000014  -0.000052
    11  H    0.002881   0.005617   0.000104  -0.000013   0.000044   0.004119
    12  H   -0.006562   0.000275  -0.000116   0.000005   0.000006   0.000098
    13  H    0.614220   0.003535  -0.008818  -0.000168   0.000103   0.000004
    14  H    0.003535   0.637170  -0.038267  -0.005655   0.005808   0.003752
    15  H   -0.008818  -0.038267   0.623041   0.000519  -0.006765  -0.000021
    16  H   -0.000168  -0.005655   0.000519   0.626570  -0.037158  -0.003283
    17  H    0.000103   0.005808  -0.006765  -0.037158   0.618022   0.005883
    18  H    0.000004   0.003752  -0.000021  -0.003283   0.005883   0.606048
    19  H    0.000016  -0.000062  -0.000157  -0.003372  -0.001985  -0.031019
              19
     1  O   -0.000048
     2  C    0.003753
     3  C   -0.000086
     4  C    0.000238
     5  C    0.003147
     6  C   -0.020742
     7  C    0.342490
     8  C   -0.011059
     9  O    0.002484
    10  H   -0.000087
    11  H   -0.000110
    12  H    0.000000
    13  H    0.000016
    14  H   -0.000062
    15  H   -0.000157
    16  H   -0.003372
    17  H   -0.001985
    18  H   -0.031019
    19  H    0.590759
 Mulliken charges:
               1
     1  O   -0.478842
     2  C    0.354630
     3  C   -0.344146
     4  C   -0.094946
     5  C   -0.224723
     6  C   -0.206124
     7  C   -0.316960
     8  C    0.335857
     9  O   -0.358671
    10  H    0.292077
    11  H    0.114877
    12  H    0.133275
    13  H    0.110192
    14  H    0.105401
    15  H    0.110260
    16  H    0.105542
    17  H    0.116517
    18  H    0.119947
    19  H    0.125839
 Sum of Mulliken charges =   0.00000
 Mulliken charges with hydrogens summed into heavy atoms:
               1
     1  O   -0.186765
     2  C    0.354630
     3  C   -0.095995
     4  C    0.015246
     5  C   -0.009062
     6  C    0.015935
     7  C   -0.071175
     8  C    0.335857
     9  O   -0.358671
 Electronic spatial extent (au):  <R**2>=           1056.3526
 Charge=              0.0000 electrons
 Dipole moment (field-independent basis, Debye):
    X=              2.8659    Y=             -0.8249    Z=              0.7659  Tot=              3.0790
 Quadrupole moment (field-independent basis, Debye-Ang):
   XX=            -54.6783   YY=            -56.2922   ZZ=            -51.7157
   XY=              1.7555   XZ=             -0.8796   YZ=             -0.2681
 Traceless Quadrupole moment (field-independent basis, Debye-Ang):
   XX=             -0.4496   YY=             -2.0635   ZZ=              2.5130
   XY=              1.7555   XZ=             -0.8796   YZ=             -0.2681
 Octapole moment (field-independent basis, Debye-Ang**2):
  XXX=             -9.1768  YYY=             -6.0958  ZZZ=             -1.5576  XYY=              4.7824
  XXY=              3.9383  XXZ=             -1.1735  XZZ=             -2.6332  YZZ=              1.7971
  YYZ=             -0.5177  XYZ=              3.6028
 Hexadecapole moment (field-independent basis, Debye-Ang**3):
 XXXX=           -622.1846 YYYY=           -532.5427 ZZZZ=           -172.7135 XXXY=            -13.4662
 XXXZ=              9.5245 YYYX=             22.0125 YYYZ=              5.9924 ZZZX=              5.7674
 ZZZY=              0.1691 XXYY=           -207.7126 XXZZ=           -133.8533 YYZZ=           -113.7971
 XXYZ=             -4.8070 YYXZ=             -4.0605 ZZXY=             -4.2192
 N-N= 4.699592165636D+02 E-N=-1.926507556474D+03  KE= 4.200639277304D+02
 Calling FoFJK, ICntrl=      2127 FMM=F ISym2X=0 I1Cent= 0 IOpClX= 0 NMat=1 NMatS=1 NMatT=0.
 ***** Axes restored to original set *****
 -------------------------------------------------------------------
 Center     Atomic                   Forces (Hartrees/Bohr)
 Number     Number              X              Y              Z
 -------------------------------------------------------------------
      1        8          -0.000034337   -0.000012157    0.000023162
      2        6           0.000054218   -0.000067619   -0.000054688
      3        6          -0.000045443    0.000026999    0.000042096
      4        6           0.000026245    0.000033791    0.000009016
      5        6           0.000008665    0.000030366    0.000009906
      6        6          -0.000011384   -0.000001391   -0.000000543
      7        6           0.000019325    0.000026488    0.000022920
      8        6          -0.000011536   -0.000001488    0.000011069
      9        8          -0.000012736   -0.000002418    0.000012225
     10        1           0.000026831    0.000015121   -0.000008308
     11        1          -0.000002543    0.000009564   -0.000013768
     12        1           0.000007950    0.000004238   -0.000007478
     13        1          -0.000008185   -0.000013019   -0.000022771
     14        1          -0.000014289    0.000004282   -0.000008994
     15        1           0.000000279   -0.000008279   -0.000012754
     16        1           0.000004534   -0.000006618    0.000000673
     17        1           0.000008576   -0.000004167   -0.000000556
     18        1          -0.000003414   -0.000011250   -0.000003905
     19        1          -0.000012758   -0.000022442    0.000002698
 -------------------------------------------------------------------
 Cartesian Forces:  Max     0.000067619 RMS     0.000021342

 GradGradGradGradGradGradGradGradGradGradGradGradGradGradGradGradGradGrad
 Berny optimization.
 FormGI is forming the generalized inverse of G from B-inverse, IUseBI=4.
 Internal  Forces:  Max     0.000051610 RMS     0.000010151
 Search for a local minimum.
 Step number   1 out of a maximum of  114
 All quantities printed in internal units (Hartrees-Bohrs-Radians)
 Mixed Optimization -- En-DIIS/RFO-DIIS
 Second derivative matrix not updated -- first step.
 ITU=  0
     Eigenvalues ---    0.00437   0.00732   0.00843   0.01463   0.01787
     Eigenvalues ---    0.01881   0.02420   0.02919   0.03029   0.03214
     Eigenvalues ---    0.03424   0.04362   0.04760   0.05167   0.05882
     Eigenvalues ---    0.06028   0.07251   0.08173   0.08521   0.08820
     Eigenvalues ---    0.09661   0.10196   0.10767   0.12016   0.13760
     Eigenvalues ---    0.15170   0.16000   0.17963   0.18480   0.20128
     Eigenvalues ---    0.22897   0.24209   0.24892   0.27355   0.28065
     Eigenvalues ---    0.28711   0.30343   0.30665   0.32972   0.33944
     Eigenvalues ---    0.33966   0.34040   0.34258   0.34305   0.34560
     Eigenvalues ---    0.35335   0.35373   0.35518   0.48070   0.53034
     Eigenvalues ---    0.96154
 RFO step:  Lambda=-9.22805349D-08 EMin= 4.36859268D-03
 Linear search not attempted -- first point.
 Iteration  1 RMS(Cart)=  0.00017787 RMS(Int)=  0.00000002
 Iteration  2 RMS(Cart)=  0.00000002 RMS(Int)=  0.00000001
 Variable       Old X    -DE/DX   Delta X   Delta X   Delta X     New X
                                 (Linear)    (Quad)   (Total)
    R1        2.61865   0.00000   0.00000  -0.00001  -0.00001   2.61864
    R2        1.83622   0.00002   0.00000   0.00003   0.00003   1.83625
    R3        2.87404   0.00003   0.00000   0.00016   0.00016   2.87420
    R4        2.88114   0.00000   0.00000  -0.00004  -0.00004   2.88110
    R5        2.81184  -0.00001   0.00000  -0.00001  -0.00001   2.81183
    R6        2.84449   0.00001   0.00000   0.00001   0.00001   2.84450
    R7        2.05135  -0.00001   0.00000  -0.00003  -0.00003   2.05132
    R8        2.04842   0.00000   0.00000   0.00000   0.00000   2.04842
    R9        2.89311   0.00000   0.00000  -0.00003  -0.00003   2.89307
   R10        2.05074   0.00000   0.00000   0.00000   0.00000   2.05075
   R11        2.90539   0.00001   0.00000   0.00004   0.00004   2.90543
   R12        2.07425   0.00001   0.00000   0.00002   0.00002   2.07426
   R13        2.06818   0.00001   0.00000   0.00002   0.00002   2.06820
   R14        2.91754   0.00001   0.00000   0.00003   0.00003   2.91756
   R15        2.06898   0.00000   0.00000   0.00001   0.00001   2.06899
   R16        2.07262   0.00001   0.00000   0.00002   0.00002   2.07264
   R17        2.85938  -0.00001   0.00000   0.00000   0.00000   2.85937
   R18        2.07387  -0.00001   0.00000  -0.00002  -0.00002   2.07385
   R19        2.06395   0.00001   0.00000   0.00003   0.00003   2.06397
   R20        2.30219  -0.00001   0.00000  -0.00001  -0.00001   2.30218
    A1        1.81652   0.00005   0.00000   0.00032   0.00032   1.81684
    A2        2.05195  -0.00003   0.00000  -0.00023  -0.00023   2.05172
    A3        2.07724  -0.00003   0.00000  -0.00012  -0.00012   2.07712
    A4        1.98159   0.00002   0.00000   0.00013   0.00013   1.98172
    A5        2.08143   0.00001   0.00000   0.00004   0.00004   2.08147
    A6        2.05898   0.00001   0.00000   0.00011   0.00011   2.05909
    A7        2.08551  -0.00001   0.00000  -0.00002  -0.00002   2.08549
    A8        1.98867   0.00001   0.00000  -0.00006  -0.00006   1.98860
    A9        2.07208   0.00001   0.00000  -0.00001  -0.00001   2.07207
   A10        2.06035   0.00000   0.00000   0.00006   0.00006   2.06042
   A11        2.01024   0.00000   0.00000   0.00003   0.00003   2.01027
   A12        2.10190  -0.00001   0.00000  -0.00006  -0.00006   2.10184
   A13        1.96912   0.00001   0.00000   0.00010   0.00010   1.96923
   A14        2.09121   0.00000   0.00000   0.00003   0.00003   2.09124
   A15        2.00853   0.00000   0.00000   0.00011   0.00011   2.00864
   A16        2.03374  -0.00001   0.00000  -0.00013  -0.00013   2.03361
   A17        1.98722   0.00000   0.00000  -0.00002  -0.00002   1.98721
   A18        1.90111   0.00000   0.00000   0.00008   0.00008   1.90118
   A19        1.90699   0.00001   0.00000   0.00003   0.00003   1.90702
   A20        1.90701   0.00000   0.00000   0.00009   0.00009   1.90711
   A21        1.90317  -0.00001   0.00000  -0.00011  -0.00011   1.90306
   A22        1.85363   0.00000   0.00000  -0.00007  -0.00007   1.85356
   A23        1.95426   0.00001   0.00000   0.00007   0.00007   1.95433
   A24        1.92271   0.00001   0.00000   0.00008   0.00008   1.92278
   A25        1.91377   0.00000   0.00000  -0.00002  -0.00002   1.91375
   A26        1.91816  -0.00001   0.00000  -0.00004  -0.00004   1.91812
   A27        1.89158   0.00000   0.00000  -0.00006  -0.00006   1.89151
   A28        1.86076   0.00000   0.00000  -0.00004  -0.00004   1.86072
   A29        1.89327  -0.00001   0.00000   0.00000   0.00000   1.89327
   A30        1.91718   0.00000   0.00000  -0.00002  -0.00002   1.91716
   A31        1.95636  -0.00001   0.00000  -0.00014  -0.00014   1.95622
   A32        1.92648   0.00001   0.00000   0.00011   0.00011   1.92659
   A33        1.88678   0.00002   0.00000   0.00013   0.00013   1.88690
   A34        1.88378   0.00000   0.00000  -0.00008  -0.00008   1.88370
   A35        2.04526   0.00001   0.00000   0.00007   0.00007   2.04533
   A36        2.07709  -0.00001   0.00000  -0.00006  -0.00006   2.07703
   A37        2.15731   0.00000   0.00000  -0.00002  -0.00002   2.15728
    D1        2.41362   0.00001   0.00000   0.00017   0.00017   2.41379
    D2       -2.67796  -0.00001   0.00000   0.00002   0.00002  -2.67794
    D3       -0.13407   0.00000   0.00000   0.00025   0.00025  -0.13382
    D4       -2.48967  -0.00001   0.00000  -0.00008  -0.00008  -2.48975
    D5       -0.01473  -0.00001   0.00000  -0.00014  -0.00014  -0.01487
    D6        0.02326   0.00000   0.00000  -0.00013  -0.00013   0.02313
    D7        2.49820   0.00000   0.00000  -0.00020  -0.00020   2.49801
    D8        2.51707   0.00001   0.00000   0.00015   0.00015   2.51722
    D9        0.00364   0.00002   0.00000   0.00033   0.00033   0.00397
   D10       -0.00068  -0.00001   0.00000  -0.00009  -0.00009  -0.00077
   D11       -2.51411   0.00001   0.00000   0.00009   0.00009  -2.51401
   D12       -2.90515   0.00000   0.00000   0.00016   0.00016  -2.90499
   D13        0.14958   0.00000   0.00000  -0.00003  -0.00003   0.14955
   D14        0.84125   0.00001   0.00000   0.00034   0.00034   0.84158
   D15       -2.38721   0.00000   0.00000   0.00015   0.00015  -2.38707
   D16       -0.35456   0.00000   0.00000   0.00030   0.00030  -0.35426
   D17        2.70017   0.00000   0.00000   0.00011   0.00011   2.70028
   D18        0.01052   0.00001   0.00000  -0.00001  -0.00001   0.01051
   D19        2.57225   0.00000   0.00000  -0.00006  -0.00006   2.57220
   D20       -2.56061   0.00000   0.00000  -0.00018  -0.00018  -2.56080
   D21        0.00112  -0.00001   0.00000  -0.00023  -0.00023   0.00089
   D22       -0.21541   0.00000   0.00000  -0.00010  -0.00010  -0.21551
   D23        1.91755   0.00001   0.00000   0.00006   0.00006   1.91761
   D24       -2.34776   0.00001   0.00000   0.00003   0.00003  -2.34772
   D25       -1.45356  -0.00001   0.00000  -0.00018  -0.00018  -1.45373
   D26        0.67940   0.00000   0.00000  -0.00001  -0.00001   0.67939
   D27        2.69728   0.00000   0.00000  -0.00004  -0.00004   2.69724
   D28        2.27595   0.00000   0.00000  -0.00021  -0.00021   2.27574
   D29       -1.87428   0.00000   0.00000  -0.00005  -0.00005  -1.87433
   D30        0.14360   0.00000   0.00000  -0.00007  -0.00007   0.14353
   D31        0.76785   0.00000   0.00000   0.00011   0.00011   0.76796
   D32        2.90811   0.00000   0.00000   0.00017   0.00017   2.90828
   D33       -1.33243   0.00000   0.00000   0.00016   0.00016  -1.33227
   D34       -1.36185   0.00000   0.00000  -0.00004  -0.00004  -1.36189
   D35        0.77841   0.00000   0.00000   0.00002   0.00002   0.77843
   D36        2.82106   0.00000   0.00000   0.00001   0.00001   2.82107
   D37        2.90230   0.00000   0.00000   0.00006   0.00006   2.90236
   D38       -1.24062   0.00000   0.00000   0.00011   0.00011  -1.24051
   D39        0.80203   0.00000   0.00000   0.00010   0.00010   0.80213
   D40       -1.09959   0.00000   0.00000   0.00013   0.00013  -1.09946
   D41        1.00749   0.00001   0.00000   0.00026   0.00026   1.00774
   D42        3.10161   0.00000   0.00000   0.00005   0.00005   3.10167
   D43        3.04075   0.00000   0.00000   0.00000   0.00000   3.04076
   D44       -1.13536   0.00000   0.00000   0.00013   0.00013  -1.13523
   D45        0.95877  -0.00001   0.00000  -0.00007  -0.00007   0.95870
   D46        1.01356   0.00000   0.00000   0.00011   0.00011   1.01367
   D47        3.12064   0.00001   0.00000   0.00023   0.00023   3.12087
   D48       -1.06842   0.00000   0.00000   0.00003   0.00003  -1.06839
   D49        0.88976   0.00000   0.00000  -0.00036  -0.00036   0.88940
   D50       -2.16061   0.00000   0.00000  -0.00016  -0.00016  -2.16077
   D51       -1.21154   0.00000   0.00000  -0.00041  -0.00041  -1.21195
   D52        2.02127   0.00000   0.00000  -0.00021  -0.00021   2.02106
   D53        3.01494  -0.00001   0.00000  -0.00046  -0.00046   3.01448
   D54       -0.03543  -0.00001   0.00000  -0.00026  -0.00026  -0.03569
         Item               Value     Threshold  Converged?
 Maximum Force            0.000052     0.000450     YES
 RMS     Force            0.000010     0.000300     YES
 Maximum Displacement     0.000904     0.001800     YES
 RMS     Displacement     0.000178     0.001200     YES
 Predicted change in Energy=-4.614048D-08
 Optimization completed.
    -- Stationary point found.
                           ----------------------------
                           !   Optimized Parameters   !
                           ! (Angstroms and Degrees)  !
 --------------------------                            --------------------------
 ! Name  Definition              Value          Derivative Info.                !
 --------------------------------------------------------------------------------
 ! R1    R(1,2)                  1.3857         -DE/DX =    0.0                 !
 ! R2    R(1,10)                 0.9717         -DE/DX =    0.0                 !
 ! R3    R(2,3)                  1.5209         -DE/DX =    0.0                 !
 ! R4    R(2,4)                  1.5246         -DE/DX =    0.0                 !
 ! R5    R(2,8)                  1.488          -DE/DX =    0.0                 !
 ! R6    R(3,4)                  1.5052         -DE/DX =    0.0                 !
 ! R7    R(3,11)                 1.0855         -DE/DX =    0.0                 !
 ! R8    R(3,12)                 1.084          -DE/DX =    0.0                 !
 ! R9    R(4,5)                  1.531          -DE/DX =    0.0                 !
 ! R10   R(4,13)                 1.0852         -DE/DX =    0.0                 !
 ! R11   R(5,6)                  1.5375         -DE/DX =    0.0                 !
 ! R12   R(5,14)                 1.0976         -DE/DX =    0.0                 !
 ! R13   R(5,15)                 1.0944         -DE/DX =    0.0                 !
 ! R14   R(6,7)                  1.5439         -DE/DX =    0.0                 !
 ! R15   R(6,16)                 1.0949         -DE/DX =    0.0                 !
 ! R16   R(6,17)                 1.0968         -DE/DX =    0.0                 !
 ! R17   R(7,8)                  1.5131         -DE/DX =    0.0                 !
 ! R18   R(7,18)                 1.0974         -DE/DX =    0.0                 !
 ! R19   R(7,19)                 1.0922         -DE/DX =    0.0                 !
 ! R20   R(8,9)                  1.2183         -DE/DX =    0.0                 !
 ! A1    A(2,1,10)             104.0787         -DE/DX =    0.0001              !
 ! A2    A(1,2,3)              117.5679         -DE/DX =    0.0                 !
 ! A3    A(1,2,4)              119.0169         -DE/DX =    0.0                 !
 ! A4    A(1,2,8)              113.5369         -DE/DX =    0.0                 !
 ! A5    A(3,2,8)              119.2572         -DE/DX =    0.0                 !
 ! A6    A(4,2,8)              117.9708         -DE/DX =    0.0                 !
 ! A7    A(2,3,11)             119.491          -DE/DX =    0.0                 !
 ! A8    A(2,3,12)             113.9422         -DE/DX =    0.0                 !
 ! A9    A(4,3,11)             118.7216         -DE/DX =    0.0                 !
 ! A10   A(4,3,12)             118.0494         -DE/DX =    0.0                 !
 ! A11   A(11,3,12)            115.178          -DE/DX =    0.0                 !
 ! A12   A(2,4,5)              120.4298         -DE/DX =    0.0                 !
 ! A13   A(2,4,13)             112.8224         -DE/DX =    0.0                 !
 ! A14   A(3,4,5)              119.8176         -DE/DX =    0.0                 !
 ! A15   A(3,4,13)             115.0805         -DE/DX =    0.0                 !
 ! A16   A(5,4,13)             116.5247         -DE/DX =    0.0                 !
 ! A17   A(4,5,6)              113.8596         -DE/DX =    0.0                 !
 ! A18   A(4,5,14)             108.9254         -DE/DX =    0.0                 !
 ! A19   A(4,5,15)             109.2625         -DE/DX =    0.0                 !
 ! A20   A(6,5,14)             109.2639         -DE/DX =    0.0                 !
 ! A21   A(6,5,15)             109.0436         -DE/DX =    0.0                 !
 ! A22   A(14,5,15)            106.205          -DE/DX =    0.0                 !
 ! A23   A(5,6,7)              111.9706         -DE/DX =    0.0                 !
 ! A24   A(5,6,16)             110.1629         -DE/DX =    0.0                 !
 ! A25   A(5,6,17)             109.6508         -DE/DX =    0.0                 !
 ! A26   A(7,6,16)             109.9027         -DE/DX =    0.0                 !
 ! A27   A(7,6,17)             108.3793         -DE/DX =    0.0                 !
 ! A28   A(16,6,17)            106.6136         -DE/DX =    0.0                 !
 ! A29   A(6,7,8)              108.4765         -DE/DX =    0.0                 !
 ! A30   A(6,7,18)             109.8461         -DE/DX =    0.0                 !
 ! A31   A(6,7,19)             112.0912         -DE/DX =    0.0                 !
 ! A32   A(8,7,18)             110.379          -DE/DX =    0.0                 !
 ! A33   A(8,7,19)             108.1043         -DE/DX =    0.0                 !
 ! A34   A(18,7,19)            107.9325         -DE/DX =    0.0                 !
 ! A35   A(2,8,7)              117.1849         -DE/DX =    0.0                 !
 ! A36   A(2,8,9)              119.0086         -DE/DX =    0.0                 !
 ! A37   A(7,8,9)              123.6045         -DE/DX =    0.0                 !
 ! D1    D(10,1,2,3)           138.2901         -DE/DX =    0.0                 !
 ! D2    D(10,1,2,4)          -153.4359         -DE/DX =    0.0                 !
 ! D3    D(10,1,2,8)            -7.6817         -DE/DX =    0.0                 !
 ! D4    D(1,2,3,11)          -142.6478         -DE/DX =    0.0                 !
 ! D5    D(1,2,3,12)            -0.8441         -DE/DX =    0.0                 !
 ! D6    D(8,2,3,11)             1.3327         -DE/DX =    0.0                 !
 ! D7    D(8,2,3,12)           143.1364         -DE/DX =    0.0                 !
 ! D8    D(1,2,4,5)            144.2173         -DE/DX =    0.0                 !
 ! D9    D(1,2,4,13)             0.2085         -DE/DX =    0.0                 !
 ! D10   D(8,2,4,5)             -0.0388         -DE/DX =    0.0                 !
 ! D11   D(8,2,4,13)          -144.0476         -DE/DX =    0.0                 !
 ! D12   D(1,2,8,7)           -166.4528         -DE/DX =    0.0                 !
 ! D13   D(1,2,8,9)              8.5703         -DE/DX =    0.0                 !
 ! D14   D(3,2,8,7)             48.1998         -DE/DX =    0.0                 !
 ! D15   D(3,2,8,9)           -136.7771         -DE/DX =    0.0                 !
 ! D16   D(4,2,8,7)            -20.3148         -DE/DX =    0.0                 !
 ! D17   D(4,2,8,9)            154.7082         -DE/DX =    0.0                 !
 ! D18   D(11,3,4,5)             0.6028         -DE/DX =    0.0                 !
 ! D19   D(11,3,4,13)          147.3791         -DE/DX =    0.0                 !
 ! D20   D(12,3,4,5)          -146.7123         -DE/DX =    0.0                 !
 ! D21   D(12,3,4,13)            0.0641         -DE/DX =    0.0                 !
 ! D22   D(2,4,5,6)            -12.3419         -DE/DX =    0.0                 !
 ! D23   D(2,4,5,14)           109.8675         -DE/DX =    0.0                 !
 ! D24   D(2,4,5,15)          -134.5165         -DE/DX =    0.0                 !
 ! D25   D(3,4,5,6)            -83.2826         -DE/DX =    0.0                 !
 ! D26   D(3,4,5,14)            38.9268         -DE/DX =    0.0                 !
 ! D27   D(3,4,5,15)           154.5428         -DE/DX =    0.0                 !
 ! D28   D(13,4,5,6)           130.4023         -DE/DX =    0.0                 !
 ! D29   D(13,4,5,14)         -107.3883         -DE/DX =    0.0                 !
 ! D30   D(13,4,5,15)            8.2278         -DE/DX =    0.0                 !
 ! D31   D(4,5,6,7)             43.9943         -DE/DX =    0.0                 !
 ! D32   D(4,5,6,16)           166.6225         -DE/DX =    0.0                 !
 ! D33   D(4,5,6,17)           -76.3425         -DE/DX =    0.0                 !
 ! D34   D(14,5,6,7)           -78.0284         -DE/DX =    0.0                 !
 ! D35   D(14,5,6,16)           44.5998         -DE/DX =    0.0                 !
 ! D36   D(14,5,6,17)          161.6348         -DE/DX =    0.0                 !
 ! D37   D(15,5,6,7)           166.2895         -DE/DX =    0.0                 !
 ! D38   D(15,5,6,16)          -71.0824         -DE/DX =    0.0                 !
 ! D39   D(15,5,6,17)           45.9527         -DE/DX =    0.0                 !
 ! D40   D(5,6,7,8)            -63.0017         -DE/DX =    0.0                 !
 ! D41   D(5,6,7,18)            57.7247         -DE/DX =    0.0                 !
 ! D42   D(5,6,7,19)           177.7093         -DE/DX =    0.0                 !
 ! D43   D(16,6,7,8)           174.2224         -DE/DX =    0.0                 !
 ! D44   D(16,6,7,18)          -65.0513         -DE/DX =    0.0                 !
 ! D45   D(16,6,7,19)           54.9334         -DE/DX =    0.0                 !
 ! D46   D(17,6,7,8)            58.0729         -DE/DX =    0.0                 !
 ! D47   D(17,6,7,18)          178.7993         -DE/DX =    0.0                 !
 ! D48   D(17,6,7,19)          -61.2161         -DE/DX =    0.0                 !
 ! D49   D(6,7,8,2)             50.9798         -DE/DX =    0.0                 !
 ! D50   D(6,7,8,9)           -123.7936         -DE/DX =    0.0                 !
 ! D51   D(18,7,8,2)           -69.4161         -DE/DX =    0.0                 !
 ! D52   D(18,7,8,9)           115.8105         -DE/DX =    0.0                 !
 ! D53   D(19,7,8,2)           172.7433         -DE/DX =    0.0                 !
 ! D54   D(19,7,8,9)            -2.0301         -DE/DX =    0.0                 !
 --------------------------------------------------------------------------------
 GradGradGradGradGradGradGradGradGradGradGradGradGradGradGradGradGradGrad

                          Input orientation:                          
 ---------------------------------------------------------------------
 Center     Atomic      Atomic             Coordinates (Angstroms)
 Number     Number       Type             X           Y           Z
 ---------------------------------------------------------------------
      1          8           0       -0.224217    2.490091   -0.272944
      2          6           0       -0.939516    1.352964    0.066956
      3          6           0       -2.075383    1.508446    1.066303
      4          6           0       -2.392467    1.232386   -0.379031
      5          6           0       -2.968460   -0.126481   -0.785930
      6          6           0       -1.904703   -1.218697   -0.984125
      7          6           0       -0.847000   -1.205713    0.140466
      8          6           0       -0.112462    0.116292    0.092675
      9          8           0        1.097008    0.212020   -0.017762
     10          1           0        0.700149    2.191131   -0.291476
     11          1           0       -2.254083    0.726817    1.798074
     12          1           0       -2.204046    2.520718    1.432033
     13          1           0       -2.730837    2.092230   -0.948104
     14          1           0       -3.684652   -0.453071   -0.020926
     15          1           0       -3.540935   -0.013353   -1.711816
     16          1           0       -2.380249   -2.203456   -1.037175
     17          1           0       -1.392900   -1.065601   -1.942017
     18          1           0       -1.336628   -1.335879    1.113966
     19          1           0       -0.113171   -2.006138    0.023427
 ---------------------------------------------------------------------
                    Distance matrix (angstroms):
                    1          2          3          4          5
     1  O    0.000000
     2  C    1.385729   0.000000
     3  C    2.486770   1.520876   0.000000
     4  C    2.508861   1.524634   1.505238   0.000000
     5  C    3.826287   2.651940   2.627041   1.530966   0.000000
     6  C    4.133391   2.941054   3.416241   2.571354   1.537464
     7  C    3.770641   2.561403   3.119737   2.933030   2.554123
     8  C    2.404390   1.487964   2.595979   2.581975   2.997934
     9  O    2.645820   2.335885   3.594439   3.653505   4.151229
    10  H    0.971686   1.876033   3.164365   3.239001   4.367437
    11  H    3.393908   2.262060   1.085526   2.239315   2.813455
    12  H    2.612969   2.196844   1.083977   2.230528   3.537140
    13  H    2.626267   2.187623   2.197330   1.085205   2.237285
    14  H    4.549761   3.287134   2.760319   2.153774   1.097644
    15  H    4.397522   3.434855   3.490223   2.155727   1.094436
    16  H    5.221294   3.992861   4.277357   3.498330   2.173233
    17  H    4.098118   3.176630   4.017647   2.953439   2.168149
    18  H    4.218889   2.912697   2.939085   3.152748   2.781209
    19  H    4.507355   3.459524   4.158145   3.980603   3.512954
                    6          7          8          9         10
     6  C    0.000000
     7  C    1.543894   0.000000
     8  C    2.480690   1.513118   0.000000
     9  O    3.462814   2.411259   1.218269   0.000000
    10  H    4.346487   3.757498   2.261165   2.036982   0.000000
    11  H    3.412876   2.908989   2.804936   3.846049   3.903578
    12  H    4.462136   4.170852   3.456859   4.281233   3.393149
    13  H    3.412628   3.950981   3.441430   4.364989   3.494654
    14  H    2.163829   2.940201   3.619063   4.827694   5.127521
    15  H    2.158621   3.479936   3.876522   4.942785   4.986372
    16  H    1.094855   2.175588   3.435207   4.354888   5.418239
    17  H    1.096785   2.157400   2.678873   3.396280   4.208496
    18  H    2.176793   1.097443   2.156482   3.098287   4.308541
    19  H    2.201094   1.092193   2.123559   2.527144   4.286924
                   11         12         13         14         15
    11  H    0.000000
    12  H    1.831549   0.000000
    13  H    3.103730   2.475109   0.000000
    14  H    2.597579   3.625838   2.871929   0.000000
    15  H    3.810927   4.253537   2.381804   1.753031   0.000000
    16  H    4.079345   5.333466   4.310888   2.407920   2.568829
    17  H    4.235879   4.990376   3.570690   3.052525   2.402971
    18  H    2.358907   3.965719   4.236494   2.753279   3.820090
    19  H    3.898964   5.181540   4.959100   3.894800   4.328029
                   16         17         18         19
    16  H    0.000000
    17  H    1.757359   0.000000
    18  H    2.543471   3.068428   0.000000
    19  H    2.510669   2.526913   1.770697   0.000000
 Stoichiometry    C7H10O2
 Framework group  C1[X(C7H10O2)]
 Deg. of freedom    51
 Full point group                 C1      NOp   1
 Largest Abelian subgroup         C1      NOp   1
 Largest concise Abelian subgroup C1      NOp   1
                         Standard orientation:                         
 ---------------------------------------------------------------------
 Center     Atomic      Atomic             Coordinates (Angstroms)
 Number     Number       Type             X           Y           Z
 ---------------------------------------------------------------------
      1          8           0       -2.034348   -0.683235   -0.618748
      2          6           0       -0.817301   -0.446544    0.000137
      3          6           0       -0.364689   -1.434695    1.063981
      4          6           0        0.343976   -1.398612   -0.263510
      5          6           0        1.777774   -0.868395   -0.346869
      6          6           0        1.869740    0.663177   -0.444978
      7          6           0        0.911694    1.363795    0.542388
      8          6           0       -0.509365    0.999004    0.172194
      9          8           0       -1.373110    1.820907   -0.078006
     10          1           0       -2.445332    0.195405   -0.675819
     11          1           0        0.156890   -1.071060    1.943806
     12          1           0       -1.068060   -2.239466    1.244593
     13          1           0        0.083640   -2.201251   -0.945908
     14          1           0        2.335106   -1.208876    0.535331
     15          1           0        2.277083   -1.312377   -1.213679
     16          1           0        2.898134    0.991909   -0.263182
     17          1           0        1.613229    0.983681   -1.462041
     18          1           0        1.133768    1.042943    1.568117
     19          1           0        1.004228    2.451338    0.502747
 ---------------------------------------------------------------------
 Rotational constants (GHZ):      2.2500527      1.8495160      1.2198121
 1\1\GINC-ALCHEMY-N\FOpt\RB3LYP\6-31G(2df,p)\C7H10O2\PUCK\27-Jan-2020\0
 \\# b3lyp 6-31G(2df,p) opt Freq\\titel\\0,1\O,-0.2242173561,2.49009149
 92,-0.2729443807\C,-0.9395160331,1.3529635416,0.0669556846\C,-2.075383
 3592,1.5084462878,1.0663033844\C,-2.3924667298,1.2323858627,-0.3790305
 702\C,-2.9684601472,-0.1264812389,-0.7859300237\C,-1.9047030027,-1.218
 6972601,-0.9841252679\C,-0.8470000351,-1.2057125172,0.1404658677\C,-0.
 1124620976,0.1162916458,0.0926750168\O,1.0970084709,0.2120201394,-0.01
 77622407\H,0.7001491434,2.1911308025,-0.2914758463\H,-2.2540832398,0.7
 268166245,1.798073763\H,-2.2040457457,2.5207183859,1.4320333201\H,-2.7
 308372053,2.092229655,-0.9481041106\H,-3.6846516408,-0.4530705022,-0.0
 20925516\H,-3.5409346972,-0.0133525682,-1.7118159942\H,-2.3802494483,-
 2.2034558623,-1.0371753292\H,-1.3929004211,-1.0656005084,-1.9420169515
 \H,-1.3366275533,-1.3358790801,1.1139659843\H,-0.1131706221,-2.0061382
 368,0.0234273399\\Version=ES64L-G09RevD.01\State=1-A\HF=-423.2127822\R
 MSD=3.368e-09\RMSF=2.134e-05\Dipole=-1.0309624,-0.631173,0.0787384\Qua
 drupole=-2.2970936,0.2181749,2.0789187,0.4539544,-0.0466345,0.3429306\
 PG=C01 [X(C7H10O2)]\\@


 Other things may change us, but we start and end with family.
 -- Anthony Brandt
 Job cpu time:       0 days  0 hours  6 minutes 58.7 seconds.
 File lengths (MBytes):  RWF=     52 Int=      0 D2E=      0 Chk=      7 Scr=      1
 Normal termination of Gaussian 09 at Mon Jan 27 17:59:35 2020.
 Link1:  Proceeding to internal job step number  2.
 ----------------------------------------------------------------------
 #N Geom=AllCheck Guess=TCheck SCRF=Check GenChk RB3LYP/6-31G(2df,p) Fr
 eq
 ----------------------------------------------------------------------
 1/10=4,29=7,30=1,38=1,40=1/1,3;
 2/12=2,40=1/2;
 3/5=1,6=6,7=104,11=2,14=-4,16=1,25=1,30=1,70=2,71=2,74=-5,116=1,140=1/1,2,3;
 4/5=101/1;
 5/5=2,98=1/2;
 8/6=4,10=90,11=11/1;
 11/6=1,8=1,9=11,15=111,16=1/1,2,10;
 10/6=1/2;
 6/7=2,8=2,9=2,10=2,18=1,28=1/1;
 7/8=1,10=1,25=1/1,2,3,16;
 1/10=4,30=1/3;
 99//99;
 Structure from the checkpoint file:  "/scratch/puck/g09_cdd2ef11-c63a-46ab-a4c8-7b1bdb2e3a90/Gau-61678.chk"
 -----
 titel
 -----
 Charge =  0 Multiplicity = 1
 Redundant internal coordinates found in file.
 O,0,-0.2242173561,2.4900914992,-0.2729443807
 C,0,-0.9395160331,1.3529635416,0.0669556846
 C,0,-2.0753833592,1.5084462878,1.0663033844
 C,0,-2.3924667298,1.2323858627,-0.3790305702
 C,0,-2.9684601472,-0.1264812389,-0.7859300237
 C,0,-1.9047030027,-1.2186972601,-0.9841252679
 C,0,-0.8470000351,-1.2057125172,0.1404658677
 C,0,-0.1124620976,0.1162916458,0.0926750168
 O,0,1.0970084709,0.2120201394,-0.0177622407
 H,0,0.7001491434,2.1911308025,-0.2914758463
 H,0,-2.2540832398,0.7268166245,1.798073763
 H,0,-2.2040457457,2.5207183859,1.4320333201
 H,0,-2.7308372053,2.092229655,-0.9481041106
 H,0,-3.6846516408,-0.4530705022,-0.020925516
 H,0,-3.5409346972,-0.0133525682,-1.7118159942
 H,0,-2.3802494483,-2.2034558623,-1.0371753292
 H,0,-1.3929004211,-1.0656005084,-1.9420169515
 H,0,-1.3366275533,-1.3358790801,1.1139659843
 H,0,-0.1131706221,-2.0061382368,0.0234273399
 Recover connectivity data from disk.

 GradGradGradGradGradGradGradGradGradGradGradGradGradGradGradGradGradGrad
 Berny optimization.
 Initialization pass.
                           ----------------------------
                           !    Initial Parameters    !
                           ! (Angstroms and Degrees)  !
 --------------------------                            --------------------------
 ! Name  Definition              Value          Derivative Info.                !
 --------------------------------------------------------------------------------
 ! R1    R(1,2)                  1.3857         calculate D2E/DX2 analytically  !
 ! R2    R(1,10)                 0.9717         calculate D2E/DX2 analytically  !
 ! R3    R(2,3)                  1.5209         calculate D2E/DX2 analytically  !
 ! R4    R(2,4)                  1.5246         calculate D2E/DX2 analytically  !
 ! R5    R(2,8)                  1.488          calculate D2E/DX2 analytically  !
 ! R6    R(3,4)                  1.5052         calculate D2E/DX2 analytically  !
 ! R7    R(3,11)                 1.0855         calculate D2E/DX2 analytically  !
 ! R8    R(3,12)                 1.084          calculate D2E/DX2 analytically  !
 ! R9    R(4,5)                  1.531          calculate D2E/DX2 analytically  !
 ! R10   R(4,13)                 1.0852         calculate D2E/DX2 analytically  !
 ! R11   R(5,6)                  1.5375         calculate D2E/DX2 analytically  !
 ! R12   R(5,14)                 1.0976         calculate D2E/DX2 analytically  !
 ! R13   R(5,15)                 1.0944         calculate D2E/DX2 analytically  !
 ! R14   R(6,7)                  1.5439         calculate D2E/DX2 analytically  !
 ! R15   R(6,16)                 1.0949         calculate D2E/DX2 analytically  !
 ! R16   R(6,17)                 1.0968         calculate D2E/DX2 analytically  !
 ! R17   R(7,8)                  1.5131         calculate D2E/DX2 analytically  !
 ! R18   R(7,18)                 1.0974         calculate D2E/DX2 analytically  !
 ! R19   R(7,19)                 1.0922         calculate D2E/DX2 analytically  !
 ! R20   R(8,9)                  1.2183         calculate D2E/DX2 analytically  !
 ! A1    A(2,1,10)             104.0787         calculate D2E/DX2 analytically  !
 ! A2    A(1,2,3)              117.5679         calculate D2E/DX2 analytically  !
 ! A3    A(1,2,4)              119.0169         calculate D2E/DX2 analytically  !
 ! A4    A(1,2,8)              113.5369         calculate D2E/DX2 analytically  !
 ! A5    A(3,2,8)              119.2572         calculate D2E/DX2 analytically  !
 ! A6    A(4,2,8)              117.9708         calculate D2E/DX2 analytically  !
 ! A7    A(2,3,11)             119.491          calculate D2E/DX2 analytically  !
 ! A8    A(2,3,12)             113.9422         calculate D2E/DX2 analytically  !
 ! A9    A(4,3,11)             118.7216         calculate D2E/DX2 analytically  !
 ! A10   A(4,3,12)             118.0494         calculate D2E/DX2 analytically  !
 ! A11   A(11,3,12)            115.178          calculate D2E/DX2 analytically  !
 ! A12   A(2,4,5)              120.4298         calculate D2E/DX2 analytically  !
 ! A13   A(2,4,13)             112.8224         calculate D2E/DX2 analytically  !
 ! A14   A(3,4,5)              119.8176         calculate D2E/DX2 analytically  !
 ! A15   A(3,4,13)             115.0805         calculate D2E/DX2 analytically  !
 ! A16   A(5,4,13)             116.5247         calculate D2E/DX2 analytically  !
 ! A17   A(4,5,6)              113.8596         calculate D2E/DX2 analytically  !
 ! A18   A(4,5,14)             108.9254         calculate D2E/DX2 analytically  !
 ! A19   A(4,5,15)             109.2625         calculate D2E/DX2 analytically  !
 ! A20   A(6,5,14)             109.2639         calculate D2E/DX2 analytically  !
 ! A21   A(6,5,15)             109.0436         calculate D2E/DX2 analytically  !
 ! A22   A(14,5,15)            106.205          calculate D2E/DX2 analytically  !
 ! A23   A(5,6,7)              111.9706         calculate D2E/DX2 analytically  !
 ! A24   A(5,6,16)             110.1629         calculate D2E/DX2 analytically  !
 ! A25   A(5,6,17)             109.6508         calculate D2E/DX2 analytically  !
 ! A26   A(7,6,16)             109.9027         calculate D2E/DX2 analytically  !
 ! A27   A(7,6,17)             108.3793         calculate D2E/DX2 analytically  !
 ! A28   A(16,6,17)            106.6136         calculate D2E/DX2 analytically  !
 ! A29   A(6,7,8)              108.4765         calculate D2E/DX2 analytically  !
 ! A30   A(6,7,18)             109.8461         calculate D2E/DX2 analytically  !
 ! A31   A(6,7,19)             112.0912         calculate D2E/DX2 analytically  !
 ! A32   A(8,7,18)             110.379          calculate D2E/DX2 analytically  !
 ! A33   A(8,7,19)             108.1043         calculate D2E/DX2 analytically  !
 ! A34   A(18,7,19)            107.9325         calculate D2E/DX2 analytically  !
 ! A35   A(2,8,7)              117.1849         calculate D2E/DX2 analytically  !
 ! A36   A(2,8,9)              119.0086         calculate D2E/DX2 analytically  !
 ! A37   A(7,8,9)              123.6045         calculate D2E/DX2 analytically  !
 ! D1    D(10,1,2,3)           138.2901         calculate D2E/DX2 analytically  !
 ! D2    D(10,1,2,4)          -153.4359         calculate D2E/DX2 analytically  !
 ! D3    D(10,1,2,8)            -7.6817         calculate D2E/DX2 analytically  !
 ! D4    D(1,2,3,11)          -142.6478         calculate D2E/DX2 analytically  !
 ! D5    D(1,2,3,12)            -0.8441         calculate D2E/DX2 analytically  !
 ! D6    D(8,2,3,11)             1.3327         calculate D2E/DX2 analytically  !
 ! D7    D(8,2,3,12)           143.1364         calculate D2E/DX2 analytically  !
 ! D8    D(1,2,4,5)            144.2173         calculate D2E/DX2 analytically  !
 ! D9    D(1,2,4,13)             0.2085         calculate D2E/DX2 analytically  !
 ! D10   D(8,2,4,5)             -0.0388         calculate D2E/DX2 analytically  !
 ! D11   D(8,2,4,13)          -144.0476         calculate D2E/DX2 analytically  !
 ! D12   D(1,2,8,7)           -166.4528         calculate D2E/DX2 analytically  !
 ! D13   D(1,2,8,9)              8.5703         calculate D2E/DX2 analytically  !
 ! D14   D(3,2,8,7)             48.1998         calculate D2E/DX2 analytically  !
 ! D15   D(3,2,8,9)           -136.7771         calculate D2E/DX2 analytically  !
 ! D16   D(4,2,8,7)            -20.3148         calculate D2E/DX2 analytically  !
 ! D17   D(4,2,8,9)            154.7082         calculate D2E/DX2 analytically  !
 ! D18   D(11,3,4,5)             0.6028         calculate D2E/DX2 analytically  !
 ! D19   D(11,3,4,13)          147.3791         calculate D2E/DX2 analytically  !
 ! D20   D(12,3,4,5)          -146.7123         calculate D2E/DX2 analytically  !
 ! D21   D(12,3,4,13)            0.0641         calculate D2E/DX2 analytically  !
 ! D22   D(2,4,5,6)            -12.3419         calculate D2E/DX2 analytically  !
 ! D23   D(2,4,5,14)           109.8675         calculate D2E/DX2 analytically  !
 ! D24   D(2,4,5,15)          -134.5165         calculate D2E/DX2 analytically  !
 ! D25   D(3,4,5,6)            -83.2826         calculate D2E/DX2 analytically  !
 ! D26   D(3,4,5,14)            38.9268         calculate D2E/DX2 analytically  !
 ! D27   D(3,4,5,15)           154.5428         calculate D2E/DX2 analytically  !
 ! D28   D(13,4,5,6)           130.4023         calculate D2E/DX2 analytically  !
 ! D29   D(13,4,5,14)         -107.3883         calculate D2E/DX2 analytically  !
 ! D30   D(13,4,5,15)            8.2278         calculate D2E/DX2 analytically  !
 ! D31   D(4,5,6,7)             43.9943         calculate D2E/DX2 analytically  !
 ! D32   D(4,5,6,16)           166.6225         calculate D2E/DX2 analytically  !
 ! D33   D(4,5,6,17)           -76.3425         calculate D2E/DX2 analytically  !
 ! D34   D(14,5,6,7)           -78.0284         calculate D2E/DX2 analytically  !
 ! D35   D(14,5,6,16)           44.5998         calculate D2E/DX2 analytically  !
 ! D36   D(14,5,6,17)          161.6348         calculate D2E/DX2 analytically  !
 ! D37   D(15,5,6,7)           166.2895         calculate D2E/DX2 analytically  !
 ! D38   D(15,5,6,16)          -71.0824         calculate D2E/DX2 analytically  !
 ! D39   D(15,5,6,17)           45.9527         calculate D2E/DX2 analytically  !
 ! D40   D(5,6,7,8)            -63.0017         calculate D2E/DX2 analytically  !
 ! D41   D(5,6,7,18)            57.7247         calculate D2E/DX2 analytically  !
 ! D42   D(5,6,7,19)           177.7093         calculate D2E/DX2 analytically  !
 ! D43   D(16,6,7,8)           174.2224         calculate D2E/DX2 analytically  !
 ! D44   D(16,6,7,18)          -65.0513         calculate D2E/DX2 analytically  !
 ! D45   D(16,6,7,19)           54.9334         calculate D2E/DX2 analytically  !
 ! D46   D(17,6,7,8)            58.0729         calculate D2E/DX2 analytically  !
 ! D47   D(17,6,7,18)          178.7993         calculate D2E/DX2 analytically  !
 ! D48   D(17,6,7,19)          -61.2161         calculate D2E/DX2 analytically  !
 ! D49   D(6,7,8,2)             50.9798         calculate D2E/DX2 analytically  !
 ! D50   D(6,7,8,9)           -123.7936         calculate D2E/DX2 analytically  !
 ! D51   D(18,7,8,2)           -69.4161         calculate D2E/DX2 analytically  !
 ! D52   D(18,7,8,9)           115.8105         calculate D2E/DX2 analytically  !
 ! D53   D(19,7,8,2)           172.7433         calculate D2E/DX2 analytically  !
 ! D54   D(19,7,8,9)            -2.0301         calculate D2E/DX2 analytically  !
 --------------------------------------------------------------------------------
 Trust Radius=3.00D-01 FncErr=1.00D-07 GrdErr=1.00D-07
 Number of steps in this run=      2 maximum allowed number of steps=      2.
 GradGradGradGradGradGradGradGradGradGradGradGradGradGradGradGradGradGrad

                          Input orientation:                          
 ---------------------------------------------------------------------
 Center     Atomic      Atomic             Coordinates (Angstroms)
 Number     Number       Type             X           Y           Z
 ---------------------------------------------------------------------
      1          8           0       -0.224217    2.490091   -0.272944
      2          6           0       -0.939516    1.352964    0.066956
      3          6           0       -2.075383    1.508446    1.066303
[...]
 -0.01110306,-0.01583373,-0.20817919,0.15830278,-0.07576239,0.45851266,
 -0.00424915,-0.00117876,-0.00149068,-0.00812725,-0.02325074,-0.0061560
 7,-0.00335917,0.00553283,-0.00392997,-0.08854777,-0.03845271,-0.015807
 92,0.51503534,0.00212677,0.00162211,0.00060581,-0.00613387,-0.00431407
 ,-0.00576025,-0.00688287,-0.00518034,-0.00253002,-0.03249634,-0.166594
 00,-0.02049260,0.01612635,0.44168119,0.00460571,0.00083713,0.00119458,
 -0.00292218,0.00386432,-0.00654778,-0.01208640,-0.02790306,-0.00928693
 ,-0.01152893,-0.02043050,-0.07764840,0.00990037,-0.03336568,0.58162194
 ,-0.00075067,0.00018192,0.00034404,0.00051908,0.00119973,0.00174904,0.
 00078491,-0.00132867,-0.00005258,0.01190851,-0.00604270,-0.00217165,-0
 .12864246,0.04867714,0.01187531,0.48298009,0.00102466,0.00025240,0.000
 46021,0.00446458,0.00061901,0.00360926,-0.00004021,-0.00144529,-0.0001
 9350,0.01444646,-0.03026155,-0.00354678,0.04875937,-0.12458093,-0.0121
 5330,0.06447007,0.54454990,-0.00038411,0.00098673,-0.00027005,-0.00122
 281,0.00039164,0.00125046,0.00007420,-0.00049167,0.00048194,0.00538400
 ,-0.00476253,-0.00249662,0.01255872,-0.01095938,-0.07954040,-0.0526560
 7,-0.00267057,0.51639711,0.00011134,0.00639053,-0.00097380,0.01739563,
 0.00917224,-0.00312452,-0.00107045,-0.00079054,0.00039230,-0.00000892,
 -0.00238807,0.00093162,-0.02076068,0.00467662,-0.02015693,-0.11246981,
 -0.00147742,-0.04225536,0.51620208,0.00211998,-0.00284101,-0.00022628,
 -0.01244816,-0.02079132,0.00026609,0.00069842,-0.00229225,-0.00044258,
 0.00035372,0.00052472,0.00116572,0.01722264,-0.00122077,0.01931539,0.0
 0400578,-0.08025010,0.00001039,-0.07699082,0.52494081,0.00140614,-0.00
 000302,0.00193693,-0.00081266,0.00046345,0.01527503,-0.00098239,0.0033
 4511,0.00051264,0.00088189,-0.00257673,0.00067858,-0.00130965,0.003960
 85,0.00232855,-0.04759283,-0.00802976,-0.12553976,-0.06739713,-0.00603
 891,0.48396781,-0.00913720,-0.02120228,0.00699001,-0.07134562,0.048689
 47,-0.01063689,-0.02333891,0.00343847,-0.00384524,-0.02565675,0.015784
 01,0.00825840,0.00180951,-0.00240279,-0.00033519,-0.02131216,-0.021203
 37,-0.00746820,-0.08995454,-0.02510426,0.00215935,0.92494675,0.0062987
 2,-0.04778296,0.00533598,0.02056529,-0.18154783,0.01368460,0.01585469,
 0.00487598,0.00073208,0.00868423,0.01168468,-0.01017949,0.00080805,0.0
 0386831,0.00123349,-0.01315767,0.00555255,-0.01201520,-0.01640916,-0.1
 7849647,0.00199359,0.04996016,0.52712753,-0.00013195,0.01263957,-0.000
 45902,-0.00459088,0.00273548,-0.07607069,0.01607081,-0.02628866,-0.002
 16096,-0.01128357,0.02126090,-0.00540138,0.00315501,0.00088396,0.00099
 674,-0.01303314,-0.02665256,0.00039264,0.00334047,0.00584084,-0.084356
 07,-0.05332930,-0.02188253,0.24473571,0.00766674,-0.00377334,-0.001620
 58,-0.07887721,0.02134729,0.01102511,0.00825021,0.00430438,0.00011118,
 0.00638469,0.00396628,-0.00432171,-0.00013541,0.00153321,-0.00030383,0
 .00194263,-0.00336149,0.00487085,-0.03895220,-0.01829401,0.00614725,-0
 .69900056,-0.05061587,0.05406022,0.80406493,0.01780376,0.00041651,-0.0
 0257243,0.03032857,-0.00048672,0.00202862,0.00130032,-0.00166985,0.000
 76691,0.00202564,-0.00462935,0.00063955,-0.00079359,-0.00134121,-0.000
 79434,-0.00086237,-0.00519480,0.00394561,-0.04432517,0.00405503,0.0034
 9661,-0.04597037,-0.11022588,0.00506874,0.04326899,0.10654121,-0.00426
 586,-0.00020867,0.00176766,0.01145512,0.00171067,0.02392260,-0.0020882
 5,0.00487222,-0.00041207,-0.00116768,-0.00546335,0.00268063,-0.0006437
 3,-0.00029603,0.00006280,0.00037741,0.00437142,-0.00244391,0.00687491,
 0.00028529,0.02183921,0.05486442,0.00740631,-0.07601752,-0.06589262,-0
 .00664965,0.03507178,-0.42165270,0.10991559,0.01390596,-0.03624904,-0.
 00653362,0.00522988,-0.00055893,0.00068745,-0.00160426,-0.00052216,-0.
 00010462,0.00158532,-0.00021305,-0.00027721,0.00021851,0.00003278,-0.0
 0035631,0.00017393,-0.00255119,0.00038130,-0.00015067,0.00578273,0.001
 05693,-0.00098543,-0.00366186,-0.00091928,0.00049410,0.45869397,0.1546
 7368,-0.08854109,0.00601567,-0.03639261,0.00742488,0.00013410,-0.00247
 348,-0.00276952,-0.00012495,-0.00335053,-0.00496640,0.00184904,-0.0010
 5960,0.00035606,0.00095263,-0.00040346,0.00077402,-0.00066628,0.001937
 94,0.00076135,0.00067969,-0.01573402,-0.00580708,0.00301942,0.00548632
 ,0.00756041,-0.00321112,-0.10420539,0.08624349,0.00397001,0.00944531,-
 0.00407179,0.01270464,-0.00083387,-0.00104590,0.00386094,0.00353037,-0
 .00333107,-0.00327288,-0.00282543,-0.00160669,-0.00067261,0.00012753,0
 .00034896,-0.00008379,0.00013610,0.00022343,-0.00014756,-0.00009919,0.
 00044990,0.00190517,0.00144617,0.00314144,-0.00059868,-0.00235468,-0.0
 0534002,-0.01840349,-0.00846231,0.01119740,-0.00546259,-0.00201767,0.0
 0456173,-0.00061715,-0.01884535,0.01103901,-0.04366451,-0.03303156,0.0
 3438430,0.00106465,0.01813043,-0.00933390,0.00181314,0.00131061,0.0021
 7549,0.00040764,-0.00029618,0.00005238,-0.00041428,-0.00033029,0.00075
 139,0.00188705,-0.00215456,-0.00196083,-0.00069510,0.00018486,0.000580
 25,0.00049960,-0.00066844,0.00134272,0.04395872,-0.00048629,0.00060355
 ,-0.00012342,0.00123351,0.00107203,-0.00327301,-0.03313477,-0.20424678
 ,0.13894247,0.00040026,0.00349342,-0.00536280,0.00003792,0.00154546,-0
 .00086294,0.00007597,0.00006923,0.00004905,0.00064891,-0.00027016,-0.0
 0049238,0.00021074,-0.00006396,0.00011296,0.00002507,0.00031319,-0.000
 26175,0.00018806,-0.00004364,0.00019949,0.03465172,0.21173601,-0.00054
 255,0.00043854,0.00060364,0.00007981,0.00027553,-0.00745828,0.03335373
 ,0.13702824,-0.17050246,0.00448476,0.01673573,-0.01667184,0.00018927,0
 .00219907,0.00278173,-0.00021701,-0.00021529,-0.00012024,-0.00023627,0
 .00034010,-0.00067309,-0.00008926,0.00280373,0.00080789,0.00081129,-0.
 00068910,-0.00043188,-0.00034182,-0.00005472,-0.00002143,-0.03625659,-
 0.14727908,0.18431019,0.00423796,-0.00157530,-0.00470581,-0.00758740,0
 .03313723,0.01295820,-0.03608763,0.03165497,0.01239026,0.00072999,-0.0
 1989371,-0.00288794,0.00050845,-0.00020489,-0.00431934,-0.00098986,0.0
 0010532,-0.00036219,0.00060057,0.00043245,-0.00070499,0.00255750,-0.00
 505182,0.00558752,-0.00302246,0.00075902,-0.00119376,-0.00003181,0.000
 85471,-0.00060000,0.00042893,-0.00465571,-0.00261685,0.03878005,-0.000
 54040,0.00112435,0.00057482,-0.00123167,-0.00150299,-0.00020757,0.0333
 1455,-0.30771526,-0.08903194,0.00128362,-0.00023325,0.00086927,-0.0001
 9240,0.00047482,0.00009013,0.00006210,0.00015915,0.00010085,-0.0000996
 5,-0.00016964,0.00037604,-0.00029433,-0.00041812,0.00015399,-0.0001770
 3,0.00030579,-0.00015744,-0.00016449,-0.00008970,0.00019454,0.00329981
 ,-0.01385272,-0.00820793,-0.03573781,0.32062666,-0.00006195,0.00018554
 ,0.00134598,0.00062441,-0.00886816,-0.00644918,0.01527365,-0.08545840,
 -0.07683379,0.00459648,-0.02185981,-0.00899789,0.00269417,0.00111465,-
 0.00314132,-0.00069014,-0.00070970,-0.00006216,-0.00016645,0.00031321,
 -0.00034728,-0.00159849,0.00145609,-0.00121663,0.00049091,-0.00001091,
 0.00001409,0.00024533,0.00035495,0.00015125,-0.00370314,0.01911900,0.0
 0895988,-0.01561602,0.09566555,0.08376137,0.00500767,-0.00069460,0.002
 89733,-0.01407315,0.02863090,-0.02033938,0.00022701,-0.00818791,0.0037
 8510,-0.06621551,0.06890457,-0.05068108,0.00441554,-0.01002256,0.00545
 848,-0.00134895,-0.00026152,-0.00004204,0.00048059,0.00001307,0.000469
 87,0.00087075,-0.00664274,-0.00508079,-0.00302016,0.00141908,0.0018695
 3,0.00021857,0.00089048,0.00034791,0.00084963,0.00002338,0.00252972,-0
 .00035685,-0.00003222,-0.00161632,0.07202578,-0.00063669,0.00102204,-0
 .00052084,-0.00075158,-0.00071839,0.00015896,-0.00222771,0.00618254,-0
 .00554272,0.07098122,-0.22977226,0.12208087,0.00890270,-0.01539080,0.0
 1075954,-0.00304206,-0.00267364,-0.00007605,-0.00031571,0.00045513,-0.
 00024960,0.00012644,-0.00076652,-0.00028825,-0.00022753,0.00034420,0.0
 0016147,-0.00021649,-0.00023550,0.00005424,-0.00110305,0.00026078,-0.0
 0144099,0.00057086,0.00112145,-0.00015932,-0.07307395,0.24147068,-0.00
 159108,-0.00013733,-0.00005259,0.00277594,-0.00492039,0.00010974,-0.01
 084780,0.02280392,-0.01716847,-0.05357012,0.11952560,-0.11883780,0.003
 76262,-0.00919573,0.00502266,-0.00085638,-0.00205032,-0.00007520,-0.00
 014808,0.00011532,-0.00030428,0.00125075,0.00060803,0.00055201,0.00060
 747,-0.00044967,-0.00046995,-0.00013287,-0.00049598,0.00010649,-0.0041
 7292,-0.00096020,-0.00320655,0.00246862,0.00029821,0.00194556,0.059551
 57,-0.12400152,0.13119327,-0.00087550,-0.00046091,-0.00044255,0.000467
 49,-0.00105354,0.00127165,0.00169849,0.00055910,0.00073289,-0.00921721
 ,-0.00677287,0.00659322,-0.15122608,-0.04662904,0.11245513,-0.01607726
 ,-0.00517869,0.01870536,0.00079372,-0.00069634,0.00088492,0.00046591,-
 0.00059382,0.00026362,-0.00020760,0.00017780,0.00000013,0.00002499,-0.
 00014999,-0.00019787,-0.00040540,0.00023664,-0.00100946,0.00013435,0.0
 0016650,-0.00023288,-0.00086598,-0.00040985,-0.00006798,0.16486134,-0.
 00213254,-0.00061176,-0.00067063,0.00094392,-0.00232460,0.00314550,0.0
 0248119,0.00244854,0.00151520,-0.02217612,-0.01403541,0.01479737,-0.04
 744829,-0.06596140,0.05482388,0.01691754,0.00478914,-0.01916986,-0.000
 79702,0.00065807,-0.00062965,0.00062512,-0.00146050,-0.00015951,-0.000
 37985,0.00050930,0.00011686,0.00000887,-0.00047351,-0.00033070,-0.0004
 2130,0.00053514,-0.00133376,0.00030502,0.00007842,0.00002375,-0.001160
 24,-0.00161867,-0.00042947,0.05230605,0.08020657,-0.00056147,0.0001907
 0,-0.00021812,-0.00203357,-0.00180540,-0.00034337,-0.00068396,-0.00081
 489,0.00300829,-0.00694824,-0.00397257,0.00464499,0.11344905,0.0546437
 7,-0.17414714,0.00269156,0.00004563,-0.00403870,-0.00027687,-0.0003149
 4,0.00089679,0.00010176,-0.00012595,0.00015708,-0.00012027,-0.00001097
 ,-0.00002762,-0.00019138,-0.00014658,-0.00001863,0.00067474,0.00076965
 ,0.00022000,0.00001485,-0.00010600,0.00021624,0.00037005,-0.00032361,0
 .00009112,-0.12562787,-0.05465445,0.18745489,-0.00011068,-0.00033219,-
 0.00002047,-0.00053297,-0.00049833,-0.00057682,-0.00011873,-0.00085052
 ,0.00072385,-0.00618951,0.00131092,-0.01048391,-0.11479461,0.01226080,
 -0.11278777,-0.01373307,0.00330222,-0.01996374,-0.00269174,0.00390978,
 0.00147064,0.00100206,0.00072940,0.00029678,-0.00061216,-0.00035015,0.
 00005959,0.00000177,0.00008297,-0.00009515,0.00012597,0.00005194,-0.00
 008403,-0.00028510,0.00011401,-0.00022249,0.00114491,0.00019982,0.0004
 9897,0.01146275,-0.00254284,0.01797989,0.12491877,-0.00038493,-0.00019
 806,0.00001792,-0.00045446,-0.00026952,-0.00118838,-0.00162399,-0.0034
 4592,-0.00099392,-0.01472388,0.00053070,-0.02550512,0.01325939,-0.0483
 4325,0.02555456,0.01283846,-0.00240058,0.02049190,0.00297424,-0.003531
 01,-0.00172627,0.00053369,-0.00200643,0.00032202,-0.00041765,0.0006478
 2,-0.00011931,0.00010256,-0.00014504,-0.00005289,0.00054410,-0.0001247
 8,0.00016987,-0.00096639,-0.00008264,-0.00065356,0.00010601,0.00124037
 ,-0.00000276,0.00512000,-0.00128626,0.00826543,-0.01654193,0.05773530,
 -0.00028470,-0.00029323,0.00019972,0.00072124,0.00013608,-0.00034896,-
 0.00059062,-0.00160632,-0.00019251,-0.00279033,0.00103724,-0.00629264,
 -0.11478811,0.02455128,-0.23760467,0.00416388,-0.00080157,0.00455018,0
 .00119021,-0.00049465,0.00085618,0.00024566,-0.00042636,0.00018108,-0.
 00016214,0.00005869,-0.00008460,0.00005682,-0.00000627,-0.00001703,0.0
 0041291,-0.00016676,0.00046983,-0.00059739,-0.00008251,-0.00012658,0.0
 0024842,-0.00019264,0.00122407,-0.01180447,0.00308373,-0.01990793,0.12
 421318,-0.02508521,0.25519883,0.00035111,-0.00026416,0.00017512,0.0008
 3407,-0.00079846,0.00005297,-0.00075256,0.00048685,-0.00035127,-0.0036
 3995,0.00263955,0.00028378,0.01014147,0.02237392,0.00233183,-0.0966449
 7,-0.10360180,-0.00280337,-0.01146709,-0.02052220,-0.00282336,-0.00168
 825,0.00407999,-0.00408641,-0.00089258,-0.00167062,0.00086544,-0.00011
 858,0.00036607,0.00002179,0.00003260,-0.00007335,0.00001296,0.00027707
 ,-0.00000408,0.00016900,0.00057368,0.00099177,0.00038910,0.00141842,-0
 .00047543,0.00000139,0.00035814,-0.00066712,-0.00037036,0.10661015,-0.
 00034351,-0.00019116,0.00002855,0.00072416,0.00138948,0.00067156,0.000
 55304,-0.00069747,0.00004051,0.00318604,-0.00191860,-0.00003268,-0.010
 34143,-0.01968904,-0.00115496,-0.10232747,-0.25696508,-0.00840237,0.00
 092229,0.00182083,0.00068707,0.00067390,0.00011005,0.00054362,-0.00001
 783,0.00027253,-0.00028546,0.00007572,-0.00006192,-0.00004348,-0.00005
 038,0.00001777,-0.00009593,-0.00014089,0.00003471,-0.00028646,-0.00020
 328,-0.00091997,-0.00061976,-0.00020917,0.00131211,-0.00051101,0.00019
 990,0.00008519,0.00044168,0.10983109,0.27911701,0.00020511,-0.00019620
 ,0.00015214,0.00019388,-0.00006978,0.00030235,-0.00036512,0.00024512,-
 0.00000529,0.00088376,-0.00143814,0.00148061,-0.00130303,-0.00523866,-
 0.00117081,-0.00226965,-0.00667949,-0.04799210,-0.01311183,-0.02391580
 ,-0.00308380,-0.00175091,0.00353001,-0.00469699,-0.00187928,-0.0018372
 9,0.00127048,-0.00011942,0.00024745,-0.00005338,-0.00002878,-0.0000138
 2,-0.00000619,0.00010127,-0.00001672,0.00004188,0.00011457,-0.00041337
 ,-0.00025354,-0.00042013,-0.00014176,0.00037463,0.00017191,0.00012895,
 -0.00004767,0.00549222,0.00962984,0.05049847,0.00026941,0.00007762,0.0
 0003976,0.00012257,0.00021841,-0.00014027,0.00020147,-0.00005637,-0.00
 022828,-0.00013665,-0.00071692,-0.00044860,-0.01453523,-0.00257063,0.0
 2005389,-0.10238578,-0.01957010,0.10480447,0.00912442,0.00263233,-0.02
 216934,0.00186968,0.00065180,-0.00095722,-0.00005124,0.00031722,0.0003
 3059,0.00001123,0.00000397,0.00001224,-0.00016967,-0.00002721,-0.00000
 728,0.00004904,0.00001047,0.00001104,0.00003748,0.00018816,0.00010541,
 -0.00260570,0.00441116,0.00053567,0.00077822,-0.00054100,-0.00018131,-
 0.00675544,-0.00211389,0.01242116,0.11614664,-0.00009890,0.00005500,0.
 00006714,-0.00060356,0.00000533,-0.00011598,-0.00037439,0.00028394,0.0
 0023181,0.00093156,0.00156621,0.00021157,0.01332683,0.00228035,-0.0207
 3314,-0.02031848,-0.05618893,0.03363598,0.00034758,0.00012831,-0.00106
 701,-0.00006401,-0.00022160,-0.00098323,0.00031771,0.00019052,0.000047
 76,-0.00003338,-0.00008192,-0.00002514,0.00007136,-0.00005905,0.000112
 90,-0.00006212,0.00000649,0.00010699,0.00003698,-0.00004383,0.00001604
 ,0.00341487,-0.00285858,-0.00114224,-0.00091604,0.00132739,0.00013371,
 -0.01341425,-0.00433133,0.02587959,0.01750471,0.05698986,-0.00010700,-
 0.00025673,0.00007712,-0.00046051,-0.00024654,-0.00002741,0.00021614,0
 .00019996,0.00009292,0.00014498,-0.00002446,0.00017752,0.00187410,0.00
 090829,-0.00296382,0.10456851,0.03273617,-0.23961499,0.00817518,0.0023
 6611,-0.02329554,0.00225872,0.00180510,-0.00089662,-0.00133480,-0.0004
 5428,0.00052965,-0.00002549,-0.00001407,-0.00010594,-0.00011102,0.0000
 6960,0.00014581,-0.00005493,-0.00006965,0.00008405,0.00000766,-0.00011
 874,-0.00004247,0.00012688,-0.00051667,0.00134143,-0.00009091,-0.00030
 788,0.00133215,-0.00043224,0.00014228,0.00112134,-0.11071918,-0.036327
 60,0.26388570,-0.00002178,-0.00037279,-0.00013569,0.00038446,-0.000471
 96,-0.00032141,-0.00012359,0.00070566,0.00004057,-0.00066102,0.0003773
 7,0.00018993,0.00230118,-0.00003014,0.00016631,0.00983823,0.00366983,-
 0.02335222,-0.09635140,-0.01196157,0.10773079,-0.01089816,0.00040205,0
 .01480373,-0.00089977,-0.00422485,-0.00214431,-0.00010937,0.00023573,-
 0.00009976,0.00033045,0.00060656,0.00005067,-0.00004311,0.00017206,-0.
 00018078,-0.00007317,-0.00003919,-0.00004483,-0.00009379,-0.00028110,0
 .00054625,0.00026659,-0.00034298,0.00011961,0.00106144,-0.00003788,0.0
 0106080,-0.00297102,0.00006559,-0.00401897,0.10695826,0.00007665,-0.00
 007945,-0.00047099,0.00175854,-0.00105709,-0.00282579,-0.00058910,-0.0
 0203085,0.00028912,-0.00066207,0.00037438,0.00071946,-0.00031136,0.000
 04422,0.00067222,0.00166639,0.00060124,-0.00137045,-0.01326240,-0.0532
 9967,0.02923048,-0.01216646,0.00331847,0.02793105,-0.00277992,-0.00394
 068,-0.00258486,-0.00022841,0.00030164,-0.00011471,0.00066875,-0.00108
 098,-0.00073542,0.00044135,0.00008732,-0.00030851,0.00015780,0.0000173
 7,-0.00012058,0.00004191,0.00010971,0.00002822,0.00006510,0.00000535,-
 0.00010536,0.00060956,0.00002515,-0.00017243,-0.00057466,0.00095277,-0
 .00020545,0.01502926,0.05201573,-0.00021623,0.00018902,0.00010896,0.00
 030759,0.00070237,-0.00128097,0.00018734,-0.00084500,-0.00033276,0.000
 32335,0.00031433,-0.00024871,0.00114025,-0.00042630,0.00161712,0.00992
 362,0.00360245,-0.02491281,0.10491074,0.02609898,-0.23902874,0.0008134
 2,0.00021666,0.00078900,-0.00126858,0.00007841,-0.00071601,0.00003768,
 -0.00012908,-0.00002270,-0.00016969,-0.00045783,0.00039052,0.00012426,
 -0.00030360,0.00042361,0.00002776,0.00004683,0.00008417,-0.00092799,0.
 00046227,0.00022910,0.00006569,-0.00028739,0.00030400,0.00041063,-0.00
 047793,0.00109241,-0.00436825,-0.00038831,-0.00260492,-0.11252543,-0.0
 2870674,0.26725543,0.00034121,-0.00124805,0.00023419,-0.00250001,-0.00
 170421,0.00054052,-0.00015349,-0.00003365,0.00000567,-0.00000152,-0.00
 046364,0.00016567,-0.00143376,-0.00143508,-0.00480045,-0.01405886,0.01
 510457,0.00388619,-0.16801604,0.13457818,0.02204081,0.01114024,-0.0144
 6567,-0.00213866,0.00171913,0.00153113,-0.00037527,0.00040307,-0.00009
 435,0.00000638,0.00003031,-0.00001335,-0.00011110,0.00010032,0.0000509
 7,-0.00001634,0.00010217,0.00008284,0.00002161,0.00024706,-0.00018414,
 0.00007841,-0.00099060,0.00118587,0.00019751,0.00030127,-0.00038040,0.
 00060347,0.00100058,-0.00013206,-0.00001711,-0.00889442,0.01005906,0.0
 0120383,0.18066334,0.00015855,-0.00205435,0.00038716,-0.00475477,-0.00
 175465,0.00047903,-0.00019773,0.00017686,0.00024041,-0.00039616,0.0000
 7410,-0.00003809,-0.00094722,0.00074327,-0.00070537,-0.00261221,0.0025
 9427,0.00097219,0.12978562,-0.19018185,-0.02341958,0.02409989,-0.02774
 021,-0.00425779,-0.00020473,0.00633197,0.00026564,0.00062271,-0.000206
 51,0.00000865,0.00005714,0.00009547,-0.00005152,0.00002773,0.00004515,
 -0.00002490,0.00009677,0.00002502,0.00001657,0.00013136,-0.00001632,-0
 .00001479,-0.00019487,0.00026134,-0.00018155,0.00011266,0.00058973,0.0
 0047250,0.00015493,-0.00000092,0.00031456,-0.00350163,0.00363535,0.000
 31085,-0.14243804,0.20738229,0.00004562,0.00000732,0.00020338,0.000544
 69,-0.00007111,0.00109012,-0.00018135,-0.00002950,-0.00048292,-0.00004
 344,-0.00060715,-0.00029588,-0.00262180,-0.00073055,-0.00392383,-0.016
 07013,0.01874159,0.00381118,0.02217939,-0.02458510,-0.05211307,0.00020
 583,0.00237769,-0.00047771,-0.00062179,-0.00025982,-0.00121534,0.00000
 729,0.00005840,0.00001572,-0.00023805,-0.00000824,0.00040249,0.0000142
 4,-0.00014005,0.00023091,0.00008163,0.00006575,0.00008176,-0.00030260,
 0.00006789,0.00006696,-0.00115520,0.00097201,0.00030654,0.00066079,-0.
 00027508,0.00097546,0.00090549,0.00033915,0.00076404,0.01811473,-0.021
 14924,-0.00314672,-0.02152534,0.02522603,0.05370691\\0.00003433,0.0000
 1222,-0.00002318,-0.00005417,0.00006761,0.00005469,0.00004543,-0.00002
 701,-0.00004204,-0.00002631,-0.00003380,-0.00000906,-0.00000872,-0.000
 03038,-0.00000991,0.00001138,0.00000137,0.00000056,-0.00001931,-0.0000
 2651,-0.00002288,0.00001162,0.00000146,-0.00001108,0.00001270,0.000002
 43,-0.00001222,-0.00002681,-0.00001514,0.00000831,0.00000254,-0.000009
 57,0.00001377,-0.00000795,-0.00000421,0.00000748,0.00000818,0.00001304
 ,0.00002277,0.00001430,-0.00000428,0.00000899,-0.00000027,0.00000828,0
 .00001275,-0.00000454,0.00000662,-0.00000067,-0.00000856,0.00000417,0.
 00000053,0.00000341,0.00001125,0.00000389,0.00001275,0.00002245,-0.000
 00270\\\@


 The juvenile sea squirt wanders through the sea searching
 for a suitable rock or hunk of coral to cling to and make
 its home for life.  For this task it has a rudimentary
 nervous system.  When it finds its spot and takes root, it
 doesn't need its brain any more so it eats it.
 It's rather like getting tenure.

                               -- source unknown
 Job cpu time:       0 days  0 hours 44 minutes 39.7 seconds.
 File lengths (MBytes):  RWF=    152 Int=      0 D2E=      0 Chk=      8 Scr=      1
 Normal termination of Gaussian 09 at Mon Jan 27 18:44:13 2020.
