 Entering Gaussian System, Link 0=/home/puck/opt/gaussian_09/g09
 Input=dsC7O2H10nsd_4036.com
 Output=dsC7O2H10nsd_4036.log
 Initial command:
 /home/puck/opt/gaussian_09/l1.exe "/scratch/puck/g09_34a1f5da-aae6-4484-905a-085299d2b946/Gau-40773.inp" -scrdir="/scratch/puck/g09_34a1f5da-aae6-4484-905a-085299d2b946/"
 Entering Link 1 = /home/puck/opt/gaussian_09/l1.exe PID=     40774.
  
 Copyright (c) 1988,1990,1992,1993,1995,1998,2003,2009,2013,
            Gaussian, Inc.  All Rights Reserved.
  
 This is part of the Gaussian(R) 09 program.  It is based on
 the Gaussian(R) 03 system (copyright 2003, Gaussian, Inc.),
 the Gaussian(R) 98 system (copyright 1998, Gaussian, Inc.),
 the Gaussian(R) 94 system (copyright 1995, Gaussian, Inc.),
 the Gaussian 92(TM) system (copyright 1992, Gaussian, Inc.),
 the Gaussian 90(TM) system (copyright 1990, Gaussian, Inc.),
 the Gaussian 88(TM) system (copyright 1988, Gaussian, Inc.),
 the Gaussian 86(TM) system (copyright 1986, Carnegie Mellon
 University), and the Gaussian 82(TM) system (copyright 1983,
 Carnegie Mellon University). Gaussian is a federally registered
 trademark of Gaussian, Inc.
  
 This software contains proprietary and confidential information,
 including trade secrets, belonging to Gaussian, Inc.
  
 This software is provided under written license and may be
 used, copied, transmitted, or stored only in accord with that
 written license.
  
 The following legend is applicable only to US Government
 contracts under FAR:
  
                    RESTRICTED RIGHTS LEGEND
  
 Use, reproduction and disclosure by the US Government is
 subject to restrictions as set forth in subparagraphs (a)
 and (c) of the Commercial Computer Software - Restricted
 Rights clause in FAR 52.227-19.
  
 Gaussian, Inc.
 340 Quinnipiac St., Bldg. 40, Wallingford CT 06492
  
  
 ---------------------------------------------------------------
 Warning -- This program may not be used in any manner that
 competes with the business of Gaussian, Inc. or will provide
 assistance to any competitor of Gaussian, Inc.  The licensee
 of this program is prohibited from giving any competitor of
 Gaussian, Inc. access to this program.  By using this program,
 the user acknowledges that Gaussian, Inc. is engaged in the
 business of creating and licensing software in the field of
 computational chemistry and represents and warrants to the
 licensee that it is not a competitor of Gaussian, Inc. and that
 it will not use this program in any manner prohibited above.
 ---------------------------------------------------------------
  

 Cite this work as:
 Gaussian 09, Revision D.01,
 M. J. Frisch, G. W. Trucks, H. B. Schlegel, G. E. Scuseria, 
 M. A. Robb, J. R. Cheeseman, G. Scalmani, V. Barone, B. Mennucci, 
 G. A. Petersson, H. Nakatsuji, M. Caricato, X. Li, H. P. Hratchian, 
 A. F. Izmaylov, J. Bloino, G. Zheng, J. L. Sonnenberg, M. Hada, 
 M. Ehara, K. Toyota, R. Fukuda, J. Hasegawa, M. Ishida, T. Nakajima, 
 Y. Honda, O. Kitao, H. Nakai, T. Vreven, J. A. Montgomery, Jr., 
 J. E. Peralta, F. Ogliaro, M. Bearpark, J. J. Heyd, E. Brothers, 
 K. N. Kudin, V. N. Staroverov, T. Keith, R. Kobayashi, J. Normand, 
 K. Raghavachari, A. Rendell, J. C. Burant, S. S. Iyengar, J. Tomasi, 
 M. Cossi, N. Rega, J. M. Millam, M. Klene, J. E. Knox, J. B. Cross, 
 V. Bakken, C. Adamo, J. Jaramillo, R. Gomperts, R. E. Stratmann, 
 O. Yazyev, A. J. Austin, R. Cammi, C. Pomelli, J. W. Ochterski, 
 R. L. Martin, K. Morokuma, V. G. Zakrzewski, G. A. Voth, 
 P. Salvador, J. J. Dannenberg, S. Dapprich, A. D. Daniels, 
 O. Farkas, J. B. Foresman, J. V. Ortiz, J. Cioslowski, 
 and D. J. Fox, Gaussian, Inc., Wallingford CT, 2013.
 
 ******************************************
 Gaussian 09:  ES64L-G09RevD.01 24-Apr-2013
                28-Jan-2020 
 ******************************************
 -----------------------------
 # b3lyp 6-31G(2df,p) opt Freq
 -----------------------------
 1/14=-1,18=20,19=15,26=3,38=1/1,3;
 2/9=110,12=2,17=6,18=5,40=1/2;
 3/5=1,6=6,7=104,11=2,16=1,25=1,30=1,71=1,74=-5/1,2,3;
 4//1;
 5/5=2,38=5/2;
 6/7=2,8=2,9=2,10=2,28=1/1;
 7//1,2,3,16;
 1/14=-1,18=20,19=15,26=3/3(2);
 2/9=110/2;
 99//99;
 2/9=110/2;
 3/5=1,6=6,7=104,11=2,16=1,25=1,30=1,71=1,74=-5/1,2,3;
 4/5=5,16=3,69=1/1;
 5/5=2,38=5/2;
 7//1,2,3,16;
 1/14=-1,18=20,19=15,26=3/3(-5);
 2/9=110/2;
 6/7=2,8=2,9=2,10=2,19=2,28=1/1;
 99/9=1/99;
 -----
 titel
 -----
 Symbolic Z-matrix:
 Charge =  0 Multiplicity = 1
 O                     0.81127   0.05234   1.12424 
 C                    -0.56299   0.32761   0.98489 
 C                    -1.39827   0.13853   2.32519 
 C                    -1.26227   1.68301   2.61525 
 C                    -2.20706   2.86393   2.25996 
 C                    -2.46913   2.16726   0.90141 
 C                    -0.96087   1.80044   1.10857 
 O                    -0.28479   3.02495   0.88197 
 C                    -1.10019   3.86255   1.7745 
 H                     1.22646   0.79789   1.57118 
 H                    -0.90952  -0.2171    0.10179 
 H                    -2.40452  -0.25999   2.18831 
 H                    -0.86648  -0.47568   3.05321 
 H                    -0.46694   1.89495   3.33418 
 H                    -2.98623   3.28992   2.89524 
 H                    -3.16366   1.33157   0.95168 
 H                    -2.68188   2.79512   0.03358 
 H                    -0.46994   4.2472    2.5837 
 H                    -1.51524   4.69881   1.20405 
 

 GradGradGradGradGradGradGradGradGradGradGradGradGradGradGradGradGradGrad
 Berny optimization.
 Initialization pass.
                           ----------------------------
                           !    Initial Parameters    !
                           ! (Angstroms and Degrees)  !
 --------------------------                            --------------------------
 ! Name  Definition              Value          Derivative Info.                !
 --------------------------------------------------------------------------------
 ! R1    R(1,2)                  1.4085         estimate D2E/DX2                !
 ! R2    R(1,10)                 0.9633         estimate D2E/DX2                !
 ! R3    R(2,3)                  1.5906         estimate D2E/DX2                !
 ! R4    R(2,7)                  1.5306         estimate D2E/DX2                !
 ! R5    R(2,11)                 1.0939         estimate D2E/DX2                !
 ! R6    R(3,4)                  1.5774         estimate D2E/DX2                !
 ! R7    R(3,12)                 1.0909         estimate D2E/DX2                !
 ! R8    R(3,13)                 1.0909         estimate D2E/DX2                !
 ! R9    R(4,5)                  1.5535         estimate D2E/DX2                !
 ! R10   R(4,7)                  1.541          estimate D2E/DX2                !
 ! R11   R(4,14)                 1.0929         estimate D2E/DX2                !
 ! R12   R(5,6)                  1.5491         estimate D2E/DX2                !
 ! R13   R(5,9)                  1.5678         estimate D2E/DX2                !
 ! R14   R(5,15)                 1.0919         estimate D2E/DX2                !
 ! R15   R(6,7)                  1.566          estimate D2E/DX2                !
 ! R16   R(6,16)                 1.0878         estimate D2E/DX2                !
 ! R17   R(6,17)                 1.0921         estimate D2E/DX2                !
 ! R18   R(7,8)                  1.417          estimate D2E/DX2                !
 ! R19   R(8,9)                  1.4707         estimate D2E/DX2                !
 ! R20   R(9,18)                 1.0954         estimate D2E/DX2                !
 ! R21   R(9,19)                 1.0941         estimate D2E/DX2                !
 ! A1    A(2,1,10)             108.3712         estimate D2E/DX2                !
 ! A2    A(1,2,3)              113.9406         estimate D2E/DX2                !
 ! A3    A(1,2,7)              115.7021         estimate D2E/DX2                !
 ! A4    A(1,2,11)             106.9559         estimate D2E/DX2                !
 ! A5    A(3,2,7)               84.8244         estimate D2E/DX2                !
 ! A6    A(3,2,11)             117.0468         estimate D2E/DX2                !
 ! A7    A(7,2,11)             117.5182         estimate D2E/DX2                !
 ! A8    A(2,3,4)               89.6149         estimate D2E/DX2                !
 ! A9    A(2,3,12)             114.966          estimate D2E/DX2                !
 ! A10   A(2,3,13)             111.9187         estimate D2E/DX2                !
 ! A11   A(4,3,12)             117.406          estimate D2E/DX2                !
 ! A12   A(4,3,13)             112.7403         estimate D2E/DX2                !
 ! A13   A(12,3,13)            109.1295         estimate D2E/DX2                !
 ! A14   A(3,4,5)              130.5287         estimate D2E/DX2                !
 ! A15   A(3,4,7)               84.9335         estimate D2E/DX2                !
 ! A16   A(3,4,14)             111.9381         estimate D2E/DX2                !
 ! A17   A(5,4,7)               80.6434         estimate D2E/DX2                !
 ! A18   A(5,4,14)             116.4629         estimate D2E/DX2                !
 ! A19   A(7,4,14)             119.0827         estimate D2E/DX2                !
 ! A20   A(4,5,6)               87.7985         estimate D2E/DX2                !
 ! A21   A(4,5,9)               97.2178         estimate D2E/DX2                !
 ! A22   A(4,5,15)             126.6915         estimate D2E/DX2                !
 ! A23   A(6,5,9)               97.7199         estimate D2E/DX2                !
 ! A24   A(6,5,15)             124.4023         estimate D2E/DX2                !
 ! A25   A(9,5,15)             115.8149         estimate D2E/DX2                !
 ! A26   A(5,6,7)               80.0025         estimate D2E/DX2                !
 ! A27   A(5,6,16)             114.3931         estimate D2E/DX2                !
 ! A28   A(5,6,17)             118.12           estimate D2E/DX2                !
 ! A29   A(7,6,16)             115.3961         estimate D2E/DX2                !
 ! A30   A(7,6,17)             115.3047         estimate D2E/DX2                !
 ! A31   A(16,6,17)            110.7335         estimate D2E/DX2                !
 ! A32   A(2,7,4)               93.2401         estimate D2E/DX2                !
 ! A33   A(2,7,6)              117.7146         estimate D2E/DX2                !
 ! A34   A(2,7,8)              133.9943         estimate D2E/DX2                !
 ! A35   A(4,7,6)               87.6392         estimate D2E/DX2                !
 ! A36   A(4,7,8)              108.3923         estimate D2E/DX2                !
 ! A37   A(6,7,8)              103.6479         estimate D2E/DX2                !
 ! A38   A(7,8,9)               97.5031         estimate D2E/DX2                !
 ! A39   A(5,9,8)              102.5082         estimate D2E/DX2                !
 ! A40   A(5,9,18)             113.6477         estimate D2E/DX2                !
 ! A41   A(5,9,19)             112.3633         estimate D2E/DX2                !
 ! A42   A(8,9,18)             109.2249         estimate D2E/DX2                !
 ! A43   A(8,9,19)             109.2212         estimate D2E/DX2                !
 ! A44   A(18,9,19)            109.5738         estimate D2E/DX2                !
 ! D1    D(10,1,2,3)           -76.6339         estimate D2E/DX2                !
 ! D2    D(10,1,2,7)            19.3448         estimate D2E/DX2                !
 ! D3    D(10,1,2,11)          152.4086         estimate D2E/DX2                !
 ! D4    D(1,2,3,4)             95.7632         estimate D2E/DX2                !
 ! D5    D(1,2,3,12)          -143.9308         estimate D2E/DX2                !
 ! D6    D(1,2,3,13)           -18.6918         estimate D2E/DX2                !
 ! D7    D(7,2,3,4)            -20.1012         estimate D2E/DX2                !
 ! D8    D(7,2,3,12)           100.2048         estimate D2E/DX2                !
 ! D9    D(7,2,3,13)          -134.5562         estimate D2E/DX2                !
 ! D10   D(11,2,3,4)          -138.4374         estimate D2E/DX2                !
 ! D11   D(11,2,3,12)          -18.1314         estimate D2E/DX2                !
 ! D12   D(11,2,3,13)          107.1076         estimate D2E/DX2                !
 ! D13   D(1,2,7,4)            -93.486          estimate D2E/DX2                !
 ! D14   D(1,2,7,6)            177.4804         estimate D2E/DX2                !
 ! D15   D(1,2,7,8)             26.1141         estimate D2E/DX2                !
 ! D16   D(3,2,7,4)             20.6305         estimate D2E/DX2                !
 ! D17   D(3,2,7,6)            -68.4032         estimate D2E/DX2                !
 ! D18   D(3,2,7,8)            140.2306         estimate D2E/DX2                !
 ! D19   D(11,2,7,4)           138.5114         estimate D2E/DX2                !
 ! D20   D(11,2,7,6)            49.4778         estimate D2E/DX2                !
 ! D21   D(11,2,7,8)          -101.8885         estimate D2E/DX2                !
 ! D22   D(2,3,4,5)             93.0665         estimate D2E/DX2                !
 ! D23   D(2,3,4,7)             19.9564         estimate D2E/DX2                !
 ! D24   D(2,3,4,14)           -99.408          estimate D2E/DX2                !
 ! D25   D(12,3,4,5)           -25.0955         estimate D2E/DX2                !
 ! D26   D(12,3,4,7)           -98.2055         estimate D2E/DX2                !
 ! D27   D(12,3,4,14)          142.4301         estimate D2E/DX2                !
 ! D28   D(13,3,4,5)          -153.2337         estimate D2E/DX2                !
 ! D29   D(13,3,4,7)           133.6562         estimate D2E/DX2                !
 ! D30   D(13,3,4,14)           14.2918         estimate D2E/DX2                !
 ! D31   D(3,4,5,6)            -38.8812         estimate D2E/DX2                !
 ! D32   D(3,4,5,9)           -136.3875         estimate D2E/DX2                !
 ! D33   D(3,4,5,15)            93.6883         estimate D2E/DX2                !
 ! D34   D(7,4,5,6)             36.1303         estimate D2E/DX2                !
 ! D35   D(7,4,5,9)            -61.376          estimate D2E/DX2                !
 ! D36   D(7,4,5,15)           168.6998         estimate D2E/DX2                !
 ! D37   D(14,4,5,6)           154.0519         estimate D2E/DX2                !
 ! D38   D(14,4,5,9)            56.5456         estimate D2E/DX2                !
 ! D39   D(14,4,5,15)          -73.3786         estimate D2E/DX2                !
 ! D40   D(3,4,7,2)            -20.8073         estimate D2E/DX2                !
 ! D41   D(3,4,7,6)             96.8301         estimate D2E/DX2                !
 ! D42   D(3,4,7,8)           -159.5689         estimate D2E/DX2                !
 ! D43   D(5,4,7,2)           -153.3223         estimate D2E/DX2                !
 ! D44   D(5,4,7,6)            -35.6849         estimate D2E/DX2                !
 ! D45   D(5,4,7,8)             67.9161         estimate D2E/DX2                !
 ! D46   D(14,4,7,2)            91.5183         estimate D2E/DX2                !
 ! D47   D(14,4,7,6)          -150.8443         estimate D2E/DX2                !
 ! D48   D(14,4,7,8)           -47.2433         estimate D2E/DX2                !
 ! D49   D(4,5,6,7)            -35.544          estimate D2E/DX2                !
 ! D50   D(4,5,6,16)            77.9236         estimate D2E/DX2                !
 ! D51   D(4,5,6,17)          -148.9913         estimate D2E/DX2                !
 ! D52   D(9,5,6,7)             61.4447         estimate D2E/DX2                !
 ! D53   D(9,5,6,16)           174.9123         estimate D2E/DX2                !
 ! D54   D(9,5,6,17)           -52.0026         estimate D2E/DX2                !
 ! D55   D(15,5,6,7)          -169.8413         estimate D2E/DX2                !
 ! D56   D(15,5,6,16)          -56.3736         estimate D2E/DX2                !
 ! D57   D(15,5,6,17)           76.7115         estimate D2E/DX2                !
 ! D58   D(4,5,9,8)             47.1629         estimate D2E/DX2                !
 ! D59   D(4,5,9,18)           -70.5694         estimate D2E/DX2                !
 ! D60   D(4,5,9,19)           164.2868         estimate D2E/DX2                !
 ! D61   D(6,5,9,8)            -41.5819         estimate D2E/DX2                !
 ! D62   D(6,5,9,18)          -159.3142         estimate D2E/DX2                !
 ! D63   D(6,5,9,19)            75.5421         estimate D2E/DX2                !
 ! D64   D(15,5,9,8)          -175.9248         estimate D2E/DX2                !
 ! D65   D(15,5,9,18)           66.3429         estimate D2E/DX2                !
 ! D66   D(15,5,9,19)          -58.8008         estimate D2E/DX2                !
 ! D67   D(5,6,7,2)            128.3024         estimate D2E/DX2                !
 ! D68   D(5,6,7,4)             35.8815         estimate D2E/DX2                !
 ! D69   D(5,6,7,8)            -72.4766         estimate D2E/DX2                !
 ! D70   D(16,6,7,2)            15.9357         estimate D2E/DX2                !
 ! D71   D(16,6,7,4)           -76.4852         estimate D2E/DX2                !
 ! D72   D(16,6,7,8)           175.1568         estimate D2E/DX2                !
 ! D73   D(17,6,7,2)          -115.2079         estimate D2E/DX2                !
 ! D74   D(17,6,7,4)           152.3712         estimate D2E/DX2                !
 ! D75   D(17,6,7,8)            44.0131         estimate D2E/DX2                !
 ! D76   D(2,7,8,9)           -155.7783         estimate D2E/DX2                !
 ! D77   D(4,7,8,9)            -41.9606         estimate D2E/DX2                !
 ! D78   D(6,7,8,9)             50.1062         estimate D2E/DX2                !
 ! D79   D(7,8,9,5)             -4.39           estimate D2E/DX2                !
 ! D80   D(7,8,9,18)           116.44           estimate D2E/DX2                !
 ! D81   D(7,8,9,19)          -123.7361         estimate D2E/DX2                !
 --------------------------------------------------------------------------------
 Trust Radius=3.00D-01 FncErr=1.00D-07 GrdErr=1.00D-06
 Number of steps in this run=    114 maximum allowed number of steps=    114.
 GradGradGradGradGradGradGradGradGradGradGradGradGradGradGradGradGradGrad

                          Input orientation:                          
 ---------------------------------------------------------------------
 Center     Atomic      Atomic             Coordinates (Angstroms)
 Number     Number       Type             X           Y           Z
 ---------------------------------------------------------------------
      1          8           0        0.811273    0.052337    1.124237
      2          6           0       -0.562994    0.327609    0.984887
      3          6           0       -1.398269    0.138528    2.325194
      4          6           0       -1.262272    1.683011    2.615248
      5          6           0       -2.207057    2.863935    2.259963
      6          6           0       -2.469127    2.167262    0.901411
      7          6           0       -0.960867    1.800439    1.108566
      8          8           0       -0.284789    3.024950    0.881972
      9          6           0       -1.100195    3.862547    1.774497
     10          1           0        1.226457    0.797888    1.571176
     11          1           0       -0.909521   -0.217103    0.101794
     12          1           0       -2.404520   -0.259988    2.188306
     13          1           0       -0.866482   -0.475685    3.053206
     14          1           0       -0.466942    1.894950    3.334177
     15          1           0       -2.986230    3.289925    2.895244
     16          1           0       -3.163658    1.331571    0.951676
     17          1           0       -2.681880    2.795120    0.033584
     18          1           0       -0.469936    4.247198    2.583696
     19          1           0       -1.515236    4.698806    1.204052
 ---------------------------------------------------------------------
                    Distance matrix (angstroms):
                    1          2          3          4          5
     1  O    0.000000
     2  C    1.408475   0.000000
     3  C    2.516307   1.590553   0.000000
     4  C    3.030148   2.232528   1.577356   0.000000
     5  C    4.278466   3.280505   2.843631   1.553521   0.000000
     6  C    3.909422   2.650403   2.699936   2.151333   1.549096
     7  C    2.489293   1.530630   2.105576   1.541014   2.002431
     8  O    3.177495   2.713603   3.413819   2.400109   2.370633
     9  C    4.312104   3.661674   3.776299   2.341690   1.567816
    10  H    0.963316   1.940884   2.809357   2.840300   4.065956
    11  H    2.019683   1.093913   2.304095   3.170539   3.979207
    12  H    3.401634   2.276995   1.090915   2.293960   3.130977
    13  H    2.610477   2.239493   1.090897   2.237951   3.685028
    14  H    3.148474   2.825765   2.229447   1.092853   2.262934
    15  H    5.295230   4.277482   3.574616   2.373310   1.091860
    16  H    4.179269   2.787920   2.535054   2.550735   2.230435
    17  H    4.573237   3.388697   3.735855   3.149137   2.277489
    18  H    4.622593   4.234150   4.220165   2.683998   2.244061
    19  H    5.196988   4.479081   4.697528   3.339234   2.227177
                    6          7          8          9         10
     6  C    0.000000
     7  C    1.565989   0.000000
     8  O    2.346772   1.416988   0.000000
     9  C    2.347391   2.171444   1.470733   0.000000
    10  H    3.997638   2.450204   2.778250   3.853152   0.000000
    11  H    2.959215   2.255371   3.392621   4.413370   2.784186
    12  H    2.748056   2.737760   4.121964   4.343708   3.831964
    13  H    3.766146   2.995208   4.160177   4.528794   2.863354
    14  H    3.162475   2.281719   2.706177   2.589412   2.679425
    15  H    2.345876   3.084296   3.379535   2.267399   5.070516
    16  H    1.087787   2.257596   3.340700   3.367604   4.465614
    17  H    1.092059   2.259837   2.553160   2.583003   4.650615
    18  H    3.339608   2.898905   2.103339   1.095439   3.975007
    19  H    2.722170   2.952452   2.102267   1.094073   4.782135
                   11         12         13         14         15
    11  H    0.000000
    12  H    2.567175   0.000000
    13  H    2.963030   1.777678   0.000000
    14  H    3.886508   3.116246   2.420431   0.000000
    15  H    4.941186   3.666064   4.324129   2.912976   0.000000
    16  H    2.863882   2.153741   3.599946   3.642250   2.764794
    17  H    3.495625   3.748791   4.807488   4.075558   2.920027
    18  H    5.126700   4.920739   4.762699   2.469069   2.710197
    19  H    5.074251   5.133149   5.533137   3.673957   2.647433
                   16         17         18         19
    16  H    0.000000
    17  H    1.793594   0.000000
    18  H    4.291912   3.674819   0.000000
    19  H    3.757561   2.520927   1.788860   0.000000
 Stoichiometry    C7H10O2
 Framework group  C1[X(C7H10O2)]
 Deg. of freedom    51
 Full point group                 C1      NOp   1
 Largest Abelian subgroup         C1      NOp   1
 Largest concise Abelian subgroup C1      NOp   1
                         Standard orientation:                         
 ---------------------------------------------------------------------
 Center     Atomic      Atomic             Coordinates (Angstroms)
 Number     Number       Type             X           Y           Z
 ---------------------------------------------------------------------
      1          8           0        2.354126   -0.964659   -0.107888
      2          6           0        1.530337   -0.000228    0.504522
      3          6           0        1.252767    1.279012   -0.399004
      4          6           0       -0.102821    0.631811   -0.880219
      5          6           0       -1.545948    0.781095   -0.324768
      6          6           0       -0.935147    0.769763    1.098780
      7          6           0        0.023604   -0.240943    0.383523
      8          8           0       -0.777695   -1.396751    0.210655
      9          6           0       -1.942163   -0.734157   -0.396007
     10          1           0        1.827368   -1.448004   -0.753552
     11          1           0        1.935245    0.176029    1.505335
     12          1           0        1.193381    2.222797    0.144906
     13          1           0        1.983035    1.375464   -1.203653
     14          1           0       -0.005093    0.162106   -1.862132
     15          1           0       -2.305868    1.487732   -0.664393
     16          1           0       -0.480325    1.710873    1.399993
     17          1           0       -1.532249    0.351263    1.911750
     18          1           0       -2.076768   -1.105560   -1.417735
     19          1           0       -2.833944   -0.959532    0.196384
 ---------------------------------------------------------------------
 Rotational constants (GHZ):      3.1786286      1.6137421      1.3607666
 Standard basis: 6-31G(2df,p) (6D, 7F)
 There are   329 symmetry adapted cartesian basis functions of A   symmetry.
 There are   302 symmetry adapted basis functions of A   symmetry.
   302 basis functions,   466 primitive gaussians,   329 cartesian basis functions
    34 alpha electrons       34 beta electrons
       nuclear repulsion energy       486.5165300590 Hartrees.
 NAtoms=   19 NActive=   19 NUniq=   19 SFac= 1.00D+00 NAtFMM=   60 NAOKFM=F Big=F
 Integral buffers will be    131072 words long.
 Raffenetti 2 integral format.
 Two-electron integral symmetry is turned on.
 One-electron integrals computed using PRISM.
 NBasis=   302 RedAO= T EigKep=  3.47D-04  NBF=   302
 NBsUse=   302 1.00D-06 EigRej= -1.00D+00 NBFU=   302
 ExpMin= 1.61D-01 ExpMax= 5.48D+03 ExpMxC= 8.25D+02 IAcc=1 IRadAn=         1 AccDes= 0.00D+00
 Harris functional with IExCor=  402 and IRadAn=       1 diagonalized for initial guess.
 HarFok:  IExCor=  402 AccDes= 0.00D+00 IRadAn=         1 IDoV= 1 UseB2=F ITyADJ=14
 ICtDFT=  3500011 ScaDFX=  1.000000  1.000000  1.000000  1.000000
 FoFCou: FMM=F IPFlag=           0 FMFlag=      100000 FMFlg1=           0
         NFxFlg=           0 DoJE=T BraDBF=F KetDBF=T FulRan=T
         wScrn=  0.000000 ICntrl=     500 IOpCl=  0 I1Cent=   200000004 NGrid=           0
         NMat0=    1 NMatS0=      1 NMatT0=    0 NMatD0=    1 NMtDS0=    0 NMtDT0=    0
 Petite list used in FoFCou.
 Requested convergence on RMS density matrix=1.00D-08 within 128 cycles.
 Requested convergence on MAX density matrix=1.00D-06.
 Requested convergence on             energy=1.00D-06.
 No special actions if energy rises.
 Integral accuracy reduced to 1.0D-05 until final iterations.
 Initial convergence to 1.0D-05 achieved.  Increase integral accuracy.
 SCF Done:  E(RB3LYP) =  -423.107372622     A.U. after   13 cycles
            NFock= 13  Conv=0.45D-08     -V/T= 2.0073

 **********************************************************************

            Population analysis using the SCF density.

 **********************************************************************

 Orbital symmetries:
       Occupied  (A) (A) (A) (A) (A) (A) (A) (A) (A) (A) (A) (A)
                 (A) (A) (A) (A) (A) (A) (A) (A) (A) (A) (A) (A)
                 (A) (A) (A) (A) (A) (A) (A) (A) (A) (A)
       Virtual   (A) (A) (A) (A) (A) (A) (A) (A) (A) (A) (A) (A)
                 (A) (A) (A) (A) (A) (A) (A) (A) (A) (A) (A) (A)
                 (A) (A) (A) (A) (A) (A) (A) (A) (A) (A) (A) (A)
                 (A) (A) (A) (A) (A) (A) (A) (A) (A) (A) (A) (A)
                 (A) (A) (A) (A) (A) (A) (A) (A) (A) (A) (A) (A)
                 (A) (A) (A) (A) (A) (A) (A) (A) (A) (A) (A) (A)
                 (A) (A) (A) (A) (A) (A) (A) (A) (A) (A) (A) (A)
                 (A) (A) (A) (A) (A) (A) (A) (A) (A) (A) (A) (A)
                 (A) (A) (A) (A) (A) (A) (A) (A) (A) (A) (A) (A)
                 (A) (A) (A) (A) (A) (A) (A) (A) (A) (A) (A) (A)
                 (A) (A) (A) (A) (A) (A) (A) (A) (A) (A) (A) (A)
                 (A) (A) (A) (A) (A) (A) (A) (A) (A) (A) (A) (A)
                 (A) (A) (A) (A) (A) (A) (A) (A) (A) (A) (A) (A)
                 (A) (A) (A) (A) (A) (A) (A) (A) (A) (A) (A) (A)
                 (A) (A) (A) (A) (A) (A) (A) (A) (A) (A) (A) (A)
                 (A) (A) (A) (A) (A) (A) (A) (A) (A) (A) (A) (A)
                 (A) (A) (A) (A) (A) (A) (A) (A) (A) (A) (A) (A)
                 (A) (A) (A) (A) (A) (A) (A) (A) (A) (A) (A) (A)
                 (A) (A) (A) (A) (A) (A) (A) (A) (A) (A) (A) (A)
                 (A) (A) (A) (A) (A) (A) (A) (A) (A) (A) (A) (A)
                 (A) (A) (A) (A) (A) (A) (A) (A) (A) (A) (A) (A)
                 (A) (A) (A) (A) (A) (A) (A) (A) (A) (A) (A) (A)
                 (A) (A) (A) (A)
 The electronic state is 1-A.
 Alpha  occ. eigenvalues --  -19.14289 -19.13881 -10.24077 -10.23674 -10.23493
 Alpha  occ. eigenvalues --  -10.20830 -10.19060 -10.18693 -10.18488  -1.04746
 Alpha  occ. eigenvalues --   -1.02069  -0.86698  -0.77195  -0.70004  -0.65860
 Alpha  occ. eigenvalues --   -0.62570  -0.57804  -0.53515  -0.51886  -0.50131
 Alpha  occ. eigenvalues --   -0.47206  -0.45191  -0.44150  -0.39395  -0.38953
 Alpha  occ. eigenvalues --   -0.37982  -0.36906  -0.36379  -0.33506  -0.32478
 Alpha  occ. eigenvalues --   -0.31733  -0.27576  -0.26613  -0.23059
 Alpha virt. eigenvalues --    0.05899   0.08493   0.10323   0.10605   0.12165
 Alpha virt. eigenvalues --    0.13217   0.14542   0.14915   0.16071   0.16498
 Alpha virt. eigenvalues --    0.17553   0.19135   0.19788   0.20627   0.22069
 Alpha virt. eigenvalues --    0.22930   0.23436   0.25505   0.27479   0.31311
 Alpha virt. eigenvalues --    0.36113   0.41677   0.44109   0.44864   0.45855
 Alpha virt. eigenvalues --    0.47257   0.48280   0.49245   0.51879   0.53133
 Alpha virt. eigenvalues --    0.55419   0.55924   0.58082   0.59234   0.60926
 Alpha virt. eigenvalues --    0.61645   0.62994   0.64590   0.66716   0.68633
 Alpha virt. eigenvalues --    0.70222   0.71289   0.73140   0.74575   0.75414
 Alpha virt. eigenvalues --    0.76512   0.77444   0.77935   0.79584   0.80791
 Alpha virt. eigenvalues --    0.82455   0.84130   0.85667   0.87350   0.91082
 Alpha virt. eigenvalues --    0.93007   0.94386   0.96272   0.98273   1.00036
 Alpha virt. eigenvalues --    1.00694   1.04177   1.07354   1.08346   1.11788
 Alpha virt. eigenvalues --    1.14693   1.18228   1.21015   1.21958   1.24217
 Alpha virt. eigenvalues --    1.27043   1.30700   1.31534   1.33961   1.35886
 Alpha virt. eigenvalues --    1.37997   1.40279   1.41161   1.41601   1.44997
 Alpha virt. eigenvalues --    1.45496   1.46691   1.47749   1.50617   1.51062
 Alpha virt. eigenvalues --    1.54176   1.55201   1.57919   1.59866   1.60669
 Alpha virt. eigenvalues --    1.61875   1.63849   1.64034   1.65442   1.67205
 Alpha virt. eigenvalues --    1.70292   1.71301   1.74184   1.77637   1.78651
 Alpha virt. eigenvalues --    1.86486   1.89188   1.90944   1.92638   1.95007
 Alpha virt. eigenvalues --    1.96321   2.02249   2.05577   2.10213   2.12617
 Alpha virt. eigenvalues --    2.14325   2.19969   2.26737   2.30699   2.32639
 Alpha virt. eigenvalues --    2.34123   2.36241   2.38132   2.42337   2.44510
 Alpha virt. eigenvalues --    2.46809   2.49900   2.53019   2.56465   2.57194
 Alpha virt. eigenvalues --    2.58378   2.61763   2.68075   2.69187   2.70905
 Alpha virt. eigenvalues --    2.76543   2.77494   2.78902   2.83166   2.84626
 Alpha virt. eigenvalues --    2.88167   2.89355   2.91120   2.92335   2.94282
 Alpha virt. eigenvalues --    2.96068   3.00136   3.01677   3.03644   3.04531
 Alpha virt. eigenvalues --    3.07206   3.08358   3.11310   3.13895   3.15547
 Alpha virt. eigenvalues --    3.17221   3.19983   3.20796   3.24468   3.27024
 Alpha virt. eigenvalues --    3.28851   3.29831   3.34109   3.35285   3.36334
 Alpha virt. eigenvalues --    3.40456   3.43132   3.44256   3.45560   3.47490
 Alpha virt. eigenvalues --    3.50574   3.54247   3.59312   3.63250   3.67208
 Alpha virt. eigenvalues --    3.71148   3.71944   3.73344   3.77522   3.79229
 Alpha virt. eigenvalues --    3.84573   3.86830   3.93704   3.97275   3.99426
 Alpha virt. eigenvalues --    4.05449   4.10494   4.11731   4.17990   4.18454
 Alpha virt. eigenvalues --    4.21003   4.23041   4.26041   4.30047   4.32211
 Alpha virt. eigenvalues --    4.34095   4.35929   4.36120   4.39557   4.42960
 Alpha virt. eigenvalues --    4.45693   4.46884   4.48156   4.51173   4.51988
 Alpha virt. eigenvalues --    4.53275   4.56279   4.56980   4.58442   4.60770
 Alpha virt. eigenvalues --    4.63356   4.65231   4.67454   4.68414   4.69692
 Alpha virt. eigenvalues --    4.72051   4.73745   4.74156   4.77377   4.80278
 Alpha virt. eigenvalues --    4.80999   4.83056   4.84126   4.85437   4.88096
 Alpha virt. eigenvalues --    4.90372   4.93421   4.97307   5.00450   5.02866
 Alpha virt. eigenvalues --    5.05504   5.09363   5.12083   5.17461   5.18634
 Alpha virt. eigenvalues --    5.21105   5.25065   5.30082   5.35722   5.36909
 Alpha virt. eigenvalues --    5.41173   5.44938   5.45499   5.50242   5.50889
 Alpha virt. eigenvalues --    5.53477   5.59784   5.63503   5.68119   5.72971
 Alpha virt. eigenvalues --    5.76311   5.85782   5.86925   5.91782   5.96689
 Alpha virt. eigenvalues --    5.99563   6.05949   6.12613   6.18813   6.24588
 Alpha virt. eigenvalues --    6.43074   7.01505   7.21378   7.53106  11.05886
 Alpha virt. eigenvalues --   11.42727  11.79290  12.01202  12.25345  12.40182
 Alpha virt. eigenvalues --   13.10037  13.39559  13.69555
          Condensed to atoms (all electrons):
               1          2          3          4          5          6
     1  O    7.825803   0.367361  -0.035152   0.000461   0.000058   0.003527
     2  C    0.367361   4.825045   0.279223  -0.038749   0.004374  -0.055519
     3  C   -0.035152   0.279223   5.280884   0.272283  -0.005633   0.022031
     4  C    0.000461  -0.038749   0.272283   5.027931   0.371383  -0.092645
     5  C    0.000058   0.004374  -0.005633   0.371383   4.880968   0.336303
     6  C    0.003527  -0.055519   0.022031  -0.092645   0.336303   5.200546
     7  C   -0.024239   0.369472  -0.084354   0.304584  -0.027806   0.287739
     8  O   -0.002141  -0.028426   0.004473  -0.070004  -0.025159  -0.056828
     9  C   -0.000227   0.008096   0.003659  -0.042494   0.382189  -0.028218
    10  H    0.322601  -0.084337   0.001301   0.003714   0.000041   0.000526
    11  H   -0.029261   0.358067  -0.066085   0.015661   0.000004  -0.009018
    12  H    0.001986  -0.015838   0.337774  -0.012370  -0.007934  -0.001090
    13  H    0.000279  -0.012848   0.337946  -0.010955   0.002218  -0.001068
    14  H    0.001232  -0.005715  -0.036019   0.353405  -0.051193   0.013334
    15  H    0.000002  -0.000461  -0.001156  -0.034568   0.362600  -0.039144
    16  H    0.000030  -0.004707   0.003082  -0.008866  -0.020806   0.356874
    17  H   -0.000033   0.001506  -0.000567   0.009629  -0.027800   0.348496
    18  H   -0.000007   0.000240  -0.000087  -0.000670  -0.033140   0.002794
    19  H    0.000001  -0.000317  -0.000140   0.001637  -0.024923  -0.002862
               7          8          9         10         11         12
     1  O   -0.024239  -0.002141  -0.000227   0.322601  -0.029261   0.001986
     2  C    0.369472  -0.028426   0.008096  -0.084337   0.358067  -0.015838
     3  C   -0.084354   0.004473   0.003659   0.001301  -0.066085   0.337774
     4  C    0.304584  -0.070004  -0.042494   0.003714   0.015661  -0.012370
     5  C   -0.027806  -0.025159   0.382189   0.000041   0.000004  -0.007934
     6  C    0.287739  -0.056828  -0.028218   0.000526  -0.009018  -0.001090
     7  C    4.521635   0.421977  -0.144052  -0.001463  -0.034356   0.001350
     8  O    0.421977   7.785763   0.364951   0.004076   0.000095  -0.000071
     9  C   -0.144052   0.364951   4.865477  -0.000524  -0.000249   0.000007
    10  H   -0.001463   0.004076  -0.000524   0.452918   0.006707  -0.000065
    11  H   -0.034356   0.000095  -0.000249   0.006707   0.667730  -0.000289
    12  H    0.001350  -0.000071   0.000007  -0.000065  -0.000289   0.611396
    13  H    0.003542  -0.000083  -0.000058   0.000201   0.003816  -0.032563
    14  H   -0.017953  -0.000793  -0.002523   0.001712  -0.000435   0.004086
    15  H    0.011204   0.001961  -0.045109   0.000004   0.000032   0.000187
    16  H   -0.014157   0.002838   0.003831  -0.000014   0.001203   0.003133
    17  H   -0.007918  -0.001362  -0.005889  -0.000008   0.000585   0.000052
    18  H    0.004687  -0.027951   0.363073  -0.000058   0.000006   0.000007
    19  H    0.001170  -0.023119   0.364187   0.000017  -0.000004  -0.000001
              13         14         15         16         17         18
     1  O    0.000279   0.001232   0.000002   0.000030  -0.000033  -0.000007
     2  C   -0.012848  -0.005715  -0.000461  -0.004707   0.001506   0.000240
     3  C    0.337946  -0.036019  -0.001156   0.003082  -0.000567  -0.000087
     4  C   -0.010955   0.353405  -0.034568  -0.008866   0.009629  -0.000670
     5  C    0.002218  -0.051193   0.362600  -0.020806  -0.027800  -0.033140
     6  C   -0.001068   0.013334  -0.039144   0.356874   0.348496   0.002794
     7  C    0.003542  -0.017953   0.011204  -0.014157  -0.007918   0.004687
     8  O   -0.000083  -0.000793   0.001961   0.002838  -0.001362  -0.027951
     9  C   -0.000058  -0.002523  -0.045109   0.003831  -0.005889   0.363073
    10  H    0.000201   0.001712   0.000004  -0.000014  -0.000008  -0.000058
    11  H    0.003816  -0.000435   0.000032   0.001203   0.000585   0.000006
    12  H   -0.032563   0.004086   0.000187   0.003133   0.000052   0.000007
    13  H    0.602451  -0.007259   0.000017   0.000148  -0.000011  -0.000012
    14  H   -0.007259   0.674371   0.000692  -0.000146  -0.000567   0.002996
    15  H    0.000017   0.000692   0.669702  -0.000666   0.000962   0.001301
    16  H    0.000148  -0.000146  -0.000666   0.606667  -0.036907  -0.000141
    17  H   -0.000011  -0.000567   0.000962  -0.036907   0.616334   0.000197
    18  H   -0.000012   0.002996   0.001301  -0.000141   0.000197   0.631593
    19  H    0.000001  -0.000009   0.001776  -0.000118   0.002233  -0.050029
              19
     1  O    0.000001
     2  C   -0.000317
     3  C   -0.000140
     4  C    0.001637
     5  C   -0.024923
     6  C   -0.002862
     7  C    0.001170
     8  O   -0.023119
     9  C    0.364187
    10  H    0.000017
    11  H   -0.000004
    12  H   -0.000001
    13  H    0.000001
    14  H   -0.000009
    15  H    0.001776
    16  H   -0.000118
    17  H    0.002233
    18  H   -0.050029
    19  H    0.619369
 Mulliken charges:
               1
     1  O   -0.432283
     2  C    0.033535
     3  C   -0.313464
     4  C   -0.049368
     5  C   -0.115744
     6  C   -0.285780
     7  C    0.428938
     8  O   -0.350196
     9  C   -0.086126
    10  H    0.292650
    11  H    0.085792
    12  H    0.110240
    13  H    0.114239
    14  H    0.070783
    15  H    0.070664
    16  H    0.108721
    17  H    0.101067
    18  H    0.105201
    19  H    0.111131
 Sum of Mulliken charges =   0.00000
 Mulliken charges with hydrogens summed into heavy atoms:
               1
     1  O   -0.139633
     2  C    0.119327
     3  C   -0.088985
     4  C    0.021416
     5  C   -0.045080
     6  C   -0.075991
     7  C    0.428938
     8  O   -0.350196
     9  C    0.130205
 Electronic spatial extent (au):  <R**2>=            988.8157
 Charge=              0.0000 electrons
 Dipole moment (field-independent basis, Debye):
    X=             -1.6280    Y=              1.5027    Z=             -0.7266  Tot=              2.3316
 Quadrupole moment (field-independent basis, Debye-Ang):
   XX=            -55.4603   YY=            -55.3267   ZZ=            -50.9813
   XY=              1.4162   XZ=             -0.1172   YZ=              2.9815
 Traceless Quadrupole moment (field-independent basis, Debye-Ang):
   XX=             -1.5375   YY=             -1.4039   ZZ=              2.9415
   XY=              1.4162   XZ=             -0.1172   YZ=              2.9815
 Octapole moment (field-independent basis, Debye-Ang**2):
  XXX=            -19.3457  YYY=             -6.3942  ZZZ=             -0.6458  XYY=              4.7374
  XXY=              0.9015  XXZ=             -1.6356  XZZ=              4.6252  YZZ=             -5.7252
  YYZ=             -2.8529  XYZ=              1.9264
 Hexadecapole moment (field-independent basis, Debye-Ang**3):
 XXXX=           -759.0977 YYYY=           -333.3788 ZZZZ=           -203.8104 XXXY=             20.0418
 XXXZ=             -1.5252 YYYX=            -11.4292 YYYZ=             10.9175 ZZZX=             -3.3947
 ZZZY=              3.6677 XXYY=           -175.9546 XXZZ=           -145.5762 YYZZ=            -88.3523
 XXYZ=              3.0649 YYXZ=             -3.3640 ZZXY=             -2.1677
 N-N= 4.865165300590D+02 E-N=-1.959790212263D+03  KE= 4.200292167587D+02
 Calling FoFJK, ICntrl=      2127 FMM=F ISym2X=0 I1Cent= 0 IOpClX= 0 NMat=1 NMatS=1 NMatT=0.
 ***** Axes restored to original set *****
 -------------------------------------------------------------------
 Center     Atomic                   Forces (Hartrees/Bohr)
 Number     Number              X              Y              Z
 -------------------------------------------------------------------
      1        8           0.000005560   -0.000001570    0.000016518
      2        6          -0.000000142    0.000006609    0.000005777
      3        6          -0.000018989   -0.000010230   -0.000012162
      4        6          -0.000001581    0.000018932    0.000014253
      5        6           0.000007695   -0.000012561   -0.000013581
      6        6           0.000005627   -0.000001380    0.000006395
      7        6          -0.000007400   -0.000029152    0.000000499
      8        8          -0.000001828    0.000026981    0.000016483
      9        6           0.000018614   -0.000004306   -0.000025499
     10        1          -0.000001822   -0.000003743    0.000012208
     11        1           0.000003630   -0.000001345    0.000002475
     12        1          -0.000003438    0.000001708   -0.000002650
     13        1          -0.000001660    0.000003927    0.000002114
     14        1          -0.000010352    0.000000286    0.000007040
     15        1          -0.000006978    0.000000260   -0.000008225
     16        1           0.000002780    0.000001688   -0.000011719
     17        1           0.000012500    0.000002771   -0.000010084
     18        1          -0.000004830    0.000000095    0.000003589
     19        1           0.000002611    0.000001031   -0.000003431
 -------------------------------------------------------------------
 Cartesian Forces:  Max     0.000029152 RMS     0.000010203

 GradGradGradGradGradGradGradGradGradGradGradGradGradGradGradGradGradGrad
 Berny optimization.
 FormGI is forming the generalized inverse of G from B-inverse, IUseBI=4.
 Internal  Forces:  Max     0.000019699 RMS     0.000003147
 Search for a local minimum.
 Step number   1 out of a maximum of  114
 All quantities printed in internal units (Hartrees-Bohrs-Radians)
 Mixed Optimization -- En-DIIS/RFO-DIIS
 Second derivative matrix not updated -- first step.
 ITU=  0
     Eigenvalues ---    0.00719   0.00958   0.01580   0.01795   0.02221
     Eigenvalues ---    0.02531   0.02908   0.03096   0.03249   0.03686
     Eigenvalues ---    0.03937   0.04292   0.04607   0.04818   0.05082
     Eigenvalues ---    0.05423   0.05567   0.06006   0.06380   0.06519
     Eigenvalues ---    0.06858   0.07845   0.08742   0.09337   0.09746
     Eigenvalues ---    0.10768   0.10838   0.13073   0.14511   0.15557
     Eigenvalues ---    0.16000   0.20211   0.22099   0.23167   0.23796
     Eigenvalues ---    0.24591   0.25792   0.27694   0.32425   0.34192
     Eigenvalues ---    0.34346   0.34364   0.34485   0.34576   0.34599
     Eigenvalues ---    0.34707   0.34709   0.35070   0.39827   0.44244
     Eigenvalues ---    0.54766
 RFO step:  Lambda= 0.00000000D+00 EMin= 7.19070290D-03
 Linear search not attempted -- first point.
 Iteration  1 RMS(Cart)=  0.00004508 RMS(Int)=  0.00000000
 Iteration  2 RMS(Cart)=  0.00000000 RMS(Int)=  0.00000000
 Variable       Old X    -DE/DX   Delta X   Delta X   Delta X     New X
                                 (Linear)    (Quad)   (Total)
    R1        2.66163   0.00000   0.00000   0.00001   0.00001   2.66164
    R2        1.82040   0.00000   0.00000   0.00000   0.00000   1.82040
    R3        3.00571   0.00000   0.00000  -0.00002  -0.00002   3.00569
    R4        2.89247  -0.00001   0.00000  -0.00003  -0.00003   2.89244
    R5        2.06720   0.00000   0.00000   0.00000   0.00000   2.06720
    R6        2.98077   0.00001   0.00000   0.00004   0.00004   2.98081
    R7        2.06153   0.00000   0.00000   0.00000   0.00000   2.06153
    R8        2.06150   0.00000   0.00000   0.00000   0.00000   2.06150
    R9        2.93573  -0.00001   0.00000  -0.00002  -0.00002   2.93570
   R10        2.91210   0.00000   0.00000   0.00001   0.00001   2.91210
   R11        2.06519   0.00000   0.00000   0.00000   0.00000   2.06519
   R12        2.92737  -0.00001   0.00000  -0.00003  -0.00003   2.92734
   R13        2.96274   0.00001   0.00000   0.00002   0.00002   2.96277
   R14        2.06332   0.00000   0.00000   0.00000   0.00000   2.06332
   R15        2.95929  -0.00001   0.00000  -0.00002  -0.00002   2.95927
   R16        2.05562   0.00000   0.00000   0.00000   0.00000   2.05562
   R17        2.06369   0.00000   0.00000   0.00001   0.00001   2.06370
   R18        2.67772   0.00002   0.00000   0.00005   0.00005   2.67777
   R19        2.77928  -0.00002   0.00000  -0.00006  -0.00006   2.77922
   R20        2.07008   0.00000   0.00000   0.00000   0.00000   2.07008
   R21        2.06750   0.00000   0.00000   0.00000   0.00000   2.06750
    A1        1.89143   0.00000   0.00000  -0.00001  -0.00001   1.89143
    A2        1.98864   0.00000   0.00000  -0.00002  -0.00002   1.98862
    A3        2.01938   0.00000   0.00000   0.00000   0.00000   2.01939
    A4        1.86673   0.00000   0.00000   0.00002   0.00002   1.86676
    A5        1.48046   0.00000   0.00000   0.00000   0.00000   1.48046
    A6        2.04285   0.00000   0.00000  -0.00001  -0.00001   2.04285
    A7        2.05108   0.00000   0.00000  -0.00001  -0.00001   2.05107
    A8        1.56407   0.00000   0.00000   0.00000   0.00000   1.56408
    A9        2.00653   0.00000   0.00000   0.00004   0.00004   2.00657
   A10        1.95335   0.00000   0.00000  -0.00007  -0.00007   1.95328
   A11        2.04912   0.00000   0.00000   0.00002   0.00002   2.04914
   A12        1.96769   0.00000   0.00000  -0.00004  -0.00004   1.96765
   A13        1.90467   0.00000   0.00000   0.00003   0.00003   1.90470
   A14        2.27816   0.00000   0.00000  -0.00003  -0.00003   2.27813
   A15        1.48237   0.00000   0.00000  -0.00003  -0.00003   1.48234
   A16        1.95369   0.00000   0.00000   0.00002   0.00002   1.95370
   A17        1.40749   0.00000   0.00000  -0.00002  -0.00002   1.40748
   A18        2.03266   0.00000   0.00000   0.00001   0.00001   2.03268
   A19        2.07838   0.00000   0.00000   0.00005   0.00005   2.07843
   A20        1.53237   0.00000   0.00000   0.00002   0.00002   1.53239
   A21        1.69677   0.00000   0.00000   0.00006   0.00006   1.69683
   A22        2.21118   0.00000   0.00000  -0.00003  -0.00003   2.21115
   A23        1.70553   0.00000   0.00000  -0.00003  -0.00003   1.70550
   A24        2.17123   0.00000   0.00000  -0.00002  -0.00002   2.17121
   A25        2.02135   0.00000   0.00000   0.00001   0.00001   2.02136
   A26        1.39631   0.00000   0.00000  -0.00001  -0.00001   1.39630
   A27        1.99654   0.00000   0.00000   0.00003   0.00003   1.99657
   A28        2.06158   0.00000   0.00000  -0.00002  -0.00002   2.06157
   A29        2.01404   0.00000   0.00000   0.00002   0.00002   2.01406
   A30        2.01245   0.00000   0.00000  -0.00004  -0.00004   2.01241
   A31        1.93266   0.00000   0.00000   0.00001   0.00001   1.93267
   A32        1.62735   0.00000   0.00000   0.00002   0.00002   1.62737
   A33        2.05451   0.00000   0.00000  -0.00001  -0.00001   2.05450
   A34        2.33864   0.00000   0.00000   0.00001   0.00001   2.33866
   A35        1.52959   0.00000   0.00000   0.00000   0.00000   1.52960
   A36        1.89180   0.00000   0.00000   0.00000   0.00000   1.89180
   A37        1.80900   0.00000   0.00000  -0.00002  -0.00002   1.80898
   A38        1.70175   0.00000   0.00000   0.00001   0.00001   1.70176
   A39        1.78911   0.00000   0.00000  -0.00001  -0.00001   1.78910
   A40        1.98353   0.00000   0.00000  -0.00002  -0.00002   1.98350
   A41        1.96111   0.00000   0.00000  -0.00001  -0.00001   1.96110
   A42        1.90633   0.00000   0.00000   0.00002   0.00002   1.90635
   A43        1.90627   0.00000   0.00000   0.00002   0.00002   1.90629
   A44        1.91242   0.00000   0.00000   0.00000   0.00000   1.91243
    D1       -1.33751   0.00000   0.00000   0.00000   0.00000  -1.33752
    D2        0.33763   0.00000   0.00000  -0.00001  -0.00001   0.33762
    D3        2.66003   0.00000   0.00000   0.00000   0.00000   2.66003
    D4        1.67138   0.00000   0.00000  -0.00001  -0.00001   1.67138
    D5       -2.51207   0.00000   0.00000   0.00003   0.00003  -2.51204
    D6       -0.32623   0.00000   0.00000   0.00004   0.00004  -0.32619
    D7       -0.35083   0.00000   0.00000  -0.00001  -0.00001  -0.35084
    D8        1.74890   0.00000   0.00000   0.00003   0.00003   1.74893
    D9       -2.34845   0.00000   0.00000   0.00004   0.00004  -2.34841
   D10       -2.41619   0.00000   0.00000   0.00000   0.00000  -2.41619
   D11       -0.31645   0.00000   0.00000   0.00004   0.00004  -0.31641
   D12        1.86938   0.00000   0.00000   0.00005   0.00005   1.86943
   D13       -1.63164   0.00000   0.00000   0.00004   0.00004  -1.63160
   D14        3.09762   0.00000   0.00000   0.00002   0.00002   3.09764
   D15        0.45578   0.00000   0.00000   0.00007   0.00007   0.45585
   D16        0.36007   0.00000   0.00000   0.00001   0.00001   0.36008
   D17       -1.19386   0.00000   0.00000   0.00000   0.00000  -1.19386
   D18        2.44749   0.00000   0.00000   0.00005   0.00005   2.44753
   D19        2.41748   0.00000   0.00000   0.00001   0.00001   2.41749
   D20        0.86355   0.00000   0.00000  -0.00001  -0.00001   0.86354
   D21       -1.77829   0.00000   0.00000   0.00004   0.00004  -1.77825
   D22        1.62432   0.00000   0.00000  -0.00003  -0.00003   1.62428
   D23        0.34830   0.00000   0.00000   0.00001   0.00001   0.34831
   D24       -1.73500   0.00000   0.00000  -0.00003  -0.00003  -1.73503
   D25       -0.43800   0.00000   0.00000  -0.00008  -0.00008  -0.43808
   D26       -1.71401   0.00000   0.00000  -0.00004  -0.00004  -1.71405
   D27        2.48587   0.00000   0.00000  -0.00008  -0.00008   2.48579
   D28       -2.67443  -0.00001   0.00000  -0.00011  -0.00011  -2.67454
   D29        2.33274   0.00000   0.00000  -0.00007  -0.00007   2.33267
   D30        0.24944   0.00000   0.00000  -0.00011  -0.00011   0.24933
   D31       -0.67861   0.00000   0.00000   0.00005   0.00005  -0.67856
   D32       -2.38041   0.00000   0.00000   0.00008   0.00008  -2.38033
   D33        1.63517   0.00000   0.00000   0.00002   0.00002   1.63519
   D34        0.63059   0.00000   0.00000   0.00000   0.00000   0.63059
   D35       -1.07121   0.00000   0.00000   0.00004   0.00004  -1.07118
   D36        2.94437   0.00000   0.00000  -0.00003  -0.00003   2.94434
   D37        2.68871   0.00000   0.00000   0.00005   0.00005   2.68876
   D38        0.98691   0.00000   0.00000   0.00008   0.00008   0.98699
   D39       -1.28070   0.00000   0.00000   0.00002   0.00002  -1.28068
   D40       -0.36316   0.00000   0.00000  -0.00001  -0.00001  -0.36317
   D41        1.69000   0.00000   0.00000  -0.00002  -0.00002   1.68999
   D42       -2.78500   0.00000   0.00000  -0.00004  -0.00004  -2.78504
   D43       -2.67598   0.00000   0.00000   0.00001   0.00001  -2.67597
   D44       -0.62282   0.00000   0.00000   0.00000   0.00000  -0.62282
   D45        1.18536   0.00000   0.00000  -0.00002  -0.00002   1.18534
   D46        1.59729   0.00000   0.00000   0.00000   0.00000   1.59729
   D47       -2.63273   0.00000   0.00000  -0.00001  -0.00001  -2.63274
   D48       -0.82455   0.00000   0.00000  -0.00003  -0.00003  -0.82458
   D49       -0.62036   0.00000   0.00000  -0.00001  -0.00001  -0.62037
   D50        1.36002   0.00000   0.00000   0.00001   0.00001   1.36004
   D51       -2.60039   0.00000   0.00000   0.00004   0.00004  -2.60035
   D52        1.07241   0.00000   0.00000   0.00006   0.00006   1.07247
   D53        3.05280   0.00000   0.00000   0.00008   0.00008   3.05287
   D54       -0.90762   0.00000   0.00000   0.00011   0.00011  -0.90751
   D55       -2.96429   0.00000   0.00000   0.00003   0.00003  -2.96426
   D56       -0.98391   0.00000   0.00000   0.00005   0.00005  -0.98386
   D57        1.33887   0.00000   0.00000   0.00008   0.00008   1.33894
   D58        0.82315   0.00000   0.00000  -0.00007  -0.00007   0.82308
   D59       -1.23167   0.00000   0.00000  -0.00007  -0.00007  -1.23174
   D60        2.86735   0.00000   0.00000  -0.00005  -0.00005   2.86730
   D61       -0.72574   0.00000   0.00000  -0.00009  -0.00009  -0.72583
   D62       -2.78056   0.00000   0.00000  -0.00009  -0.00009  -2.78065
   D63        1.31846   0.00000   0.00000  -0.00007  -0.00007   1.31839
   D64       -3.07047   0.00000   0.00000  -0.00004  -0.00004  -3.07051
   D65        1.15790   0.00000   0.00000  -0.00005  -0.00005   1.15785
   D66       -1.02627   0.00000   0.00000  -0.00002  -0.00002  -1.02629
   D67        2.23930   0.00000   0.00000   0.00003   0.00003   2.23933
   D68        0.62625   0.00000   0.00000   0.00000   0.00000   0.62625
   D69       -1.26495   0.00000   0.00000   0.00000   0.00000  -1.26495
   D70        0.27813   0.00000   0.00000  -0.00001  -0.00001   0.27812
   D71       -1.33492   0.00000   0.00000  -0.00003  -0.00003  -1.33495
   D72        3.05706   0.00000   0.00000  -0.00003  -0.00003   3.05703
   D73       -2.01076   0.00000   0.00000   0.00000   0.00000  -2.01075
   D74        2.65938   0.00000   0.00000  -0.00002  -0.00002   2.65935
   D75        0.76817   0.00000   0.00000  -0.00002  -0.00002   0.76815
   D76       -2.71884   0.00000   0.00000  -0.00010  -0.00010  -2.71894
   D77       -0.73235   0.00000   0.00000  -0.00005  -0.00005  -0.73240
   D78        0.87452   0.00000   0.00000  -0.00005  -0.00005   0.87446
   D79       -0.07662   0.00000   0.00000   0.00008   0.00008  -0.07654
   D80        2.03226   0.00000   0.00000   0.00005   0.00005   2.03231
   D81       -2.15960   0.00000   0.00000   0.00008   0.00008  -2.15952
         Item               Value     Threshold  Converged?
 Maximum Force            0.000020     0.000450     YES
 RMS     Force            0.000003     0.000300     YES
 Maximum Displacement     0.000210     0.001800     YES
 RMS     Displacement     0.000045     0.001200     YES
 Predicted change in Energy=-4.891996D-09
 Optimization completed.
    -- Stationary point found.
                           ----------------------------
                           !   Optimized Parameters   !
                           ! (Angstroms and Degrees)  !
 --------------------------                            --------------------------
 ! Name  Definition              Value          Derivative Info.                !
 --------------------------------------------------------------------------------
 ! R1    R(1,2)                  1.4085         -DE/DX =    0.0                 !
 ! R2    R(1,10)                 0.9633         -DE/DX =    0.0                 !
 ! R3    R(2,3)                  1.5906         -DE/DX =    0.0                 !
 ! R4    R(2,7)                  1.5306         -DE/DX =    0.0                 !
 ! R5    R(2,11)                 1.0939         -DE/DX =    0.0                 !
 ! R6    R(3,4)                  1.5774         -DE/DX =    0.0                 !
 ! R7    R(3,12)                 1.0909         -DE/DX =    0.0                 !
 ! R8    R(3,13)                 1.0909         -DE/DX =    0.0                 !
 ! R9    R(4,5)                  1.5535         -DE/DX =    0.0                 !
 ! R10   R(4,7)                  1.541          -DE/DX =    0.0                 !
 ! R11   R(4,14)                 1.0929         -DE/DX =    0.0                 !
 ! R12   R(5,6)                  1.5491         -DE/DX =    0.0                 !
 ! R13   R(5,9)                  1.5678         -DE/DX =    0.0                 !
 ! R14   R(5,15)                 1.0919         -DE/DX =    0.0                 !
 ! R15   R(6,7)                  1.566          -DE/DX =    0.0                 !
 ! R16   R(6,16)                 1.0878         -DE/DX =    0.0                 !
 ! R17   R(6,17)                 1.0921         -DE/DX =    0.0                 !
 ! R18   R(7,8)                  1.417          -DE/DX =    0.0                 !
 ! R19   R(8,9)                  1.4707         -DE/DX =    0.0                 !
 ! R20   R(9,18)                 1.0954         -DE/DX =    0.0                 !
 ! R21   R(9,19)                 1.0941         -DE/DX =    0.0                 !
 ! A1    A(2,1,10)             108.3712         -DE/DX =    0.0                 !
 ! A2    A(1,2,3)              113.9406         -DE/DX =    0.0                 !
 ! A3    A(1,2,7)              115.7021         -DE/DX =    0.0                 !
 ! A4    A(1,2,11)             106.9559         -DE/DX =    0.0                 !
 ! A5    A(3,2,7)               84.8244         -DE/DX =    0.0                 !
 ! A6    A(3,2,11)             117.0468         -DE/DX =    0.0                 !
 ! A7    A(7,2,11)             117.5182         -DE/DX =    0.0                 !
 ! A8    A(2,3,4)               89.6149         -DE/DX =    0.0                 !
 ! A9    A(2,3,12)             114.966          -DE/DX =    0.0                 !
 ! A10   A(2,3,13)             111.9187         -DE/DX =    0.0                 !
 ! A11   A(4,3,12)             117.406          -DE/DX =    0.0                 !
 ! A12   A(4,3,13)             112.7403         -DE/DX =    0.0                 !
 ! A13   A(12,3,13)            109.1295         -DE/DX =    0.0                 !
 ! A14   A(3,4,5)              130.5287         -DE/DX =    0.0                 !
 ! A15   A(3,4,7)               84.9335         -DE/DX =    0.0                 !
 ! A16   A(3,4,14)             111.9381         -DE/DX =    0.0                 !
 ! A17   A(5,4,7)               80.6434         -DE/DX =    0.0                 !
 ! A18   A(5,4,14)             116.4629         -DE/DX =    0.0                 !
 ! A19   A(7,4,14)             119.0827         -DE/DX =    0.0                 !
 ! A20   A(4,5,6)               87.7985         -DE/DX =    0.0                 !
 ! A21   A(4,5,9)               97.2178         -DE/DX =    0.0                 !
 ! A22   A(4,5,15)             126.6915         -DE/DX =    0.0                 !
 ! A23   A(6,5,9)               97.7199         -DE/DX =    0.0                 !
 ! A24   A(6,5,15)             124.4023         -DE/DX =    0.0                 !
 ! A25   A(9,5,15)             115.8149         -DE/DX =    0.0                 !
 ! A26   A(5,6,7)               80.0025         -DE/DX =    0.0                 !
 ! A27   A(5,6,16)             114.3931         -DE/DX =    0.0                 !
 ! A28   A(5,6,17)             118.12           -DE/DX =    0.0                 !
 ! A29   A(7,6,16)             115.3961         -DE/DX =    0.0                 !
 ! A30   A(7,6,17)             115.3047         -DE/DX =    0.0                 !
 ! A31   A(16,6,17)            110.7335         -DE/DX =    0.0                 !
 ! A32   A(2,7,4)               93.2401         -DE/DX =    0.0                 !
 ! A33   A(2,7,6)              117.7146         -DE/DX =    0.0                 !
 ! A34   A(2,7,8)              133.9943         -DE/DX =    0.0                 !
 ! A35   A(4,7,6)               87.6392         -DE/DX =    0.0                 !
 ! A36   A(4,7,8)              108.3923         -DE/DX =    0.0                 !
 ! A37   A(6,7,8)              103.6479         -DE/DX =    0.0                 !
 ! A38   A(7,8,9)               97.5031         -DE/DX =    0.0                 !
 ! A39   A(5,9,8)              102.5082         -DE/DX =    0.0                 !
 ! A40   A(5,9,18)             113.6477         -DE/DX =    0.0                 !
 ! A41   A(5,9,19)             112.3633         -DE/DX =    0.0                 !
 ! A42   A(8,9,18)             109.2249         -DE/DX =    0.0                 !
 ! A43   A(8,9,19)             109.2212         -DE/DX =    0.0                 !
 ! A44   A(18,9,19)            109.5738         -DE/DX =    0.0                 !
 ! D1    D(10,1,2,3)           -76.6339         -DE/DX =    0.0                 !
 ! D2    D(10,1,2,7)            19.3448         -DE/DX =    0.0                 !
 ! D3    D(10,1,2,11)          152.4086         -DE/DX =    0.0                 !
 ! D4    D(1,2,3,4)             95.7632         -DE/DX =    0.0                 !
 ! D5    D(1,2,3,12)          -143.9308         -DE/DX =    0.0                 !
 ! D6    D(1,2,3,13)           -18.6918         -DE/DX =    0.0                 !
 ! D7    D(7,2,3,4)            -20.1012         -DE/DX =    0.0                 !
 ! D8    D(7,2,3,12)           100.2048         -DE/DX =    0.0                 !
 ! D9    D(7,2,3,13)          -134.5562         -DE/DX =    0.0                 !
 ! D10   D(11,2,3,4)          -138.4374         -DE/DX =    0.0                 !
 ! D11   D(11,2,3,12)          -18.1314         -DE/DX =    0.0                 !
 ! D12   D(11,2,3,13)          107.1076         -DE/DX =    0.0                 !
 ! D13   D(1,2,7,4)            -93.486          -DE/DX =    0.0                 !
 ! D14   D(1,2,7,6)            177.4804         -DE/DX =    0.0                 !
 ! D15   D(1,2,7,8)             26.1141         -DE/DX =    0.0                 !
 ! D16   D(3,2,7,4)             20.6305         -DE/DX =    0.0                 !
 ! D17   D(3,2,7,6)            -68.4032         -DE/DX =    0.0                 !
 ! D18   D(3,2,7,8)            140.2306         -DE/DX =    0.0                 !
 ! D19   D(11,2,7,4)           138.5114         -DE/DX =    0.0                 !
 ! D20   D(11,2,7,6)            49.4778         -DE/DX =    0.0                 !
 ! D21   D(11,2,7,8)          -101.8885         -DE/DX =    0.0                 !
 ! D22   D(2,3,4,5)             93.0665         -DE/DX =    0.0                 !
 ! D23   D(2,3,4,7)             19.9564         -DE/DX =    0.0                 !
 ! D24   D(2,3,4,14)           -99.408          -DE/DX =    0.0                 !
 ! D25   D(12,3,4,5)           -25.0955         -DE/DX =    0.0                 !
 ! D26   D(12,3,4,7)           -98.2055         -DE/DX =    0.0                 !
 ! D27   D(12,3,4,14)          142.4301         -DE/DX =    0.0                 !
 ! D28   D(13,3,4,5)          -153.2337         -DE/DX =    0.0                 !
 ! D29   D(13,3,4,7)           133.6562         -DE/DX =    0.0                 !
 ! D30   D(13,3,4,14)           14.2918         -DE/DX =    0.0                 !
 ! D31   D(3,4,5,6)            -38.8812         -DE/DX =    0.0                 !
 ! D32   D(3,4,5,9)           -136.3875         -DE/DX =    0.0                 !
 ! D33   D(3,4,5,15)            93.6883         -DE/DX =    0.0                 !
 ! D34   D(7,4,5,6)             36.1303         -DE/DX =    0.0                 !
 ! D35   D(7,4,5,9)            -61.376          -DE/DX =    0.0                 !
 ! D36   D(7,4,5,15)           168.6998         -DE/DX =    0.0                 !
 ! D37   D(14,4,5,6)           154.0519         -DE/DX =    0.0                 !
 ! D38   D(14,4,5,9)            56.5456         -DE/DX =    0.0                 !
 ! D39   D(14,4,5,15)          -73.3786         -DE/DX =    0.0                 !
 ! D40   D(3,4,7,2)            -20.8073         -DE/DX =    0.0                 !
 ! D41   D(3,4,7,6)             96.8301         -DE/DX =    0.0                 !
 ! D42   D(3,4,7,8)           -159.5689         -DE/DX =    0.0                 !
 ! D43   D(5,4,7,2)           -153.3223         -DE/DX =    0.0                 !
 ! D44   D(5,4,7,6)            -35.6849         -DE/DX =    0.0                 !
 ! D45   D(5,4,7,8)             67.9161         -DE/DX =    0.0                 !
 ! D46   D(14,4,7,2)            91.5183         -DE/DX =    0.0                 !
 ! D47   D(14,4,7,6)          -150.8443         -DE/DX =    0.0                 !
 ! D48   D(14,4,7,8)           -47.2433         -DE/DX =    0.0                 !
 ! D49   D(4,5,6,7)            -35.544          -DE/DX =    0.0                 !
 ! D50   D(4,5,6,16)            77.9236         -DE/DX =    0.0                 !
 ! D51   D(4,5,6,17)          -148.9913         -DE/DX =    0.0                 !
 ! D52   D(9,5,6,7)             61.4447         -DE/DX =    0.0                 !
 ! D53   D(9,5,6,16)           174.9123         -DE/DX =    0.0                 !
 ! D54   D(9,5,6,17)           -52.0026         -DE/DX =    0.0                 !
 ! D55   D(15,5,6,7)          -169.8413         -DE/DX =    0.0                 !
 ! D56   D(15,5,6,16)          -56.3736         -DE/DX =    0.0                 !
 ! D57   D(15,5,6,17)           76.7115         -DE/DX =    0.0                 !
 ! D58   D(4,5,9,8)             47.1629         -DE/DX =    0.0                 !
 ! D59   D(4,5,9,18)           -70.5694         -DE/DX =    0.0                 !
 ! D60   D(4,5,9,19)           164.2868         -DE/DX =    0.0                 !
 ! D61   D(6,5,9,8)            -41.5819         -DE/DX =    0.0                 !
 ! D62   D(6,5,9,18)          -159.3142         -DE/DX =    0.0                 !
 ! D63   D(6,5,9,19)            75.5421         -DE/DX =    0.0                 !
 ! D64   D(15,5,9,8)          -175.9248         -DE/DX =    0.0                 !
 ! D65   D(15,5,9,18)           66.3429         -DE/DX =    0.0                 !
 ! D66   D(15,5,9,19)          -58.8008         -DE/DX =    0.0                 !
 ! D67   D(5,6,7,2)            128.3024         -DE/DX =    0.0                 !
 ! D68   D(5,6,7,4)             35.8815         -DE/DX =    0.0                 !
 ! D69   D(5,6,7,8)            -72.4766         -DE/DX =    0.0                 !
 ! D70   D(16,6,7,2)            15.9357         -DE/DX =    0.0                 !
 ! D71   D(16,6,7,4)           -76.4852         -DE/DX =    0.0                 !
 ! D72   D(16,6,7,8)           175.1568         -DE/DX =    0.0                 !
 ! D73   D(17,6,7,2)          -115.2079         -DE/DX =    0.0                 !
 ! D74   D(17,6,7,4)           152.3712         -DE/DX =    0.0                 !
 ! D75   D(17,6,7,8)            44.0131         -DE/DX =    0.0                 !
 ! D76   D(2,7,8,9)           -155.7783         -DE/DX =    0.0                 !
 ! D77   D(4,7,8,9)            -41.9606         -DE/DX =    0.0                 !
 ! D78   D(6,7,8,9)             50.1062         -DE/DX =    0.0                 !
 ! D79   D(7,8,9,5)             -4.39           -DE/DX =    0.0                 !
 ! D80   D(7,8,9,18)           116.44           -DE/DX =    0.0                 !
 ! D81   D(7,8,9,19)          -123.7361         -DE/DX =    0.0                 !
 --------------------------------------------------------------------------------
 GradGradGradGradGradGradGradGradGradGradGradGradGradGradGradGradGradGrad

                          Input orientation:                          
 ---------------------------------------------------------------------
 Center     Atomic      Atomic             Coordinates (Angstroms)
 Number     Number       Type             X           Y           Z
 ---------------------------------------------------------------------
      1          8           0        0.811273    0.052337    1.124237
      2          6           0       -0.562994    0.327609    0.984887
      3          6           0       -1.398269    0.138528    2.325194
      4          6           0       -1.262272    1.683011    2.615248
      5          6           0       -2.207057    2.863935    2.259963
      6          6           0       -2.469127    2.167262    0.901411
      7          6           0       -0.960867    1.800439    1.108566
      8          8           0       -0.284789    3.024950    0.881972
      9          6           0       -1.100195    3.862547    1.774497
     10          1           0        1.226457    0.797888    1.571176
     11          1           0       -0.909521   -0.217103    0.101794
     12          1           0       -2.404520   -0.259988    2.188306
     13          1           0       -0.866482   -0.475685    3.053206
     14          1           0       -0.466942    1.894950    3.334177
     15          1           0       -2.986230    3.289925    2.895244
     16          1           0       -3.163658    1.331571    0.951676
     17          1           0       -2.681880    2.795120    0.033584
     18          1           0       -0.469936    4.247198    2.583696
     19          1           0       -1.515236    4.698806    1.204052
 ---------------------------------------------------------------------
                    Distance matrix (angstroms):
                    1          2          3          4          5
     1  O    0.000000
     2  C    1.408475   0.000000
     3  C    2.516307   1.590553   0.000000
     4  C    3.030148   2.232528   1.577356   0.000000
     5  C    4.278466   3.280505   2.843631   1.553521   0.000000
     6  C    3.909422   2.650403   2.699936   2.151333   1.549096
     7  C    2.489293   1.530630   2.105576   1.541014   2.002431
     8  O    3.177495   2.713603   3.413819   2.400109   2.370633
     9  C    4.312104   3.661674   3.776299   2.341690   1.567816
    10  H    0.963316   1.940884   2.809357   2.840300   4.065956
    11  H    2.019683   1.093913   2.304095   3.170539   3.979207
    12  H    3.401634   2.276995   1.090915   2.293960   3.130977
    13  H    2.610477   2.239493   1.090897   2.237951   3.685028
    14  H    3.148474   2.825765   2.229447   1.092853   2.262934
    15  H    5.295230   4.277482   3.574616   2.373310   1.091860
    16  H    4.179269   2.787920   2.535054   2.550735   2.230435
    17  H    4.573237   3.388697   3.735855   3.149137   2.277489
    18  H    4.622593   4.234150   4.220165   2.683998   2.244061
    19  H    5.196988   4.479081   4.697528   3.339234   2.227177
                    6          7          8          9         10
     6  C    0.000000
     7  C    1.565989   0.000000
     8  O    2.346772   1.416988   0.000000
     9  C    2.347391   2.171444   1.470733   0.000000
    10  H    3.997638   2.450204   2.778250   3.853152   0.000000
    11  H    2.959215   2.255371   3.392621   4.413370   2.784186
    12  H    2.748056   2.737760   4.121964   4.343708   3.831964
    13  H    3.766146   2.995208   4.160177   4.528794   2.863354
    14  H    3.162475   2.281719   2.706177   2.589412   2.679425
    15  H    2.345876   3.084296   3.379535   2.267399   5.070516
    16  H    1.087787   2.257596   3.340700   3.367604   4.465614
    17  H    1.092059   2.259837   2.553160   2.583003   4.650615
    18  H    3.339608   2.898905   2.103339   1.095439   3.975007
    19  H    2.722170   2.952452   2.102267   1.094073   4.782135
                   11         12         13         14         15
    11  H    0.000000
    12  H    2.567175   0.000000
    13  H    2.963030   1.777678   0.000000
    14  H    3.886508   3.116246   2.420431   0.000000
    15  H    4.941186   3.666064   4.324129   2.912976   0.000000
    16  H    2.863882   2.153741   3.599946   3.642250   2.764794
    17  H    3.495625   3.748791   4.807488   4.075558   2.920027
    18  H    5.126700   4.920739   4.762699   2.469069   2.710197
    19  H    5.074251   5.133149   5.533137   3.673957   2.647433
                   16         17         18         19
    16  H    0.000000
    17  H    1.793594   0.000000
    18  H    4.291912   3.674819   0.000000
    19  H    3.757561   2.520927   1.788860   0.000000
 Stoichiometry    C7H10O2
 Framework group  C1[X(C7H10O2)]
 Deg. of freedom    51
 Full point group                 C1      NOp   1
 Largest Abelian subgroup         C1      NOp   1
 Largest concise Abelian subgroup C1      NOp   1
                         Standard orientation:                         
 ---------------------------------------------------------------------
 Center     Atomic      Atomic             Coordinates (Angstroms)
 Number     Number       Type             X           Y           Z
 ---------------------------------------------------------------------
      1          8           0        2.354126   -0.964659   -0.107888
      2          6           0        1.530337   -0.000228    0.504522
      3          6           0        1.252767    1.279012   -0.399004
      4          6           0       -0.102821    0.631811   -0.880219
      5          6           0       -1.545948    0.781095   -0.324768
      6          6           0       -0.935147    0.769763    1.098780
      7          6           0        0.023604   -0.240943    0.383523
      8          8           0       -0.777695   -1.396751    0.210655
      9          6           0       -1.942163   -0.734157   -0.396007
     10          1           0        1.827368   -1.448004   -0.753552
     11          1           0        1.935245    0.176029    1.505335
     12          1           0        1.193381    2.222797    0.144906
     13          1           0        1.983035    1.375464   -1.203653
     14          1           0       -0.005093    0.162106   -1.862132
     15          1           0       -2.305868    1.487732   -0.664393
     16          1           0       -0.480325    1.710873    1.399993
     17          1           0       -1.532249    0.351263    1.911750
     18          1           0       -2.076768   -1.105560   -1.417735
     19          1           0       -2.833944   -0.959532    0.196384
 ---------------------------------------------------------------------
 Rotational constants (GHZ):      3.1786286      1.6137421      1.3607666
 1\1\GINC-ALCHEMY-CR\FOpt\RB3LYP\6-31G(2df,p)\C7H10O2\PUCK\28-Jan-2020\
 0\\# b3lyp 6-31G(2df,p) opt Freq\\titel\\0,1\O,0.8112728599,0.05233748
 06,1.1242373735\C,-0.5629935884,0.3276085158,0.9848872605\C,-1.3982687
 046,0.1385283075,2.3251941491\C,-1.2622723513,1.6830109291,2.615248258
 4\C,-2.2070570587,2.8639348464,2.2599631982\C,-2.4691267112,2.16726221
 39,0.9014110774\C,-0.9608667042,1.800438638,1.1085661923\O,-0.28478923
 14,3.0249502967,0.8819716245\C,-1.1001947601,3.8625470944,1.7744967874
 \H,1.2264570913,0.7978879657,1.5711757617\H,-0.9095210246,-0.217102860
 3,0.101794415\H,-2.4045201325,-0.2599878991,2.1883055145\H,-0.86648239
 87,-0.4756846355,3.0532058599\H,-0.4669421862,1.8949497044,3.334177481
 9\H,-2.9862301271,3.2899245753,2.8952437485\H,-3.1636577363,1.33157064
 41,0.9516759099\H,-2.6818796524,2.7951198641,0.0335839629\H,-0.4699358
 693,4.2471976085,2.5836961601\H,-1.5152356942,4.6988057205,1.204052034
 3\\Version=ES64L-G09RevD.01\State=1-A\HF=-423.1073726\RMSD=4.492e-09\R
 MSF=1.020e-05\Dipole=-0.6532478,0.3608408,0.5333955\Quadrupole=0.04138
 29,-0.1149621,0.0735791,1.2746558,2.745608,0.6678235\PG=C01 [X(C7H10O2
 )]\\@


 THE PROMISED LAND ALWAYS LIES ON THE OTHER SIDE OF A WILDERNESS.

                         -- HAVELOCK ELLIS
 Job cpu time:       0 days  0 hours  7 minutes 58.4 seconds.
 File lengths (MBytes):  RWF=     52 Int=      0 D2E=      0 Chk=      7 Scr=      1
 Normal termination of Gaussian 09 at Tue Jan 28 02:54:38 2020.
 Link1:  Proceeding to internal job step number  2.
 ----------------------------------------------------------------------
 #N Geom=AllCheck Guess=TCheck SCRF=Check GenChk RB3LYP/6-31G(2df,p) Fr
 eq
 ----------------------------------------------------------------------
 1/10=4,29=7,30=1,38=1,40=1/1,3;
 2/12=2,40=1/2;
 3/5=1,6=6,7=104,11=2,14=-4,16=1,25=1,30=1,70=2,71=2,74=-5,116=1,140=1/1,2,3;
 4/5=101/1;
 5/5=2,98=1/2;
 8/6=4,10=90,11=11/1;
 11/6=1,8=1,9=11,15=111,16=1/1,2,10;
 10/6=1/2;
 6/7=2,8=2,9=2,10=2,18=1,28=1/1;
 7/8=1,10=1,25=1/1,2,3,16;
 1/10=4,30=1/3;
 99//99;
 Structure from the checkpoint file:  "/scratch/puck/g09_34a1f5da-aae6-4484-905a-085299d2b946/Gau-40774.chk"
 -----
 titel
 -----
 Charge =  0 Multiplicity = 1
 Redundant internal coordinates found in file.
 O,0,0.8112728599,0.0523374806,1.1242373735
 C,0,-0.5629935884,0.3276085158,0.9848872605
 C,0,-1.3982687046,0.1385283075,2.3251941491
 C,0,-1.2622723513,1.6830109291,2.6152482584
 C,0,-2.2070570587,2.8639348464,2.2599631982
 C,0,-2.4691267112,2.1672622139,0.9014110774
 C,0,-0.9608667042,1.800438638,1.1085661923
 O,0,-0.2847892314,3.0249502967,0.8819716245
 C,0,-1.1001947601,3.8625470944,1.7744967874
 H,0,1.2264570913,0.7978879657,1.5711757617
 H,0,-0.9095210246,-0.2171028603,0.101794415
 H,0,-2.4045201325,-0.2599878991,2.1883055145
 H,0,-0.8664823987,-0.4756846355,3.0532058599
 H,0,-0.4669421862,1.8949497044,3.3341774819
 H,0,-2.9862301271,3.2899245753,2.8952437485
 H,0,-3.1636577363,1.3315706441,0.9516759099
 H,0,-2.6818796524,2.7951198641,0.0335839629
 H,0,-0.4699358693,4.2471976085,2.5836961601
 H,0,-1.5152356942,4.6988057205,1.2040520343
 Recover connectivity data from disk.

 GradGradGradGradGradGradGradGradGradGradGradGradGradGradGradGradGradGrad
 Berny optimization.
 Initialization pass.
                           ----------------------------
                           !    Initial Parameters    !
                           ! (Angstroms and Degrees)  !
 --------------------------                            --------------------------
 ! Name  Definition              Value          Derivative Info.                !
 --------------------------------------------------------------------------------
 ! R1    R(1,2)                  1.4085         calculate D2E/DX2 analytically  !
 ! R2    R(1,10)                 0.9633         calculate D2E/DX2 analytically  !
 ! R3    R(2,3)                  1.5906         calculate D2E/DX2 analytically  !
 ! R4    R(2,7)                  1.5306         calculate D2E/DX2 analytically  !
 ! R5    R(2,11)                 1.0939         calculate D2E/DX2 analytically  !
 ! R6    R(3,4)                  1.5774         calculate D2E/DX2 analytically  !
 ! R7    R(3,12)                 1.0909         calculate D2E/DX2 analytically  !
 ! R8    R(3,13)                 1.0909         calculate D2E/DX2 analytically  !
 ! R9    R(4,5)                  1.5535         calculate D2E/DX2 analytically  !
 ! R10   R(4,7)                  1.541          calculate D2E/DX2 analytically  !
 ! R11   R(4,14)                 1.0929         calculate D2E/DX2 analytically  !
 ! R12   R(5,6)                  1.5491         calculate D2E/DX2 analytically  !
 ! R13   R(5,9)                  1.5678         calculate D2E/DX2 analytically  !
 ! R14   R(5,15)                 1.0919         calculate D2E/DX2 analytically  !
 ! R15   R(6,7)                  1.566          calculate D2E/DX2 analytically  !
 ! R16   R(6,16)                 1.0878         calculate D2E/DX2 analytically  !
 ! R17   R(6,17)                 1.0921         calculate D2E/DX2 analytically  !
 ! R18   R(7,8)                  1.417          calculate D2E/DX2 analytically  !
 ! R19   R(8,9)                  1.4707         calculate D2E/DX2 analytically  !
 ! R20   R(9,18)                 1.0954         calculate D2E/DX2 analytically  !
 ! R21   R(9,19)                 1.0941         calculate D2E/DX2 analytically  !
[...]
 81250,-0.11444459,0.41846677,0.00103110,-0.00157490,-0.00081074,0.0043
 5156,0.01716571,0.02690964,-0.07343715,-0.01511776,-0.02319246,0.45334
 379,-0.00249500,0.00103236,-0.00020815,0.00829149,-0.03243598,-0.03670
 439,0.00284778,-0.13020028,-0.01545501,0.00868452,0.44102007,0.0014320
 4,0.00013480,0.00036951,0.01319325,-0.02828123,-0.03561722,-0.01999528
 ,-0.01890194,-0.04396489,0.15307188,0.03367119,0.47833943,0.00043045,0
 .00204022,-0.00037862,-0.00604099,-0.00060299,0.00236933,0.01158113,-0
 .00501765,0.00549837,-0.10347178,0.03166982,-0.02476787,0.51846365,0.0
 0043539,0.00027383,0.00061932,0.00081914,-0.00407499,-0.00221630,0.011
 18605,-0.00294723,-0.00232091,0.04200429,-0.10532281,0.02114093,-0.096
 90089,0.40263761,-0.00073767,0.00034863,-0.00011797,0.00077826,-0.0040
 9139,-0.00346162,0.00051339,0.00519785,-0.00432801,-0.02433227,0.01355
 696,-0.04395915,-0.13800917,0.09989604,0.46815375,0.00246508,-0.000836
 89,-0.00019786,-0.00659316,0.00307310,-0.00206565,0.00037228,0.0034766
 5,-0.00205582,-0.02159309,0.00892819,-0.03044418,-0.05741695,-0.018002
 30,-0.00797431,0.46047495,0.00193620,-0.00520818,0.00080866,0.02027507
 ,0.00173296,0.00504214,0.00134438,-0.00290085,0.00256938,0.01966743,0.
 00521459,0.01783073,-0.01314346,-0.07845341,-0.03442147,0.11500798,0.5
 5317874,0.00253425,-0.00275358,0.00109273,0.01043316,-0.00164188,0.001
 69601,-0.00040680,0.00209549,-0.00139597,-0.04754736,0.00527534,-0.051
 49385,-0.01005569,-0.03811443,-0.14244749,0.08871140,-0.11608183,0.504
 53639,-0.02825833,0.03969780,-0.00336979,-0.07612162,0.01712071,-0.009
 19859,0.00383758,-0.01909954,0.01857041,-0.06467362,-0.00864737,0.0228
 6731,-0.04125554,0.03851989,0.04627387,-0.11941608,0.03251671,-0.01115
 615,0.43841953,0.00717836,-0.00133620,0.00352839,0.02566159,-0.1751189
 6,-0.01760385,-0.02411566,-0.05239089,0.02980500,-0.00254574,-0.026867
 10,-0.00470333,0.03475089,-0.01726067,-0.02654176,0.02432896,-0.075107
 83,0.01017161,-0.04510432,0.57906934,-0.00727028,0.00873818,-0.0022175
 8,-0.00389290,-0.04320902,-0.04829066,0.01640422,0.03691214,-0.0254757
 4,0.01115151,-0.01117711,-0.14603213,0.04743590,-0.03836196,-0.0334994
 2,-0.00796435,0.01488456,-0.04988418,-0.07690634,0.03978034,0.39827709
 ,0.00338318,-0.00134222,-0.00090592,0.00776290,0.00287030,-0.00154068,
 0.00082879,0.00235836,-0.00125805,-0.00427139,-0.00921525,0.00709216,-
 0.02876888,0.01089506,0.02378471,-0.03385676,-0.03751525,0.01131592,-0
 .11738237,-0.03739567,0.03644611,0.26284911,0.00203645,0.00227371,-0.0
 0008718,-0.01677372,-0.00303390,0.00888645,-0.00079870,-0.00666264,0.0
 0638405,-0.01931560,-0.02768922,0.01427603,0.00707879,0.00051116,-0.00
 199584,-0.02012757,-0.01687514,0.00122548,-0.07309573,-0.14062089,0.03
 521153,0.06919095,0.30678595,-0.00077329,0.00059927,0.00095471,-0.0104
 5847,0.00035068,-0.00302883,0.00304612,0.00190883,-0.00164673,0.030463
 95,0.02725320,-0.00729080,0.01977981,-0.00536651,-0.02066140,-0.007252
 58,-0.00748429,0.00669822,0.03089142,0.00192675,-0.07534439,-0.1112570
 8,0.00440558,0.19236807,-0.00047203,0.00004147,0.00019130,-0.00242898,
 0.00171662,0.00112389,-0.00334618,0.00132813,0.00171104,0.00765486,0.0
 0317320,0.00128895,-0.09412432,-0.03109994,0.00877903,-0.01611592,-0.0
 3017147,-0.00763258,0.01632034,0.01580731,-0.01096658,-0.09219380,0.01
 934798,0.02643588,0.42055622,0.00019226,0.00133704,-0.00015852,-0.0037
 2186,-0.00177776,-0.00059538,0.00338438,-0.00139761,0.00069594,-0.0068
 6484,-0.03995469,0.00448626,-0.02423936,-0.09566392,0.00529690,-0.0133
 7568,-0.01907167,-0.00449016,0.00977265,-0.07381359,-0.02223712,0.0007
 0378,-0.08812559,-0.00892065,0.00572149,0.57476792,0.00041152,0.000308
 61,-0.00037894,0.00186382,0.00207523,-0.00200386,-0.00178770,0.0029511
 3,-0.00249460,0.00526237,0.03012406,-0.00020593,0.01326278,0.01253721,
 -0.07126766,-0.01758849,-0.02449782,0.00129820,-0.01008042,-0.02837000
 ,-0.00104942,0.02173053,-0.02484106,-0.09410561,0.15230370,-0.02641784
 ,0.49499943,-0.11786501,-0.12388441,-0.08290681,-0.02595594,-0.0349587
 8,-0.02436403,-0.00120311,-0.00041898,-0.00044071,-0.00080089,-0.00006
 202,0.00061367,0.00043874,0.00043786,0.00006471,0.00002428,-0.00100617
 ,-0.00014130,0.00101008,0.00131555,-0.00103484,0.00028959,0.00013729,0
 .00011507,-0.00008577,0.00065367,0.00053053,0.14887226,-0.17193389,-0.
 32737884,-0.19281616,0.00978335,0.00507425,0.00528306,0.00052024,0.000
 31394,-0.00004220,-0.00064066,0.00038205,-0.00031689,-0.00011637,-0.00
 000297,0.00021548,-0.00013601,-0.00053571,-0.00010030,0.00595413,0.003
 25190,0.00171766,-0.00258461,0.00054137,0.00072587,0.00038679,-0.00052
 063,-0.00119645,0.15600295,0.31831632,-0.10265602,-0.18020323,-0.10605
 170,-0.00281120,-0.00390357,-0.00723523,0.00206899,-0.00022352,0.00036
 445,0.00038945,0.00109333,-0.00029575,-0.00013649,-0.00044816,0.000331
 74,0.00023185,-0.00036684,-0.00042377,-0.00033907,-0.00150328,0.003587
 68,0.00135696,-0.00034510,-0.00110033,-0.00015764,0.00040155,0.0009884
 0,0.10560988,0.18499263,0.11213730,-0.02875081,-0.01927670,-0.02824373
 ,-0.06494408,-0.03665699,-0.05586162,0.00643866,0.00510218,0.00887214,
 -0.00061513,0.00316081,0.00156160,0.00040806,-0.00024536,0.00054558,0.
 00073199,-0.00004947,-0.00077803,0.00083021,0.00349868,0.00634268,0.00
 033214,0.00008298,0.00011232,0.00004582,0.00008224,0.00015531,-0.00543
 041,0.00305420,-0.00438001,0.09110310,0.00155172,0.00707065,0.00515307
 ,-0.04114000,-0.12007115,-0.10289120,0.00248022,0.00412415,0.00671008,
 0.00203340,-0.00441259,-0.00055575,0.00010693,0.00066986,-0.00067916,-
 0.00043128,0.00089331,0.00128846,-0.00963126,-0.00704059,-0.02325687,0
 .00098598,-0.00073270,-0.00166071,-0.00038923,-0.00012255,-0.00007056,
 0.00175769,0.00110259,0.00056516,0.04077510,0.11889718,-0.00614366,-0.
 00158903,0.00176260,-0.06438675,-0.10203988,-0.22498961,-0.00808823,-0
 .00885177,-0.01102987,0.00085440,-0.00371963,0.00099433,0.00019311,-0.
 00018106,-0.00088437,0.00037032,-0.00075911,0.00023581,0.00436636,0.00
 069673,0.00060373,-0.00075042,-0.00033954,0.00106353,0.00014577,0.0002
 9535,-0.00009208,0.00060023,0.00149602,0.00026429,0.07108260,0.1157783
 1,0.23281363,-0.00311125,-0.00067560,0.00356953,-0.00973072,-0.0020107
 3,-0.00801126,-0.28022080,-0.08997554,-0.03252539,0.00395351,-0.000137
 68,0.00027078,0.00020396,0.00002783,-0.00070171,-0.00101364,0.00049244
 ,-0.00095542,0.00028783,-0.00015248,-0.00041489,0.00007829,-0.00060562
 ,0.00011708,-0.00003476,0.00008984,0.00032042,0.00022424,0.00031818,0.
 00017892,0.00066160,0.00034656,0.00021138,0.29922750,0.00167976,0.0003
 4755,-0.00188732,0.00148971,-0.00097125,0.00163913,-0.09051311,-0.0782
 9383,-0.01330583,-0.02494869,-0.00526235,-0.00359254,0.00093859,0.0017
 3815,-0.00117003,-0.00041129,-0.00106851,0.00033005,-0.00109931,-0.001
 38754,-0.00165651,0.00026950,-0.00163632,0.00176651,-0.00038579,0.0003
 9081,-0.00003696,0.00005287,-0.00022583,0.00001782,-0.00013875,0.00025
 052,0.00021344,0.09620603,0.08347823,0.00556838,0.00113988,-0.00315707
 ,0.01984619,0.00720109,0.01003579,-0.03273268,-0.01280129,-0.05073850,
 -0.00871829,-0.00093444,-0.00393802,-0.00021835,0.00089356,0.00010597,
 -0.00016161,0.00187818,-0.00030339,-0.00031873,0.00044823,-0.00102229,
 -0.00039216,0.00061422,0.00007222,0.00004189,0.00015890,-0.00029742,0.
 00033055,-0.00018195,-0.00074406,-0.00100789,-0.00104396,0.00115166,0.
 03817105,0.01247388,0.05051002,0.00251617,0.00099999,-0.00209726,0.006
 40514,-0.00946568,0.01313618,-0.11258227,0.07640630,-0.09215912,-0.001
 25257,-0.00460342,-0.00091260,-0.00035327,0.00039457,0.00008917,-0.000
 81040,0.00009740,-0.00060601,-0.00228956,0.00125643,0.00101450,0.00041
 801,-0.00145405,-0.00005986,-0.00030776,-0.00002251,0.00024559,0.00003
 369,-0.00031337,0.00020092,-0.00054418,-0.00023323,0.00082460,-0.01239
 924,0.01654257,-0.01969642,0.11857915,-0.00083108,0.00071799,-0.000696
 52,-0.00116908,-0.00049647,-0.00012901,0.07706444,-0.12740641,0.102858
 43,0.01563752,-0.01571148,0.01663215,-0.00381907,-0.00062339,0.0008596
 9,-0.00047279,0.00039418,-0.00112953,-0.00125234,-0.00178636,-0.001647
 74,-0.00034774,-0.00148509,0.00124421,0.00046436,-0.00064397,0.0010893
 2,-0.00000683,-0.00035123,0.00055801,0.00026675,-0.00011902,-0.0001927
 1,-0.00601334,0.00763394,-0.00870711,-0.08004039,0.13816406,-0.0019979
 1,-0.00196546,0.00565150,-0.01578577,0.01331580,-0.01849334,-0.0933306
 0,0.10284927,-0.16851377,0.00782905,-0.00591613,0.00799653,-0.00101713
 ,-0.00151310,0.00054695,0.00003658,-0.00069503,-0.00017484,0.00293613,
 -0.00072231,-0.00278240,-0.00068553,0.00107162,0.00071109,0.00082318,-
 0.00056247,0.00000368,0.00035247,0.00030840,-0.00018561,0.00142786,0.0
 0096270,-0.00179587,-0.00088093,0.00177824,-0.00165329,0.10011503,-0.1
 0995858,0.17758175,-0.00022951,0.00015037,0.00035390,-0.00095230,-0.00
 066848,-0.00075546,-0.00588958,0.00151732,-0.00430645,-0.18818398,-0.0
 3678913,-0.12715054,-0.01108893,-0.00796599,-0.01154722,-0.00033077,0.
 00327981,-0.00194050,0.00873296,0.00316292,0.00474027,0.00119993,0.002
 22001,-0.00223129,0.00022076,-0.00197271,0.00016874,-0.00005724,0.0003
 7408,0.00027562,0.00007790,0.00014151,-0.00001456,0.00036137,-0.001669
 70,-0.00020784,0.00154327,0.00060812,0.00039545,0.19357143,0.00126064,
 0.00007717,0.00008556,-0.00131274,-0.00199398,0.00039160,-0.02026993,-
 0.00784185,-0.01739586,-0.03808097,-0.05630241,-0.03808156,0.01152924,
 0.00331826,0.01340134,0.00224466,-0.00294678,0.00387711,0.00342690,-0.
 00245857,0.00336171,-0.00040443,0.00132770,-0.00039460,0.00254403,0.00
 147072,0.00039235,0.00041823,-0.00006895,-0.00059887,0.00040200,0.0003
 0550,-0.00040117,0.00056447,-0.00419479,-0.00269573,-0.00058685,0.0016
 6436,0.00092393,0.03727085,0.06728352,0.00108065,-0.00008893,0.0008563
 4,-0.00104565,0.00045388,0.00026257,0.00358220,0.00057083,0.00193827,-
 0.12329274,-0.03509117,-0.15851905,0.00216144,0.00108849,-0.00202321,-
 0.00151075,0.00271340,-0.00561273,-0.02466554,-0.00533986,-0.00788127,
 0.00125777,-0.00152597,0.00438007,-0.00118528,0.00042784,0.00019648,0.
 00090534,-0.00037173,-0.00093050,0.00042685,-0.00027837,-0.00024195,0.
 00091792,0.00161607,0.00023767,-0.00017821,-0.00098545,0.00079483,0.14
 308617,0.03601461,0.16653823,0.00020594,-0.00018383,0.00010164,0.00085
 516,0.00063779,0.00103993,0.00029005,0.00000002,0.00029115,-0.00433962
 ,-0.00162461,0.00727341,-0.18702238,0.07095868,0.10933793,0.00887447,-
 0.00249687,-0.00449646,-0.00322606,0.00143980,-0.00019103,-0.00116280,
 0.00021745,0.00179305,-0.00904161,0.01004492,0.00796586,0.00012923,-0.
 00014681,-0.00008152,-0.00020092,0.00049079,0.00011043,0.00004908,0.00
 041101,0.00001503,0.00001666,0.00007839,-0.00001451,-0.00081355,0.0002
 1628,0.00031276,0.19488524,0.00044070,-0.00044321,-0.00004440,0.000821
 20,0.00001346,-0.00187443,0.00032932,0.00123204,-0.00094508,0.00804282
 ,-0.00157585,-0.01209123,0.07299405,-0.08601069,-0.05832684,0.00798732
 ,-0.00383016,-0.00271499,0.00340578,-0.00822903,-0.00198774,-0.0053000
 5,0.00164534,0.00330957,-0.01048284,0.01031936,0.01038290,-0.00020891,
 -0.00000113,0.00019928,0.00004682,-0.00045586,-0.00029829,-0.00017875,
 -0.00043546,-0.00010676,0.00005657,0.00004490,0.00003145,0.00047115,-0
 .00013365,0.00003650,-0.07943038,0.08744492,0.00075979,-0.00082293,0.0
 0033071,0.00136068,0.00115431,0.00012284,0.00016979,-0.00046891,0.0003
 8510,-0.00603233,-0.00057347,0.00686319,0.10856263,-0.05586493,-0.1430
 0324,0.01610139,-0.00180360,-0.00414055,0.00086798,-0.00335143,-0.0011
 1129,0.00102916,-0.00043027,0.00095845,0.00144457,-0.00376493,-0.00434
 852,-0.00008629,-0.00004677,-0.00024576,-0.00021297,0.00018363,0.00011
 681,0.00016790,0.00024612,-0.00005352,-0.00002260,-0.00007359,0.000051
 53,-0.00049843,0.00005743,0.00017801,-0.12369184,0.06512710,0.14360735
 ,0.00060542,0.00022193,0.00004902,-0.00013316,-0.00077414,0.00001472,-
 0.00137205,-0.00052142,-0.00028007,-0.00079670,-0.00028127,-0.00008235
 ,0.00169947,0.00390275,0.00082933,-0.15720862,-0.13476580,0.00510767,-
 0.00689745,-0.02111342,0.00161610,-0.00802945,-0.00492158,-0.00282850,
 -0.00164948,0.00258908,0.00236329,0.00011167,-0.00027664,0.00012682,-0
 .00006886,0.00056955,0.00041791,0.00118004,0.00092255,-0.00039527,0.00
 067875,0.00028900,0.00011496,0.00021696,0.00023954,-0.00001468,0.00007
 302,-0.00003477,-0.00050803,0.16611430,-0.00024160,0.00026821,-0.00009
 146,-0.00044782,0.00006457,0.00005754,0.00204816,-0.00127554,0.0022966
 1,0.00113401,-0.00096378,0.00020189,-0.01036049,-0.01163355,0.00173696
 ,-0.13871598,-0.21158430,0.01543099,0.00516560,0.00719088,-0.00025215,
 0.00350982,0.00287574,-0.00008722,-0.00032131,-0.00126832,-0.00390302,
 0.00004973,-0.00004858,0.00003411,-0.00024182,0.00005218,-0.00009996,0
 .00126270,-0.00087138,0.00139464,0.00058813,0.00003703,0.00009241,-0.0
 0017173,0.00000978,-0.00003292,0.00035668,0.00030007,0.00015138,0.1483
 5269,0.22869917,0.00001932,0.00008040,-0.00016862,-0.00014813,0.000237
 99,0.00074846,-0.00173822,0.00090623,-0.00108583,0.00046431,-0.0008106
 5,0.00037061,-0.01888366,-0.01919284,0.00346188,0.00840094,0.01674209,
 -0.04724067,0.00178337,0.00219914,-0.00296228,0.00312835,0.00073763,0.
 00129993,-0.00179502,-0.00223739,-0.00632025,-0.00001417,0.00001092,-0
 .00003197,0.00008030,-0.00006081,-0.00009252,-0.00059439,0.00149178,-0
 .00048846,0.00006666,0.00010851,-0.00006871,0.00030611,0.00007221,0.00
 008057,0.00083075,0.00033570,0.00105886,-0.00632155,-0.01727640,0.0505
 3668,-0.00040632,0.00071614,0.00001146,-0.00040168,-0.00186921,-0.0001
 9486,0.00018095,-0.00108544,0.00100596,-0.00398136,-0.00116692,-0.0041
 2936,-0.00356369,-0.00145312,-0.00089297,-0.05705065,0.02690998,-0.035
 93741,-0.00194515,0.01507431,-0.02135004,0.00392330,0.00095998,0.00254
 317,0.00060662,-0.00022226,-0.00191151,0.00020549,0.00001446,-0.000010
 38,-0.00008940,0.00038653,0.00026484,0.00023238,0.00045381,-0.00014578
 ,0.00018241,-0.00007593,0.00007028,0.00039657,0.00080731,-0.00203107,0
 .00013648,-0.00019177,0.00038007,0.00480796,-0.01111000,0.01577171,0.0
 5682636,0.00055612,-0.00037423,-0.00009005,0.00002625,0.00074437,0.000
 59658,-0.00032464,-0.00033270,0.00019297,-0.00086395,-0.00033383,-0.00
 154078,-0.00256832,0.01011400,-0.01030457,0.02920173,-0.14249192,0.123
 90974,-0.00310410,-0.00732961,0.00620000,-0.00161259,0.00101569,-0.001
 21624,0.00011522,0.00221524,-0.00090213,-0.00010103,-0.00005130,-0.000
 01763,0.00007341,-0.00014190,-0.00003682,0.00054404,0.00033396,0.00016
 514,0.00039850,0.00017549,0.00003955,-0.00069541,0.00095122,0.00009465
 ,-0.00004142,0.00007513,-0.00026590,0.00580489,-0.01195464,0.01770519,
 -0.02797668,0.14759957,0.00008909,-0.00025465,0.00004336,0.00006562,0.
 00059912,0.00008702,0.00025475,-0.00076324,0.00017676,-0.00380298,-0.0
 0205405,-0.00480990,-0.00519642,0.01637114,-0.01262240,-0.03785564,0.1
 2276992,-0.21335658,0.00086658,-0.00254533,0.00014542,-0.00085311,-0.0
 0125137,0.00104340,0.00120995,0.00178114,-0.00007300,0.00003209,0.0000
 0659,-0.00012199,-0.00007812,0.00008216,0.00001005,0.00016028,0.000032
 79,0.00010852,0.00011860,0.00003115,0.00013697,-0.00126958,0.00144213,
 -0.00026392,-0.00014964,-0.00006646,-0.00077204,-0.00030442,-0.0001436
 5,0.00002941,0.04669245,-0.13470059,0.22962471,0.00011484,-0.00011480,
 0.00002691,0.00046868,-0.00017057,0.00007304,-0.00007409,-0.00057265,-
 0.00007438,0.00030723,0.00260747,-0.00130695,-0.01037059,-0.00601182,-
 0.01777049,-0.00360015,-0.00316592,0.00206000,-0.00296465,-0.00120637,
 0.00378198,0.01174024,0.01446850,0.01926665,-0.14086255,-0.05245258,-0
 .11728625,-0.00001705,-0.00000148,-0.00000307,-0.00005370,0.00010749,0
 .00006168,0.00010273,0.00013154,0.00002089,0.00009715,0.00005419,-0.00
 006253,0.00118448,-0.00015960,-0.00006195,-0.00006415,0.00019121,0.000
 41368,0.00072596,-0.00110756,-0.00141348,-0.00003697,0.00023106,0.0004
 4413,0.14836309,0.00022723,-0.00005891,0.00013430,-0.00076618,0.000192
 88,-0.00036506,0.00042239,0.00035143,0.00023179,-0.00185574,0.00103655
 ,-0.00024946,-0.00985695,-0.00539404,-0.01160607,-0.00246484,-0.002054
 28,0.00166342,0.00179942,0.00103043,-0.00269928,-0.00483898,-0.0120144
 3,-0.01941123,-0.04912501,-0.07641889,-0.05604830,-0.00004274,-0.00001
 344,-0.00012012,0.00007940,-0.00018821,0.00003561,-0.00001044,0.000160
 16,0.00006082,-0.00001036,-0.00003127,0.00005366,0.00053114,-0.0004768
 8,0.00068489,-0.00034026,-0.00003894,0.00022282,0.00014387,-0.00030848
 ,-0.00090814,0.00004483,-0.00001799,-0.00030729,0.05203554,0.08524676,
 0.00018436,-0.00009036,0.00008285,-0.00075794,0.00045211,-0.00007187,0
 .00024502,-0.00011106,0.00027260,-0.00014658,-0.00058746,0.00153025,0.
 00526619,0.00451821,0.01062476,0.00174726,0.00229807,-0.00002450,0.002
 57851,0.00313562,-0.00356243,-0.00069725,-0.01842584,-0.01610849,-0.11
 485153,-0.05647850,-0.18595404,-0.00015173,0.00009402,-0.00012286,0.00
 002151,-0.00015754,-0.00001602,-0.00001988,-0.00008773,0.00000500,-0.0
 0005443,-0.00006067,0.00006931,0.00012814,-0.00019147,-0.00009782,-0.0
 0074484,-0.00083182,0.00001437,-0.00019439,0.00060228,0.00097358,0.000
 17607,0.00000373,0.00009813,0.12023234,0.07104200,0.20305834,0.0001994
 5,0.00010738,-0.00007913,0.00033031,-0.00023324,-0.00009859,0.00132030
 ,-0.00011200,0.00046308,-0.00322479,-0.00434062,0.00012408,0.01025186,
 -0.01790208,0.01096985,0.00206314,0.00078701,0.00149131,-0.00500809,-0
 .00184115,0.00105796,-0.00714003,0.02135220,0.00029655,-0.08474147,0.0
 6963747,-0.05793007,0.00007616,-0.00025855,0.00013600,0.00006800,0.000
 09153,-0.00012003,-0.00005213,0.00006869,0.00000103,0.00006884,-0.0004
 3418,-0.00032609,0.00004022,-0.00010963,0.00025477,0.00035576,0.001040
 54,-0.00020516,-0.00005779,0.00025079,0.00005680,-0.00002331,0.0003369
 2,-0.00042362,-0.00506049,0.01402769,-0.01296080,0.09053405,0.00023144
 ,0.00004022,0.00006601,-0.00103527,-0.00071453,0.00036265,0.00089616,-
 0.00034272,-0.00004575,-0.00256084,-0.00165325,-0.00005926,0.00551703,
 -0.01187519,0.00862726,0.00072604,0.00071497,0.00175899,0.00365437,0.0
 0020526,-0.00032061,0.00977303,-0.01810073,0.00105099,0.07132901,-0.19
 172192,0.10642332,-0.00013594,0.00021620,-0.00013157,-0.00001549,-0.00
 008137,-0.00000649,-0.00009192,0.00001393,0.00004270,-0.00001059,-0.00
 017727,-0.00009394,0.00020586,0.00000962,0.00001324,-0.00058763,0.0000
 7876,0.00032393,-0.00034682,0.00041093,-0.00014156,-0.00021599,-0.0001
 9656,-0.00102951,-0.00486367,0.00899754,-0.00512358,-0.08246877,0.2141
 7609,-0.00019190,-0.00002662,0.00013343,-0.00045024,-0.00041567,0.0001
 7015,-0.00030800,-0.00065394,-0.00019118,0.00147918,0.00225758,-0.0003
 3716,-0.00586614,0.00651529,-0.00494912,-0.00052851,-0.00142714,0.0009
 4117,0.00403271,-0.00101066,-0.00149845,0.01119853,-0.02357042,0.00973
 689,-0.05891051,0.11231909,-0.12889486,-0.00001466,0.00022179,-0.00018
 431,-0.00006639,-0.00006865,0.00012586,0.00001862,0.00013108,0.0001691
 7,-0.00002475,0.00019945,0.00012367,0.00046748,-0.00026072,0.00010742,
 0.00029790,-0.00013446,-0.00001231,0.00028944,-0.00011202,-0.00010067,
 -0.00031263,0.00016717,0.00051610,-0.00840221,0.01758565,-0.01077116,0
 .05729208,-0.11171681,0.13491536\\-0.00000550,0.00000151,-0.00001653,0
 .00000002,-0.00000656,-0.00000583,0.00001898,0.00001020,0.00001216,0.0
 0000157,-0.00001896,-0.00001420,-0.00000774,0.00001260,0.00001360,-0.0
 0000563,0.00000136,-0.00000645,0.00000743,0.00002920,-0.00000054,0.000
 00181,-0.00002703,-0.00001648,-0.00001858,0.00000434,0.00002546,0.0000
 0185,0.00000377,-0.00001219,-0.00000362,0.00000135,-0.00000246,0.00000
 345,-0.00000170,0.00000265,0.00000167,-0.00000393,-0.00000210,0.000010
 37,-0.00000028,-0.00000702,0.00000698,-0.00000026,0.00000823,-0.000002
 78,-0.00000168,0.00001172,-0.00001250,-0.00000278,0.00001011,0.0000048
 3,-0.00000009,-0.00000358,-0.00000261,-0.00000104,0.00000344\\\@


 REPARTEE - WHAT YOU THINK OF AFTER YOU BECOME A DEPARTEE.
 Job cpu time:       0 days  0 hours 50 minutes 11.3 seconds.
 File lengths (MBytes):  RWF=    152 Int=      0 D2E=      0 Chk=      8 Scr=      1
 Normal termination of Gaussian 09 at Tue Jan 28 03:44:47 2020.
