 Entering Gaussian System, Link 0=/home/puck/opt/gaussian_09/g09
 Input=dsC7O2H10nsd_2330.com
 Output=dsC7O2H10nsd_2330.log
 Initial command:
 /home/puck/opt/gaussian_09/l1.exe "/scratch/puck/g09_62f99a8d-975b-4ba6-b18f-38dfd4a7bb51/Gau-54408.inp" -scrdir="/scratch/puck/g09_62f99a8d-975b-4ba6-b18f-38dfd4a7bb51/"
 Entering Link 1 = /home/puck/opt/gaussian_09/l1.exe PID=     54409.
  
 Copyright (c) 1988,1990,1992,1993,1995,1998,2003,2009,2013,
            Gaussian, Inc.  All Rights Reserved.
  
 This is part of the Gaussian(R) 09 program.  It is based on
 the Gaussian(R) 03 system (copyright 2003, Gaussian, Inc.),
 the Gaussian(R) 98 system (copyright 1998, Gaussian, Inc.),
 the Gaussian(R) 94 system (copyright 1995, Gaussian, Inc.),
 the Gaussian 92(TM) system (copyright 1992, Gaussian, Inc.),
 the Gaussian 90(TM) system (copyright 1990, Gaussian, Inc.),
 the Gaussian 88(TM) system (copyright 1988, Gaussian, Inc.),
 the Gaussian 86(TM) system (copyright 1986, Carnegie Mellon
 University), and the Gaussian 82(TM) system (copyright 1983,
 Carnegie Mellon University). Gaussian is a federally registered
 trademark of Gaussian, Inc.
  
 This software contains proprietary and confidential information,
 including trade secrets, belonging to Gaussian, Inc.
  
 This software is provided under written license and may be
 used, copied, transmitted, or stored only in accord with that
 written license.
  
 The following legend is applicable only to US Government
 contracts under FAR:
  
                    RESTRICTED RIGHTS LEGEND
  
 Use, reproduction and disclosure by the US Government is
 subject to restrictions as set forth in subparagraphs (a)
 and (c) of the Commercial Computer Software - Restricted
 Rights clause in FAR 52.227-19.
  
 Gaussian, Inc.
 340 Quinnipiac St., Bldg. 40, Wallingford CT 06492
  
  
 ---------------------------------------------------------------
 Warning -- This program may not be used in any manner that
 competes with the business of Gaussian, Inc. or will provide
 assistance to any competitor of Gaussian, Inc.  The licensee
 of this program is prohibited from giving any competitor of
 Gaussian, Inc. access to this program.  By using this program,
 the user acknowledges that Gaussian, Inc. is engaged in the
 business of creating and licensing software in the field of
 computational chemistry and represents and warrants to the
 licensee that it is not a competitor of Gaussian, Inc. and that
 it will not use this program in any manner prohibited above.
 ---------------------------------------------------------------
  

 Cite this work as:
 Gaussian 09, Revision D.01,
 M. J. Frisch, G. W. Trucks, H. B. Schlegel, G. E. Scuseria, 
 M. A. Robb, J. R. Cheeseman, G. Scalmani, V. Barone, B. Mennucci, 
 G. A. Petersson, H. Nakatsuji, M. Caricato, X. Li, H. P. Hratchian, 
 A. F. Izmaylov, J. Bloino, G. Zheng, J. L. Sonnenberg, M. Hada, 
 M. Ehara, K. Toyota, R. Fukuda, J. Hasegawa, M. Ishida, T. Nakajima, 
 Y. Honda, O. Kitao, H. Nakai, T. Vreven, J. A. Montgomery, Jr., 
 J. E. Peralta, F. Ogliaro, M. Bearpark, J. J. Heyd, E. Brothers, 
 K. N. Kudin, V. N. Staroverov, T. Keith, R. Kobayashi, J. Normand, 
 K. Raghavachari, A. Rendell, J. C. Burant, S. S. Iyengar, J. Tomasi, 
 M. Cossi, N. Rega, J. M. Millam, M. Klene, J. E. Knox, J. B. Cross, 
 V. Bakken, C. Adamo, J. Jaramillo, R. Gomperts, R. E. Stratmann, 
 O. Yazyev, A. J. Austin, R. Cammi, C. Pomelli, J. W. Ochterski, 
 R. L. Martin, K. Morokuma, V. G. Zakrzewski, G. A. Voth, 
 P. Salvador, J. J. Dannenberg, S. Dapprich, A. D. Daniels, 
 O. Farkas, J. B. Foresman, J. V. Ortiz, J. Cioslowski, 
 and D. J. Fox, Gaussian, Inc., Wallingford CT, 2013.
 
 ******************************************
 Gaussian 09:  ES64L-G09RevD.01 24-Apr-2013
                27-Jan-2020 
 ******************************************
 -----------------------------
 # b3lyp 6-31G(2df,p) opt Freq
 -----------------------------
 1/14=-1,18=20,19=15,26=3,38=1/1,3;
 2/9=110,12=2,17=6,18=5,40=1/2;
 3/5=1,6=6,7=104,11=2,16=1,25=1,30=1,71=1,74=-5/1,2,3;
 4//1;
 5/5=2,38=5/2;
 6/7=2,8=2,9=2,10=2,28=1/1;
 7//1,2,3,16;
 1/14=-1,18=20,19=15,26=3/3(2);
 2/9=110/2;
 99//99;
 2/9=110/2;
 3/5=1,6=6,7=104,11=2,16=1,25=1,30=1,71=1,74=-5/1,2,3;
 4/5=5,16=3,69=1/1;
 5/5=2,38=5/2;
 7//1,2,3,16;
 1/14=-1,18=20,19=15,26=3/3(-5);
 2/9=110/2;
 6/7=2,8=2,9=2,10=2,19=2,28=1/1;
 99/9=1/99;
 -----
 titel
 -----
 Symbolic Z-matrix:
 Charge =  0 Multiplicity = 1
 O                     0.05594  -0.04153   0.31156 
 C                    -0.5578    1.17067   0.6414 
 C                    -1.13811   1.28038   2.09574 
 C                    -2.59389   1.26065   1.52108 
 C                    -2.00561   1.44567   0.12637 
 C                    -2.43118   1.14161  -1.30006 
 O                    -1.74961   2.33185  -1.78248 
 C                    -1.47506   2.79214  -0.44071 
 C                    -0.02551   2.49316   0.01907 
 H                     0.94551  -0.04554   0.68259 
 H                    -0.88211   0.42137   2.71913 
 H                    -0.8695    2.19868   2.6245 
 H                    -3.06872   0.28368   1.6509 
 H                    -3.28499   2.03096   1.87426 
 H                    -2.03487   0.22317  -1.74751 
 H                    -3.51298   1.20155  -1.48414 
 H                    -1.91282   3.77452  -0.23612 
 H                     0.63803   2.33836  -0.83514 
 H                     0.42399   3.2059    0.71736 
 

 GradGradGradGradGradGradGradGradGradGradGradGradGradGradGradGradGradGrad
 Berny optimization.
 Initialization pass.
                           ----------------------------
                           !    Initial Parameters    !
                           ! (Angstroms and Degrees)  !
 --------------------------                            --------------------------
 ! Name  Definition              Value          Derivative Info.                !
 --------------------------------------------------------------------------------
 ! R1    R(1,2)                  1.3982         estimate D2E/DX2                !
 ! R2    R(1,10)                 0.9639         estimate D2E/DX2                !
 ! R3    R(2,3)                  1.5697         estimate D2E/DX2                !
 ! R4    R(2,5)                  1.5611         estimate D2E/DX2                !
 ! R5    R(2,9)                  1.5555         estimate D2E/DX2                !
 ! R6    R(3,4)                  1.5652         estimate D2E/DX2                !
 ! R7    R(3,11)                 1.0918         estimate D2E/DX2                !
 ! R8    R(3,12)                 1.0932         estimate D2E/DX2                !
 ! R9    R(4,5)                  1.525          estimate D2E/DX2                !
 ! R10   R(4,13)                 1.094          estimate D2E/DX2                !
 ! R11   R(4,14)                 1.0935         estimate D2E/DX2                !
 ! R12   R(5,6)                  1.5193         estimate D2E/DX2                !
 ! R13   R(5,8)                  1.5544         estimate D2E/DX2                !
 ! R14   R(6,7)                  1.4539         estimate D2E/DX2                !
 ! R15   R(6,15)                 1.0958         estimate D2E/DX2                !
 ! R16   R(6,16)                 1.099          estimate D2E/DX2                !
 ! R17   R(7,8)                  1.4449         estimate D2E/DX2                !
 ! R18   R(8,9)                  1.5498         estimate D2E/DX2                !
 ! R19   R(8,17)                 1.0948         estimate D2E/DX2                !
 ! R20   R(9,18)                 1.0927         estimate D2E/DX2                !
 ! R21   R(9,19)                 1.0944         estimate D2E/DX2                !
 ! A1    A(2,1,10)             108.5369         estimate D2E/DX2                !
 ! A2    A(1,2,3)              116.1965         estimate D2E/DX2                !
 ! A3    A(1,2,5)              118.8156         estimate D2E/DX2                !
 ! A4    A(1,2,9)              119.5063         estimate D2E/DX2                !
 ! A5    A(3,2,5)               87.1624         estimate D2E/DX2                !
 ! A6    A(3,2,9)              115.9619         estimate D2E/DX2                !
 ! A7    A(5,2,9)               92.04           estimate D2E/DX2                !
 ! A8    A(2,3,4)               90.1605         estimate D2E/DX2                !
 ! A9    A(2,3,11)             112.789          estimate D2E/DX2                !
 ! A10   A(2,3,12)             114.5838         estimate D2E/DX2                !
 ! A11   A(4,3,11)             114.6951         estimate D2E/DX2                !
 ! A12   A(4,3,12)             114.6269         estimate D2E/DX2                !
 ! A13   A(11,3,12)            109.095          estimate D2E/DX2                !
 ! A14   A(3,4,5)               88.5942         estimate D2E/DX2                !
 ! A15   A(3,4,13)             111.8008         estimate D2E/DX2                !
 ! A16   A(3,4,14)             117.4105         estimate D2E/DX2                !
 ! A17   A(5,4,13)             112.6014         estimate D2E/DX2                !
 ! A18   A(5,4,14)             116.9834         estimate D2E/DX2                !
 ! A19   A(13,4,14)            108.4485         estimate D2E/DX2                !
 ! A20   A(2,5,4)               91.986          estimate D2E/DX2                !
 ! A21   A(2,5,6)              122.295          estimate D2E/DX2                !
 ! A22   A(2,5,8)               87.5012         estimate D2E/DX2                !
 ! A23   A(4,5,6)              136.5805         estimate D2E/DX2                !
 ! A24   A(4,5,8)              124.781          estimate D2E/DX2                !
 ! A25   A(6,5,8)               85.7822         estimate D2E/DX2                !
 ! A26   A(5,6,7)               90.9384         estimate D2E/DX2                !
 ! A27   A(5,6,15)             116.7315         estimate D2E/DX2                !
 ! A28   A(5,6,16)             114.9658         estimate D2E/DX2                !
 ! A29   A(7,6,15)             112.4017         estimate D2E/DX2                !
 ! A30   A(7,6,16)             111.1746         estimate D2E/DX2                !
 ! A31   A(15,6,16)            109.4706         estimate D2E/DX2                !
 ! A32   A(6,7,8)               92.3919         estimate D2E/DX2                !
 ! A33   A(5,8,7)               89.8841         estimate D2E/DX2                !
 ! A34   A(5,8,9)               92.5163         estimate D2E/DX2                !
 ! A35   A(5,8,17)             124.9349         estimate D2E/DX2                !
 ! A36   A(7,8,9)              113.0646         estimate D2E/DX2                !
 ! A37   A(7,8,17)             112.5463         estimate D2E/DX2                !
 ! A38   A(9,8,17)             119.4489         estimate D2E/DX2                !
 ! A39   A(2,9,8)               87.8596         estimate D2E/DX2                !
 ! A40   A(2,9,18)             113.5857         estimate D2E/DX2                !
 ! A41   A(2,9,19)             116.0388         estimate D2E/DX2                !
 ! A42   A(8,9,18)             111.3083         estimate D2E/DX2                !
 ! A43   A(8,9,19)             116.6036         estimate D2E/DX2                !
 ! A44   A(18,9,19)            109.9784         estimate D2E/DX2                !
 ! D1    D(10,1,2,3)           -79.4672         estimate D2E/DX2                !
 ! D2    D(10,1,2,5)           178.5465         estimate D2E/DX2                !
 ! D3    D(10,1,2,9)            67.5693         estimate D2E/DX2                !
 ! D4    D(1,2,3,4)           -110.1764         estimate D2E/DX2                !
 ! D5    D(1,2,3,11)             6.8463         estimate D2E/DX2                !
 ! D6    D(1,2,3,12)           132.4669         estimate D2E/DX2                !
 ! D7    D(5,2,3,4)             10.7169         estimate D2E/DX2                !
 ! D8    D(5,2,3,11)           127.7396         estimate D2E/DX2                !
 ! D9    D(5,2,3,12)          -106.6398         estimate D2E/DX2                !
 ! D10   D(9,2,3,4)            101.6054         estimate D2E/DX2                !
 ! D11   D(9,2,3,11)          -141.372          estimate D2E/DX2                !
 ! D12   D(9,2,3,12)           -15.7513         estimate D2E/DX2                !
 ! D13   D(1,2,5,4)            107.4922         estimate D2E/DX2                !
 ! D14   D(1,2,5,6)            -44.3553         estimate D2E/DX2                !
 ! D15   D(1,2,5,8)           -127.7705         estimate D2E/DX2                !
 ! D16   D(3,2,5,4)            -11.0099         estimate D2E/DX2                !
 ! D17   D(3,2,5,6)           -162.8574         estimate D2E/DX2                !
 ! D18   D(3,2,5,8)            113.7274         estimate D2E/DX2                !
 ! D19   D(9,2,5,4)           -126.9113         estimate D2E/DX2                !
 ! D20   D(9,2,5,6)             81.2412         estimate D2E/DX2                !
 ! D21   D(9,2,5,8)             -2.174          estimate D2E/DX2                !
 ! D22   D(1,2,9,8)            127.2325         estimate D2E/DX2                !
 ! D23   D(1,2,9,18)            14.8698         estimate D2E/DX2                !
 ! D24   D(1,2,9,19)          -114.05           estimate D2E/DX2                !
 ! D25   D(3,2,9,8)            -85.6566         estimate D2E/DX2                !
 ! D26   D(3,2,9,18)           161.9807         estimate D2E/DX2                !
 ! D27   D(3,2,9,19)            33.0609         estimate D2E/DX2                !
 ! D28   D(5,2,9,8)              2.1798         estimate D2E/DX2                !
 ! D29   D(5,2,9,18)          -110.1829         estimate D2E/DX2                !
 ! D30   D(5,2,9,19)           120.8973         estimate D2E/DX2                !
 ! D31   D(2,3,4,5)            -10.9637         estimate D2E/DX2                !
 ! D32   D(2,3,4,13)           102.8792         estimate D2E/DX2                !
 ! D33   D(2,3,4,14)          -130.8673         estimate D2E/DX2                !
 ! D34   D(11,3,4,5)          -126.2802         estimate D2E/DX2                !
 ! D35   D(11,3,4,13)          -12.4374         estimate D2E/DX2                !
 ! D36   D(11,3,4,14)          113.8162         estimate D2E/DX2                !
 ! D37   D(12,3,4,5)           106.3549         estimate D2E/DX2                !
 ! D38   D(12,3,4,13)         -139.8023         estimate D2E/DX2                !
 ! D39   D(12,3,4,14)          -13.5487         estimate D2E/DX2                !
 ! D40   D(3,4,5,2)             11.0313         estimate D2E/DX2                !
 ! D41   D(3,4,5,6)            155.5625         estimate D2E/DX2                !
 ! D42   D(3,4,5,8)            -77.3051         estimate D2E/DX2                !
 ! D43   D(13,4,5,2)          -102.0589         estimate D2E/DX2                !
 ! D44   D(13,4,5,6)            42.4722         estimate D2E/DX2                !
 ! D45   D(13,4,5,8)           169.6046         estimate D2E/DX2                !
 ! D46   D(14,4,5,2)           131.3136         estimate D2E/DX2                !
 ! D47   D(14,4,5,6)           -84.1552         estimate D2E/DX2                !
 ! D48   D(14,4,5,8)            42.9772         estimate D2E/DX2                !
 ! D49   D(2,5,6,7)            -77.0209         estimate D2E/DX2                !
 ! D50   D(2,5,6,15)            38.7649         estimate D2E/DX2                !
 ! D51   D(2,5,6,16)           169.0176         estimate D2E/DX2                !
 ! D52   D(4,5,6,7)            146.2962         estimate D2E/DX2                !
 ! D53   D(4,5,6,15)           -97.918          estimate D2E/DX2                !
 ! D54   D(4,5,6,16)            32.3347         estimate D2E/DX2                !
 ! D55   D(8,5,6,7)              7.336          estimate D2E/DX2                !
 ! D56   D(8,5,6,15)           123.1219         estimate D2E/DX2                !
 ! D57   D(8,5,6,16)          -106.6254         estimate D2E/DX2                !
 ! D58   D(2,5,8,7)            115.2653         estimate D2E/DX2                !
 ! D59   D(2,5,8,9)              2.1827         estimate D2E/DX2                !
 ! D60   D(2,5,8,17)          -126.9405         estimate D2E/DX2                !
 ! D61   D(4,5,8,7)           -154.0514         estimate D2E/DX2                !
 ! D62   D(4,5,8,9)             92.866          estimate D2E/DX2                !
 ! D63   D(4,5,8,17)           -36.2572         estimate D2E/DX2                !
 ! D64   D(6,5,8,7)             -7.3814         estimate D2E/DX2                !
 ! D65   D(6,5,8,9)           -120.4641         estimate D2E/DX2                !
 ! D66   D(6,5,8,17)           110.4128         estimate D2E/DX2                !
 ! D67   D(5,6,7,8)             -7.8808         estimate D2E/DX2                !
 ! D68   D(15,6,7,8)          -127.4414         estimate D2E/DX2                !
 ! D69   D(16,6,7,8)           109.4445         estimate D2E/DX2                !
 ! D70   D(6,7,8,5)              7.7009         estimate D2E/DX2                !
 ! D71   D(6,7,8,9)            100.3866         estimate D2E/DX2                !
 ! D72   D(6,7,8,17)          -120.5566         estimate D2E/DX2                !
 ! D73   D(5,8,9,2)             -2.19           estimate D2E/DX2                !
 ! D74   D(5,8,9,18)           112.3421         estimate D2E/DX2                !
 ! D75   D(5,8,9,19)          -120.3921         estimate D2E/DX2                !
 ! D76   D(7,8,9,2)            -93.1361         estimate D2E/DX2                !
 ! D77   D(7,8,9,18)            21.396          estimate D2E/DX2                !
 ! D78   D(7,8,9,19)           148.6618         estimate D2E/DX2                !
 ! D79   D(17,8,9,2)           130.8932         estimate D2E/DX2                !
 ! D80   D(17,8,9,18)         -114.5747         estimate D2E/DX2                !
 ! D81   D(17,8,9,19)           12.6911         estimate D2E/DX2                !
 --------------------------------------------------------------------------------
 Trust Radius=3.00D-01 FncErr=1.00D-07 GrdErr=1.00D-06
 Number of steps in this run=    114 maximum allowed number of steps=    114.
 GradGradGradGradGradGradGradGradGradGradGradGradGradGradGradGradGradGrad

                          Input orientation:                          
 ---------------------------------------------------------------------
 Center     Atomic      Atomic             Coordinates (Angstroms)
 Number     Number       Type             X           Y           Z
 ---------------------------------------------------------------------
      1          8           0        0.055937   -0.041532    0.311556
      2          6           0       -0.557798    1.170674    0.641404
      3          6           0       -1.138106    1.280380    2.095744
      4          6           0       -2.593888    1.260652    1.521080
      5          6           0       -2.005612    1.445675    0.126367
      6          6           0       -2.431184    1.141607   -1.300055
      7          8           0       -1.749613    2.331850   -1.782485
      8          6           0       -1.475061    2.792142   -0.440710
      9          6           0       -0.025513    2.493163    0.019070
     10          1           0        0.945508   -0.045542    0.682593
     11          1           0       -0.882106    0.421366    2.719133
     12          1           0       -0.869500    2.198681    2.624503
     13          1           0       -3.068720    0.283683    1.650896
     14          1           0       -3.284995    2.030961    1.874260
     15          1           0       -2.034873    0.223167   -1.747513
     16          1           0       -3.512979    1.201552   -1.484136
     17          1           0       -1.912818    3.774517   -0.236118
     18          1           0        0.638033    2.338356   -0.835140
     19          1           0        0.423985    3.205900    0.717361
 ---------------------------------------------------------------------
                    Distance matrix (angstroms):
                    1          2          3          4          5
     1  O    0.000000
     2  C    1.398182   0.000000
     3  C    2.521214   1.569681   0.000000
     4  C    3.190644   2.219817   1.565225   0.000000
     5  C    2.548738   1.561107   2.158318   1.524968   0.000000
     6  C    3.191063   2.698088   3.636311   2.828330   1.519292
     7  O    3.643894   2.940066   4.064503   3.574046   2.120036
     8  C    3.307502   2.154414   2.971962   2.728709   1.554360
     9  C    2.552814   1.555507   2.649770   3.220507   2.242662
    10  H    0.963857   1.934117   2.845438   3.864781   3.352943
    11  H    2.625000   2.232397   1.091813   2.251651   3.005647
    12  H    3.350330   2.255358   1.093166   2.251878   2.845779
    13  H    3.415125   2.847903   2.217783   1.093977   2.191943
    14  H    4.230733   3.114102   2.285072   1.093499   2.243772
    15  H    2.946408   2.964193   4.085647   3.474561   2.237589
    16  H    4.184128   3.640325   4.296716   3.143174   2.219339
    17  H    4.328761   3.063678   3.501210   3.141833   2.358710
    18  H    2.705109   2.230174   3.586651   4.142286   2.951311
    19  H    3.293319   2.260932   2.836846   3.679336   3.057877
                    6          7          8          9         10
     6  C    0.000000
     7  O    1.453944   0.000000
     8  C    2.092106   1.444855   0.000000
     9  C    3.058438   2.498828   1.549831   0.000000
    10  H    4.091731   4.358013   3.895307   2.797886   0.000000
    11  H    4.367180   4.966596   3.994594   3.509477   2.775909
    12  H    4.354127   4.495984   3.180320   2.754509   3.478765
    13  H    3.138567   4.209885   3.634134   4.099483   4.142466
    14  H    3.405323   3.977400   3.035514   3.778833   4.860977
    15  H    1.095816   2.128177   2.936112   3.508735   3.854905
    16  H    1.098981   2.115666   2.787798   4.011272   5.111562
    17  H    2.886673   2.121126   1.094783   2.295411   4.858695
    18  H    3.326927   2.568727   2.196967   1.092673   2.842715
    19  H    4.059958   3.426036   2.262455   1.094374   3.293186
                   11         12         13         14         15
    11  H    0.000000
    12  H    1.779877   0.000000
    13  H    2.437492   3.074361   0.000000
    14  H    3.013052   2.534879   1.774725   0.000000
    15  H    4.617259   4.937132   3.552701   4.236527   0.000000
    16  H    5.019726   4.986297   3.296707   3.466803   1.792038
    17  H    4.586883   3.428546   4.133141   3.062116   3.861515
    18  H    4.314919   3.776413   4.913459   4.777603   3.528580
    19  H    3.669686   2.514913   4.648637   4.058994   4.584570
                   16         17         18         19
    16  H    0.000000
    17  H    3.276921   0.000000
    18  H    4.352519   2.988014   0.000000
    19  H    4.935958   2.587102   1.791287   0.000000
 Stoichiometry    C7H10O2
 Framework group  C1[X(C7H10O2)]
 Deg. of freedom    51
 Full point group                 C1      NOp   1
 Largest Abelian subgroup         C1      NOp   1
 Largest concise Abelian subgroup C1      NOp   1
                         Standard orientation:                         
 ---------------------------------------------------------------------
 Center     Atomic      Atomic             Coordinates (Angstroms)
 Number     Number       Type             X           Y           Z
 ---------------------------------------------------------------------
      1          8           0        1.154384   -1.206810    1.233545
      2          6           0        0.797446   -0.526411    0.065399
      3          6           0        1.838367    0.517265   -0.474158
      4          6           0        0.875873    1.687202   -0.080736
      5          6           0       -0.219166    0.654268    0.163119
      6          6           0       -1.487896    0.566320    0.994285
      7          8           0       -2.128048   -0.248572   -0.025572
      8          6           0       -1.039355   -0.049066   -0.954309
      9          6           0       -0.061527   -1.250171   -1.010678
     10          1           0        1.765788   -1.914761    1.001139
     11          1           0        2.781132    0.497537    0.076170
     12          1           0        2.047307    0.439599   -1.544356
     13          1           0        1.196459    2.185193    0.839056
     14          1           0        0.677318    2.451656   -0.836993
     15          1           0       -1.411832    0.047468    1.956481
     16          1           0       -2.018780    1.518581    1.132562
     17          1           0       -1.364116    0.424802   -1.886258
     18          1           0       -0.535705   -2.165543   -0.648487
     19          1           0        0.429279   -1.437915   -1.970634
 ---------------------------------------------------------------------
 Rotational constants (GHZ):      2.5605947      1.7016386      1.5129727
 Standard basis: 6-31G(2df,p) (6D, 7F)
 There are   329 symmetry adapted cartesian basis functions of A   symmetry.
 There are   302 symmetry adapted basis functions of A   symmetry.
   302 basis functions,   466 primitive gaussians,   329 cartesian basis functions
    34 alpha electrons       34 beta electrons
       nuclear repulsion energy       482.6487341143 Hartrees.
 NAtoms=   19 NActive=   19 NUniq=   19 SFac= 1.00D+00 NAtFMM=   60 NAOKFM=F Big=F
 Integral buffers will be    131072 words long.
 Raffenetti 2 integral format.
 Two-electron integral symmetry is turned on.
 One-electron integrals computed using PRISM.
 NBasis=   302 RedAO= T EigKep=  2.63D-04  NBF=   302
 NBsUse=   302 1.00D-06 EigRej= -1.00D+00 NBFU=   302
 ExpMin= 1.61D-01 ExpMax= 5.48D+03 ExpMxC= 8.25D+02 IAcc=1 IRadAn=         1 AccDes= 0.00D+00
 Harris functional with IExCor=  402 and IRadAn=       1 diagonalized for initial guess.
 HarFok:  IExCor=  402 AccDes= 0.00D+00 IRadAn=         1 IDoV= 1 UseB2=F ITyADJ=14
 ICtDFT=  3500011 ScaDFX=  1.000000  1.000000  1.000000  1.000000
 FoFCou: FMM=F IPFlag=           0 FMFlag=      100000 FMFlg1=           0
         NFxFlg=           0 DoJE=T BraDBF=F KetDBF=T FulRan=T
         wScrn=  0.000000 ICntrl=     500 IOpCl=  0 I1Cent=   200000004 NGrid=           0
         NMat0=    1 NMatS0=      1 NMatT0=    0 NMatD0=    1 NMtDS0=    0 NMtDT0=    0
 Petite list used in FoFCou.
 Requested convergence on RMS density matrix=1.00D-08 within 128 cycles.
 Requested convergence on MAX density matrix=1.00D-06.
 Requested convergence on             energy=1.00D-06.
 No special actions if energy rises.
 Integral accuracy reduced to 1.0D-05 until final iterations.
 Initial convergence to 1.0D-05 achieved.  Increase integral accuracy.
 SCF Done:  E(RB3LYP) =  -423.130133358     A.U. after   13 cycles
            NFock= 13  Conv=0.94D-08     -V/T= 2.0073

 **********************************************************************

            Population analysis using the SCF density.

 **********************************************************************

 Orbital symmetries:
       Occupied  (A) (A) (A) (A) (A) (A) (A) (A) (A) (A) (A) (A)
                 (A) (A) (A) (A) (A) (A) (A) (A) (A) (A) (A) (A)
                 (A) (A) (A) (A) (A) (A) (A) (A) (A) (A)
       Virtual   (A) (A) (A) (A) (A) (A) (A) (A) (A) (A) (A) (A)
                 (A) (A) (A) (A) (A) (A) (A) (A) (A) (A) (A) (A)
                 (A) (A) (A) (A) (A) (A) (A) (A) (A) (A) (A) (A)
                 (A) (A) (A) (A) (A) (A) (A) (A) (A) (A) (A) (A)
                 (A) (A) (A) (A) (A) (A) (A) (A) (A) (A) (A) (A)
                 (A) (A) (A) (A) (A) (A) (A) (A) (A) (A) (A) (A)
                 (A) (A) (A) (A) (A) (A) (A) (A) (A) (A) (A) (A)
                 (A) (A) (A) (A) (A) (A) (A) (A) (A) (A) (A) (A)
                 (A) (A) (A) (A) (A) (A) (A) (A) (A) (A) (A) (A)
                 (A) (A) (A) (A) (A) (A) (A) (A) (A) (A) (A) (A)
                 (A) (A) (A) (A) (A) (A) (A) (A) (A) (A) (A) (A)
                 (A) (A) (A) (A) (A) (A) (A) (A) (A) (A) (A) (A)
                 (A) (A) (A) (A) (A) (A) (A) (A) (A) (A) (A) (A)
                 (A) (A) (A) (A) (A) (A) (A) (A) (A) (A) (A) (A)
                 (A) (A) (A) (A) (A) (A) (A) (A) (A) (A) (A) (A)
                 (A) (A) (A) (A) (A) (A) (A) (A) (A) (A) (A) (A)
                 (A) (A) (A) (A) (A) (A) (A) (A) (A) (A) (A) (A)
                 (A) (A) (A) (A) (A) (A) (A) (A) (A) (A) (A) (A)
                 (A) (A) (A) (A) (A) (A) (A) (A) (A) (A) (A) (A)
                 (A) (A) (A) (A) (A) (A) (A) (A) (A) (A) (A) (A)
                 (A) (A) (A) (A) (A) (A) (A) (A) (A) (A) (A) (A)
                 (A) (A) (A) (A) (A) (A) (A) (A) (A) (A) (A) (A)
                 (A) (A) (A) (A)
 The electronic state is 1-A.
 Alpha  occ. eigenvalues --  -19.14287 -19.12839 -10.23657 -10.22981 -10.22338
 Alpha  occ. eigenvalues --  -10.18703 -10.18677 -10.18483 -10.17719  -1.03677
 Alpha  occ. eigenvalues --   -1.02332  -0.85493  -0.75205  -0.70080  -0.65324
 Alpha  occ. eigenvalues --   -0.61376  -0.59284  -0.53100  -0.50431  -0.47635
 Alpha  occ. eigenvalues --   -0.47295  -0.44390  -0.43155  -0.41445  -0.39369
 Alpha  occ. eigenvalues --   -0.38539  -0.37478  -0.34884  -0.33849  -0.30949
 Alpha  occ. eigenvalues --   -0.28932  -0.27279  -0.25581  -0.23566
 Alpha virt. eigenvalues --    0.07226   0.07387   0.09685   0.10514   0.11590
 Alpha virt. eigenvalues --    0.12855   0.14134   0.14937   0.16401   0.17096
 Alpha virt. eigenvalues --    0.17709   0.19356   0.20272   0.20704   0.22159
 Alpha virt. eigenvalues --    0.23890   0.24551   0.28002   0.29997   0.34189
 Alpha virt. eigenvalues --    0.37037   0.39312   0.41503   0.45662   0.47189
 Alpha virt. eigenvalues --    0.47477   0.48768   0.50471   0.51890   0.53913
 Alpha virt. eigenvalues --    0.55827   0.57339   0.57950   0.58673   0.59504
 Alpha virt. eigenvalues --    0.60899   0.62534   0.65144   0.67037   0.69735
 Alpha virt. eigenvalues --    0.71885   0.72611   0.73383   0.74185   0.75548
 Alpha virt. eigenvalues --    0.76592   0.77344   0.79042   0.80300   0.81176
 Alpha virt. eigenvalues --    0.82269   0.83922   0.85308   0.88377   0.89400
 Alpha virt. eigenvalues --    0.90824   0.93697   0.96676   0.97632   0.98724
 Alpha virt. eigenvalues --    0.99876   1.05081   1.06778   1.12255   1.13062
 Alpha virt. eigenvalues --    1.16648   1.17207   1.18992   1.20103   1.25403
 Alpha virt. eigenvalues --    1.27096   1.28399   1.33306   1.34073   1.37037
 Alpha virt. eigenvalues --    1.38232   1.39522   1.40407   1.43814   1.45871
 Alpha virt. eigenvalues --    1.46455   1.47132   1.49585   1.51128   1.52350
 Alpha virt. eigenvalues --    1.54318   1.55504   1.57164   1.58725   1.62326
 Alpha virt. eigenvalues --    1.62642   1.65330   1.66188   1.68687   1.69528
 Alpha virt. eigenvalues --    1.72183   1.73144   1.74403   1.81510   1.83375
 Alpha virt. eigenvalues --    1.85688   1.87539   1.88497   1.92405   1.94194
 Alpha virt. eigenvalues --    1.96856   2.01473   2.06730   2.08767   2.11211
 Alpha virt. eigenvalues --    2.15799   2.19841   2.22637   2.25502   2.30291
 Alpha virt. eigenvalues --    2.34058   2.34945   2.37524   2.39534   2.41594
 Alpha virt. eigenvalues --    2.44471   2.48509   2.53142   2.54039   2.57301
 Alpha virt. eigenvalues --    2.61234   2.65664   2.65962   2.70605   2.72082
 Alpha virt. eigenvalues --    2.75232   2.77435   2.77872   2.82211   2.83859
 Alpha virt. eigenvalues --    2.86087   2.88596   2.91473   2.92652   2.93125
 Alpha virt. eigenvalues --    2.95153   2.97441   3.01630   3.03951   3.05100
 Alpha virt. eigenvalues --    3.05387   3.06488   3.08552   3.12717   3.13363
 Alpha virt. eigenvalues --    3.15389   3.16186   3.21031   3.24823   3.27856
 Alpha virt. eigenvalues --    3.30266   3.31566   3.32580   3.36891   3.38287
 Alpha virt. eigenvalues --    3.39243   3.41733   3.43082   3.44914   3.46021
 Alpha virt. eigenvalues --    3.50122   3.55595   3.56565   3.57356   3.62322
 Alpha virt. eigenvalues --    3.65533   3.72234   3.73560   3.76870   3.80264
 Alpha virt. eigenvalues --    3.83041   3.86589   3.94454   3.97639   3.99222
 Alpha virt. eigenvalues --    4.04916   4.07442   4.10355   4.11122   4.13531
 Alpha virt. eigenvalues --    4.16714   4.23448   4.30692   4.32462   4.34172
 Alpha virt. eigenvalues --    4.34973   4.38565   4.40452   4.42695   4.44410
 Alpha virt. eigenvalues --    4.45801   4.47387   4.49134   4.51485   4.52957
 Alpha virt. eigenvalues --    4.54475   4.58928   4.59410   4.61993   4.63223
 Alpha virt. eigenvalues --    4.66723   4.68980   4.70173   4.70856   4.73184
 Alpha virt. eigenvalues --    4.75423   4.76306   4.77022   4.78636   4.80621
 Alpha virt. eigenvalues --    4.83511   4.84651   4.85079   4.86210   4.88467
 Alpha virt. eigenvalues --    4.93104   4.93839   4.96135   4.96884   5.00949
 Alpha virt. eigenvalues --    5.04217   5.07290   5.11088   5.15783   5.16953
 Alpha virt. eigenvalues --    5.21236   5.26070   5.29350   5.33530   5.39981
 Alpha virt. eigenvalues --    5.42423   5.44174   5.45275   5.48099   5.48457
 Alpha virt. eigenvalues --    5.52198   5.59568   5.63753   5.69422   5.73649
 Alpha virt. eigenvalues --    5.77238   5.84411   5.86724   5.87958   6.00443
 Alpha virt. eigenvalues --    6.04228   6.06938   6.09861   6.18599   6.28080
 Alpha virt. eigenvalues --    6.51262   7.13006   7.27422   7.99381  10.94582
 Alpha virt. eigenvalues --   11.44606  11.75465  11.99082  12.37135  12.70921
 Alpha virt. eigenvalues --   13.39440  13.58240  13.72971
          Condensed to atoms (all electrons):
               1          2          3          4          5          6
     1  O    7.880806   0.390944  -0.053869   0.004863  -0.012502  -0.000659
     2  C    0.390944   4.504891   0.292677  -0.070940   0.355663  -0.019121
     3  C   -0.053869   0.292677   5.238070   0.295755  -0.072902   0.014287
     4  C    0.004863  -0.070940   0.295755   5.188069   0.345483  -0.063179
     5  C   -0.012502   0.355663  -0.072902   0.345483   4.572259   0.345735
     6  C   -0.000659  -0.019121   0.014287  -0.063179   0.345735   5.056794
     7  O   -0.000297   0.006235  -0.000526   0.006585  -0.047862   0.322423
     8  C    0.000285  -0.053339   0.010528  -0.042165   0.381612  -0.163074
     9  C   -0.050746   0.317835  -0.052213   0.023609  -0.090950   0.002076
    10  H    0.315034  -0.067187  -0.003661  -0.000373   0.007494  -0.000209
    11  H   -0.000318  -0.001100   0.328898  -0.009926  -0.002370  -0.000443
    12  H    0.002850  -0.007338   0.337265  -0.022223   0.002361  -0.000440
    13  H    0.000711  -0.004631  -0.015685   0.340664  -0.003177  -0.004399
    14  H   -0.000101   0.007804  -0.028137   0.353330  -0.011148   0.002634
    15  H    0.004255  -0.012517   0.000291   0.003321  -0.003658   0.342452
    16  H    0.000021   0.004753  -0.000342  -0.003375  -0.012596   0.336559
    17  H   -0.000186   0.010146  -0.001295  -0.004752  -0.039724   0.009898
    18  H   -0.000604   0.000252   0.005322  -0.001014  -0.004989   0.001647
    19  H    0.002615  -0.012320  -0.012216  -0.000261   0.007524  -0.000785
               7          8          9         10         11         12
     1  O   -0.000297   0.000285  -0.050746   0.315034  -0.000318   0.002850
     2  C    0.006235  -0.053339   0.317835  -0.067187  -0.001100  -0.007338
     3  C   -0.000526   0.010528  -0.052213  -0.003661   0.328898   0.337265
     4  C    0.006585  -0.042165   0.023609  -0.000373  -0.009926  -0.022223
     5  C   -0.047862   0.381612  -0.090950   0.007494  -0.002370   0.002361
     6  C    0.322423  -0.163074   0.002076  -0.000209  -0.000443  -0.000440
     7  O    7.796728   0.320089  -0.026399  -0.000001   0.000004   0.000020
     8  C    0.320089   4.812928   0.303022  -0.000483  -0.000295   0.000605
     9  C   -0.026399   0.303022   5.350003  -0.003453   0.003872  -0.010386
    10  H   -0.000001  -0.000483  -0.003453   0.470777   0.001506   0.000289
    11  H    0.000004  -0.000295   0.003872   0.001506   0.617596  -0.036689
    12  H    0.000020   0.000605  -0.010386   0.000289  -0.036689   0.630331
    13  H   -0.000142   0.004619  -0.000654  -0.000013  -0.009644   0.004148
    14  H    0.000015  -0.009061  -0.001005   0.000024   0.003192  -0.005292
    15  H   -0.022120   0.008606   0.001316  -0.000283   0.000005  -0.000008
    16  H   -0.027485  -0.000322  -0.001228   0.000007   0.000009   0.000012
    17  H   -0.033355   0.354123  -0.069793   0.000026   0.000029   0.000235
    18  H   -0.001303   0.004026   0.304619   0.000420  -0.000171   0.000019
    19  H    0.002259  -0.015927   0.322337   0.000770   0.000254   0.005977
              13         14         15         16         17         18
     1  O    0.000711  -0.000101   0.004255   0.000021  -0.000186  -0.000604
     2  C   -0.004631   0.007804  -0.012517   0.004753   0.010146   0.000252
     3  C   -0.015685  -0.028137   0.000291  -0.000342  -0.001295   0.005322
     4  C    0.340664   0.353330   0.003321  -0.003375  -0.004752  -0.001014
     5  C   -0.003177  -0.011148  -0.003658  -0.012596  -0.039724  -0.004989
     6  C   -0.004399   0.002634   0.342452   0.336559   0.009898   0.001647
     7  O   -0.000142   0.000015  -0.022120  -0.027485  -0.033355  -0.001303
     8  C    0.004619  -0.009061   0.008606  -0.000322   0.354123   0.004026
     9  C   -0.000654  -0.001005   0.001316  -0.001228  -0.069793   0.304619
    10  H   -0.000013   0.000024  -0.000283   0.000007   0.000026   0.000420
    11  H   -0.009644   0.003192   0.000005   0.000009   0.000029  -0.000171
    12  H    0.004148  -0.005292  -0.000008   0.000012   0.000235   0.000019
    13  H    0.618589  -0.043275   0.000378   0.000662  -0.000060   0.000029
    14  H   -0.043275   0.626789  -0.000134   0.000609   0.002456   0.000007
    15  H    0.000378  -0.000134   0.621214  -0.058545  -0.000892   0.000173
    16  H    0.000662   0.000609  -0.058545   0.662235   0.001697   0.000066
    17  H   -0.000060   0.002456  -0.000892   0.001697   0.699862   0.003613
    18  H    0.000029   0.000007   0.000173   0.000066   0.003613   0.610132
    19  H    0.000019   0.000109  -0.000030   0.000039  -0.000867  -0.035500
              19
     1  O    0.002615
     2  C   -0.012320
     3  C   -0.012216
     4  C   -0.000261
     5  C    0.007524
     6  C   -0.000785
     7  O    0.002259
     8  C   -0.015927
     9  C    0.322337
    10  H    0.000770
    11  H    0.000254
    12  H    0.005977
    13  H    0.000019
    14  H    0.000109
    15  H   -0.000030
    16  H    0.000039
    17  H   -0.000867
    18  H   -0.035500
    19  H    0.645237
 Mulliken charges:
               1
     1  O   -0.483102
     2  C    0.357292
     3  C   -0.282246
     4  C   -0.343473
     5  C    0.283748
     6  C   -0.182196
     7  O   -0.294866
     8  C    0.084222
     9  C   -0.321861
    10  H    0.279316
    11  H    0.105590
    12  H    0.098265
    13  H    0.111864
    14  H    0.101187
    15  H    0.116177
    16  H    0.097225
    17  H    0.068838
    18  H    0.113255
    19  H    0.090764
 Sum of Mulliken charges =   0.00000
 Mulliken charges with hydrogens summed into heavy atoms:
               1
     1  O   -0.203785
     2  C    0.357292
     3  C   -0.078391
     4  C   -0.130422
     5  C    0.283748
     6  C    0.031206
     7  O   -0.294866
     8  C    0.153061
     9  C   -0.117842
 Electronic spatial extent (au):  <R**2>=            976.9752
 Charge=              0.0000 electrons
 Dipole moment (field-independent basis, Debye):
    X=              2.2190    Y=              0.2819    Z=             -0.8957  Tot=              2.4095
 Quadrupole moment (field-independent basis, Debye-Ang):
   XX=            -55.7218   YY=            -49.8743   ZZ=            -53.0122
   XY=             -4.1207   XZ=             -0.9437   YZ=              0.9540
 Traceless Quadrupole moment (field-independent basis, Debye-Ang):
   XX=             -2.8524   YY=              2.9951   ZZ=             -0.1427
   XY=             -4.1207   XZ=             -0.9437   YZ=              0.9540
 Octapole moment (field-independent basis, Debye-Ang**2):
  XXX=             17.8621  YYY=            -14.4111  ZZZ=              1.1950  XYY=              5.0097
  XXY=             -4.7593  XXZ=              5.4145  XZZ=             -5.1791  YZZ=              0.6192
  YYZ=              4.0290  XYZ=             -1.2734
 Hexadecapole moment (field-independent basis, Debye-Ang**3):
 XXXX=           -619.0129 YYYY=           -357.4034 ZZZZ=           -274.2675 XXXY=            -30.3809
 XXXZ=             11.0775 YYYX=            -24.1244 YYYZ=            -13.3609 ZZZX=              1.2225
 ZZZY=             -4.8276 XXYY=           -146.9964 XXZZ=           -139.7284 YYZZ=           -107.6079
 XXYZ=             -4.9342 YYXZ=              9.4703 ZZXY=             -2.4467
 N-N= 4.826487341143D+02 E-N=-1.952512207586D+03  KE= 4.200496868927D+02
 Calling FoFJK, ICntrl=      2127 FMM=F ISym2X=0 I1Cent= 0 IOpClX= 0 NMat=1 NMatS=1 NMatT=0.
 ***** Axes restored to original set *****
 -------------------------------------------------------------------
 Center     Atomic                   Forces (Hartrees/Bohr)
 Number     Number              X              Y              Z
 -------------------------------------------------------------------
      1        8          -0.000003361    0.000009446    0.000000443
      2        6           0.000007857   -0.000019602   -0.000001117
      3        6          -0.000015403    0.000001899    0.000007516
      4        6           0.000005700   -0.000005711   -0.000000660
      5        6           0.000008183    0.000015029   -0.000015399
      6        6          -0.000000188   -0.000004561    0.000002230
      7        8           0.000003453    0.000001172   -0.000010480
      8        6           0.000005839   -0.000006871    0.000016921
      9        6          -0.000007823    0.000007629    0.000004865
     10        1          -0.000001379    0.000002539    0.000006436
     11        1          -0.000003463    0.000001096   -0.000000004
     12        1          -0.000006134    0.000001365    0.000001471
     13        1          -0.000004790   -0.000000123   -0.000005029
     14        1          -0.000004422   -0.000001103   -0.000004957
     15        1           0.000005755   -0.000001568   -0.000001969
     16        1           0.000005034   -0.000002981   -0.000006426
     17        1          -0.000000610   -0.000000212   -0.000001608
     18        1           0.000004457    0.000000232    0.000005257
     19        1           0.000001294    0.000002326    0.000002512
 -------------------------------------------------------------------
 Cartesian Forces:  Max     0.000019602 RMS     0.000006593

 GradGradGradGradGradGradGradGradGradGradGradGradGradGradGradGradGradGrad
 Berny optimization.
 FormGI is forming the generalized inverse of G from B-inverse, IUseBI=4.
 Internal  Forces:  Max     0.000010652 RMS     0.000001878
 Search for a local minimum.
 Step number   1 out of a maximum of  114
 All quantities printed in internal units (Hartrees-Bohrs-Radians)
 Mixed Optimization -- En-DIIS/RFO-DIIS
 Second derivative matrix not updated -- first step.
 ITU=  0
     Eigenvalues ---    0.00346   0.00878   0.01445   0.01716   0.02625
     Eigenvalues ---    0.02748   0.02972   0.03325   0.03988   0.04125
     Eigenvalues ---    0.04581   0.04779   0.04889   0.04954   0.05228
     Eigenvalues ---    0.05597   0.06024   0.06198   0.06391   0.06463
     Eigenvalues ---    0.07441   0.07771   0.08139   0.08498   0.09262
     Eigenvalues ---    0.10499   0.11302   0.12782   0.15193   0.16000
     Eigenvalues ---    0.16305   0.17984   0.24349   0.24589   0.26188
     Eigenvalues ---    0.26966   0.28499   0.28564   0.33795   0.34083
     Eigenvalues ---    0.34149   0.34266   0.34312   0.34357   0.34411
     Eigenvalues ---    0.34449   0.34506   0.34604   0.36486   0.45923
     Eigenvalues ---    0.54652
 RFO step:  Lambda= 0.00000000D+00 EMin= 3.46386411D-03
 Linear search not attempted -- first point.
 Iteration  1 RMS(Cart)=  0.00002878 RMS(Int)=  0.00000000
 Iteration  2 RMS(Cart)=  0.00000000 RMS(Int)=  0.00000000
 Variable       Old X    -DE/DX   Delta X   Delta X   Delta X     New X
                                 (Linear)    (Quad)   (Total)
    R1        2.64218  -0.00001   0.00000  -0.00002  -0.00002   2.64216
    R2        1.82143   0.00000   0.00000   0.00000   0.00000   1.82142
    R3        2.96627   0.00001   0.00000   0.00003   0.00003   2.96630
    R4        2.95006   0.00000   0.00000   0.00000   0.00000   2.95006
    R5        2.93948   0.00000   0.00000   0.00002   0.00002   2.93950
    R6        2.95785   0.00000   0.00000  -0.00002  -0.00002   2.95782
    R7        2.06323   0.00000   0.00000   0.00000   0.00000   2.06322
    R8        2.06578   0.00000   0.00000   0.00000   0.00000   2.06579
    R9        2.88177   0.00000   0.00000   0.00001   0.00001   2.88178
   R10        2.06732   0.00000   0.00000   0.00000   0.00000   2.06732
   R11        2.06641   0.00000   0.00000   0.00000   0.00000   2.06641
   R12        2.87105   0.00000   0.00000  -0.00001  -0.00001   2.87104
   R13        2.93731  -0.00001   0.00000  -0.00004  -0.00004   2.93728
   R14        2.74756   0.00000   0.00000   0.00001   0.00001   2.74757
   R15        2.07079   0.00000   0.00000   0.00000   0.00000   2.07080
   R16        2.07677   0.00000   0.00000   0.00000   0.00000   2.07677
   R17        2.73038   0.00001   0.00000   0.00003   0.00003   2.73041
   R18        2.92876   0.00000   0.00000  -0.00001  -0.00001   2.92874
   R19        2.06884   0.00000   0.00000   0.00000   0.00000   2.06884
   R20        2.06485   0.00000   0.00000   0.00000   0.00000   2.06486
   R21        2.06807   0.00000   0.00000   0.00000   0.00000   2.06807
    A1        1.89433   0.00000   0.00000  -0.00002  -0.00002   1.89431
    A2        2.02801   0.00000   0.00000   0.00003   0.00003   2.02804
    A3        2.07372   0.00000   0.00000  -0.00001  -0.00001   2.07371
    A4        2.08578   0.00000   0.00000   0.00000   0.00000   2.08577
    A5        1.52127   0.00000   0.00000  -0.00001  -0.00001   1.52127
    A6        2.02392   0.00000   0.00000  -0.00001  -0.00001   2.02391
    A7        1.60640   0.00000   0.00000  -0.00002  -0.00002   1.60638
    A8        1.57360   0.00000   0.00000  -0.00001  -0.00001   1.57359
    A9        1.96854   0.00000   0.00000  -0.00001  -0.00001   1.96853
   A10        1.99987   0.00000   0.00000   0.00000   0.00000   1.99986
   A11        2.00181   0.00000   0.00000   0.00002   0.00002   2.00183
   A12        2.00062   0.00000   0.00000   0.00000   0.00000   2.00061
   A13        1.90407   0.00000   0.00000   0.00000   0.00000   1.90407
   A14        1.54626   0.00000   0.00000   0.00001   0.00001   1.54627
   A15        1.95129   0.00000   0.00000   0.00003   0.00003   1.95132
   A16        2.04920   0.00000   0.00000  -0.00001  -0.00001   2.04919
   A17        1.96526   0.00000   0.00000   0.00000   0.00000   1.96527
   A18        2.04175   0.00000   0.00000  -0.00001  -0.00001   2.04173
   A19        1.89278   0.00000   0.00000  -0.00001  -0.00001   1.89277
   A20        1.60546   0.00000   0.00000  -0.00001  -0.00001   1.60545
   A21        2.13445   0.00000   0.00000   0.00000   0.00000   2.13445
   A22        1.52718   0.00000   0.00000   0.00001   0.00001   1.52719
   A23        2.38378   0.00000   0.00000  -0.00002  -0.00002   2.38376
   A24        2.17784   0.00000   0.00000   0.00001   0.00001   2.17785
   A25        1.49718   0.00000   0.00000   0.00003   0.00003   1.49721
   A26        1.58717   0.00000   0.00000  -0.00001  -0.00001   1.58716
   A27        2.03735   0.00000   0.00000   0.00000   0.00000   2.03735
   A28        2.00653   0.00000   0.00000   0.00001   0.00001   2.00654
   A29        1.96178   0.00000   0.00000   0.00001   0.00001   1.96179
   A30        1.94036   0.00000   0.00000   0.00001   0.00001   1.94037
   A31        1.91062   0.00000   0.00000  -0.00001  -0.00001   1.91061
   A32        1.61254   0.00000   0.00000   0.00000   0.00000   1.61254
   A33        1.56877   0.00000   0.00000  -0.00001  -0.00001   1.56877
   A34        1.61471   0.00000   0.00000   0.00001   0.00001   1.61472
   A35        2.18053   0.00000   0.00000   0.00000   0.00000   2.18052
   A36        1.97335   0.00000   0.00000   0.00001   0.00001   1.97335
   A37        1.96430   0.00000   0.00000  -0.00001  -0.00001   1.96429
   A38        2.08478   0.00000   0.00000   0.00001   0.00001   2.08478
   A39        1.53344   0.00000   0.00000   0.00000   0.00000   1.53344
   A40        1.98245   0.00000   0.00000  -0.00002  -0.00002   1.98242
   A41        2.02526   0.00000   0.00000   0.00003   0.00003   2.02529
   A42        1.94270   0.00000   0.00000   0.00001   0.00001   1.94270
   A43        2.03512   0.00000   0.00000   0.00002   0.00002   2.03513
   A44        1.91948   0.00000   0.00000  -0.00002  -0.00002   1.91946
    D1       -1.38697   0.00000   0.00000   0.00002   0.00002  -1.38694
    D2        3.11622   0.00000   0.00000   0.00002   0.00002   3.11624
    D3        1.17931   0.00000   0.00000   0.00005   0.00005   1.17936
    D4       -1.92294   0.00000   0.00000   0.00005   0.00005  -1.92289
    D5        0.11949   0.00000   0.00000   0.00007   0.00007   0.11956
    D6        2.31198   0.00000   0.00000   0.00006   0.00006   2.31204
    D7        0.18704   0.00000   0.00000   0.00004   0.00004   0.18708
    D8        2.22948   0.00000   0.00000   0.00006   0.00006   2.22953
    D9       -1.86122   0.00000   0.00000   0.00005   0.00005  -1.86117
   D10        1.77335   0.00000   0.00000   0.00002   0.00002   1.77337
   D11       -2.46741   0.00000   0.00000   0.00003   0.00003  -2.46737
   D12       -0.27491   0.00000   0.00000   0.00003   0.00003  -0.27488
   D13        1.87609   0.00000   0.00000  -0.00001  -0.00001   1.87608
   D14       -0.77415   0.00000   0.00000   0.00004   0.00004  -0.77411
   D15       -2.23002   0.00000   0.00000   0.00000   0.00000  -2.23002
   D16       -0.19216   0.00000   0.00000  -0.00004  -0.00004  -0.19220
   D17       -2.84240   0.00000   0.00000   0.00001   0.00001  -2.84239
   D18        1.98492   0.00000   0.00000  -0.00003  -0.00003   1.98488
   D19       -2.21502   0.00000   0.00000  -0.00003  -0.00003  -2.21505
   D20        1.41793   0.00000   0.00000   0.00001   0.00001   1.41794
   D21       -0.03794   0.00000   0.00000  -0.00003  -0.00003  -0.03797
   D22        2.22063   0.00000   0.00000  -0.00001  -0.00001   2.22062
   D23        0.25953   0.00000   0.00000  -0.00001  -0.00001   0.25952
   D24       -1.99055   0.00000   0.00000   0.00002   0.00002  -1.99053
   D25       -1.49499   0.00000   0.00000   0.00004   0.00004  -1.49495
   D26        2.82710   0.00000   0.00000   0.00004   0.00004   2.82713
   D27        0.57702   0.00000   0.00000   0.00006   0.00006   0.57709
   D28        0.03804   0.00000   0.00000   0.00003   0.00003   0.03807
   D29       -1.92305   0.00000   0.00000   0.00002   0.00002  -1.92303
   D30        2.11006   0.00000   0.00000   0.00005   0.00005   2.11011
   D31       -0.19135   0.00000   0.00000  -0.00004  -0.00004  -0.19139
   D32        1.79558   0.00000   0.00000  -0.00003  -0.00003   1.79555
   D33       -2.28406   0.00000   0.00000  -0.00003  -0.00003  -2.28409
   D34       -2.20401   0.00000   0.00000  -0.00003  -0.00003  -2.20403
   D35       -0.21707   0.00000   0.00000  -0.00002  -0.00002  -0.21709
   D36        1.98647   0.00000   0.00000  -0.00002  -0.00002   1.98645
   D37        1.85624   0.00000   0.00000  -0.00005  -0.00005   1.85620
   D38       -2.44001   0.00000   0.00000  -0.00004  -0.00004  -2.44005
   D39       -0.23647   0.00000   0.00000  -0.00003  -0.00003  -0.23650
   D40        0.19253   0.00000   0.00000   0.00004   0.00004   0.19257
   D41        2.71508   0.00000   0.00000   0.00000   0.00000   2.71507
   D42       -1.34923   0.00000   0.00000   0.00003   0.00003  -1.34919
   D43       -1.78126   0.00000   0.00000   0.00001   0.00001  -1.78126
   D44        0.74128   0.00000   0.00000  -0.00004  -0.00004   0.74124
   D45        2.96016   0.00000   0.00000   0.00000   0.00000   2.96016
   D46        2.29186   0.00000   0.00000   0.00003   0.00003   2.29189
   D47       -1.46879   0.00000   0.00000  -0.00001  -0.00001  -1.46880
   D48        0.75009   0.00000   0.00000   0.00003   0.00003   0.75012
   D49       -1.34427   0.00000   0.00000  -0.00006  -0.00006  -1.34433
   D50        0.67658   0.00000   0.00000  -0.00006  -0.00006   0.67652
   D51        2.94991   0.00000   0.00000  -0.00007  -0.00007   2.94985
   D52        2.55335   0.00000   0.00000   0.00000   0.00000   2.55335
   D53       -1.70899   0.00000   0.00000   0.00000   0.00000  -1.70899
   D54        0.56435   0.00000   0.00000  -0.00001  -0.00001   0.56434
   D55        0.12804   0.00000   0.00000  -0.00003  -0.00003   0.12801
   D56        2.14888   0.00000   0.00000  -0.00003  -0.00003   2.14885
   D57       -1.86096   0.00000   0.00000  -0.00004  -0.00004  -1.86100
   D58        2.01176   0.00000   0.00000   0.00003   0.00003   2.01179
   D59        0.03809   0.00000   0.00000   0.00003   0.00003   0.03812
   D60       -2.21553   0.00000   0.00000   0.00001   0.00001  -2.21551
   D61       -2.68870   0.00000   0.00000   0.00003   0.00003  -2.68868
   D62        1.62082   0.00000   0.00000   0.00002   0.00002   1.62084
   D63       -0.63281   0.00000   0.00000   0.00001   0.00001  -0.63280
   D64       -0.12883   0.00000   0.00000   0.00003   0.00003  -0.12880
   D65       -2.10249   0.00000   0.00000   0.00003   0.00003  -2.10247
   D66        1.92707   0.00000   0.00000   0.00002   0.00002   1.92708
   D67       -0.13755   0.00000   0.00000   0.00004   0.00004  -0.13751
   D68       -2.22427   0.00000   0.00000   0.00004   0.00004  -2.22423
   D69        1.91017   0.00000   0.00000   0.00004   0.00004   1.91021
   D70        0.13441   0.00000   0.00000  -0.00004  -0.00004   0.13437
   D71        1.75208   0.00000   0.00000  -0.00003  -0.00003   1.75204
   D72       -2.10411   0.00000   0.00000  -0.00003  -0.00003  -2.10414
   D73       -0.03822   0.00000   0.00000  -0.00003  -0.00003  -0.03825
   D74        1.96074   0.00000   0.00000  -0.00005  -0.00005   1.96069
   D75       -2.10124   0.00000   0.00000  -0.00006  -0.00006  -2.10130
   D76       -1.62553   0.00000   0.00000  -0.00002  -0.00002  -1.62555
   D77        0.37343   0.00000   0.00000  -0.00005  -0.00005   0.37338
   D78        2.59464   0.00000   0.00000  -0.00005  -0.00005   2.59458
   D79        2.28452   0.00000   0.00000  -0.00002  -0.00002   2.28450
   D80       -1.99971   0.00000   0.00000  -0.00005  -0.00005  -1.99975
   D81        0.22150   0.00000   0.00000  -0.00005  -0.00005   0.22145
         Item               Value     Threshold  Converged?
 Maximum Force            0.000011     0.000450     YES
 RMS     Force            0.000002     0.000300     YES
 Maximum Displacement     0.000116     0.001800     YES
 RMS     Displacement     0.000029     0.001200     YES
 Predicted change in Energy=-1.734832D-09
 Optimization completed.
    -- Stationary point found.
                           ----------------------------
                           !   Optimized Parameters   !
                           ! (Angstroms and Degrees)  !
 --------------------------                            --------------------------
 ! Name  Definition              Value          Derivative Info.                !
 --------------------------------------------------------------------------------
 ! R1    R(1,2)                  1.3982         -DE/DX =    0.0                 !
 ! R2    R(1,10)                 0.9639         -DE/DX =    0.0                 !
 ! R3    R(2,3)                  1.5697         -DE/DX =    0.0                 !
 ! R4    R(2,5)                  1.5611         -DE/DX =    0.0                 !
 ! R5    R(2,9)                  1.5555         -DE/DX =    0.0                 !
 ! R6    R(3,4)                  1.5652         -DE/DX =    0.0                 !
 ! R7    R(3,11)                 1.0918         -DE/DX =    0.0                 !
 ! R8    R(3,12)                 1.0932         -DE/DX =    0.0                 !
 ! R9    R(4,5)                  1.525          -DE/DX =    0.0                 !
 ! R10   R(4,13)                 1.094          -DE/DX =    0.0                 !
 ! R11   R(4,14)                 1.0935         -DE/DX =    0.0                 !
 ! R12   R(5,6)                  1.5193         -DE/DX =    0.0                 !
 ! R13   R(5,8)                  1.5544         -DE/DX =    0.0                 !
 ! R14   R(6,7)                  1.4539         -DE/DX =    0.0                 !
 ! R15   R(6,15)                 1.0958         -DE/DX =    0.0                 !
 ! R16   R(6,16)                 1.099          -DE/DX =    0.0                 !
 ! R17   R(7,8)                  1.4449         -DE/DX =    0.0                 !
 ! R18   R(8,9)                  1.5498         -DE/DX =    0.0                 !
 ! R19   R(8,17)                 1.0948         -DE/DX =    0.0                 !
 ! R20   R(9,18)                 1.0927         -DE/DX =    0.0                 !
 ! R21   R(9,19)                 1.0944         -DE/DX =    0.0                 !
 ! A1    A(2,1,10)             108.5369         -DE/DX =    0.0                 !
 ! A2    A(1,2,3)              116.1965         -DE/DX =    0.0                 !
 ! A3    A(1,2,5)              118.8156         -DE/DX =    0.0                 !
 ! A4    A(1,2,9)              119.5063         -DE/DX =    0.0                 !
 ! A5    A(3,2,5)               87.1624         -DE/DX =    0.0                 !
 ! A6    A(3,2,9)              115.9619         -DE/DX =    0.0                 !
 ! A7    A(5,2,9)               92.04           -DE/DX =    0.0                 !
 ! A8    A(2,3,4)               90.1605         -DE/DX =    0.0                 !
 ! A9    A(2,3,11)             112.789          -DE/DX =    0.0                 !
 ! A10   A(2,3,12)             114.5838         -DE/DX =    0.0                 !
 ! A11   A(4,3,11)             114.6951         -DE/DX =    0.0                 !
 ! A12   A(4,3,12)             114.6269         -DE/DX =    0.0                 !
 ! A13   A(11,3,12)            109.095          -DE/DX =    0.0                 !
 ! A14   A(3,4,5)               88.5942         -DE/DX =    0.0                 !
 ! A15   A(3,4,13)             111.8008         -DE/DX =    0.0                 !
 ! A16   A(3,4,14)             117.4105         -DE/DX =    0.0                 !
 ! A17   A(5,4,13)             112.6014         -DE/DX =    0.0                 !
 ! A18   A(5,4,14)             116.9834         -DE/DX =    0.0                 !
 ! A19   A(13,4,14)            108.4485         -DE/DX =    0.0                 !
 ! A20   A(2,5,4)               91.986          -DE/DX =    0.0                 !
 ! A21   A(2,5,6)              122.295          -DE/DX =    0.0                 !
 ! A22   A(2,5,8)               87.5012         -DE/DX =    0.0                 !
 ! A23   A(4,5,6)              136.5805         -DE/DX =    0.0                 !
 ! A24   A(4,5,8)              124.781          -DE/DX =    0.0                 !
 ! A25   A(6,5,8)               85.7822         -DE/DX =    0.0                 !
 ! A26   A(5,6,7)               90.9384         -DE/DX =    0.0                 !
 ! A27   A(5,6,15)             116.7315         -DE/DX =    0.0                 !
 ! A28   A(5,6,16)             114.9658         -DE/DX =    0.0                 !
 ! A29   A(7,6,15)             112.4017         -DE/DX =    0.0                 !
 ! A30   A(7,6,16)             111.1746         -DE/DX =    0.0                 !
 ! A31   A(15,6,16)            109.4706         -DE/DX =    0.0                 !
 ! A32   A(6,7,8)               92.3919         -DE/DX =    0.0                 !
 ! A33   A(5,8,7)               89.8841         -DE/DX =    0.0                 !
 ! A34   A(5,8,9)               92.5163         -DE/DX =    0.0                 !
 ! A35   A(5,8,17)             124.9349         -DE/DX =    0.0                 !
 ! A36   A(7,8,9)              113.0646         -DE/DX =    0.0                 !
 ! A37   A(7,8,17)             112.5463         -DE/DX =    0.0                 !
 ! A38   A(9,8,17)             119.4489         -DE/DX =    0.0                 !
 ! A39   A(2,9,8)               87.8596         -DE/DX =    0.0                 !
 ! A40   A(2,9,18)             113.5857         -DE/DX =    0.0                 !
 ! A41   A(2,9,19)             116.0388         -DE/DX =    0.0                 !
 ! A42   A(8,9,18)             111.3083         -DE/DX =    0.0                 !
 ! A43   A(8,9,19)             116.6036         -DE/DX =    0.0                 !
 ! A44   A(18,9,19)            109.9784         -DE/DX =    0.0                 !
 ! D1    D(10,1,2,3)           -79.4672         -DE/DX =    0.0                 !
 ! D2    D(10,1,2,5)           178.5465         -DE/DX =    0.0                 !
 ! D3    D(10,1,2,9)            67.5693         -DE/DX =    0.0                 !
 ! D4    D(1,2,3,4)           -110.1764         -DE/DX =    0.0                 !
 ! D5    D(1,2,3,11)             6.8463         -DE/DX =    0.0                 !
 ! D6    D(1,2,3,12)           132.4669         -DE/DX =    0.0                 !
 ! D7    D(5,2,3,4)             10.7169         -DE/DX =    0.0                 !
 ! D8    D(5,2,3,11)           127.7396         -DE/DX =    0.0                 !
 ! D9    D(5,2,3,12)          -106.6398         -DE/DX =    0.0                 !
 ! D10   D(9,2,3,4)            101.6054         -DE/DX =    0.0                 !
 ! D11   D(9,2,3,11)          -141.372          -DE/DX =    0.0                 !
 ! D12   D(9,2,3,12)           -15.7513         -DE/DX =    0.0                 !
 ! D13   D(1,2,5,4)            107.4922         -DE/DX =    0.0                 !
 ! D14   D(1,2,5,6)            -44.3553         -DE/DX =    0.0                 !
 ! D15   D(1,2,5,8)           -127.7705         -DE/DX =    0.0                 !
 ! D16   D(3,2,5,4)            -11.0099         -DE/DX =    0.0                 !
 ! D17   D(3,2,5,6)           -162.8574         -DE/DX =    0.0                 !
 ! D18   D(3,2,5,8)            113.7274         -DE/DX =    0.0                 !
 ! D19   D(9,2,5,4)           -126.9113         -DE/DX =    0.0                 !
 ! D20   D(9,2,5,6)             81.2412         -DE/DX =    0.0                 !
 ! D21   D(9,2,5,8)             -2.174          -DE/DX =    0.0                 !
 ! D22   D(1,2,9,8)            127.2325         -DE/DX =    0.0                 !
 ! D23   D(1,2,9,18)            14.8698         -DE/DX =    0.0                 !
 ! D24   D(1,2,9,19)          -114.05           -DE/DX =    0.0                 !
 ! D25   D(3,2,9,8)            -85.6566         -DE/DX =    0.0                 !
 ! D26   D(3,2,9,18)           161.9807         -DE/DX =    0.0                 !
 ! D27   D(3,2,9,19)            33.0609         -DE/DX =    0.0                 !
 ! D28   D(5,2,9,8)              2.1798         -DE/DX =    0.0                 !
 ! D29   D(5,2,9,18)          -110.1829         -DE/DX =    0.0                 !
 ! D30   D(5,2,9,19)           120.8973         -DE/DX =    0.0                 !
 ! D31   D(2,3,4,5)            -10.9637         -DE/DX =    0.0                 !
 ! D32   D(2,3,4,13)           102.8792         -DE/DX =    0.0                 !
 ! D33   D(2,3,4,14)          -130.8673         -DE/DX =    0.0                 !
 ! D34   D(11,3,4,5)          -126.2802         -DE/DX =    0.0                 !
 ! D35   D(11,3,4,13)          -12.4374         -DE/DX =    0.0                 !
 ! D36   D(11,3,4,14)          113.8162         -DE/DX =    0.0                 !
 ! D37   D(12,3,4,5)           106.3549         -DE/DX =    0.0                 !
 ! D38   D(12,3,4,13)         -139.8023         -DE/DX =    0.0                 !
 ! D39   D(12,3,4,14)          -13.5487         -DE/DX =    0.0                 !
 ! D40   D(3,4,5,2)             11.0313         -DE/DX =    0.0                 !
 ! D41   D(3,4,5,6)            155.5625         -DE/DX =    0.0                 !
 ! D42   D(3,4,5,8)            -77.3051         -DE/DX =    0.0                 !
 ! D43   D(13,4,5,2)          -102.0589         -DE/DX =    0.0                 !
 ! D44   D(13,4,5,6)            42.4722         -DE/DX =    0.0                 !
 ! D45   D(13,4,5,8)           169.6046         -DE/DX =    0.0                 !
 ! D46   D(14,4,5,2)           131.3136         -DE/DX =    0.0                 !
 ! D47   D(14,4,5,6)           -84.1552         -DE/DX =    0.0                 !
 ! D48   D(14,4,5,8)            42.9772         -DE/DX =    0.0                 !
 ! D49   D(2,5,6,7)            -77.0209         -DE/DX =    0.0                 !
 ! D50   D(2,5,6,15)            38.7649         -DE/DX =    0.0                 !
 ! D51   D(2,5,6,16)           169.0176         -DE/DX =    0.0                 !
 ! D52   D(4,5,6,7)            146.2962         -DE/DX =    0.0                 !
 ! D53   D(4,5,6,15)           -97.918          -DE/DX =    0.0                 !
 ! D54   D(4,5,6,16)            32.3347         -DE/DX =    0.0                 !
 ! D55   D(8,5,6,7)              7.336          -DE/DX =    0.0                 !
 ! D56   D(8,5,6,15)           123.1219         -DE/DX =    0.0                 !
 ! D57   D(8,5,6,16)          -106.6254         -DE/DX =    0.0                 !
 ! D58   D(2,5,8,7)            115.2653         -DE/DX =    0.0                 !
 ! D59   D(2,5,8,9)              2.1827         -DE/DX =    0.0                 !
 ! D60   D(2,5,8,17)          -126.9405         -DE/DX =    0.0                 !
 ! D61   D(4,5,8,7)           -154.0514         -DE/DX =    0.0                 !
 ! D62   D(4,5,8,9)             92.866          -DE/DX =    0.0                 !
 ! D63   D(4,5,8,17)           -36.2572         -DE/DX =    0.0                 !
 ! D64   D(6,5,8,7)             -7.3814         -DE/DX =    0.0                 !
 ! D65   D(6,5,8,9)           -120.4641         -DE/DX =    0.0                 !
 ! D66   D(6,5,8,17)           110.4128         -DE/DX =    0.0                 !
 ! D67   D(5,6,7,8)             -7.8808         -DE/DX =    0.0                 !
 ! D68   D(15,6,7,8)          -127.4414         -DE/DX =    0.0                 !
 ! D69   D(16,6,7,8)           109.4445         -DE/DX =    0.0                 !
 ! D70   D(6,7,8,5)              7.7009         -DE/DX =    0.0                 !
 ! D71   D(6,7,8,9)            100.3866         -DE/DX =    0.0                 !
 ! D72   D(6,7,8,17)          -120.5566         -DE/DX =    0.0                 !
 ! D73   D(5,8,9,2)             -2.19           -DE/DX =    0.0                 !
 ! D74   D(5,8,9,18)           112.3421         -DE/DX =    0.0                 !
 ! D75   D(5,8,9,19)          -120.3921         -DE/DX =    0.0                 !
 ! D76   D(7,8,9,2)            -93.1361         -DE/DX =    0.0                 !
 ! D77   D(7,8,9,18)            21.396          -DE/DX =    0.0                 !
 ! D78   D(7,8,9,19)           148.6618         -DE/DX =    0.0                 !
 ! D79   D(17,8,9,2)           130.8932         -DE/DX =    0.0                 !
 ! D80   D(17,8,9,18)         -114.5747         -DE/DX =    0.0                 !
 ! D81   D(17,8,9,19)           12.6911         -DE/DX =    0.0                 !
 --------------------------------------------------------------------------------
 GradGradGradGradGradGradGradGradGradGradGradGradGradGradGradGradGradGrad

                          Input orientation:                          
 ---------------------------------------------------------------------
 Center     Atomic      Atomic             Coordinates (Angstroms)
 Number     Number       Type             X           Y           Z
 ---------------------------------------------------------------------
      1          8           0        0.055937   -0.041532    0.311556
      2          6           0       -0.557798    1.170674    0.641404
      3          6           0       -1.138106    1.280380    2.095744
      4          6           0       -2.593888    1.260652    1.521080
      5          6           0       -2.005612    1.445675    0.126367
      6          6           0       -2.431184    1.141607   -1.300055
      7          8           0       -1.749613    2.331850   -1.782485
      8          6           0       -1.475061    2.792142   -0.440710
      9          6           0       -0.025513    2.493163    0.019070
     10          1           0        0.945508   -0.045542    0.682593
     11          1           0       -0.882106    0.421366    2.719133
     12          1           0       -0.869500    2.198681    2.624503
     13          1           0       -3.068720    0.283683    1.650896
     14          1           0       -3.284995    2.030961    1.874260
     15          1           0       -2.034873    0.223167   -1.747513
     16          1           0       -3.512979    1.201552   -1.484136
     17          1           0       -1.912818    3.774517   -0.236118
     18          1           0        0.638033    2.338356   -0.835140
     19          1           0        0.423985    3.205900    0.717361
 ---------------------------------------------------------------------
                    Distance matrix (angstroms):
                    1          2          3          4          5
     1  O    0.000000
     2  C    1.398182   0.000000
     3  C    2.521214   1.569681   0.000000
     4  C    3.190644   2.219817   1.565225   0.000000
     5  C    2.548738   1.561107   2.158318   1.524968   0.000000
     6  C    3.191063   2.698088   3.636311   2.828330   1.519292
     7  O    3.643894   2.940066   4.064503   3.574046   2.120036
     8  C    3.307502   2.154414   2.971962   2.728709   1.554360
     9  C    2.552814   1.555507   2.649770   3.220507   2.242662
    10  H    0.963857   1.934117   2.845438   3.864781   3.352943
    11  H    2.625000   2.232397   1.091813   2.251651   3.005647
    12  H    3.350330   2.255358   1.093166   2.251878   2.845779
    13  H    3.415125   2.847903   2.217783   1.093977   2.191943
    14  H    4.230733   3.114102   2.285072   1.093499   2.243772
    15  H    2.946408   2.964193   4.085647   3.474561   2.237589
    16  H    4.184128   3.640325   4.296716   3.143174   2.219339
    17  H    4.328761   3.063678   3.501210   3.141833   2.358710
    18  H    2.705109   2.230174   3.586651   4.142286   2.951311
    19  H    3.293319   2.260932   2.836846   3.679336   3.057877
                    6          7          8          9         10
     6  C    0.000000
     7  O    1.453944   0.000000
     8  C    2.092106   1.444855   0.000000
     9  C    3.058438   2.498828   1.549831   0.000000
    10  H    4.091731   4.358013   3.895307   2.797886   0.000000
    11  H    4.367180   4.966596   3.994594   3.509477   2.775909
    12  H    4.354127   4.495984   3.180320   2.754509   3.478765
    13  H    3.138567   4.209885   3.634134   4.099483   4.142466
    14  H    3.405323   3.977400   3.035514   3.778833   4.860977
    15  H    1.095816   2.128177   2.936112   3.508735   3.854905
    16  H    1.098981   2.115666   2.787798   4.011272   5.111562
    17  H    2.886673   2.121126   1.094783   2.295411   4.858695
    18  H    3.326927   2.568727   2.196967   1.092673   2.842715
    19  H    4.059958   3.426036   2.262455   1.094374   3.293186
                   11         12         13         14         15
    11  H    0.000000
    12  H    1.779877   0.000000
    13  H    2.437492   3.074361   0.000000
    14  H    3.013052   2.534879   1.774725   0.000000
    15  H    4.617259   4.937132   3.552701   4.236527   0.000000
    16  H    5.019726   4.986297   3.296707   3.466803   1.792038
    17  H    4.586883   3.428546   4.133141   3.062116   3.861515
    18  H    4.314919   3.776413   4.913459   4.777603   3.528580
    19  H    3.669686   2.514913   4.648637   4.058994   4.584570
                   16         17         18         19
    16  H    0.000000
    17  H    3.276921   0.000000
    18  H    4.352519   2.988014   0.000000
    19  H    4.935958   2.587102   1.791287   0.000000
 Stoichiometry    C7H10O2
 Framework group  C1[X(C7H10O2)]
 Deg. of freedom    51
 Full point group                 C1      NOp   1
 Largest Abelian subgroup         C1      NOp   1
 Largest concise Abelian subgroup C1      NOp   1
                         Standard orientation:                         
 ---------------------------------------------------------------------
 Center     Atomic      Atomic             Coordinates (Angstroms)
 Number     Number       Type             X           Y           Z
 ---------------------------------------------------------------------
      1          8           0        1.154384   -1.206810    1.233545
      2          6           0        0.797446   -0.526411    0.065399
      3          6           0        1.838367    0.517265   -0.474158
      4          6           0        0.875873    1.687202   -0.080736
      5          6           0       -0.219166    0.654268    0.163119
      6          6           0       -1.487896    0.566320    0.994285
      7          8           0       -2.128048   -0.248572   -0.025572
      8          6           0       -1.039355   -0.049066   -0.954309
      9          6           0       -0.061527   -1.250171   -1.010678
     10          1           0        1.765788   -1.914761    1.001139
     11          1           0        2.781132    0.497537    0.076170
     12          1           0        2.047307    0.439599   -1.544356
     13          1           0        1.196459    2.185193    0.839056
     14          1           0        0.677318    2.451656   -0.836993
     15          1           0       -1.411832    0.047468    1.956481
     16          1           0       -2.018780    1.518581    1.132562
     17          1           0       -1.364116    0.424802   -1.886258
     18          1           0       -0.535705   -2.165543   -0.648487
     19          1           0        0.429279   -1.437915   -1.970634
 ---------------------------------------------------------------------
 Rotational constants (GHZ):      2.5605947      1.7016386      1.5129727
 1\1\GINC-ALCHEMY-MG\FOpt\RB3LYP\6-31G(2df,p)\C7H10O2\PUCK\27-Jan-2020\
 0\\# b3lyp 6-31G(2df,p) opt Freq\\titel\\0,1\O,0.0559373529,-0.0415318
 737,0.3115562337\C,-0.5577984341,1.1706739632,0.6414037396\C,-1.138106
 4654,1.2803803786,2.0957438409\C,-2.5938882343,1.2606523097,1.52108024
 74\C,-2.0056122507,1.4456746408,0.1263665324\C,-2.4311835622,1.1416073
 719,-1.3000552901\O,-1.7496134322,2.3318496927,-1.7824845545\C,-1.4750
 614512,2.7921418569,-0.4407101478\C,-0.0255133744,2.4931625098,0.01906
 96345\H,0.9455082614,-0.0455423393,0.6825930247\H,-0.8821056459,0.4213
 662609,2.7191329105\H,-0.8694999315,2.1986808382,2.62450328\H,-3.06871
 95097,0.2836827069,1.6508964362\H,-3.2849949137,2.0309610226,1.8742602
 054\H,-2.0348729739,0.22316702,-1.7475128653\H,-3.512978767,1.20155192
 97,-1.4841358254\H,-1.9128182137,3.7745172621,-0.2361175611\H,0.638033
 1414,2.3383558935,-0.8351401796\H,0.423985094,3.2059003653,0.717360968
 8\\Version=ES64L-G09RevD.01\State=1-A\HF=-423.1301334\RMSD=9.358e-09\R
 MSF=6.593e-06\Dipole=0.2191542,0.0047906,0.9222712\Quadrupole=3.809164
 9,-0.8680468,-2.9411181,0.0012581,1.2073123,1.3039755\PG=C01 [X(C7H10O
 2)]\\@


 "I COULD HAVE DONE IT IN A MUCH MORE COMPLICATED WAY"
 SAID THE RED QUEEN, IMMENSELY PROUD.

                                      -- LEWIS CARROLL
 Job cpu time:       0 days  0 hours  6 minutes 56.4 seconds.
 File lengths (MBytes):  RWF=     52 Int=      0 D2E=      0 Chk=      7 Scr=      1
 Normal termination of Gaussian 09 at Mon Jan 27 18:39:02 2020.
 Link1:  Proceeding to internal job step number  2.
 ----------------------------------------------------------------------
 #N Geom=AllCheck Guess=TCheck SCRF=Check GenChk RB3LYP/6-31G(2df,p) Fr
 eq
 ----------------------------------------------------------------------
 1/10=4,29=7,30=1,38=1,40=1/1,3;
 2/12=2,40=1/2;
 3/5=1,6=6,7=104,11=2,14=-4,16=1,25=1,30=1,70=2,71=2,74=-5,116=1,140=1/1,2,3;
 4/5=101/1;
 5/5=2,98=1/2;
 8/6=4,10=90,11=11/1;
 11/6=1,8=1,9=11,15=111,16=1/1,2,10;
 10/6=1/2;
 6/7=2,8=2,9=2,10=2,18=1,28=1/1;
 7/8=1,10=1,25=1/1,2,3,16;
 1/10=4,30=1/3;
 99//99;
 Structure from the checkpoint file:  "/scratch/puck/g09_62f99a8d-975b-4ba6-b18f-38dfd4a7bb51/Gau-54409.chk"
 -----
 titel
 -----
 Charge =  0 Multiplicity = 1
 Redundant internal coordinates found in file.
 O,0,0.0559373529,-0.0415318737,0.3115562337
 C,0,-0.5577984341,1.1706739632,0.6414037396
 C,0,-1.1381064654,1.2803803786,2.0957438409
 C,0,-2.5938882343,1.2606523097,1.5210802474
 C,0,-2.0056122507,1.4456746408,0.1263665324
 C,0,-2.4311835622,1.1416073719,-1.3000552901
 O,0,-1.7496134322,2.3318496927,-1.7824845545
 C,0,-1.4750614512,2.7921418569,-0.4407101478
 C,0,-0.0255133744,2.4931625098,0.0190696345
 H,0,0.9455082614,-0.0455423393,0.6825930247
 H,0,-0.8821056459,0.4213662609,2.7191329105
 H,0,-0.8694999315,2.1986808382,2.62450328
 H,0,-3.0687195097,0.2836827069,1.6508964362
 H,0,-3.2849949137,2.0309610226,1.8742602054
 H,0,-2.0348729739,0.22316702,-1.7475128653
 H,0,-3.512978767,1.2015519297,-1.4841358254
 H,0,-1.9128182137,3.7745172621,-0.2361175611
 H,0,0.6380331414,2.3383558935,-0.8351401796
 H,0,0.423985094,3.2059003653,0.7173609688
 Recover connectivity data from disk.

 GradGradGradGradGradGradGradGradGradGradGradGradGradGradGradGradGradGrad
 Berny optimization.
 Initialization pass.
                           ----------------------------
                           !    Initial Parameters    !
                           ! (Angstroms and Degrees)  !
 --------------------------                            --------------------------
 ! Name  Definition              Value          Derivative Info.                !
 --------------------------------------------------------------------------------
 ! R1    R(1,2)                  1.3982         calculate D2E/DX2 analytically  !
 ! R2    R(1,10)                 0.9639         calculate D2E/DX2 analytically  !
 ! R3    R(2,3)                  1.5697         calculate D2E/DX2 analytically  !
 ! R4    R(2,5)                  1.5611         calculate D2E/DX2 analytically  !
 ! R5    R(2,9)                  1.5555         calculate D2E/DX2 analytically  !
 ! R6    R(3,4)                  1.5652         calculate D2E/DX2 analytically  !
 ! R7    R(3,11)                 1.0918         calculate D2E/DX2 analytically  !
 ! R8    R(3,12)                 1.0932         calculate D2E/DX2 analytically  !
 ! R9    R(4,5)                  1.525          calculate D2E/DX2 analytically  !
 ! R10   R(4,13)                 1.094          calculate D2E/DX2 analytically  !
 ! R11   R(4,14)                 1.0935         calculate D2E/DX2 analytically  !
 ! R12   R(5,6)                  1.5193         calculate D2E/DX2 analytically  !
 ! R13   R(5,8)                  1.5544         calculate D2E/DX2 analytically  !
 ! R14   R(6,7)                  1.4539         calculate D2E/DX2 analytically  !
 ! R15   R(6,15)                 1.0958         calculate D2E/DX2 analytically  !
 ! R16   R(6,16)                 1.099          calculate D2E/DX2 analytically  !
 ! R17   R(7,8)                  1.4449         calculate D2E/DX2 analytically  !
 ! R18   R(8,9)                  1.5498         calculate D2E/DX2 analytically  !
 ! R19   R(8,17)                 1.0948         calculate D2E/DX2 analytically  !
 ! R20   R(9,18)                 1.0927         calculate D2E/DX2 analytically  !
 ! R21   R(9,19)                 1.0944         calculate D2E/DX2 analytically  !
[...]
 161,0.00907904,0.00720586,0.00092958,0.00105008,0.00210221,0.00114787,
 -0.00424251,0.00433933,0.01140809,-0.05048203,-0.02297736,-0.03924934,
 0.51647139,0.00294916,-0.00063705,0.00047083,-0.00671498,-0.00369700,-
 0.00603756,-0.00014005,0.00089783,-0.00206410,-0.00584001,-0.00053429,
 -0.00388119,-0.04189720,-0.04952759,-0.17357982,0.03717535,0.11056801,
 0.43800330,0.00122744,0.00151760,-0.00053996,-0.00226900,-0.00474655,0
 .00403056,0.00089704,0.00021005,0.00123272,0.00196428,0.00048464,0.000
 62930,0.00413389,-0.01608309,0.01292041,-0.08786470,-0.04228900,0.0338
 6085,0.14801221,0.00036167,0.00230647,0.00013526,-0.00060608,-0.003217
 05,-0.00049151,0.00060556,0.00044334,0.00092491,0.00347344,0.00267957,
 0.00165046,-0.02511597,-0.02811382,0.02992701,-0.04315600,-0.13511055,
 0.05821183,0.10795100,0.26124836,-0.00039030,0.00275391,0.00012723,-0.
 00286370,-0.00527743,0.00301874,0.00112187,-0.00159513,0.00129913,-0.0
 0235316,0.00826922,-0.00108767,0.01960516,0.02796129,-0.09957664,0.013
 20573,0.01234351,-0.07502870,-0.00265748,-0.01574700,0.36094786,-0.003
 44207,0.00073131,-0.00229492,-0.01841336,0.03136791,-0.01017066,0.0003
 7053,-0.00358278,0.00107393,-0.00448025,-0.01118804,0.00547901,-0.0566
 7850,-0.03321391,0.01293344,-0.01011393,-0.04496942,-0.02160212,-0.064
 43835,-0.00035331,-0.00146449,0.43074841,0.00125335,-0.00390551,0.0035
 1308,0.02682094,-0.05513338,0.02858233,-0.00070319,0.00054205,0.001081
 05,0.00031431,0.01040095,0.00079511,-0.02306680,-0.13471164,0.01231576
 ,-0.03322745,-0.06310100,-0.03300092,0.00133913,-0.06697431,-0.0075263
 2,-0.08003122,0.62561547,0.00065520,-0.00175980,-0.00154872,-0.0193703
 2,0.03187944,-0.00840986,0.00060497,-0.00163965,-0.00067733,0.00264014
 ,0.01509620,-0.00695709,0.02724387,0.04180110,-0.04344635,-0.00905786,
 -0.03105560,-0.01485429,-0.03107826,-0.05275043,-0.17517313,0.01605856
 ,0.03704833,0.38221834,0.00975382,0.01693187,-0.00278341,-0.06426637,-
 0.03020529,0.02113620,-0.00114777,-0.00660119,0.00292978,-0.00266935,0
 .00092847,0.00040431,-0.05560680,-0.02343190,0.00156047,-0.00028415,-0
 .00034465,-0.00079818,-0.00492792,-0.00450378,-0.01345929,-0.15319758,
 0.02709003,-0.01508033,0.50678893,-0.00136677,-0.02922283,0.00692404,-
 0.03980322,-0.12446197,0.01982355,-0.00205219,0.00295785,0.00062570,-0
 .00246108,0.00045165,0.00050132,-0.02733534,-0.01873582,0.01139944,0.0
 0042967,-0.00146258,-0.00081750,-0.01296951,0.00179318,-0.00336987,0.0
 3880659,-0.05926120,-0.00704101,0.06712494,0.43762144,-0.00522574,-0.0
 1301435,0.00468829,0.02682401,0.02837039,-0.09488061,0.01193398,0.0214
 2971,-0.00848834,-0.00059668,-0.00044930,-0.00063666,0.00202462,-0.000
 57595,0.01380562,-0.00076461,0.00443301,-0.00261681,-0.03279813,-0.006
 68751,-0.01604577,-0.01587574,-0.00371745,-0.07360030,-0.05036359,0.11
 127631,0.54197574,-0.42854412,0.01505447,-0.17059703,-0.02321096,-0.00
 008474,-0.00913127,-0.00004403,-0.00166152,0.00008172,-0.00026267,-0.0
 0007792,0.00027429,0.00480345,0.00210761,0.00224918,0.00049227,-0.0002
 2626,0.00037596,0.00010258,0.00003021,0.00019425,-0.00041107,0.0013700
 6,0.00011751,0.00125636,0.00046231,-0.00134017,0.44529411,-0.02606649,
 -0.03327669,-0.02589923,0.04460301,-0.00671349,0.01518165,-0.00009195,
 0.00076326,-0.00105724,0.00019706,-0.00036283,0.00015611,-0.00034423,-
 0.00426161,-0.00235382,-0.00020276,0.00020891,-0.00055163,-0.00055691,
 -0.00026663,-0.00033051,0.00166248,0.00003993,0.00047424,-0.00127886,0
 .00071303,0.00067528,-0.01700532,0.04350908,-0.18976851,-0.00895327,-0
 .08581168,0.01218814,-0.00297441,0.00281916,-0.00021914,-0.00045481,0.
 00127570,0.00012207,0.00068146,0.00045567,0.00034530,-0.00092043,-0.00
 009193,-0.00021393,-0.00013644,0.00025860,0.00032863,0.00032945,0.0000
 6768,-0.00025031,-0.00037695,-0.00037670,-0.00027505,-0.00103888,0.000
 57508,0.17718481,0.01317431,0.08181409,0.00171461,-0.00077161,-0.00237
 825,0.00240778,-0.01468909,0.00726302,-0.05780631,0.04901933,-0.033135
 21,-0.00539567,0.02440693,-0.01529044,-0.00367131,-0.00055325,-0.00165
 346,0.00096401,-0.00028532,-0.00010561,0.00034142,0.00059511,-0.000331
 44,-0.00089816,0.00015443,-0.00029911,-0.00142719,0.00065210,0.0027444
 3,-0.00031380,-0.00021491,0.00019806,0.06185396,-0.00054425,0.00176373
 ,-0.00030329,0.00011064,0.00015519,-0.00371388,0.04912926,-0.21863968,
 0.12189404,-0.00247518,0.00198092,-0.00289063,-0.00028687,-0.00013265,
 0.00019444,-0.00020883,-0.00006258,-0.00049669,0.00008562,0.00014533,0
 .00019900,-0.00006717,-0.00021799,-0.00040300,-0.00037681,-0.00020503,
 0.00010717,0.00016420,0.00014562,0.00045771,-0.05170847,0.23186763,-0.
 00062917,-0.00049143,0.00564199,-0.00630416,0.02380349,-0.01375847,-0.
 03308339,0.12209522,-0.13117250,-0.00233374,0.00276000,-0.00422388,-0.
 00183834,-0.00260598,-0.00264928,-0.00077502,0.00052571,0.00006822,0.0
 0019609,0.00005804,0.00028111,0.00089418,-0.00064639,0.00077264,0.0005
 7379,-0.00183342,-0.00284660,0.00107981,-0.00014183,-0.00067050,0.0387
 4093,-0.13159740,0.13827757,-0.00242069,0.00177492,0.00434841,0.003834
 81,0.01399418,0.00180991,-0.06193062,-0.05449193,-0.02986521,-0.005815
 29,-0.02753382,-0.01042443,-0.00005612,-0.00036048,0.00068224,0.000329
 27,0.00034546,-0.00017744,0.00014541,0.00046994,-0.00039772,0.00044007
 ,-0.00041909,-0.00059847,0.00103300,0.00070137,-0.00072397,0.00033899,
 0.00001960,0.00000443,0.00222728,0.00604131,0.00387372,0.06416812,0.00
 070530,0.00056118,-0.00179907,-0.00085383,-0.00124031,0.00219858,-0.05
 378027,-0.23923828,-0.10606547,0.00102338,0.00132074,0.00208779,0.0006
 6498,-0.00033404,0.00007697,-0.00010219,-0.00020340,0.00016514,0.00005
 512,0.00008184,0.00011868,-0.00000533,0.00002714,0.00018756,-0.0002131
 3,0.00076859,0.00105720,-0.00038173,-0.00011946,0.00004123,-0.00635504
 ,-0.01943817,-0.01308789,0.05891787,0.25498952,0.00164140,-0.00224751,
 -0.00430703,-0.00838330,-0.01976915,-0.00818683,-0.03086632,-0.1064717
 0,-0.10600414,-0.00016096,-0.00463004,-0.00274266,0.00030231,0.0002228
 0,-0.00336617,-0.00089215,0.00048468,0.00005254,0.00046030,0.00052844,
 0.00006957,-0.00043066,-0.00023492,-0.00052463,-0.00064772,-0.00110901
 ,0.00128732,-0.00042918,0.00002710,0.00022675,0.00481282,0.01591443,0.
 01014341,0.03371747,0.11552879,0.11248564,-0.00042821,0.00080946,0.000
 61367,-0.00115212,-0.00010581,-0.00204034,-0.01314422,-0.02306568,0.00
 166554,-0.09182149,-0.09984344,0.01556380,-0.00311986,-0.00753963,0.00
 193104,0.00087218,-0.00019016,0.00028226,0.00021123,0.00027484,0.00043
 166,0.00071531,0.00210490,-0.00087931,-0.00000267,0.00038280,-0.000184
 84,0.00005432,-0.00001117,-0.00002465,0.00263203,-0.00011208,-0.000474
 21,-0.00440187,0.00013495,0.00021331,0.10044171,0.00012000,0.00019696,
 -0.00011041,-0.00020596,-0.00082119,0.00048523,0.00173165,0.00091155,-
 0.00056234,-0.09911637,-0.26091907,0.02588734,-0.00124284,-0.00339787,
 0.00170280,-0.00062429,-0.00004487,0.00028390,0.00019468,0.00051738,0.
 00085345,0.00047827,0.00205272,-0.00091898,-0.00037634,-0.00013992,0.0
 0005112,0.00000062,-0.00000365,-0.00005088,0.00008833,0.00158878,0.000
 14711,0.00017141,0.00097482,0.00023179,0.10870388,0.27903792,0.0002703
 3,-0.00022831,0.00033951,-0.00089046,-0.00052227,-0.00041386,-0.007392
 35,-0.01686627,0.00098221,0.01597775,0.02762741,-0.04849811,0.01342818
 ,0.03457726,-0.00328559,-0.00092665,0.00069492,0.00075584,-0.00045403,
 -0.00095298,-0.00218132,0.00175082,-0.00336003,-0.00163564,0.00005881,
 0.00032729,0.00008107,0.00010896,-0.00008683,-0.00010243,0.00142577,0.
 00003813,0.00133428,-0.00358683,0.00009392,-0.00054816,-0.01507167,-0.
 03131366,0.05149257,-0.00058554,0.00021609,0.00076550,-0.00284068,-0.0
 0021637,0.00286799,-0.00983564,0.01722215,0.00812925,-0.14695100,0.117
 45433,0.04868394,-0.00725321,0.00355612,0.00278598,-0.00029215,0.00022
 225,-0.00037871,0.00014434,-0.00008380,-0.00004828,0.00017406,0.000425
 64,-0.00036301,-0.00032510,-0.00023022,0.00032918,-0.00008015,0.000060
 40,-0.00018386,-0.00280026,-0.00014190,0.00012869,0.00210333,-0.000339
 89,-0.00009907,0.00925389,-0.01006842,-0.00476702,0.15928179,-0.000296
 63,0.00031049,0.00017312,-0.00228416,0.00028740,0.00018868,-0.00363591
 ,0.00119644,0.00184576,0.11812895,-0.18415985,-0.06033353,-0.00388498,
 0.00500836,0.00252039,0.00006773,-0.00001096,-0.00006913,-0.00009063,-
 0.00015418,-0.00009690,-0.00005888,0.00141052,0.00004029,-0.00028145,-
 0.00001151,0.00008551,-0.00011553,0.00005886,0.00001298,0.00016771,0.0
 0041842,0.00000289,0.00036982,0.00103200,-0.00008877,0.01843381,-0.020
 04682,-0.00955674,-0.12702722,0.19466023,0.00086614,0.00000806,0.00111
 596,0.00098176,0.00040877,-0.00440631,-0.00596364,0.01295536,0.0038184
 1,0.04929414,-0.06013860,-0.07556932,0.01633447,-0.02332707,-0.0058163
 3,0.00235626,-0.00077390,0.00064371,-0.00016145,0.00079249,0.00066313,
 -0.00159215,0.00028742,0.00167013,0.00034039,0.00020813,0.00098058,0.0
 0028296,-0.00028897,-0.00010835,-0.00258058,0.00009722,-0.00052679,0.0
 0150652,-0.00033581,0.00088222,-0.00269548,0.00292100,0.00184668,-0.05
 853687,0.06590311,0.07581572,0.00018735,0.00001180,0.00015867,0.000330
 51,-0.00020792,-0.00028895,0.00011238,0.00010727,0.00024076,-0.0000219
 1,-0.00058065,0.00005154,0.00355864,-0.00656532,-0.00499450,-0.0923870
 0,0.08641268,0.04489027,0.00730971,-0.01714547,-0.00770887,-0.00032063
 ,-0.00290722,0.00003165,-0.00006367,-0.00009049,-0.00026217,0.00000673
 ,0.00000298,0.00032606,-0.00000698,0.00002822,-0.00000025,-0.00004165,
 0.00002176,0.00008730,-0.00000996,0.00009598,0.00001605,0.00003307,-0.
 00004828,-0.00027719,0.09333104,-0.00061870,0.00085014,0.00036288,0.00
 122680,-0.00081678,-0.00007626,0.00002025,-0.00006863,0.00003973,0.000
 11571,-0.00035276,0.00027047,-0.00244499,0.00122797,-0.00320144,0.0823
 1136,-0.21824738,-0.08263476,-0.00047064,-0.02488317,-0.00730272,0.002
 14120,-0.00195634,0.00206534,-0.00004597,-0.00019055,-0.00030733,-0.00
 014584,0.00009279,0.00000887,0.00001534,0.00002285,-0.00003556,-0.0000
 0598,0.00000670,0.00000681,0.00005036,0.00000282,-0.00014866,0.0000018
 2,-0.00004948,-0.00014929,-0.08424444,0.24522926,-0.00089963,0.0010903
 4,0.00008238,0.00129008,0.00020308,0.00126098,0.00023184,0.00041190,0.
 00013533,-0.00144649,-0.00207511,-0.00019520,0.01284776,-0.02339486,-0
 .00837806,0.04257577,-0.08781977,-0.09677666,-0.00302815,0.01256033,0.
 00733506,-0.00197082,-0.00105746,-0.00444098,-0.00005120,0.00011210,0.
 00020895,-0.00003675,0.00041438,0.00029548,-0.00023416,0.00004957,-0.0
 0006370,-0.00002309,0.00000712,0.00010831,0.00014274,0.00026672,-0.000
 05223,0.00016213,0.00006719,-0.00039772,-0.04460563,0.09591464,0.09461
 145,-0.00000886,0.00007279,-0.00019859,0.00272906,-0.00045374,0.000812
 42,0.00009033,0.00003362,-0.00036336,0.00016638,0.00004218,-0.00056242
 ,-0.00491118,0.00203828,-0.00215150,-0.28416339,0.02873887,-0.04210631
 ,-0.01218802,-0.01463887,0.00160127,-0.00173713,0.00087026,0.00300783,
 -0.00007014,-0.00084334,-0.00060562,-0.00002002,-0.00007210,0.00004665
 ,0.00003490,0.00002219,-0.00013095,0.00001002,-0.00002659,-0.00009695,
 0.00006256,0.00010244,-0.00043755,0.00010643,-0.00000523,-0.00035860,-
 0.01143624,0.00274915,-0.00400287,0.31182351,-0.00019378,0.00053156,0.
 00014237,0.00084318,-0.00077046,0.00048171,0.00002854,-0.00001362,-0.0
 0001149,0.00002178,0.00090833,-0.00010320,-0.00190252,0.00139579,-0.00
 187701,0.02915590,-0.05066797,0.00233427,-0.03413828,-0.00801830,-0.00
 348589,-0.00124727,-0.00015855,0.00447614,-0.00002308,-0.00057119,-0.0
 0120261,-0.00002270,0.00005614,0.00002142,0.00003992,0.00002643,-0.000
 01396,-0.00006019,0.00001725,0.00004518,0.00005591,-0.00001690,-0.0001
 7415,-0.00005616,-0.00004984,0.00010208,0.02585251,0.00003639,0.003930
 57,-0.01814341,0.05754528,0.00020267,0.00031773,0.00063844,0.00240487,
 -0.00357859,-0.00325538,-0.00072852,0.00010610,-0.00011735,0.00127475,
 0.00079401,0.00102921,-0.03370399,0.00601612,-0.00333610,-0.04628042,0
 .00042331,-0.06034383,0.01537123,0.00429804,0.00758219,0.00145759,-0.0
 0045666,-0.00263865,0.00009390,-0.00007651,0.00084828,0.00003777,0.000
 04821,-0.00000270,0.00020464,0.00000897,-0.00031845,0.00017531,-0.0000
 8385,-0.00026866,0.00035526,0.00026961,-0.00038117,0.00018594,-0.00009
 672,-0.00020873,0.01316886,-0.00312201,0.00485772,0.04597568,-0.004244
 55,0.05555520,0.00137588,0.00174936,-0.00040195,-0.00320955,-0.0005133
 1,-0.00112014,0.00016774,0.00063763,-0.00044198,0.00088619,0.00095244,
 -0.00129599,0.00671494,-0.00714956,-0.00404477,-0.00052709,-0.00013032
 ,-0.00024876,0.00614174,-0.00759006,-0.00261467,-0.09813047,0.09323843
 ,0.01972684,-0.00485410,0.02188924,0.00579237,0.00019961,-0.00050417,0
 .00018413,0.00015954,-0.00001119,-0.00019901,-0.00006581,-0.00000154,-
 0.00001479,-0.00010409,0.00008737,-0.00003488,-0.00002623,0.00049240,0
 .00010517,-0.00037990,-0.00047832,-0.00065469,-0.00023748,-0.00014838,
 0.00002177,0.09264769,0.00122905,-0.00012005,0.00080451,-0.00129234,-0
 .00362930,-0.00057559,0.00006350,0.00028082,-0.00010692,0.00036928,0.0
 0133548,-0.00079912,0.01145671,-0.00829307,-0.00388022,0.00166687,-0.0
 0073491,-0.00123363,-0.00156595,-0.00424000,-0.00896612,0.09459065,-0.
 25804736,-0.03550601,-0.00199453,0.00086308,0.00051863,0.00023862,-0.0
 0035031,0.00010577,0.00000859,0.00008431,0.00005250,0.00006402,0.00006
 400,0.00039383,-0.00022381,0.00014935,-0.00001111,-0.00058588,0.000120
 83,0.00101779,-0.00079729,-0.00087555,-0.00063946,-0.00046788,-0.00026
 719,-0.00012682,-0.10291695,0.27326485,-0.00083836,0.00075805,-0.00049
 488,0.00017572,0.00219182,0.00007065,-0.00007974,-0.00007252,0.0002702
 1,-0.00032181,-0.00102936,0.00156270,-0.00890020,0.00833272,0.00408953
 ,0.00322834,0.00051943,-0.00478358,0.00507756,-0.03337914,-0.01252080,
 0.02015460,-0.02857199,-0.05308976,-0.00345100,0.00477818,0.00382942,-
 0.00032182,0.00018590,-0.00004890,0.00001985,0.00001315,-0.00002943,-0
 .00002171,-0.00011066,-0.00013690,0.00010444,-0.00013796,0.00000909,0.
 00021488,-0.00055660,-0.00026758,-0.00094662,-0.00165236,0.00146224,-0
 .00023927,-0.00015921,0.00003896,-0.01394959,0.04847171,0.05985723,0.0
 0125397,0.00007174,-0.00070558,-0.00336867,0.00264725,0.00314560,0.000
 31344,-0.00007864,-0.00144205,-0.00029227,-0.00042434,-0.00041489,-0.0
 0374619,0.00063663,-0.00184112,-0.00025792,-0.00099940,0.00074355,0.00
 550620,0.00041858,-0.00021123,-0.01963261,0.00260231,0.02252551,-0.140
 20683,0.02240949,0.12910519,0.00020199,-0.00029557,0.00004765,-0.00000
 855,0.00013263,-0.00001214,0.00010017,0.00016430,0.00012926,-0.0000835
 0,-0.00010204,0.00024149,0.00003274,0.00004062,-0.00002036,-0.00010746
 ,-0.00002984,-0.00026123,0.00016418,0.00030912,-0.00020056,-0.00221317
 ,-0.00065648,-0.00046375,0.15271764,0.00166769,0.00422814,-0.00201552,
 -0.01540167,0.00675771,0.02435123,-0.00086148,-0.00461124,0.00043986,0
 .00016793,0.00041603,0.00007538,-0.00006823,0.00011016,-0.00135809,-0.
 00075454,0.00046611,-0.00006536,-0.00261619,0.00039801,-0.00124801,0.0
 0475692,-0.00360044,-0.01041221,0.02368619,-0.05261818,-0.03130969,0.0
 0040863,-0.00042692,0.00056021,-0.00089158,0.00013268,0.00110738,0.000
 30853,0.00011115,-0.00001407,0.00001925,-0.00001910,-0.00017005,-0.000
 23518,0.00000468,-0.00005576,-0.00009749,-0.00012898,-0.00004725,-0.00
 002727,-0.00007989,-0.00006773,0.00147806,0.00018883,0.00091257,-0.024
 77735,0.05090037,-0.00167963,-0.00112683,0.00230260,0.00685914,-0.0053
 6372,-0.01265963,0.00028174,0.00254028,-0.00009762,0.00021954,0.000078
 21,-0.00018276,-0.00100607,-0.00052527,-0.00069206,-0.00007586,-0.0007
 5731,0.00037851,0.00119242,0.00076365,0.00177247,-0.00787969,0.0021264
 9,0.00943328,0.12874332,-0.03171196,-0.21194698,0.00011250,0.00055962,
 -0.00053742,0.00063081,0.00022871,-0.00054209,-0.00018575,0.00025038,0
 .00053447,0.00019110,0.00000720,0.00010916,0.00012416,-0.00001695,0.00
 003168,0.00013186,0.00007854,-0.00007850,0.00009148,0.00007139,0.00010
 832,-0.00079047,0.00014957,-0.00059667,-0.13900647,0.03454466,0.226049
 61,-0.00008577,0.00044261,-0.00087784,-0.00601889,-0.00351469,-0.00125
 085,0.00035954,-0.00086515,-0.00019409,-0.00033482,-0.00030826,-0.0000
 6139,-0.00156046,-0.00299094,0.00222595,-0.00024863,0.00073373,-0.0002
 6802,-0.00444951,-0.00098701,-0.00165930,-0.00055427,-0.01722882,-0.01
 588544,-0.08978247,-0.06570636,-0.07001252,0.00013641,0.00009890,-0.00
 004047,-0.00000730,0.00021868,0.00029318,0.00000159,0.00037189,0.00065
 695,0.00002475,-0.00003835,0.00028327,-0.00013968,0.00002788,0.0001185
 2,-0.00009403,-0.00014727,-0.00003560,-0.00041491,-0.00037111,-0.00001
 673,0.00145456,0.00081383,0.00055849,0.00962684,0.01323776,0.01204590,
 0.09208703,-0.00082465,-0.00471303,0.00157051,-0.00853639,-0.01060976,
 -0.02029953,0.00107758,0.00135196,-0.00119480,-0.00032333,0.00089274,-
 0.00020535,-0.00145071,-0.00234428,0.00091270,-0.00079867,-0.00054060,
 0.00080457,0.00368892,0.00136453,0.00244684,0.00018201,0.00697894,0.00
 841805,-0.06608453,-0.15828804,-0.11074013,-0.00011517,0.00019396,-0.0
 0048736,0.00032149,0.00036422,-0.00009848,-0.00030696,0.00061873,0.001
 18132,0.00012162,-0.00002291,0.00003214,-0.00017376,-0.00002559,0.0003
 6796,0.00015137,0.00010069,0.00000598,0.00000864,0.00009674,-0.0004286
 4,-0.00108114,0.00020620,-0.00049374,-0.00206901,-0.00222915,-0.001896
 68,0.07621268,0.16660465,0.00002277,0.00189596,-0.00013429,0.00521214,
 0.00828350,0.01058270,-0.00043338,0.00009490,0.00134718,0.00039801,-0.
 00052546,0.00029351,0.00218442,0.00084089,-0.00039818,0.00047211,0.000
 95472,-0.00066501,-0.00458260,-0.00017133,-0.00155017,0.00372943,-0.00
 680047,-0.00672097,-0.06893122,-0.10897790,-0.15721827,-0.00024348,-0.
 00018674,-0.00003759,-0.00003206,0.00020235,0.00028246,-0.00011339,-0.
 00033061,0.00029496,-0.00012433,-0.00001305,0.00014810,-0.00000082,-0.
 00002456,-0.00016710,-0.00001882,-0.00011689,0.00002517,-0.00028133,-0
 .00033307,0.00021271,-0.00001858,0.00033068,0.00077848,-0.01135887,-0.
 01522754,-0.01338635,0.07412000,0.12010464,0.16631266\\0.00000342,-0.0
 0000926,-0.00000035,-0.00000762,0.00001911,0.00000104,0.00001535,-0.00
 000188,-0.00000743,-0.00000572,0.00000569,0.00000064,-0.00000837,-0.00
 001505,0.00001541,0.00000032,0.00000465,-0.00000225,-0.00000346,-0.000
 00117,0.00001062,-0.00000590,0.00000689,-0.00001717,0.00000795,-0.0000
 0749,-0.00000491,0.00000125,-0.00000249,-0.00000646,0.00000348,-0.0000
 0111,0.,0.00000614,-0.00000132,-0.00000145,0.00000479,0.00000011,0.000
 00503,0.00000441,0.00000112,0.00000496,-0.00000576,0.00000154,0.000001
 98,-0.00000509,0.00000297,0.00000643,0.00000060,0.00000025,0.00000164,
 -0.00000450,-0.00000024,-0.00000522,-0.00000130,-0.00000233,-0.0000025
 0\\\@


 A ROPE OVER THE TOP OF A FENCE HAS THE SAME LENGTH ON EACH SIDE.
 WEIGHS 1/3 POUND PER FOOT.  ON ONE END HANGS A MONKEY HOLDING A
 BANANA, AND ON THE OTHER END A WEIGHT EQUAL TO THE WEIGHT
 OF THE MONKEY.  THE BANANA WEIGHS TWO OUNCES PER INCH.
 THE ROPE IS AS LONG AS THE AGE OF THE MONKEY, 
 AND THE WEIGHT OF THE MONKEY (IN OUNCES) IS AS MUCH
 AS THE AGE OF THE MONKEY'S MOTHER.  THE COMBINED AGES OF MONKEY
 AND MOTHER ARE THIRTY YEARS.  HALF THE WEIGHT OF THE MONKEY,
  PLUS THE WEIGHT OF THE BANANA, IS ONE FOURTH AS MUCH AS THE WEIGHT
 OF THE WEIGHT AND THE ROPE.
 THE MONKEY'S MOTHER IS HALF AS OLD AS THE MONKEY WILL BE
 WHEN IT IS 3 TIMES AS OLD AS ITS MOTHER WAS WHEN
 SHE WAS HALF AS OLD AS THE MONKEY WILL BE WHEN IT IS
 AS OLD AS ITS MOTHER WILL BE WHEN SHE IS 4 TIMES AS
 OLD AS THE MONKEY WAS WHEN IT WAS TWICE AS OLD AS 
 ITS MOTHER WAS WHEN SHE WAS ONE THIRD AS OLD AS THE
 MONKEY WAS WHEN IT WAS AS OLD AS ITS MOTHER WAS WHEN 
 SHE WAS 3 TIMES AS OLD AS THE MONKEY WAS WHEN IT WAS AS OLD AS ITS
 MOTHER WAS WHEN SHE WAS 3 TIMES AS OLD AS THE MONKEY 
 WAS WHEN IT WAS ONE FOURTH WAS OLD AS IT IS NOW.

 HOW LONG IS THE BANANA?
 Job cpu time:       0 days  0 hours 45 minutes 18.5 seconds.
 File lengths (MBytes):  RWF=    152 Int=      0 D2E=      0 Chk=      8 Scr=      1
 Normal termination of Gaussian 09 at Mon Jan 27 19:24:18 2020.
