 Entering Gaussian System, Link 0=/home/puck/opt/gaussian_09/g09
 Input=dsC7O2H10nsd_1873.com
 Output=dsC7O2H10nsd_1873.log
 Initial command:
 /home/puck/opt/gaussian_09/l1.exe "/scratch/puck/g09_01ae7435-9c98-4a76-adfd-b9246c0157b6/Gau-32514.inp" -scrdir="/scratch/puck/g09_01ae7435-9c98-4a76-adfd-b9246c0157b6/"
 Entering Link 1 = /home/puck/opt/gaussian_09/l1.exe PID=     32515.
  
 Copyright (c) 1988,1990,1992,1993,1995,1998,2003,2009,2013,
            Gaussian, Inc.  All Rights Reserved.
  
 This is part of the Gaussian(R) 09 program.  It is based on
 the Gaussian(R) 03 system (copyright 2003, Gaussian, Inc.),
 the Gaussian(R) 98 system (copyright 1998, Gaussian, Inc.),
 the Gaussian(R) 94 system (copyright 1995, Gaussian, Inc.),
 the Gaussian 92(TM) system (copyright 1992, Gaussian, Inc.),
 the Gaussian 90(TM) system (copyright 1990, Gaussian, Inc.),
 the Gaussian 88(TM) system (copyright 1988, Gaussian, Inc.),
 the Gaussian 86(TM) system (copyright 1986, Carnegie Mellon
 University), and the Gaussian 82(TM) system (copyright 1983,
 Carnegie Mellon University). Gaussian is a federally registered
 trademark of Gaussian, Inc.
  
 This software contains proprietary and confidential information,
 including trade secrets, belonging to Gaussian, Inc.
  
 This software is provided under written license and may be
 used, copied, transmitted, or stored only in accord with that
 written license.
  
 The following legend is applicable only to US Government
 contracts under FAR:
  
                    RESTRICTED RIGHTS LEGEND
  
 Use, reproduction and disclosure by the US Government is
 subject to restrictions as set forth in subparagraphs (a)
 and (c) of the Commercial Computer Software - Restricted
 Rights clause in FAR 52.227-19.
  
 Gaussian, Inc.
 340 Quinnipiac St., Bldg. 40, Wallingford CT 06492
  
  
 ---------------------------------------------------------------
 Warning -- This program may not be used in any manner that
 competes with the business of Gaussian, Inc. or will provide
 assistance to any competitor of Gaussian, Inc.  The licensee
 of this program is prohibited from giving any competitor of
 Gaussian, Inc. access to this program.  By using this program,
 the user acknowledges that Gaussian, Inc. is engaged in the
 business of creating and licensing software in the field of
 computational chemistry and represents and warrants to the
 licensee that it is not a competitor of Gaussian, Inc. and that
 it will not use this program in any manner prohibited above.
 ---------------------------------------------------------------
  

 Cite this work as:
 Gaussian 09, Revision D.01,
 M. J. Frisch, G. W. Trucks, H. B. Schlegel, G. E. Scuseria, 
 M. A. Robb, J. R. Cheeseman, G. Scalmani, V. Barone, B. Mennucci, 
 G. A. Petersson, H. Nakatsuji, M. Caricato, X. Li, H. P. Hratchian, 
 A. F. Izmaylov, J. Bloino, G. Zheng, J. L. Sonnenberg, M. Hada, 
 M. Ehara, K. Toyota, R. Fukuda, J. Hasegawa, M. Ishida, T. Nakajima, 
 Y. Honda, O. Kitao, H. Nakai, T. Vreven, J. A. Montgomery, Jr., 
 J. E. Peralta, F. Ogliaro, M. Bearpark, J. J. Heyd, E. Brothers, 
 K. N. Kudin, V. N. Staroverov, T. Keith, R. Kobayashi, J. Normand, 
 K. Raghavachari, A. Rendell, J. C. Burant, S. S. Iyengar, J. Tomasi, 
 M. Cossi, N. Rega, J. M. Millam, M. Klene, J. E. Knox, J. B. Cross, 
 V. Bakken, C. Adamo, J. Jaramillo, R. Gomperts, R. E. Stratmann, 
 O. Yazyev, A. J. Austin, R. Cammi, C. Pomelli, J. W. Ochterski, 
 R. L. Martin, K. Morokuma, V. G. Zakrzewski, G. A. Voth, 
 P. Salvador, J. J. Dannenberg, S. Dapprich, A. D. Daniels, 
 O. Farkas, J. B. Foresman, J. V. Ortiz, J. Cioslowski, 
 and D. J. Fox, Gaussian, Inc., Wallingford CT, 2013.
 
 ******************************************
 Gaussian 09:  ES64L-G09RevD.01 24-Apr-2013
                27-Jan-2020 
 ******************************************
 -----------------------------
 # b3lyp 6-31G(2df,p) opt Freq
 -----------------------------
 1/14=-1,18=20,19=15,26=3,38=1/1,3;
 2/9=110,12=2,17=6,18=5,40=1/2;
 3/5=1,6=6,7=104,11=2,16=1,25=1,30=1,71=1,74=-5/1,2,3;
 4//1;
 5/5=2,38=5/2;
 6/7=2,8=2,9=2,10=2,28=1/1;
 7//1,2,3,16;
 1/14=-1,18=20,19=15,26=3/3(2);
 2/9=110/2;
 99//99;
 2/9=110/2;
 3/5=1,6=6,7=104,11=2,16=1,25=1,30=1,71=1,74=-5/1,2,3;
 4/5=5,16=3,69=1/1;
 5/5=2,38=5/2;
 7//1,2,3,16;
 1/14=-1,18=20,19=15,26=3/3(-5);
 2/9=110/2;
 6/7=2,8=2,9=2,10=2,19=2,28=1/1;
 99/9=1/99;
 -----
 titel
 -----
 Symbolic Z-matrix:
 Charge =  0 Multiplicity = 1
 C                    -0.01448  -0.17278   0.08828 
 C                     1.49482  -0.13071   0.04295 
 C                     2.24946   0.22159   1.31565 
 C                     2.25846   1.17477   0.14601 
 O                     1.57879   2.39139   0.18507 
 C                     3.45225   1.07501  -0.78928 
 O                     4.40186   0.05807  -0.43965 
 C                     3.43233  -0.23318  -1.45874 
 C                     2.21456  -1.01865  -0.98745 
 H                    -0.40352   0.62478   0.72655 
 H                    -0.44443  -0.03696  -0.91067 
 H                    -0.37463  -1.13096   0.4802 
 H                     1.63073   0.50941   2.16041 
 H                     3.1688   -0.29664   1.55865 
 H                     1.98965   2.94418   0.85851 
 H                     3.85678   1.98476  -1.2249 
 H                     3.8493   -0.41231  -2.44725 
 H                     1.55452  -1.19518  -1.84528 
 H                     2.49452  -1.99877  -0.58577 
 

 GradGradGradGradGradGradGradGradGradGradGradGradGradGradGradGradGradGrad
 Berny optimization.
 Initialization pass.
                           ----------------------------
                           !    Initial Parameters    !
                           ! (Angstroms and Degrees)  !
 --------------------------                            --------------------------
 ! Name  Definition              Value          Derivative Info.                !
 --------------------------------------------------------------------------------
 ! R1    R(1,2)                  1.5106         estimate D2E/DX2                !
 ! R2    R(1,10)                 1.0931         estimate D2E/DX2                !
 ! R3    R(1,11)                 1.096          estimate D2E/DX2                !
 ! R4    R(1,12)                 1.0961         estimate D2E/DX2                !
 ! R5    R(2,3)                  1.521          estimate D2E/DX2                !
 ! R6    R(2,4)                  1.5159         estimate D2E/DX2                !
 ! R7    R(2,9)                  1.5389         estimate D2E/DX2                !
 ! R8    R(3,4)                  1.5089         estimate D2E/DX2                !
 ! R9    R(3,13)                 1.086          estimate D2E/DX2                !
 ! R10   R(3,14)                 1.083          estimate D2E/DX2                !
 ! R11   R(4,5)                  1.3941         estimate D2E/DX2                !
 ! R12   R(4,6)                  1.5198         estimate D2E/DX2                !
 ! R13   R(5,15)                 0.9633         estimate D2E/DX2                !
 ! R14   R(6,7)                  1.4346         estimate D2E/DX2                !
 ! R15   R(6,8)                  1.4697         estimate D2E/DX2                !
 ! R16   R(6,16)                 1.0868         estimate D2E/DX2                !
 ! R17   R(7,8)                  1.4364         estimate D2E/DX2                !
 ! R18   R(8,9)                  1.5238         estimate D2E/DX2                !
 ! R19   R(8,17)                 1.0877         estimate D2E/DX2                !
 ! R20   R(9,18)                 1.0967         estimate D2E/DX2                !
 ! R21   R(9,19)                 1.0956         estimate D2E/DX2                !
 ! A1    A(2,1,10)             110.6596         estimate D2E/DX2                !
 ! A2    A(2,1,11)             111.1712         estimate D2E/DX2                !
 ! A3    A(2,1,12)             111.3079         estimate D2E/DX2                !
 ! A4    A(10,1,11)            107.5882         estimate D2E/DX2                !
 ! A5    A(10,1,12)            108.1863         estimate D2E/DX2                !
 ! A6    A(11,1,12)            107.778          estimate D2E/DX2                !
 ! A7    A(1,2,3)              118.4949         estimate D2E/DX2                !
 ! A8    A(1,2,4)              121.6864         estimate D2E/DX2                !
 ! A9    A(1,2,9)              118.1208         estimate D2E/DX2                !
 ! A10   A(3,2,9)              117.5078         estimate D2E/DX2                !
 ! A11   A(4,2,9)              107.8676         estimate D2E/DX2                !
 ! A12   A(2,3,13)             115.4433         estimate D2E/DX2                !
 ! A13   A(2,3,14)             119.8751         estimate D2E/DX2                !
 ! A14   A(4,3,13)             116.0385         estimate D2E/DX2                !
 ! A15   A(4,3,14)             118.1103         estimate D2E/DX2                !
 ! A16   A(13,3,14)            115.8467         estimate D2E/DX2                !
 ! A17   A(2,4,5)              120.5197         estimate D2E/DX2                !
 ! A18   A(2,4,6)              107.2964         estimate D2E/DX2                !
 ! A19   A(3,4,5)              121.7793         estimate D2E/DX2                !
 ! A20   A(3,4,6)              116.1205         estimate D2E/DX2                !
 ! A21   A(5,4,6)              117.2233         estimate D2E/DX2                !
 ! A22   A(4,5,15)             108.2066         estimate D2E/DX2                !
 ! A23   A(4,6,7)              114.6124         estimate D2E/DX2                !
 ! A24   A(4,6,8)              109.154          estimate D2E/DX2                !
 ! A25   A(4,6,16)             118.954          estimate D2E/DX2                !
 ! A26   A(7,6,16)             116.4036         estimate D2E/DX2                !
 ! A27   A(8,6,16)             124.5826         estimate D2E/DX2                !
 ! A28   A(6,8,9)              109.1942         estimate D2E/DX2                !
 ! A29   A(6,8,17)             123.7364         estimate D2E/DX2                !
 ! A30   A(7,8,9)              115.1178         estimate D2E/DX2                !
 ! A31   A(7,8,17)             114.7967         estimate D2E/DX2                !
 ! A32   A(9,8,17)             120.1685         estimate D2E/DX2                !
 ! A33   A(2,9,8)              106.4649         estimate D2E/DX2                !
 ! A34   A(2,9,18)             109.5807         estimate D2E/DX2                !
 ! A35   A(2,9,19)             112.9675         estimate D2E/DX2                !
 ! A36   A(8,9,18)             108.7852         estimate D2E/DX2                !
 ! A37   A(8,9,19)             111.7349         estimate D2E/DX2                !
 ! A38   A(18,9,19)            107.2519         estimate D2E/DX2                !
 ! D1    D(10,1,2,3)            37.8505         estimate D2E/DX2                !
 ! D2    D(10,1,2,4)           -32.1562         estimate D2E/DX2                !
 ! D3    D(10,1,2,9)          -169.7779         estimate D2E/DX2                !
 ! D4    D(11,1,2,3)           157.3457         estimate D2E/DX2                !
 ! D5    D(11,1,2,4)            87.339          estimate D2E/DX2                !
 ! D6    D(11,1,2,9)           -50.2827         estimate D2E/DX2                !
 ! D7    D(12,1,2,3)           -82.4877         estimate D2E/DX2                !
 ! D8    D(12,1,2,4)          -152.4943         estimate D2E/DX2                !
 ! D9    D(12,1,2,9)            69.884          estimate D2E/DX2                !
 ! D10   D(1,2,3,13)            -5.3139         estimate D2E/DX2                !
 ! D11   D(1,2,3,14)           140.793          estimate D2E/DX2                !
 ! D12   D(9,2,3,13)          -157.8542         estimate D2E/DX2                !
 ! D13   D(9,2,3,14)           -11.7473         estimate D2E/DX2                !
 ! D14   D(1,2,4,5)             -4.8737         estimate D2E/DX2                !
 ! D15   D(1,2,4,6)           -142.5841         estimate D2E/DX2                !
 ! D16   D(9,2,4,5)            136.4747         estimate D2E/DX2                !
 ! D17   D(9,2,4,6)             -1.2357         estimate D2E/DX2                !
 ! D18   D(1,2,9,8)            144.4954         estimate D2E/DX2                !
 ! D19   D(1,2,9,18)            27.0096         estimate D2E/DX2                !
 ! D20   D(1,2,9,19)           -92.5039         estimate D2E/DX2                !
 ! D21   D(3,2,9,8)            -62.8599         estimate D2E/DX2                !
 ! D22   D(3,2,9,18)           179.6543         estimate D2E/DX2                !
 ! D23   D(3,2,9,19)            60.1409         estimate D2E/DX2                !
 ! D24   D(4,2,9,8)              1.5528         estimate D2E/DX2                !
 ! D25   D(4,2,9,18)          -115.933          estimate D2E/DX2                !
 ! D26   D(4,2,9,19)           124.5535         estimate D2E/DX2                !
 ! D27   D(13,3,4,5)             3.8866         estimate D2E/DX2                !
 ! D28   D(13,3,4,6)           158.4584         estimate D2E/DX2                !
 ! D29   D(14,3,4,5)          -140.3154         estimate D2E/DX2                !
 ! D30   D(14,3,4,6)            14.2564         estimate D2E/DX2                !
 ! D31   D(2,4,5,15)           136.9417         estimate D2E/DX2                !
 ! D32   D(3,4,5,15)            64.9889         estimate D2E/DX2                !
 ! D33   D(6,4,5,15)           -89.3178         estimate D2E/DX2                !
 ! D34   D(2,4,6,7)            -63.7253         estimate D2E/DX2                !
 ! D35   D(2,4,6,8)              0.4343         estimate D2E/DX2                !
 ! D36   D(2,4,6,16)           151.9388         estimate D2E/DX2                !
 ! D37   D(3,4,6,7)              1.1916         estimate D2E/DX2                !
 ! D38   D(3,4,6,8)             65.3513         estimate D2E/DX2                !
 ! D39   D(3,4,6,16)          -143.1443         estimate D2E/DX2                !
 ! D40   D(5,4,6,7)            156.9568         estimate D2E/DX2                !
 ! D41   D(5,4,6,8)           -138.8836         estimate D2E/DX2                !
 ! D42   D(5,4,6,16)            12.6209         estimate D2E/DX2                !
 ! D43   D(4,6,8,9)              0.5532         estimate D2E/DX2                !
 ! D44   D(4,6,8,17)           151.2883         estimate D2E/DX2                !
 ! D45   D(16,6,8,9)          -148.9793         estimate D2E/DX2                !
 ! D46   D(16,6,8,17)            1.7558         estimate D2E/DX2                !
 ! D47   D(6,8,9,2)             -1.3018         estimate D2E/DX2                !
 ! D48   D(6,8,9,18)           116.7101         estimate D2E/DX2                !
 ! D49   D(6,8,9,19)          -125.0716         estimate D2E/DX2                !
 ! D50   D(7,8,9,2)             62.8181         estimate D2E/DX2                !
 ! D51   D(7,8,9,18)          -179.17           estimate D2E/DX2                !
 ! D52   D(7,8,9,19)           -60.9517         estimate D2E/DX2                !
 ! D53   D(17,8,9,2)          -153.2534         estimate D2E/DX2                !
 ! D54   D(17,8,9,18)          -35.2415         estimate D2E/DX2                !
 ! D55   D(17,8,9,19)           82.9768         estimate D2E/DX2                !
 --------------------------------------------------------------------------------
 Trust Radius=3.00D-01 FncErr=1.00D-07 GrdErr=1.00D-06
 Number of steps in this run=    114 maximum allowed number of steps=    114.
 GradGradGradGradGradGradGradGradGradGradGradGradGradGradGradGradGradGrad

                          Input orientation:                          
 ---------------------------------------------------------------------
 Center     Atomic      Atomic             Coordinates (Angstroms)
 Number     Number       Type             X           Y           Z
 ---------------------------------------------------------------------
      1          6           0       -0.014480   -0.172777    0.088280
      2          6           0        1.494819   -0.130706    0.042949
      3          6           0        2.249462    0.221591    1.315653
      4          6           0        2.258463    1.174769    0.146012
      5          8           0        1.578794    2.391389    0.185072
      6          6           0        3.452247    1.075006   -0.789278
      7          8           0        4.401859    0.058071   -0.439648
      8          6           0        3.432328   -0.233182   -1.458742
      9          6           0        2.214563   -1.018654   -0.987450
     10          1           0       -0.403524    0.624783    0.726548
     11          1           0       -0.444425   -0.036963   -0.910670
     12          1           0       -0.374631   -1.130956    0.480197
     13          1           0        1.630727    0.509415    2.160413
     14          1           0        3.168804   -0.296642    1.558652
     15          1           0        1.989653    2.944181    0.858507
     16          1           0        3.856778    1.984762   -1.224900
     17          1           0        3.849303   -0.412313   -2.447245
     18          1           0        1.554523   -1.195179   -1.845282
     19          1           0        2.494517   -1.998766   -0.585775
 ---------------------------------------------------------------------
                    Distance matrix (angstroms):
                    1          2          3          4          5
     1  C    0.000000
     2  C    1.510565   0.000000
     3  C    2.605264   1.520978   0.000000
     4  C    2.643006   1.515928   1.508871   0.000000
     5  O    3.020404   2.527491   2.536934   1.394144   0.000000
     6  C    3.787515   2.444968   2.570165   1.519817   2.488383
     7  O    4.453768   2.952866   2.782200   2.486797   3.715419
     8  C    3.778546   2.453471   3.050125   2.436293   3.609167
     9  C    2.615594   1.538897   2.616049   2.469366   3.661612
    10  H    1.093090   2.154478   2.747352   2.779510   2.709921
    11  H    1.095993   2.163064   3.504339   3.144912   3.345289
    12  H    1.096090   2.164839   3.068099   3.515854   4.038549
    13  H    2.732366   2.216276   1.085953   2.212365   2.728826
    14  H    3.508651   2.264314   1.082961   2.233680   3.411797
    15  H    3.784868   3.219460   2.772902   1.926325   0.963275
    16  H    4.622343   3.414893   3.485204   2.256125   2.709719
    17  H    4.627643   3.438599   4.137721   3.431411   4.465988
    18  H    2.691790   2.168429   3.532943   3.174498   4.121456
    19  H    3.175477   2.210055   2.933508   3.265358   4.550408
                    6          7          8          9         10
     6  C    0.000000
     7  O    1.434629   0.000000
     8  C    1.469672   1.436444   0.000000
     9  C    2.440194   2.498738   1.523823   0.000000
    10  H    4.167421   4.977236   4.497261   3.534551   0.000000
    11  H    4.054044   4.870048   3.920217   2.835459   1.766371
    12  H    4.595958   5.007470   4.365595   2.978342   1.773174
    13  H    3.512621   3.826643   4.110414   3.547520   2.491476
    14  H    2.733960   2.374752   3.029545   2.813275   3.781924
    15  H    2.889324   3.979143   4.188865   4.377465   3.335313
    16  H    1.086769   2.150784   2.270268   3.431291   4.879330
    17  H    2.262438   2.134719   1.087701   2.273989   5.406947
    18  H    3.141695   3.413761   2.144995   1.096672   3.709518
    19  H    3.225948   2.808894   2.181479   1.095600   4.123572
                   11         12         13         14         15
    11  H    0.000000
    12  H    1.770933   0.000000
    13  H    3.746510   3.087945   0.000000
    14  H    4.384109   3.796720   1.837804   0.000000
    15  H    4.235793   4.726489   2.784219   3.519025   0.000000
    16  H    4.763030   5.524479   4.311878   3.664188   2.957571
    17  H    4.575812   5.189218   5.196362   4.064932   5.064815
    18  H    2.492139   3.022186   4.353968   3.872988   4.963277
    19  H    3.548467   3.181415   3.818200   2.819655   5.174318
                   16         17         18         19
    16  H    0.000000
    17  H    2.690753   0.000000
    18  H    3.974579   2.498251   0.000000
    19  H    4.258255   2.795953   1.765134   0.000000
 Stoichiometry    C7H10O2
 Framework group  C1[X(C7H10O2)]
 Deg. of freedom    51
 Full point group                 C1      NOp   1
 Largest Abelian subgroup         C1      NOp   1
 Largest concise Abelian subgroup C1      NOp   1
                         Standard orientation:                         
 ---------------------------------------------------------------------
 Center     Atomic      Atomic             Coordinates (Angstroms)
 Number     Number       Type             X           Y           Z
 ---------------------------------------------------------------------
      1          6           0       -2.127994   -1.048446   -0.264073
      2          6           0       -0.740909   -0.616738    0.149967
      3          6           0       -0.594079    0.282437    1.367875
      4          6           0       -0.273275    0.816771   -0.006266
      5          8           0       -1.083716    1.761395   -0.634367
      6          6           0        1.189429    0.772735   -0.416629
      7          8           0        2.067377    0.197841    0.561566
      8          6           0        1.618194   -0.628909   -0.523833
      9          6           0        0.440285   -1.539390   -0.198888
     10          1           0       -2.843690   -0.234530   -0.122069
     11          1           0       -2.154848   -1.332196   -1.322357
     12          1           0       -2.468662   -1.909708    0.322089
     13          1           0       -1.524957    0.627330    1.808111
     14          1           0        0.225242    0.125696    2.058491
     15          1           0       -1.048463    2.576426   -0.122136
     16          1           0        1.594378    1.588720   -1.009293
     17          1           0        2.404809   -0.970508   -1.192893
     18          1           0        0.194516   -2.130318   -1.089444
     19          1           0        0.682481   -2.245566    0.602982
 ---------------------------------------------------------------------
 Rotational constants (GHZ):      2.5633364      1.7456250      1.3360854
 Standard basis: 6-31G(2df,p) (6D, 7F)
 There are   329 symmetry adapted cartesian basis functions of A   symmetry.
 There are   302 symmetry adapted basis functions of A   symmetry.
   302 basis functions,   466 primitive gaussians,   329 cartesian basis functions
    34 alpha electrons       34 beta electrons
       nuclear repulsion energy       479.0432274142 Hartrees.
 NAtoms=   19 NActive=   19 NUniq=   19 SFac= 1.00D+00 NAtFMM=   60 NAOKFM=F Big=F
 Integral buffers will be    131072 words long.
 Raffenetti 2 integral format.
 Two-electron integral symmetry is turned on.
 One-electron integrals computed using PRISM.
 NBasis=   302 RedAO= T EigKep=  3.46D-04  NBF=   302
 NBsUse=   302 1.00D-06 EigRej= -1.00D+00 NBFU=   302
 ExpMin= 1.61D-01 ExpMax= 5.48D+03 ExpMxC= 8.25D+02 IAcc=1 IRadAn=         1 AccDes= 0.00D+00
 Harris functional with IExCor=  402 and IRadAn=       1 diagonalized for initial guess.
 HarFok:  IExCor=  402 AccDes= 0.00D+00 IRadAn=         1 IDoV= 1 UseB2=F ITyADJ=14
 ICtDFT=  3500011 ScaDFX=  1.000000  1.000000  1.000000  1.000000
 FoFCou: FMM=F IPFlag=           0 FMFlag=      100000 FMFlg1=           0
         NFxFlg=           0 DoJE=T BraDBF=F KetDBF=T FulRan=T
         wScrn=  0.000000 ICntrl=     500 IOpCl=  0 I1Cent=   200000004 NGrid=           0
         NMat0=    1 NMatS0=      1 NMatT0=    0 NMatD0=    1 NMtDS0=    0 NMtDT0=    0
 Petite list used in FoFCou.
 Requested convergence on RMS density matrix=1.00D-08 within 128 cycles.
 Requested convergence on MAX density matrix=1.00D-06.
 Requested convergence on             energy=1.00D-06.
 No special actions if energy rises.
 Integral accuracy reduced to 1.0D-05 until final iterations.
 Initial convergence to 1.0D-05 achieved.  Increase integral accuracy.
 SCF Done:  E(RB3LYP) =  -423.160922116     A.U. after   14 cycles
            NFock= 14  Conv=0.36D-08     -V/T= 2.0074

 **********************************************************************

            Population analysis using the SCF density.

 **********************************************************************

 Orbital symmetries:
       Occupied  (A) (A) (A) (A) (A) (A) (A) (A) (A) (A) (A) (A)
                 (A) (A) (A) (A) (A) (A) (A) (A) (A) (A) (A) (A)
                 (A) (A) (A) (A) (A) (A) (A) (A) (A) (A)
       Virtual   (A) (A) (A) (A) (A) (A) (A) (A) (A) (A) (A) (A)
                 (A) (A) (A) (A) (A) (A) (A) (A) (A) (A) (A) (A)
                 (A) (A) (A) (A) (A) (A) (A) (A) (A) (A) (A) (A)
                 (A) (A) (A) (A) (A) (A) (A) (A) (A) (A) (A) (A)
                 (A) (A) (A) (A) (A) (A) (A) (A) (A) (A) (A) (A)
                 (A) (A) (A) (A) (A) (A) (A) (A) (A) (A) (A) (A)
                 (A) (A) (A) (A) (A) (A) (A) (A) (A) (A) (A) (A)
                 (A) (A) (A) (A) (A) (A) (A) (A) (A) (A) (A) (A)
                 (A) (A) (A) (A) (A) (A) (A) (A) (A) (A) (A) (A)
                 (A) (A) (A) (A) (A) (A) (A) (A) (A) (A) (A) (A)
                 (A) (A) (A) (A) (A) (A) (A) (A) (A) (A) (A) (A)
                 (A) (A) (A) (A) (A) (A) (A) (A) (A) (A) (A) (A)
                 (A) (A) (A) (A) (A) (A) (A) (A) (A) (A) (A) (A)
                 (A) (A) (A) (A) (A) (A) (A) (A) (A) (A) (A) (A)
                 (A) (A) (A) (A) (A) (A) (A) (A) (A) (A) (A) (A)
                 (A) (A) (A) (A) (A) (A) (A) (A) (A) (A) (A) (A)
                 (A) (A) (A) (A) (A) (A) (A) (A) (A) (A) (A) (A)
                 (A) (A) (A) (A) (A) (A) (A) (A) (A) (A) (A) (A)
                 (A) (A) (A) (A) (A) (A) (A) (A) (A) (A) (A) (A)
                 (A) (A) (A) (A) (A) (A) (A) (A) (A) (A) (A) (A)
                 (A) (A) (A) (A) (A) (A) (A) (A) (A) (A) (A) (A)
                 (A) (A) (A) (A) (A) (A) (A) (A) (A) (A) (A) (A)
                 (A) (A) (A) (A)
 The electronic state is 1-A.
 Alpha  occ. eigenvalues --  -19.14901 -19.14798 -10.23552 -10.23288 -10.23188
 Alpha  occ. eigenvalues --  -10.19521 -10.18738 -10.17831 -10.17473  -1.07024
 Alpha  occ. eigenvalues --   -1.03249  -0.86360  -0.74149  -0.71562  -0.67054
 Alpha  occ. eigenvalues --   -0.60479  -0.57783  -0.54831  -0.52190  -0.48275
 Alpha  occ. eigenvalues --   -0.45720  -0.44286  -0.42720  -0.41961  -0.39936
 Alpha  occ. eigenvalues --   -0.38414  -0.37454  -0.36447  -0.34864  -0.32028
 Alpha  occ. eigenvalues --   -0.30490  -0.27794  -0.25392  -0.24429
 Alpha virt. eigenvalues --    0.07549   0.08154   0.09878   0.11852   0.12687
 Alpha virt. eigenvalues --    0.13719   0.15082   0.15750   0.16368   0.17030
 Alpha virt. eigenvalues --    0.17829   0.18815   0.19327   0.20990   0.22431
 Alpha virt. eigenvalues --    0.24846   0.26909   0.28665   0.31181   0.33724
 Alpha virt. eigenvalues --    0.35882   0.41836   0.45164   0.45858   0.47343
 Alpha virt. eigenvalues --    0.47860   0.50396   0.50584   0.51174   0.51436
 Alpha virt. eigenvalues --    0.54241   0.55685   0.57994   0.58669   0.59064
 Alpha virt. eigenvalues --    0.61016   0.63405   0.65926   0.68757   0.69770
 Alpha virt. eigenvalues --    0.71080   0.72484   0.73553   0.74421   0.74874
 Alpha virt. eigenvalues --    0.75564   0.75829   0.77813   0.79660   0.80396
 Alpha virt. eigenvalues --    0.82135   0.83016   0.85399   0.87221   0.89024
 Alpha virt. eigenvalues --    0.90495   0.93649   0.98472   0.99043   1.00625
 Alpha virt. eigenvalues --    1.04225   1.05357   1.08156   1.10533   1.12126
 Alpha virt. eigenvalues --    1.13748   1.15544   1.18345   1.18516   1.22595
 Alpha virt. eigenvalues --    1.24608   1.26423   1.32237   1.32622   1.34857
 Alpha virt. eigenvalues --    1.36541   1.38597   1.39185   1.41704   1.43204
 Alpha virt. eigenvalues --    1.44525   1.46807   1.47265   1.49310   1.50129
 Alpha virt. eigenvalues --    1.53347   1.55419   1.56805   1.58200   1.60386
 Alpha virt. eigenvalues --    1.61929   1.65596   1.67285   1.67568   1.69542
 Alpha virt. eigenvalues --    1.72270   1.75639   1.77560   1.78330   1.83168
 Alpha virt. eigenvalues --    1.84106   1.86202   1.88967   1.92021   1.93474
 Alpha virt. eigenvalues --    1.96353   1.99772   2.01152   2.06355   2.07763
 Alpha virt. eigenvalues --    2.15731   2.19394   2.24269   2.25927   2.30321
 Alpha virt. eigenvalues --    2.32860   2.35005   2.39363   2.41746   2.45176
 Alpha virt. eigenvalues --    2.49038   2.49861   2.51390   2.55355   2.57418
 Alpha virt. eigenvalues --    2.63613   2.66246   2.68457   2.69314   2.73052
 Alpha virt. eigenvalues --    2.74474   2.78073   2.80867   2.82459   2.85574
 Alpha virt. eigenvalues --    2.87312   2.88227   2.89429   2.91229   2.93771
 Alpha virt. eigenvalues --    2.96298   2.97267   2.98603   3.00801   3.04434
 Alpha virt. eigenvalues --    3.05465   3.08273   3.11076   3.13493   3.14854
 Alpha virt. eigenvalues --    3.18190   3.20091   3.23257   3.24237   3.25893
 Alpha virt. eigenvalues --    3.29982   3.30349   3.30981   3.35690   3.36739
 Alpha virt. eigenvalues --    3.40801   3.41605   3.41844   3.46021   3.48019
 Alpha virt. eigenvalues --    3.50332   3.55819   3.59834   3.61140   3.63321
 Alpha virt. eigenvalues --    3.67736   3.75532   3.77818   3.80143   3.85446
 Alpha virt. eigenvalues --    3.87692   3.89044   3.92532   3.95222   3.96590
 Alpha virt. eigenvalues --    4.00186   4.04249   4.08435   4.11075   4.13080
 Alpha virt. eigenvalues --    4.15644   4.17320   4.22359   4.25325   4.28999
 Alpha virt. eigenvalues --    4.33820   4.34077   4.35853   4.36122   4.38959
 Alpha virt. eigenvalues --    4.41882   4.45041   4.47554   4.48305   4.50831
 Alpha virt. eigenvalues --    4.51530   4.55577   4.56386   4.59585   4.62098
 Alpha virt. eigenvalues --    4.62826   4.64898   4.66216   4.67059   4.70473
 Alpha virt. eigenvalues --    4.73079   4.73525   4.75071   4.76435   4.77648
 Alpha virt. eigenvalues --    4.79404   4.81167   4.83926   4.84841   4.87370
 Alpha virt. eigenvalues --    4.88450   4.89669   4.92795   4.95691   4.99282
 Alpha virt. eigenvalues --    5.02188   5.07228   5.08904   5.13936   5.15393
 Alpha virt. eigenvalues --    5.25074   5.26065   5.28222   5.33463   5.37079
 Alpha virt. eigenvalues --    5.42019   5.43265   5.44929   5.47431   5.49958
 Alpha virt. eigenvalues --    5.53352   5.60406   5.61746   5.64841   5.75334
 Alpha virt. eigenvalues --    5.77499   5.81054   5.91878   5.95870   5.98143
 Alpha virt. eigenvalues --    6.01873   6.07062   6.10697   6.13846   6.22492
 Alpha virt. eigenvalues --    6.50724   6.95779   7.19574   7.31113  10.63031
 Alpha virt. eigenvalues --   11.24028  11.51348  11.83080  12.28911  12.52520
 Alpha virt. eigenvalues --   12.81651  13.25726  13.65116
          Condensed to atoms (all electrons):
               1          2          3          4          5          6
     1  C    5.146145   0.387964  -0.045150  -0.025508  -0.002580   0.004445
     2  C    0.387964   4.503824   0.309081   0.333205  -0.025905  -0.065944
     3  C   -0.045150   0.309081   5.278823   0.244519  -0.035543  -0.029646
     4  C   -0.025508   0.333205   0.244519   4.573940   0.422820   0.374722
     5  O   -0.002580  -0.025905  -0.035543   0.422820   7.828322  -0.047102
     6  C    0.004445  -0.065944  -0.029646   0.374722  -0.047102   4.948425
     7  O   -0.000257  -0.002642  -0.001605  -0.034457   0.000936   0.231432
     8  C    0.002135  -0.035558   0.001646  -0.003483   0.002444   0.303296
     9  C   -0.059719   0.412793  -0.016752  -0.073696   0.000407  -0.006890
    10  H    0.358130  -0.012040  -0.003728  -0.004099   0.006597   0.000350
    11  H    0.359672  -0.020264   0.005244  -0.000517   0.000353   0.000369
    12  H    0.365428  -0.018363  -0.004760   0.003525   0.000174  -0.000115
    13  H   -0.013106  -0.018271   0.352517  -0.011613  -0.001895   0.001842
    14  H    0.002934  -0.010613   0.350035  -0.010285   0.001638  -0.012731
    15  H   -0.000282   0.008589  -0.007426  -0.075996   0.320312   0.000676
    16  H   -0.000183   0.004703   0.005032  -0.055676   0.001093   0.363789
    17  H   -0.000250   0.002861  -0.000027   0.002049   0.000003  -0.028415
    18  H   -0.011388  -0.022247   0.005356   0.001454   0.000067   0.000547
    19  H    0.003621  -0.016983  -0.010242   0.005662  -0.000014   0.001011
               7          8          9         10         11         12
     1  C   -0.000257   0.002135  -0.059719   0.358130   0.359672   0.365428
     2  C   -0.002642  -0.035558   0.412793  -0.012040  -0.020264  -0.018363
     3  C   -0.001605   0.001646  -0.016752  -0.003728   0.005244  -0.004760
     4  C   -0.034457  -0.003483  -0.073696  -0.004099  -0.000517   0.003525
     5  O    0.000936   0.002444   0.000407   0.006597   0.000353   0.000174
     6  C    0.231432   0.303296  -0.006890   0.000350   0.000369  -0.000115
     7  O    7.838225   0.276290  -0.028406  -0.000003   0.000001   0.000003
     8  C    0.276290   4.725671   0.372891  -0.000173   0.000177   0.000040
     9  C   -0.028406   0.372891   5.109269   0.004908  -0.005178  -0.001749
    10  H   -0.000003  -0.000173   0.004908   0.580683  -0.028746  -0.031873
    11  H    0.000001   0.000177  -0.005178  -0.028746   0.605326  -0.037194
    12  H    0.000003   0.000040  -0.001749  -0.031873  -0.037194   0.607783
    13  H    0.000571   0.000134   0.002990   0.004351   0.000059   0.001219
    14  H    0.020278  -0.002760  -0.009138  -0.000178  -0.000132   0.000252
    15  H    0.000016  -0.000165  -0.000258  -0.000416  -0.000066   0.000021
    16  H   -0.022017  -0.032878   0.003563   0.000001  -0.000015   0.000002
    17  H   -0.021894   0.375314  -0.061506   0.000004  -0.000007   0.000005
    18  H    0.002661  -0.017699   0.334788   0.000036   0.006117   0.000094
    19  H   -0.003197  -0.017938   0.343010  -0.000163  -0.000236   0.000736
              13         14         15         16         17         18
     1  C   -0.013106   0.002934  -0.000282  -0.000183  -0.000250  -0.011388
     2  C   -0.018271  -0.010613   0.008589   0.004703   0.002861  -0.022247
     3  C    0.352517   0.350035  -0.007426   0.005032  -0.000027   0.005356
     4  C   -0.011613  -0.010285  -0.075996  -0.055676   0.002049   0.001454
     5  O   -0.001895   0.001638   0.320312   0.001093   0.000003   0.000067
     6  C    0.001842  -0.012731   0.000676   0.363789  -0.028415   0.000547
     7  O    0.000571   0.020278   0.000016  -0.022017  -0.021894   0.002661
     8  C    0.000134  -0.002760  -0.000165  -0.032878   0.375314  -0.017699
     9  C    0.002990  -0.009138  -0.000258   0.003563  -0.061506   0.334788
    10  H    0.004351  -0.000178  -0.000416   0.000001   0.000004   0.000036
    11  H    0.000059  -0.000132  -0.000066  -0.000015  -0.000007   0.006117
    12  H    0.001219   0.000252   0.000021   0.000002   0.000005   0.000094
    13  H    0.609679  -0.034648   0.002019  -0.000042   0.000017  -0.000092
    14  H   -0.034648   0.569294   0.000505   0.000351   0.000049   0.000049
    15  H    0.002019   0.000505   0.465175   0.000570   0.000005  -0.000001
    16  H   -0.000042   0.000351   0.000570   0.638381  -0.001821   0.000006
    17  H    0.000017   0.000049   0.000005  -0.001821   0.635746  -0.000910
    18  H   -0.000092   0.000049  -0.000001   0.000006  -0.000910   0.636584
    19  H    0.000054   0.003920   0.000008  -0.000135   0.002554  -0.039899
              19
     1  C    0.003621
     2  C   -0.016983
     3  C   -0.010242
     4  C    0.005662
     5  O   -0.000014
     6  C    0.001011
     7  O   -0.003197
     8  C   -0.017938
     9  C    0.343010
    10  H   -0.000163
    11  H   -0.000236
    12  H    0.000736
    13  H    0.000054
    14  H    0.003920
    15  H    0.000008
    16  H   -0.000135
    17  H    0.002554
    18  H   -0.039899
    19  H    0.613481
 Mulliken charges:
               1
     1  C   -0.472051
     2  C    0.285810
     3  C   -0.397372
     4  C    0.333435
     5  O   -0.472126
     6  C   -0.040060
     7  O   -0.255934
     8  C    0.050618
     9  C   -0.321328
    10  H    0.126361
    11  H    0.115038
    12  H    0.114771
    13  H    0.104217
    14  H    0.131179
    15  H    0.286715
    16  H    0.095276
    17  H    0.096223
    18  H    0.104478
    19  H    0.114749
 Sum of Mulliken charges =   0.00000
 Mulliken charges with hydrogens summed into heavy atoms:
               1
     1  C   -0.115882
     2  C    0.285810
     3  C   -0.161976
     4  C    0.333435
     5  O   -0.185411
     6  C    0.055217
     7  O   -0.255934
     8  C    0.146842
     9  C   -0.102101
 Electronic spatial extent (au):  <R**2>=           1014.1761
 Charge=              0.0000 electrons
 Dipole moment (field-independent basis, Debye):
    X=             -0.6097    Y=              0.1065    Z=             -0.2861  Tot=              0.6818
 Quadrupole moment (field-independent basis, Debye-Ang):
   XX=            -56.3357   YY=            -47.2640   ZZ=            -54.0598
   XY=             -1.0727   XZ=             -4.8291   YZ=              2.1459
 Traceless Quadrupole moment (field-independent basis, Debye-Ang):
   XX=             -3.7825   YY=              5.2892   ZZ=             -1.5066
   XY=             -1.0727   XZ=             -4.8291   YZ=              2.1459
 Octapole moment (field-independent basis, Debye-Ang**2):
  XXX=             -3.4870  YYY=             25.1232  ZZZ=             -0.0064  XYY=              0.3658
  XXY=              1.2290  XXZ=             -5.0795  XZZ=              2.6010  YZZ=              0.0783
  YYZ=              2.1065  XYZ=             -4.0826
 Hexadecapole moment (field-independent basis, Debye-Ang**3):
 XXXX=           -679.9706 YYYY=           -368.8771 ZZZZ=           -206.9333 XXXY=            -17.3581
 XXXZ=            -16.4268 YYYX=            -22.1650 YYYZ=             -0.9570 ZZZX=              6.3621
 ZZZY=              0.2079 XXYY=           -173.0456 XXZZ=           -143.7700 YYZZ=           -107.2765
 XXYZ=              1.5664 YYXZ=             -4.6565 ZZXY=             -1.5615
 N-N= 4.790432274142D+02 E-N=-1.944984419559D+03  KE= 4.200327400443D+02
 Calling FoFJK, ICntrl=      2127 FMM=F ISym2X=0 I1Cent= 0 IOpClX= 0 NMat=1 NMatS=1 NMatT=0.
 ***** Axes restored to original set *****
 -------------------------------------------------------------------
 Center     Atomic                   Forces (Hartrees/Bohr)
 Number     Number              X              Y              Z
 -------------------------------------------------------------------
      1        6           0.000006299   -0.000008628   -0.000004640
      2        6          -0.000012999    0.000000235   -0.000005612
      3        6          -0.000008971   -0.000001030    0.000029569
      4        6           0.000022302   -0.000005971   -0.000014940
      5        8          -0.000006889   -0.000004699   -0.000001878
      6        6          -0.000000945    0.000027863    0.000008289
      7        8           0.000002828   -0.000000269    0.000003245
      8        6          -0.000008613   -0.000010020    0.000003001
      9        6           0.000010787    0.000004474    0.000000872
     10        1          -0.000004305    0.000000857   -0.000004130
     11        1           0.000000913   -0.000000353   -0.000003705
     12        1           0.000000034   -0.000001077   -0.000002789
     13        1          -0.000003028   -0.000000153   -0.000005156
     14        1          -0.000000856   -0.000004225   -0.000009359
     15        1          -0.000001175    0.000001797    0.000005159
     16        1          -0.000000357   -0.000001070    0.000003785
     17        1           0.000003027    0.000002025    0.000003376
     18        1           0.000003234    0.000001848   -0.000004892
     19        1          -0.000001287   -0.000001605   -0.000000197
 -------------------------------------------------------------------
 Cartesian Forces:  Max     0.000029569 RMS     0.000007972

 GradGradGradGradGradGradGradGradGradGradGradGradGradGradGradGradGradGrad
 Berny optimization.
 FormGI is forming the generalized inverse of G from B-inverse, IUseBI=4.
 Internal  Forces:  Max     0.000009050 RMS     0.000002724
 Search for a local minimum.
 Step number   1 out of a maximum of  114
 All quantities printed in internal units (Hartrees-Bohrs-Radians)
 Mixed Optimization -- En-DIIS/RFO-DIIS
 Second derivative matrix not updated -- first step.
 ITU=  0
     Eigenvalues ---    0.00626   0.00717   0.01381   0.01769   0.01828
     Eigenvalues ---    0.02095   0.02242   0.02564   0.02957   0.03115
     Eigenvalues ---    0.04112   0.05296   0.05653   0.05725   0.06018
     Eigenvalues ---    0.07282   0.07938   0.10208   0.10673   0.12531
     Eigenvalues ---    0.14117   0.14367   0.15654   0.16000   0.16000
     Eigenvalues ---    0.16000   0.16000   0.17773   0.18598   0.20327
     Eigenvalues ---    0.21259   0.22163   0.25857   0.27117   0.28829
     Eigenvalues ---    0.29358   0.30219   0.30747   0.31294   0.34053
     Eigenvalues ---    0.34118   0.34129   0.34173   0.34458   0.35080
     Eigenvalues ---    0.35189   0.35285   0.35639   0.38897   0.46605
     Eigenvalues ---    0.54775
 RFO step:  Lambda= 0.00000000D+00 EMin= 6.26190125D-03
 Linear search not attempted -- first point.
 Iteration  1 RMS(Cart)=  0.00004692 RMS(Int)=  0.00000000
 Iteration  2 RMS(Cart)=  0.00000000 RMS(Int)=  0.00000000
 Variable       Old X    -DE/DX   Delta X   Delta X   Delta X     New X
                                 (Linear)    (Quad)   (Total)
    R1        2.85455   0.00000   0.00000  -0.00001  -0.00001   2.85454
    R2        2.06564   0.00000   0.00000   0.00001   0.00001   2.06565
    R3        2.07113   0.00000   0.00000   0.00000   0.00000   2.07113
    R4        2.07131   0.00000   0.00000   0.00000   0.00000   2.07131
    R5        2.87423   0.00000   0.00000   0.00001   0.00001   2.87425
    R6        2.86469   0.00001   0.00000   0.00001   0.00001   2.86470
    R7        2.90809   0.00000   0.00000  -0.00001  -0.00001   2.90808
    R8        2.85135   0.00001   0.00000   0.00003   0.00003   2.85138
    R9        2.05215   0.00000   0.00000  -0.00001  -0.00001   2.05214
   R10        2.04650   0.00000   0.00000   0.00000   0.00000   2.04650
   R11        2.63455   0.00000   0.00000   0.00000   0.00000   2.63455
   R12        2.87204  -0.00001   0.00000  -0.00003  -0.00003   2.87201
   R13        1.82033   0.00000   0.00000   0.00001   0.00001   1.82033
   R14        2.71106   0.00000   0.00000   0.00001   0.00001   2.71106
   R15        2.77728   0.00001   0.00000   0.00003   0.00003   2.77731
   R16        2.05370   0.00000   0.00000  -0.00001  -0.00001   2.05369
   R17        2.71449   0.00000   0.00000   0.00000   0.00000   2.71449
   R18        2.87961  -0.00001   0.00000  -0.00002  -0.00002   2.87959
   R19        2.05546   0.00000   0.00000   0.00000   0.00000   2.05545
   R20        2.07241   0.00000   0.00000   0.00001   0.00001   2.07242
   R21        2.07038   0.00000   0.00000   0.00000   0.00000   2.07039
    A1        1.93137   0.00000   0.00000   0.00001   0.00001   1.93139
    A2        1.94030   0.00000   0.00000   0.00000   0.00000   1.94030
    A3        1.94269   0.00000   0.00000   0.00000   0.00000   1.94269
    A4        1.87777   0.00000   0.00000  -0.00002  -0.00002   1.87775
    A5        1.88821   0.00000   0.00000   0.00000   0.00000   1.88820
    A6        1.88108   0.00000   0.00000   0.00001   0.00001   1.88109
    A7        2.06813   0.00000   0.00000   0.00000   0.00000   2.06813
    A8        2.12383   0.00000   0.00000   0.00004   0.00004   2.12387
    A9        2.06160   0.00000   0.00000  -0.00001  -0.00001   2.06159
   A10        2.05090   0.00000   0.00000  -0.00001  -0.00001   2.05089
   A11        1.88264   0.00000   0.00000  -0.00001  -0.00001   1.88263
   A12        2.01487   0.00000   0.00000   0.00002   0.00002   2.01488
   A13        2.09222   0.00000   0.00000  -0.00008  -0.00008   2.09214
   A14        2.02525   0.00000   0.00000   0.00000   0.00000   2.02525
   A15        2.06141  -0.00001   0.00000  -0.00002  -0.00002   2.06139
   A16        2.02191   0.00001   0.00000   0.00005   0.00005   2.02196
   A17        2.10346   0.00000   0.00000  -0.00003  -0.00003   2.10343
   A18        1.87268   0.00000   0.00000   0.00003   0.00003   1.87271
   A19        2.12545   0.00000   0.00000  -0.00002  -0.00002   2.12544
   A20        2.02668   0.00001   0.00000   0.00003   0.00003   2.02671
   A21        2.04593   0.00000   0.00000   0.00000   0.00000   2.04593
   A22        1.88856   0.00000   0.00000   0.00000   0.00000   1.88856
   A23        2.00036   0.00000   0.00000  -0.00001  -0.00001   2.00035
   A24        1.90510  -0.00001   0.00000  -0.00003  -0.00003   1.90506
   A25        2.07614   0.00000   0.00000   0.00002   0.00002   2.07616
   A26        2.03163   0.00000   0.00000   0.00001   0.00001   2.03164
   A27        2.17438   0.00000   0.00000   0.00000   0.00000   2.17438
   A28        1.90580   0.00000   0.00000   0.00002   0.00002   1.90582
   A29        2.15961   0.00000   0.00000   0.00000   0.00000   2.15960
   A30        2.00918   0.00000   0.00000   0.00002   0.00002   2.00921
   A31        2.00358   0.00000   0.00000  -0.00001  -0.00001   2.00358
   A32        2.09734   0.00000   0.00000  -0.00002  -0.00002   2.09732
   A33        1.85816   0.00000   0.00000   0.00000   0.00000   1.85816
   A34        1.91254   0.00000   0.00000   0.00000   0.00000   1.91254
   A35        1.97166   0.00000   0.00000   0.00000   0.00000   1.97166
   A36        1.89866   0.00000   0.00000  -0.00003  -0.00003   1.89863
   A37        1.95014   0.00000   0.00000   0.00004   0.00004   1.95018
   A38        1.87190   0.00000   0.00000   0.00000   0.00000   1.87189
    D1        0.66062   0.00000   0.00000   0.00016   0.00016   0.66077
    D2       -0.56123   0.00000   0.00000   0.00013   0.00013  -0.56110
    D3       -2.96318   0.00000   0.00000   0.00012   0.00012  -2.96307
    D4        2.74620   0.00000   0.00000   0.00015   0.00015   2.74635
    D5        1.52435   0.00000   0.00000   0.00012   0.00012   1.52447
    D6       -0.87760   0.00000   0.00000   0.00010   0.00010  -0.87749
    D7       -1.43968   0.00000   0.00000   0.00015   0.00015  -1.43953
    D8       -2.66153   0.00000   0.00000   0.00013   0.00013  -2.66140
    D9        1.21971   0.00000   0.00000   0.00011   0.00011   1.21982
   D10       -0.09275   0.00000   0.00000  -0.00006  -0.00006  -0.09281
   D11        2.45730   0.00000   0.00000  -0.00005  -0.00005   2.45725
   D12       -2.75508   0.00000   0.00000  -0.00002  -0.00002  -2.75510
   D13       -0.20503   0.00000   0.00000  -0.00001  -0.00001  -0.20504
   D14       -0.08506   0.00000   0.00000   0.00000   0.00000  -0.08506
   D15       -2.48856   0.00000   0.00000   0.00001   0.00001  -2.48855
   D16        2.38193   0.00000   0.00000   0.00001   0.00001   2.38195
   D17       -0.02157   0.00000   0.00000   0.00002   0.00002  -0.02154
   D18        2.52192   0.00000   0.00000   0.00002   0.00002   2.52194
   D19        0.47141   0.00000   0.00000   0.00006   0.00006   0.47147
   D20       -1.61450   0.00000   0.00000   0.00007   0.00007  -1.61443
   D21       -1.09711   0.00000   0.00000  -0.00002  -0.00002  -1.09713
   D22        3.13556   0.00000   0.00000   0.00003   0.00003   3.13559
   D23        1.04966   0.00000   0.00000   0.00004   0.00004   1.04969
   D24        0.02710   0.00000   0.00000  -0.00001  -0.00001   0.02709
   D25       -2.02341   0.00000   0.00000   0.00003   0.00003  -2.02339
   D26        2.17387   0.00000   0.00000   0.00004   0.00004   2.17391
   D27        0.06783   0.00000   0.00000  -0.00006  -0.00006   0.06777
   D28        2.76562   0.00000   0.00000  -0.00004  -0.00004   2.76558
   D29       -2.44897  -0.00001   0.00000  -0.00012  -0.00012  -2.44909
   D30        0.24882   0.00000   0.00000  -0.00011  -0.00011   0.24872
   D31        2.39008   0.00000   0.00000  -0.00002  -0.00002   2.39007
   D32        1.13427   0.00000   0.00000   0.00001   0.00001   1.13428
   D33       -1.55889   0.00000   0.00000  -0.00002  -0.00002  -1.55891
   D34       -1.11222   0.00000   0.00000   0.00000   0.00000  -1.11222
   D35        0.00758   0.00000   0.00000  -0.00002  -0.00002   0.00756
   D36        2.65183   0.00000   0.00000  -0.00004  -0.00004   2.65179
   D37        0.02080   0.00000   0.00000   0.00001   0.00001   0.02081
   D38        1.14059   0.00000   0.00000  -0.00001  -0.00001   1.14058
   D39       -2.49834   0.00000   0.00000  -0.00003  -0.00003  -2.49837
   D40        2.73941   0.00000   0.00000   0.00002   0.00002   2.73944
   D41       -2.42398   0.00000   0.00000   0.00000   0.00000  -2.42397
   D42        0.22028   0.00000   0.00000  -0.00002  -0.00002   0.22026
   D43        0.00965   0.00000   0.00000   0.00001   0.00001   0.00967
   D44        2.64048   0.00000   0.00000   0.00000   0.00000   2.64048
   D45       -2.60018   0.00000   0.00000   0.00003   0.00003  -2.60015
   D46        0.03064   0.00000   0.00000   0.00002   0.00002   0.03066
   D47       -0.02272   0.00000   0.00000   0.00000   0.00000  -0.02272
   D48        2.03698   0.00000   0.00000  -0.00002  -0.00002   2.03695
   D49       -2.18291   0.00000   0.00000  -0.00003  -0.00003  -2.18294
   D50        1.09638   0.00000   0.00000   0.00001   0.00001   1.09639
   D51       -3.12711   0.00000   0.00000  -0.00002  -0.00002  -3.12712
   D52       -1.06381   0.00000   0.00000  -0.00002  -0.00002  -1.06383
   D53       -2.67478   0.00000   0.00000   0.00001   0.00001  -2.67477
   D54       -0.61508   0.00000   0.00000  -0.00002  -0.00002  -0.61510
   D55        1.44822   0.00000   0.00000  -0.00002  -0.00002   1.44820
         Item               Value     Threshold  Converged?
 Maximum Force            0.000009     0.000450     YES
 RMS     Force            0.000003     0.000300     YES
 Maximum Displacement     0.000255     0.001800     YES
 RMS     Displacement     0.000047     0.001200     YES
 Predicted change in Energy=-3.301440D-09
 Optimization completed.
    -- Stationary point found.
                           ----------------------------
                           !   Optimized Parameters   !
                           ! (Angstroms and Degrees)  !
 --------------------------                            --------------------------
 ! Name  Definition              Value          Derivative Info.                !
 --------------------------------------------------------------------------------
 ! R1    R(1,2)                  1.5106         -DE/DX =    0.0                 !
 ! R2    R(1,10)                 1.0931         -DE/DX =    0.0                 !
 ! R3    R(1,11)                 1.096          -DE/DX =    0.0                 !
 ! R4    R(1,12)                 1.0961         -DE/DX =    0.0                 !
 ! R5    R(2,3)                  1.521          -DE/DX =    0.0                 !
 ! R6    R(2,4)                  1.5159         -DE/DX =    0.0                 !
 ! R7    R(2,9)                  1.5389         -DE/DX =    0.0                 !
 ! R8    R(3,4)                  1.5089         -DE/DX =    0.0                 !
 ! R9    R(3,13)                 1.086          -DE/DX =    0.0                 !
 ! R10   R(3,14)                 1.083          -DE/DX =    0.0                 !
 ! R11   R(4,5)                  1.3941         -DE/DX =    0.0                 !
 ! R12   R(4,6)                  1.5198         -DE/DX =    0.0                 !
 ! R13   R(5,15)                 0.9633         -DE/DX =    0.0                 !
 ! R14   R(6,7)                  1.4346         -DE/DX =    0.0                 !
 ! R15   R(6,8)                  1.4697         -DE/DX =    0.0                 !
 ! R16   R(6,16)                 1.0868         -DE/DX =    0.0                 !
 ! R17   R(7,8)                  1.4364         -DE/DX =    0.0                 !
 ! R18   R(8,9)                  1.5238         -DE/DX =    0.0                 !
 ! R19   R(8,17)                 1.0877         -DE/DX =    0.0                 !
 ! R20   R(9,18)                 1.0967         -DE/DX =    0.0                 !
 ! R21   R(9,19)                 1.0956         -DE/DX =    0.0                 !
 ! A1    A(2,1,10)             110.6596         -DE/DX =    0.0                 !
 ! A2    A(2,1,11)             111.1712         -DE/DX =    0.0                 !
 ! A3    A(2,1,12)             111.3079         -DE/DX =    0.0                 !
 ! A4    A(10,1,11)            107.5882         -DE/DX =    0.0                 !
 ! A5    A(10,1,12)            108.1863         -DE/DX =    0.0                 !
 ! A6    A(11,1,12)            107.778          -DE/DX =    0.0                 !
 ! A7    A(1,2,3)              118.4949         -DE/DX =    0.0                 !
 ! A8    A(1,2,4)              121.6864         -DE/DX =    0.0                 !
 ! A9    A(1,2,9)              118.1208         -DE/DX =    0.0                 !
 ! A10   A(3,2,9)              117.5078         -DE/DX =    0.0                 !
 ! A11   A(4,2,9)              107.8676         -DE/DX =    0.0                 !
 ! A12   A(2,3,13)             115.4433         -DE/DX =    0.0                 !
 ! A13   A(2,3,14)             119.8751         -DE/DX =    0.0                 !
 ! A14   A(4,3,13)             116.0385         -DE/DX =    0.0                 !
 ! A15   A(4,3,14)             118.1103         -DE/DX =    0.0                 !
 ! A16   A(13,3,14)            115.8467         -DE/DX =    0.0                 !
 ! A17   A(2,4,5)              120.5197         -DE/DX =    0.0                 !
 ! A18   A(2,4,6)              107.2964         -DE/DX =    0.0                 !
 ! A19   A(3,4,5)              121.7793         -DE/DX =    0.0                 !
 ! A20   A(3,4,6)              116.1205         -DE/DX =    0.0                 !
 ! A21   A(5,4,6)              117.2233         -DE/DX =    0.0                 !
 ! A22   A(4,5,15)             108.2066         -DE/DX =    0.0                 !
 ! A23   A(4,6,7)              114.6124         -DE/DX =    0.0                 !
 ! A24   A(4,6,8)              109.154          -DE/DX =    0.0                 !
 ! A25   A(4,6,16)             118.954          -DE/DX =    0.0                 !
 ! A26   A(7,6,16)             116.4036         -DE/DX =    0.0                 !
 ! A27   A(8,6,16)             124.5826         -DE/DX =    0.0                 !
 ! A28   A(6,8,9)              109.1942         -DE/DX =    0.0                 !
 ! A29   A(6,8,17)             123.7364         -DE/DX =    0.0                 !
 ! A30   A(7,8,9)              115.1178         -DE/DX =    0.0                 !
 ! A31   A(7,8,17)             114.7967         -DE/DX =    0.0                 !
 ! A32   A(9,8,17)             120.1685         -DE/DX =    0.0                 !
 ! A33   A(2,9,8)              106.4649         -DE/DX =    0.0                 !
 ! A34   A(2,9,18)             109.5807         -DE/DX =    0.0                 !
 ! A35   A(2,9,19)             112.9675         -DE/DX =    0.0                 !
 ! A36   A(8,9,18)             108.7852         -DE/DX =    0.0                 !
 ! A37   A(8,9,19)             111.7349         -DE/DX =    0.0                 !
 ! A38   A(18,9,19)            107.2519         -DE/DX =    0.0                 !
 ! D1    D(10,1,2,3)            37.8505         -DE/DX =    0.0                 !
 ! D2    D(10,1,2,4)           -32.1562         -DE/DX =    0.0                 !
 ! D3    D(10,1,2,9)          -169.7779         -DE/DX =    0.0                 !
 ! D4    D(11,1,2,3)           157.3457         -DE/DX =    0.0                 !
 ! D5    D(11,1,2,4)            87.339          -DE/DX =    0.0                 !
 ! D6    D(11,1,2,9)           -50.2827         -DE/DX =    0.0                 !
 ! D7    D(12,1,2,3)           -82.4877         -DE/DX =    0.0                 !
 ! D8    D(12,1,2,4)          -152.4943         -DE/DX =    0.0                 !
 ! D9    D(12,1,2,9)            69.884          -DE/DX =    0.0                 !
 ! D10   D(1,2,3,13)            -5.3139         -DE/DX =    0.0                 !
 ! D11   D(1,2,3,14)           140.793          -DE/DX =    0.0                 !
 ! D12   D(9,2,3,13)          -157.8542         -DE/DX =    0.0                 !
 ! D13   D(9,2,3,14)           -11.7473         -DE/DX =    0.0                 !
 ! D14   D(1,2,4,5)             -4.8737         -DE/DX =    0.0                 !
 ! D15   D(1,2,4,6)           -142.5841         -DE/DX =    0.0                 !
 ! D16   D(9,2,4,5)            136.4747         -DE/DX =    0.0                 !
 ! D17   D(9,2,4,6)             -1.2357         -DE/DX =    0.0                 !
 ! D18   D(1,2,9,8)            144.4954         -DE/DX =    0.0                 !
 ! D19   D(1,2,9,18)            27.0096         -DE/DX =    0.0                 !
 ! D20   D(1,2,9,19)           -92.5039         -DE/DX =    0.0                 !
 ! D21   D(3,2,9,8)            -62.8599         -DE/DX =    0.0                 !
 ! D22   D(3,2,9,18)           179.6543         -DE/DX =    0.0                 !
 ! D23   D(3,2,9,19)            60.1409         -DE/DX =    0.0                 !
 ! D24   D(4,2,9,8)              1.5528         -DE/DX =    0.0                 !
 ! D25   D(4,2,9,18)          -115.933          -DE/DX =    0.0                 !
 ! D26   D(4,2,9,19)           124.5535         -DE/DX =    0.0                 !
 ! D27   D(13,3,4,5)             3.8866         -DE/DX =    0.0                 !
 ! D28   D(13,3,4,6)           158.4584         -DE/DX =    0.0                 !
 ! D29   D(14,3,4,5)          -140.3154         -DE/DX =    0.0                 !
 ! D30   D(14,3,4,6)            14.2564         -DE/DX =    0.0                 !
 ! D31   D(2,4,5,15)           136.9417         -DE/DX =    0.0                 !
 ! D32   D(3,4,5,15)            64.9889         -DE/DX =    0.0                 !
 ! D33   D(6,4,5,15)           -89.3178         -DE/DX =    0.0                 !
 ! D34   D(2,4,6,7)            -63.7253         -DE/DX =    0.0                 !
 ! D35   D(2,4,6,8)              0.4343         -DE/DX =    0.0                 !
 ! D36   D(2,4,6,16)           151.9388         -DE/DX =    0.0                 !
 ! D37   D(3,4,6,7)              1.1916         -DE/DX =    0.0                 !
 ! D38   D(3,4,6,8)             65.3513         -DE/DX =    0.0                 !
 ! D39   D(3,4,6,16)          -143.1443         -DE/DX =    0.0                 !
 ! D40   D(5,4,6,7)            156.9568         -DE/DX =    0.0                 !
 ! D41   D(5,4,6,8)           -138.8836         -DE/DX =    0.0                 !
 ! D42   D(5,4,6,16)            12.6209         -DE/DX =    0.0                 !
 ! D43   D(4,6,8,9)              0.5532         -DE/DX =    0.0                 !
 ! D44   D(4,6,8,17)           151.2883         -DE/DX =    0.0                 !
 ! D45   D(16,6,8,9)          -148.9793         -DE/DX =    0.0                 !
 ! D46   D(16,6,8,17)            1.7558         -DE/DX =    0.0                 !
 ! D47   D(6,8,9,2)             -1.3018         -DE/DX =    0.0                 !
 ! D48   D(6,8,9,18)           116.7101         -DE/DX =    0.0                 !
 ! D49   D(6,8,9,19)          -125.0716         -DE/DX =    0.0                 !
 ! D50   D(7,8,9,2)             62.8181         -DE/DX =    0.0                 !
 ! D51   D(7,8,9,18)          -179.17           -DE/DX =    0.0                 !
 ! D52   D(7,8,9,19)           -60.9517         -DE/DX =    0.0                 !
 ! D53   D(17,8,9,2)          -153.2534         -DE/DX =    0.0                 !
 ! D54   D(17,8,9,18)          -35.2415         -DE/DX =    0.0                 !
 ! D55   D(17,8,9,19)           82.9768         -DE/DX =    0.0                 !
 --------------------------------------------------------------------------------
 GradGradGradGradGradGradGradGradGradGradGradGradGradGradGradGradGradGrad

                          Input orientation:                          
 ---------------------------------------------------------------------
 Center     Atomic      Atomic             Coordinates (Angstroms)
 Number     Number       Type             X           Y           Z
 ---------------------------------------------------------------------
      1          6           0       -0.014480   -0.172777    0.088280
      2          6           0        1.494819   -0.130706    0.042949
      3          6           0        2.249462    0.221591    1.315653
      4          6           0        2.258463    1.174769    0.146012
      5          8           0        1.578794    2.391389    0.185072
      6          6           0        3.452247    1.075006   -0.789278
      7          8           0        4.401859    0.058071   -0.439648
      8          6           0        3.432328   -0.233182   -1.458742
      9          6           0        2.214563   -1.018654   -0.987450
     10          1           0       -0.403524    0.624783    0.726548
     11          1           0       -0.444425   -0.036963   -0.910670
     12          1           0       -0.374631   -1.130956    0.480197
     13          1           0        1.630727    0.509415    2.160413
     14          1           0        3.168804   -0.296642    1.558652
     15          1           0        1.989653    2.944181    0.858507
     16          1           0        3.856778    1.984762   -1.224900
     17          1           0        3.849303   -0.412313   -2.447245
     18          1           0        1.554523   -1.195179   -1.845282
     19          1           0        2.494517   -1.998766   -0.585775
 ---------------------------------------------------------------------
                    Distance matrix (angstroms):
                    1          2          3          4          5
     1  C    0.000000
     2  C    1.510565   0.000000
     3  C    2.605264   1.520978   0.000000
     4  C    2.643006   1.515928   1.508871   0.000000
     5  O    3.020404   2.527491   2.536934   1.394144   0.000000
     6  C    3.787515   2.444968   2.570165   1.519817   2.488383
     7  O    4.453768   2.952866   2.782200   2.486797   3.715419
     8  C    3.778546   2.453471   3.050125   2.436293   3.609167
     9  C    2.615594   1.538897   2.616049   2.469366   3.661612
    10  H    1.093090   2.154478   2.747352   2.779510   2.709921
    11  H    1.095993   2.163064   3.504339   3.144912   3.345289
    12  H    1.096090   2.164839   3.068099   3.515854   4.038549
    13  H    2.732366   2.216276   1.085953   2.212365   2.728826
    14  H    3.508651   2.264314   1.082961   2.233680   3.411797
    15  H    3.784868   3.219460   2.772902   1.926325   0.963275
    16  H    4.622343   3.414893   3.485204   2.256125   2.709719
    17  H    4.627643   3.438599   4.137721   3.431411   4.465988
    18  H    2.691790   2.168429   3.532943   3.174498   4.121456
    19  H    3.175477   2.210055   2.933508   3.265358   4.550408
                    6          7          8          9         10
     6  C    0.000000
     7  O    1.434629   0.000000
     8  C    1.469672   1.436444   0.000000
     9  C    2.440194   2.498738   1.523823   0.000000
    10  H    4.167421   4.977236   4.497261   3.534551   0.000000
    11  H    4.054044   4.870048   3.920217   2.835459   1.766371
    12  H    4.595958   5.007470   4.365595   2.978342   1.773174
    13  H    3.512621   3.826643   4.110414   3.547520   2.491476
    14  H    2.733960   2.374752   3.029545   2.813275   3.781924
    15  H    2.889324   3.979143   4.188865   4.377465   3.335313
    16  H    1.086769   2.150784   2.270268   3.431291   4.879330
    17  H    2.262438   2.134719   1.087701   2.273989   5.406947
    18  H    3.141695   3.413761   2.144995   1.096672   3.709518
    19  H    3.225948   2.808894   2.181479   1.095600   4.123572
                   11         12         13         14         15
    11  H    0.000000
    12  H    1.770933   0.000000
    13  H    3.746510   3.087945   0.000000
    14  H    4.384109   3.796720   1.837804   0.000000
    15  H    4.235793   4.726489   2.784219   3.519025   0.000000
    16  H    4.763030   5.524479   4.311878   3.664188   2.957571
    17  H    4.575812   5.189218   5.196362   4.064932   5.064815
    18  H    2.492139   3.022186   4.353968   3.872988   4.963277
    19  H    3.548467   3.181415   3.818200   2.819655   5.174318
                   16         17         18         19
    16  H    0.000000
    17  H    2.690753   0.000000
    18  H    3.974579   2.498251   0.000000
    19  H    4.258255   2.795953   1.765134   0.000000
 Stoichiometry    C7H10O2
 Framework group  C1[X(C7H10O2)]
 Deg. of freedom    51
 Full point group                 C1      NOp   1
 Largest Abelian subgroup         C1      NOp   1
 Largest concise Abelian subgroup C1      NOp   1
                         Standard orientation:                         
 ---------------------------------------------------------------------
 Center     Atomic      Atomic             Coordinates (Angstroms)
 Number     Number       Type             X           Y           Z
 ---------------------------------------------------------------------
      1          6           0       -2.127994   -1.048446   -0.264073
      2          6           0       -0.740909   -0.616738    0.149967
      3          6           0       -0.594079    0.282437    1.367875
      4          6           0       -0.273275    0.816771   -0.006266
      5          8           0       -1.083716    1.761395   -0.634367
      6          6           0        1.189429    0.772735   -0.416629
      7          8           0        2.067377    0.197841    0.561566
      8          6           0        1.618194   -0.628909   -0.523833
      9          6           0        0.440285   -1.539390   -0.198888
     10          1           0       -2.843690   -0.234530   -0.122069
     11          1           0       -2.154848   -1.332196   -1.322357
     12          1           0       -2.468662   -1.909708    0.322089
     13          1           0       -1.524957    0.627330    1.808111
     14          1           0        0.225242    0.125696    2.058491
     15          1           0       -1.048463    2.576426   -0.122136
     16          1           0        1.594378    1.588720   -1.009293
     17          1           0        2.404809   -0.970508   -1.192893
     18          1           0        0.194516   -2.130318   -1.089444
     19          1           0        0.682481   -2.245566    0.602982
 ---------------------------------------------------------------------
 Rotational constants (GHZ):      2.5633364      1.7456250      1.3360854
 1\1\GINC-ALCHEMY-V\FOpt\RB3LYP\6-31G(2df,p)\C7H10O2\PUCK\27-Jan-2020\0
 \\# b3lyp 6-31G(2df,p) opt Freq\\titel\\0,1\C,-0.0144795508,-0.1727774
 499,0.0882800827\C,1.4948190494,-0.1307056499,0.0429489013\C,2.2494616
 889,0.2215907324,1.3156534394\C,2.2584625305,1.1747690577,0.1460115436
 \O,1.5787939659,2.3913887586,0.1850722793\C,3.4522473912,1.0750064368,
 -0.7892784397\O,4.4018590655,0.0580712652,-0.4396476128\C,3.4323283515
 ,-0.2331818751,-1.4587424877\C,2.2145625526,-1.0186538323,-0.987450065
 8\H,-0.4035237351,0.6247834238,0.7265481331\H,-0.4444252753,-0.0369625
 496,-0.9106704625\H,-0.3746309281,-1.1309559178,0.480196507\H,1.630727
 1159,0.509414888,2.1604129591\H,3.1688044479,-0.2966415763,1.558651883
 2\H,1.9896528325,2.944181399,0.8585066399\H,3.8567778078,1.984762063,-
 1.2248998661\H,3.8493033218,-0.4123130208,-2.447245127\H,1.5545230063,
 -1.1951794926,-1.8452815931\H,2.4945174516,-1.9987663103,-0.5857747138
 \\Version=ES64L-G09RevD.01\State=1-A\HF=-423.1609221\RMSD=3.611e-09\RM
 SF=7.972e-06\Dipole=-0.2423599,0.1148293,0.0061427\Quadrupole=-4.31912
 29,1.8389667,2.4801562,2.5054709,-1.0507263,2.6286724\PG=C01 [X(C7H10O
 2)]\\@


 SCIENCE IS LONG AND LIFE IS SHORT.

                     DON MOSER IN THE FEBRUARY 1979 SMITHSONIAN
 Job cpu time:       0 days  0 hours  7 minutes 54.2 seconds.
 File lengths (MBytes):  RWF=     52 Int=      0 D2E=      0 Chk=      7 Scr=      1
 Normal termination of Gaussian 09 at Mon Jan 27 17:15:26 2020.
 Link1:  Proceeding to internal job step number  2.
 ----------------------------------------------------------------------
 #N Geom=AllCheck Guess=TCheck SCRF=Check GenChk RB3LYP/6-31G(2df,p) Fr
 eq
 ----------------------------------------------------------------------
 1/10=4,29=7,30=1,38=1,40=1/1,3;
 2/12=2,40=1/2;
 3/5=1,6=6,7=104,11=2,14=-4,16=1,25=1,30=1,70=2,71=2,74=-5,116=1,140=1/1,2,3;
 4/5=101/1;
 5/5=2,98=1/2;
 8/6=4,10=90,11=11/1;
 11/6=1,8=1,9=11,15=111,16=1/1,2,10;
 10/6=1/2;
 6/7=2,8=2,9=2,10=2,18=1,28=1/1;
 7/8=1,10=1,25=1/1,2,3,16;
 1/10=4,30=1/3;
 99//99;
 Structure from the checkpoint file:  "/scratch/puck/g09_01ae7435-9c98-4a76-adfd-b9246c0157b6/Gau-32515.chk"
 -----
 titel
 -----
 Charge =  0 Multiplicity = 1
 Redundant internal coordinates found in file.
 C,0,-0.0144795508,-0.1727774499,0.0882800827
 C,0,1.4948190494,-0.1307056499,0.0429489013
 C,0,2.2494616889,0.2215907324,1.3156534394
 C,0,2.2584625305,1.1747690577,0.1460115436
 O,0,1.5787939659,2.3913887586,0.1850722793
 C,0,3.4522473912,1.0750064368,-0.7892784397
 O,0,4.4018590655,0.0580712652,-0.4396476128
 C,0,3.4323283515,-0.2331818751,-1.4587424877
 C,0,2.2145625526,-1.0186538323,-0.9874500658
 H,0,-0.4035237351,0.6247834238,0.7265481331
 H,0,-0.4444252753,-0.0369625496,-0.9106704625
 H,0,-0.3746309281,-1.1309559178,0.480196507
 H,0,1.6307271159,0.509414888,2.1604129591
 H,0,3.1688044479,-0.2966415763,1.5586518832
 H,0,1.9896528325,2.944181399,0.8585066399
 H,0,3.8567778078,1.984762063,-1.2248998661
 H,0,3.8493033218,-0.4123130208,-2.447245127
 H,0,1.5545230063,-1.1951794926,-1.8452815931
 H,0,2.4945174516,-1.9987663103,-0.5857747138
 Recover connectivity data from disk.

 GradGradGradGradGradGradGradGradGradGradGradGradGradGradGradGradGradGrad
 Berny optimization.
 Initialization pass.
                           ----------------------------
                           !    Initial Parameters    !
                           ! (Angstroms and Degrees)  !
 --------------------------                            --------------------------
 ! Name  Definition              Value          Derivative Info.                !
 --------------------------------------------------------------------------------
 ! R1    R(1,2)                  1.5106         calculate D2E/DX2 analytically  !
 ! R2    R(1,10)                 1.0931         calculate D2E/DX2 analytically  !
 ! R3    R(1,11)                 1.096          calculate D2E/DX2 analytically  !
 ! R4    R(1,12)                 1.0961         calculate D2E/DX2 analytically  !
 ! R5    R(2,3)                  1.521          calculate D2E/DX2 analytically  !
 ! R6    R(2,4)                  1.5159         calculate D2E/DX2 analytically  !
 ! R7    R(2,9)                  1.5389         calculate D2E/DX2 analytically  !
 ! R8    R(3,4)                  1.5089         calculate D2E/DX2 analytically  !
 ! R9    R(3,13)                 1.086          calculate D2E/DX2 analytically  !
 ! R10   R(3,14)                 1.083          calculate D2E/DX2 analytically  !
 ! R11   R(4,5)                  1.3941         calculate D2E/DX2 analytically  !
 ! R12   R(4,6)                  1.5198         calculate D2E/DX2 analytically  !
 ! R13   R(5,15)                 0.9633         calculate D2E/DX2 analytically  !
 ! R14   R(6,7)                  1.4346         calculate D2E/DX2 analytically  !
 ! R15   R(6,8)                  1.4697         calculate D2E/DX2 analytically  !
 ! R16   R(6,16)                 1.0868         calculate D2E/DX2 analytically  !
 ! R17   R(7,8)                  1.4364         calculate D2E/DX2 analytically  !
 ! R18   R(8,9)                  1.5238         calculate D2E/DX2 analytically  !
 ! R19   R(8,17)                 1.0877         calculate D2E/DX2 analytically  !
 ! R20   R(9,18)                 1.0967         calculate D2E/DX2 analytically  !
 ! R21   R(9,19)                 1.0956         calculate D2E/DX2 analytically  !
 ! A1    A(2,1,10)             110.6596         calculate D2E/DX2 analytically  !
 ! A2    A(2,1,11)             111.1712         calculate D2E/DX2 analytically  !
 ! A3    A(2,1,12)             111.3079         calculate D2E/DX2 analytically  !
 ! A4    A(10,1,11)            107.5882         calculate D2E/DX2 analytically  !
 ! A5    A(10,1,12)            108.1863         calculate D2E/DX2 analytically  !
 ! A6    A(11,1,12)            107.778          calculate D2E/DX2 analytically  !
 ! A7    A(1,2,3)              118.4949         calculate D2E/DX2 analytically  !
 ! A8    A(1,2,4)              121.6864         calculate D2E/DX2 analytically  !
 ! A9    A(1,2,9)              118.1208         calculate D2E/DX2 analytically  !
 ! A10   A(3,2,9)              117.5078         calculate D2E/DX2 analytically  !
 ! A11   A(4,2,9)              107.8676         calculate D2E/DX2 analytically  !
 ! A12   A(2,3,13)             115.4433         calculate D2E/DX2 analytically  !
 ! A13   A(2,3,14)             119.8751         calculate D2E/DX2 analytically  !
 ! A14   A(4,3,13)             116.0385         calculate D2E/DX2 analytically  !
 ! A15   A(4,3,14)             118.1103         calculate D2E/DX2 analytically  !
 ! A16   A(13,3,14)            115.8467         calculate D2E/DX2 analytically  !
 ! A17   A(2,4,5)              120.5197         calculate D2E/DX2 analytically  !
 ! A18   A(2,4,6)              107.2964         calculate D2E/DX2 analytically  !
 ! A19   A(3,4,5)              121.7793         calculate D2E/DX2 analytically  !
 ! A20   A(3,4,6)              116.1205         calculate D2E/DX2 analytically  !
 ! A21   A(5,4,6)              117.2233         calculate D2E/DX2 analytically  !
 ! A22   A(4,5,15)             108.2066         calculate D2E/DX2 analytically  !
 ! A23   A(4,6,7)              114.6124         calculate D2E/DX2 analytically  !
 ! A24   A(4,6,8)              109.154          calculate D2E/DX2 analytically  !
 ! A25   A(4,6,16)             118.954          calculate D2E/DX2 analytically  !
 ! A26   A(7,6,16)             116.4036         calculate D2E/DX2 analytically  !
 ! A27   A(8,6,16)             124.5826         calculate D2E/DX2 analytically  !
 ! A28   A(6,8,9)              109.1942         calculate D2E/DX2 analytically  !
 ! A29   A(6,8,17)             123.7364         calculate D2E/DX2 analytically  !
 ! A30   A(7,8,9)              115.1178         calculate D2E/DX2 analytically  !
 ! A31   A(7,8,17)             114.7967         calculate D2E/DX2 analytically  !
 ! A32   A(9,8,17)             120.1685         calculate D2E/DX2 analytically  !
 ! A33   A(2,9,8)              106.4649         calculate D2E/DX2 analytically  !
 ! A34   A(2,9,18)             109.5807         calculate D2E/DX2 analytically  !
 ! A35   A(2,9,19)             112.9675         calculate D2E/DX2 analytically  !
 ! A36   A(8,9,18)             108.7852         calculate D2E/DX2 analytically  !
 ! A37   A(8,9,19)             111.7349         calculate D2E/DX2 analytically  !
 ! A38   A(18,9,19)            107.2519         calculate D2E/DX2 analytically  !
 ! D1    D(10,1,2,3)            37.8505         calculate D2E/DX2 analytically  !
 ! D2    D(10,1,2,4)           -32.1562         calculate D2E/DX2 analytically  !
 ! D3    D(10,1,2,9)          -169.7779         calculate D2E/DX2 analytically  !
 ! D4    D(11,1,2,3)           157.3457         calculate D2E/DX2 analytically  !
 ! D5    D(11,1,2,4)            87.339          calculate D2E/DX2 analytically  !
 ! D6    D(11,1,2,9)           -50.2827         calculate D2E/DX2 analytically  !
 ! D7    D(12,1,2,3)           -82.4877         calculate D2E/DX2 analytically  !
 ! D8    D(12,1,2,4)          -152.4943         calculate D2E/DX2 analytically  !
 ! D9    D(12,1,2,9)            69.884          calculate D2E/DX2 analytically  !
 ! D10   D(1,2,3,13)            -5.3139         calculate D2E/DX2 analytically  !
 ! D11   D(1,2,3,14)           140.793          calculate D2E/DX2 analytically  !
 ! D12   D(9,2,3,13)          -157.8542         calculate D2E/DX2 analytically  !
 ! D13   D(9,2,3,14)           -11.7473         calculate D2E/DX2 analytically  !
 ! D14   D(1,2,4,5)             -4.8737         calculate D2E/DX2 analytically  !
 ! D15   D(1,2,4,6)           -142.5841         calculate D2E/DX2 analytically  !
 ! D16   D(9,2,4,5)            136.4747         calculate D2E/DX2 analytically  !
 ! D17   D(9,2,4,6)             -1.2357         calculate D2E/DX2 analytically  !
 ! D18   D(1,2,9,8)            144.4954         calculate D2E/DX2 analytically  !
 ! D19   D(1,2,9,18)            27.0096         calculate D2E/DX2 analytically  !
 ! D20   D(1,2,9,19)           -92.5039         calculate D2E/DX2 analytically  !
 ! D21   D(3,2,9,8)            -62.8599         calculate D2E/DX2 analytically  !
 ! D22   D(3,2,9,18)           179.6543         calculate D2E/DX2 analytically  !
 ! D23   D(3,2,9,19)            60.1409         calculate D2E/DX2 analytically  !
 ! D24   D(4,2,9,8)              1.5528         calculate D2E/DX2 analytically  !
 ! D25   D(4,2,9,18)          -115.933          calculate D2E/DX2 analytically  !
 ! D26   D(4,2,9,19)           124.5535         calculate D2E/DX2 analytically  !
 ! D27   D(13,3,4,5)             3.8866         calculate D2E/DX2 analytically  !
 ! D28   D(13,3,4,6)           158.4584         calculate D2E/DX2 analytically  !
 ! D29   D(14,3,4,5)          -140.3154         calculate D2E/DX2 analytically  !
 ! D30   D(14,3,4,6)            14.2564         calculate D2E/DX2 analytically  !
 ! D31   D(2,4,5,15)           136.9417         calculate D2E/DX2 analytically  !
 ! D32   D(3,4,5,15)            64.9889         calculate D2E/DX2 analytically  !
 ! D33   D(6,4,5,15)           -89.3178         calculate D2E/DX2 analytically  !
 ! D34   D(2,4,6,7)            -63.7253         calculate D2E/DX2 analytically  !
 ! D35   D(2,4,6,8)              0.4343         calculate D2E/DX2 analytically  !
 ! D36   D(2,4,6,16)           151.9388         calculate D2E/DX2 analytically  !
 ! D37   D(3,4,6,7)              1.1916         calculate D2E/DX2 analytically  !
 ! D38   D(3,4,6,8)             65.3513         calculate D2E/DX2 analytically  !
 ! D39   D(3,4,6,16)          -143.1443         calculate D2E/DX2 analytically  !
 ! D40   D(5,4,6,7)            156.9568         calculate D2E/DX2 analytically  !
 ! D41   D(5,4,6,8)           -138.8836         calculate D2E/DX2 analytically  !
 ! D42   D(5,4,6,16)            12.6209         calculate D2E/DX2 analytically  !
 ! D43   D(4,6,8,9)              0.5532         calculate D2E/DX2 analytically  !
 ! D44   D(4,6,8,17)           151.2883         calculate D2E/DX2 analytically  !
 ! D45   D(16,6,8,9)          -148.9793         calculate D2E/DX2 analytically  !
 ! D46   D(16,6,8,17)            1.7558         calculate D2E/DX2 analytically  !
 ! D47   D(6,8,9,2)             -1.3018         calculate D2E/DX2 analytically  !
 ! D48   D(6,8,9,18)           116.7101         calculate D2E/DX2 analytically  !
 ! D49   D(6,8,9,19)          -125.0716         calculate D2E/DX2 analytically  !
 ! D50   D(7,8,9,2)             62.8181         calculate D2E/DX2 analytically  !
 ! D51   D(7,8,9,18)          -179.17           calculate D2E/DX2 analytically  !
 ! D52   D(7,8,9,19)           -60.9517         calculate D2E/DX2 analytically  !
 ! D53   D(17,8,9,2)          -153.2534         calculate D2E/DX2 analytically  !
 ! D54   D(17,8,9,18)          -35.2415         calculate D2E/DX2 analytically  !
[...]
 681,0.59406624,-0.01117659,-0.03094148,0.00935120,-0.09963671,-0.04004
 959,-0.01282224,-0.04685139,0.01260882,0.02624162,0.42837917,-0.007281
 21,0.00094476,0.00122789,-0.06903635,-0.13840903,-0.03540912,0.0293333
 5,-0.09573111,0.09905934,-0.05521411,0.59626335,-0.00372487,0.00040975
 ,-0.00412466,0.00484458,0.00546366,-0.02389616,0.01223913,0.05411111,-
 0.14370043,-0.09909921,-0.02661786,0.39635284,-0.00143480,0.00237113,0
 .00060527,0.01567902,-0.00752921,0.00059623,-0.00731955,0.00852618,0.0
 0310164,-0.12173279,0.06799784,-0.01315808,0.24374064,0.00248062,0.002
 10409,-0.00224429,0.01176262,-0.02538655,-0.00165102,0.01352943,-0.021
 27662,0.00270045,0.09932581,-0.21595826,0.00342782,-0.01198543,0.45001
 692,0.00147534,0.00162802,0.00020209,0.01174330,-0.01058550,-0.0051759
 9,-0.01804753,0.02612783,0.00601060,0.00243922,-0.02908045,-0.07096796
 ,0.16911758,0.20761983,0.32195741,-0.00005655,-0.00108573,0.00111602,-
 0.02309643,-0.02036450,0.01872148,0.00226260,-0.00865564,-0.00146220,-
 0.12720348,-0.00052327,0.05881455,-0.00919621,0.00776942,0.00673494,0.
 39686866,0.00050655,-0.00343689,0.00160962,-0.01395916,-0.00143615,0.0
 0667045,-0.00831480,0.00130062,0.00123473,-0.00862536,-0.07035651,0.00
 569692,0.02937947,-0.01179863,-0.01516813,0.05843189,0.69828455,0.0005
 5633,-0.00243380,-0.00075589,0.00124563,0.00849341,0.00003603,0.024025
 82,0.00432260,-0.01809297,0.06299132,0.00792058,-0.12069304,-0.0032167
 9,0.00033516,0.00504750,-0.13431258,-0.04544116,0.36291285,0.00009750,
 -0.00044523,0.00042223,0.00070309,0.00161334,0.00157984,0.00037589,0.0
 0260281,0.00328160,-0.01957538,0.01191342,-0.00871999,-0.00523864,0.00
 189245,0.00089278,-0.12057235,0.09293849,-0.01228897,0.27321030,-0.000
 04308,0.00135760,-0.00025948,0.00204326,-0.00319242,-0.00103245,-0.001
 31460,-0.00075646,0.00297648,0.01299785,-0.00858011,0.00062522,0.00538
 487,-0.00048172,-0.00230695,0.06173739,-0.12006470,0.03455305,-0.06459
 747,0.17528893,-0.00024941,0.00028156,0.00107291,-0.00006713,-0.000614
 89,-0.00155813,-0.00021706,0.00096377,-0.00230071,0.01231929,-0.012775
 03,0.01342883,0.00531422,-0.00271306,-0.00184129,-0.03114857,0.0686411
 6,-0.05708580,0.12059886,-0.02024238,0.21267894,-0.00032872,0.00035336
 ,0.00162998,-0.02201410,0.00365299,0.01721123,-0.00079110,0.00089819,0
 .00256620,-0.00285176,0.01081842,0.02216788,-0.00383134,0.00070712,0.0
 0051348,-0.01021432,-0.04036215,0.01154274,-0.12635113,-0.00915865,-0.
 06936045,0.40946165,0.00060362,-0.00404793,-0.00165970,0.00561818,0.00
 679989,0.00222595,-0.00146580,0.00018539,0.00146894,0.01478549,-0.0085
 0479,-0.01338934,-0.00128466,-0.00047573,-0.00120011,0.00680015,-0.225
 17403,-0.08286882,-0.04324179,-0.02755007,-0.02769924,0.07055675,0.438
 80098,0.00029103,-0.00133600,-0.00313693,0.02625834,0.00435681,-0.0102
 0842,0.00285849,-0.00126434,-0.00157124,0.00369009,-0.00988802,-0.0201
 1864,-0.00096578,0.00008879,-0.00066366,0.03503455,-0.11882640,-0.0759
 2266,-0.08633877,0.00445470,-0.14628557,-0.12374504,0.13957461,0.60847
 316,-0.01322548,0.02085502,0.01954411,-0.09832637,0.02445696,0.0218888
 1,0.00685417,-0.00666238,-0.00877179,0.00239376,0.00404616,0.00048369,
 0.00027340,-0.00105875,-0.00001727,-0.00386483,-0.00455343,-0.00643522
 ,-0.01961633,-0.02226356,-0.00437609,-0.13282227,-0.04291044,0.0376213
 0,0.46882043,0.00157616,0.00316342,0.00176371,0.02480083,-0.09982981,-
 0.03483203,-0.00624675,-0.00119651,0.00235462,0.00308315,-0.02870868,-
 0.01712556,-0.00258649,-0.00268536,-0.00341436,-0.02260673,-0.03095575
 ,0.00246127,0.00180992,0.00198079,-0.00660474,-0.04161554,-0.09953611,
 0.01985513,0.00032148,0.55394109,0.00300232,-0.00135438,-0.00142986,0.
 02749890,-0.03889130,-0.11159470,0.01026974,-0.02021772,-0.01878092,-0
 .00474311,-0.00674516,-0.00282674,0.00079022,0.00362497,0.00093032,-0.
 00034007,0.00440498,0.00019046,-0.02541246,-0.02231571,0.00423827,0.03
 650001,0.02568516,-0.09613832,0.08702997,-0.01933925,0.50925691,-0.078
 13166,0.06645983,0.05194281,-0.01295710,0.02465239,0.02030197,0.000916
 53,0.00081045,0.00119081,0.00022616,0.00185935,0.00156776,0.00097721,-
 0.00066797,-0.00102544,-0.00001212,0.00015056,0.00030553,0.00004136,-0
 .00029813,-0.00032541,-0.00004558,0.00143628,0.00101800,-0.00542297,-0
 .00176034,-0.00111785,0.08740058,0.06918852,-0.18920179,-0.11587465,0.
 00019681,0.00119188,0.00115269,-0.00027011,0.00014698,-0.00038848,-0.0
 0019095,0.00013702,-0.00009335,-0.00084174,-0.00037425,0.00016761,0.00
 007398,0.00001650,0.00037023,0.00018036,-0.00005819,0.00003351,-0.0002
 9567,-0.00016789,-0.00006816,-0.00057703,0.00094940,0.00037346,-0.0745
 6708,0.20309500,0.05430205,-0.11452598,-0.13792305,0.00027629,0.000111
 05,-0.00224681,-0.00059051,0.00061788,0.00052806,0.00054956,-0.0016129
 8,-0.00000673,-0.00126615,0.00016116,-0.00003896,0.00011510,0.00007580
 ,-0.00004818,0.00013241,0.00025518,0.00013094,-0.00015445,-0.00032716,
 0.00022255,0.00022268,-0.00011406,0.00041021,-0.05905967,0.12713107,0.
 14731798,-0.08281596,0.01239988,-0.08746460,-0.01552950,0.00297908,-0.
 03143968,-0.00610841,0.00197772,0.00102614,0.00165325,0.00097734,-0.00
 025442,0.00008953,-0.00121032,0.00019271,0.00024250,0.00004745,-0.0004
 1041,0.00017938,0.00011648,0.00047752,-0.00018259,-0.00017963,-0.00004
 175,0.00118677,-0.00089647,-0.00159267,0.00408618,-0.00248365,0.010499
 49,0.09365371,0.01241186,-0.05134329,0.03012176,-0.00033417,-0.0006265
 0,-0.00203271,-0.00096554,0.00093554,-0.00070029,0.00045758,0.00083101
 ,-0.00063815,0.00001028,-0.00028702,0.00034543,-0.00008709,0.00001932,
 -0.00001743,0.00000811,-0.00017502,0.00002125,0.00010248,0.00021825,-0
 .00006735,0.00018336,0.00002437,0.00090899,-0.00975775,0.00356767,-0.0
 2182102,-0.01295158,0.05028034,-0.08888393,0.02989931,-0.26435925,-0.0
 0012313,-0.00149194,0.00091958,0.00069289,0.00068932,0.00121471,-0.000
 64401,0.00019128,0.00003430,0.00002790,-0.00049866,0.00036411,-0.00002
 026,-0.00019613,-0.00008859,0.00009067,0.00008903,0.00010926,-0.000077
 79,-0.00003174,0.00031958,0.00040270,-0.00033087,0.00070478,-0.0066274
 4,0.00357212,-0.01649374,0.09893995,-0.03297822,0.28689178,-0.07019654
 ,-0.07080048,0.02880225,-0.01555851,-0.03325804,0.01018425,0.00305813,
 0.00112151,-0.00003742,-0.00517287,0.00299272,0.00282105,0.00117700,0.
 00025562,0.00002643,-0.00035164,-0.00123066,-0.00095158,-0.00032994,0.
 00043061,0.00009522,-0.00027689,-0.00061869,0.00001828,0.00135027,0.00
 012020,-0.00053809,0.00320538,0.00965207,-0.00518472,0.00360376,0.0109
 8038,-0.00361301,0.08039291,-0.07022796,-0.24613095,0.08129345,-0.0009
 0866,0.00075693,-0.00089470,-0.00034989,0.00026504,-0.00075205,0.00134
 273,0.00069192,0.00046001,-0.00069536,0.00028898,0.00008485,0.00028242
 ,0.00015667,-0.00019197,-0.00021497,0.00012086,0.00000719,-0.00015517,
 0.00008457,0.00009640,-0.00038093,0.00020326,-0.00003043,-0.00721836,-
 0.01967267,0.00967348,-0.00035028,-0.00330156,0.00063004,0.07949985,0.
 26642143,0.02897280,0.08216422,-0.08084911,0.00072291,0.00010990,-0.00
 060633,0.00091772,-0.00022680,0.00102282,-0.00091208,-0.00169228,0.000
 47079,-0.00053936,0.00016994,0.00010046,-0.00014153,-0.00028306,-0.000
 11929,-0.00001248,-0.00007962,0.00000480,0.00011724,0.00021807,-0.0001
 2855,-0.00028063,-0.00000642,0.00024035,-0.00703295,-0.01713629,0.0074
 2941,0.00950386,0.02697523,-0.01067854,-0.03173196,-0.09050578,0.08292
 539,0.00113790,-0.00144494,0.00045108,0.01059144,-0.00403976,-0.014957
 95,-0.14218691,0.05182470,0.12968132,-0.00696799,0.00276586,0.00302413
 ,0.00069271,0.00082983,-0.00203401,-0.00035541,0.00005512,0.00098340,0
 .00037666,-0.00096286,0.00179925,-0.00091965,-0.00058422,-0.00023897,-
 0.00176857,0.00111226,-0.00309696,-0.00001721,0.00016925,-0.00028135,0
 .00026834,0.00003701,0.00019706,-0.00016134,-0.00033261,0.00011208,0.1
 4761385,0.00149920,0.00020408,0.00261196,0.01270311,-0.00634415,-0.012
 21498,0.05170240,-0.05809271,-0.05818899,-0.01704689,0.00682773,0.0220
 3978,-0.00086403,0.00330743,-0.00429029,0.00289833,-0.00187057,0.00397
 354,0.00034187,0.00078748,-0.00164900,-0.00117448,-0.00134679,0.000883
 61,-0.00239200,0.00069579,-0.00346805,-0.00027389,0.00031694,0.0001817
 7,0.00047173,0.00011111,0.00030511,-0.00015890,-0.00018410,-0.00005473
 ,-0.05208505,0.05889177,0.00178119,-0.00177825,0.00180090,0.00912848,-
 0.00239121,-0.01568024,0.12676460,-0.05566622,-0.21481152,0.00645814,-
 0.00735395,-0.01260830,0.00000339,-0.00008295,0.00335432,-0.00206075,-
 0.00028316,-0.00108368,0.00015517,0.00004388,0.00118593,0.00039991,0.0
 0008354,-0.00077360,-0.00207279,0.00259861,-0.00104384,-0.00098769,0.0
 0050384,0.00015195,0.00022158,0.00027691,0.00034412,-0.00071443,-0.000
 08684,0.00000214,-0.13518818,0.06166566,0.23198055,-0.00000728,0.00111
 147,-0.00293512,-0.01067720,0.00776567,0.00032987,-0.25788029,0.125537
 66,-0.05336754,0.00792919,-0.00335689,-0.00365780,0.00086341,-0.002747
 20,0.00257619,-0.00063704,0.00141750,-0.00035208,-0.00300273,-0.001705
 81,0.00350648,0.00050175,0.00024397,-0.00010740,0.00110346,0.00011345,
 0.00172226,0.00022622,-0.00012974,0.00006047,-0.00090629,-0.00030026,-
 0.00012813,-0.00000648,-0.00004544,0.00010576,-0.00907174,0.00467172,-
 0.00485342,0.27149797,-0.00088571,0.00091063,-0.00413186,-0.01684562,0
 .00845370,0.00151882,0.12450441,-0.10772199,0.02960605,0.01903636,-0.0
 0902325,-0.00052494,0.00203829,-0.00448849,0.00529594,0.00200739,-0.00
 065444,-0.00199299,-0.00127896,0.00067204,-0.00197628,0.00115891,0.000
 74720,-0.00010752,0.00005198,0.00149719,0.00224149,-0.00001541,-0.0000
 6921,-0.00002385,-0.00159402,-0.00022757,-0.00021921,0.00011658,-0.000
 06950,0.00014893,0.00332215,-0.00280931,0.00223805,-0.13204870,0.11218
 772,0.00084173,0.00126190,-0.00263719,-0.01360002,0.01040795,-0.005934
 68,-0.05006717,0.02781965,-0.05895003,-0.01273549,0.00435015,-0.005866
 41,-0.00094455,0.00048689,-0.00103603,-0.00103139,0.00149813,0.0003194
 4,0.00229671,-0.00072328,0.00029134,-0.00120315,-0.00031186,-0.0012603
 9,-0.00050781,-0.00008521,0.00262728,-0.00030035,0.00020813,0.00004779
 ,-0.00100470,-0.00000851,0.00020232,0.00001353,-0.00014193,0.00023899,
 0.01919432,-0.01134882,0.00797446,0.05788892,-0.03256975,0.06345979,0.
 00041864,-0.00017648,-0.00011789,-0.00141528,-0.00066886,0.00092370,-0
 .00045692,-0.00052029,-0.00122192,0.00584083,0.02116776,0.01698594,-0.
 11782233,-0.12301495,-0.17350727,0.00005272,0.00166731,-0.00051680,-0.
 00000893,-0.00022745,0.00035671,-0.00001600,0.00041193,0.00015073,0.00
 008559,0.00046249,0.00013061,0.00008324,0.00016881,-0.00015684,0.00004
 716,0.00012030,0.00004680,0.00000924,0.00006816,0.00003633,0.00015436,
 -0.00034400,0.00014619,0.00004214,0.00042531,0.00016347,0.11349030,0.0
 0067571,0.00072441,-0.00008296,0.00561879,-0.00249402,-0.00194020,-0.0
 0269486,0.00263963,0.00153202,-0.01485319,-0.03325064,-0.02819078,-0.0
 8874639,-0.17311879,-0.17401420,0.00015065,0.00047711,-0.00093071,-0.0
 0057227,0.00033830,0.00055292,-0.00036318,-0.00065563,-0.00043393,0.00
 017316,-0.00135182,0.00094624,-0.00033157,0.00010326,0.00004673,0.0000
 0985,0.00005320,0.00002939,0.00001266,0.00013659,0.00007172,-0.0003109
 0,-0.00114341,0.00109041,0.00028265,0.00110200,-0.00004667,0.10053463,
 0.20662004,-0.00016128,0.00029152,-0.00011219,0.00178715,0.00439573,0.
 00141014,-0.00040187,-0.00044661,0.00329809,-0.00069705,0.00205279,-0.
 00058820,-0.15653432,-0.20790285,-0.25886654,-0.00048897,-0.00086375,-
 0.00019438,-0.00059908,0.00095823,-0.00003949,-0.00006611,-0.00054312,
 -0.00044523,0.00022675,0.00045023,-0.00034662,-0.00004029,-0.00011618,
 0.00008391,-0.00000858,0.00002011,-0.00001837,0.00007288,-0.00000115,0
 .00003784,0.00049518,-0.00024979,-0.00027908,-0.00008342,0.00001683,0.
 00021919,0.15590154,0.20181381,0.25629852,0.00020844,-0.00072940,0.000
 55715,-0.00218301,-0.00119294,0.00078558,-0.00174689,0.00040253,0.0000
 4265,-0.00087409,-0.01707742,0.00437180,0.00209560,0.00101062,-0.00159
 811,-0.09301831,-0.10057601,0.05287150,0.01102437,0.02751374,-0.010633
 29,-0.00714161,-0.00005993,0.00488425,-0.00028804,-0.00102325,0.000828
 04,-0.00004124,0.00000184,0.00005256,-0.00002823,0.00000221,-0.0000898
 5,-0.00038314,0.00003186,-0.00001469,-0.00015420,-0.00053458,0.0000618
 1,0.00003343,0.00018937,0.00030037,-0.00035993,0.00006913,0.00046968,0
 .09234447,0.00002439,0.00025598,0.00013475,0.00017391,-0.00099290,-0.0
 0042552,0.00066094,-0.00041192,-0.00047530,0.00323655,0.00335366,-0.00
 404473,-0.00135368,0.00190903,0.00036521,-0.09519712,-0.23592376,0.093
 36208,0.00186940,-0.01818943,0.00166874,-0.00101307,-0.00928134,0.0114
 1489,0.00075814,-0.00075011,0.00062308,-0.00010919,0.00000867,0.000035
 67,0.00001016,-0.00001648,-0.00001172,0.00005783,0.00004411,0.00001173
 ,0.00001049,0.00037819,-0.00012931,-0.00003740,-0.00000378,-0.00023126
 ,-0.00020002,0.00005474,-0.00002768,0.09227031,0.25903324,-0.00026441,
 0.00082846,-0.00023063,0.00105154,-0.00207814,-0.00168591,0.00183599,-
 0.00056910,-0.00074734,0.00483904,0.01728960,-0.00428402,-0.00212154,-
 0.00146722,0.00136405,0.05438689,0.09101237,-0.09106942,0.00204794,0.0
 1280242,-0.00487549,-0.00967151,-0.01353962,0.01216169,0.00174852,-0.0
 0359045,0.00076868,-0.00006137,0.00000053,-0.00000445,0.00004816,-0.00
 002736,0.00005295,0.00033555,0.00000586,0.00001301,0.00026449,0.000679
 49,-0.00020748,-0.00046832,-0.00005184,0.00019036,0.00053268,-0.000031
 71,-0.00046146,-0.05276146,-0.10197379,0.08878713,0.00012271,0.0005494
 5,0.00106391,-0.00283668,-0.00111260,0.00136198,-0.00042226,-0.0000296
 0,0.00023387,-0.00128560,-0.00060625,0.00038394,0.00025447,0.00045817,
 0.00023753,-0.00666000,-0.00376834,0.00187950,0.01012502,-0.00806827,-
 0.02933192,-0.09450689,0.01726058,0.11267715,-0.00301244,0.00655120,0.
 01634574,-0.00038047,0.00003667,0.00004335,0.00001878,-0.00002308,-0.0
 0007849,-0.00004067,-0.00005225,-0.00001083,0.00021926,0.00005546,0.00
 032923,-0.00002061,-0.00016848,0.00023258,-0.00009140,0.00011878,0.000
 09485,0.00081363,-0.00027028,-0.00026236,0.09756475,-0.00010431,0.0012
 4465,0.00050948,-0.00121307,-0.00426743,-0.00032346,0.00048038,-0.0008
 1340,-0.00070830,-0.00108172,0.00033463,-0.00271246,0.00044710,-0.0001
 4055,-0.00028644,0.00805865,0.00338950,-0.02277235,-0.00300563,-0.0019
 4347,0.00210410,0.01223963,-0.05415382,-0.04074387,-0.00647868,0.00517
 305,0.01540734,-0.00042800,0.00001941,0.00003134,0.00007040,-0.0000228
 5,0.00001627,0.00026627,0.00002133,-0.00003949,0.00027760,0.00056400,-
 0.00027968,-0.00006686,-0.00012556,0.00005603,-0.00000631,0.00005162,0
 .00000509,0.00041045,0.00064718,0.00137110,-0.01076043,0.04993709,-0.0
 0017591,-0.00019588,-0.00035110,0.00091977,0.00077779,0.00089306,-0.00
 021528,-0.00006951,-0.00010081,0.00030991,0.00112366,0.00092935,0.0000
 4520,-0.00021285,0.00003128,-0.00504090,0.00188472,-0.00137453,-0.0016
 2031,-0.01077242,-0.02224837,0.10920803,-0.03797901,-0.26901380,0.0005
 1207,-0.00349432,-0.00244206,0.00011865,0.00000401,-0.00002643,0.00002
 941,-0.00000007,0.00003278,0.00004264,0.00003830,-0.00000151,0.0001537
 4,-0.00003562,0.00001717,-0.00004280,-0.00017535,0.00022433,-0.0000090
 3,0.00004666,0.00000656,0.00010489,-0.00034303,-0.00011720,-0.10513456
 ,0.04880856,0.29310414,0.00107603,-0.00014314,0.00122166,0.00904446,0.
 00266997,0.01261472,-0.00130897,0.00210966,0.00241316,-0.00045501,-0.0
 0035701,0.00045743,0.00029895,-0.00012627,-0.00007339,-0.00119328,0.00
 053228,-0.00125586,-0.00430743,-0.00595086,0.00177579,-0.01376764,-0.0
 0032901,-0.02248470,-0.14087373,-0.02430727,-0.12073697,0.00013019,-0.
 00011653,0.00002394,0.00027066,0.00013760,-0.00021787,-0.00003052,-0.0
 0007180,0.00001780,0.00061671,0.00070000,0.00045180,-0.00037931,-0.000
 26712,0.00006287,-0.00004894,0.00000730,0.00006928,0.00007784,-0.00025
 704,-0.00013022,0.00074499,0.00073173,0.00063789,0.15501850,-0.0012063
 7,0.00104635,0.00002877,-0.01031716,-0.00303488,-0.01464280,0.00187830
 ,-0.00087613,-0.00110026,-0.00023582,-0.00008432,0.00024421,0.00007659
 ,-0.00027017,-0.00027298,0.00004731,0.00008194,-0.00059533,-0.00231873
 ,-0.00231546,0.00103888,-0.00887492,-0.00193060,-0.01359339,-0.0237873
 0,-0.05334210,-0.02948842,-0.00024819,-0.00006091,0.00024300,0.0005917
 0,-0.00008505,0.00028144,0.00022583,0.00001022,0.00015810,-0.00055954,
 -0.00052811,-0.00031676,0.00002052,0.00009113,0.00000453,0.00006657,-0
 .00000223,0.00001718,-0.00022756,0.00002093,0.00005406,0.00049997,0.00
 064067,0.00036409,0.02623589,0.05547292,-0.00168710,0.00092818,0.00096
 126,-0.01232014,-0.00319656,-0.01851463,0.00294034,-0.00226058,-0.0013
 9955,-0.00041129,0.00041894,-0.00061597,0.00003804,-0.00045976,0.00011
 038,0.00012239,-0.00087103,0.00014359,0.00295882,0.00265653,0.00118624
 ,0.00593316,0.00068578,0.00829108,-0.12135290,-0.02979236,-0.20202276,
 -0.00010019,0.00006499,0.00055276,0.00113706,-0.00034765,0.00044448,0.
 00023763,0.00008035,-0.00019683,-0.00071272,-0.00111840,-0.00044245,0.
 00053160,0.00047953,0.00022249,0.00006917,0.00007812,-0.00007445,-0.00
 012887,0.00005064,0.00006334,-0.00055750,-0.00068245,0.00058622,0.1311
 8634,0.03527512,0.22039253,0.00019990,0.00079413,0.00014987,-0.0031157
 0,0.01395299,-0.00498087,0.00098553,-0.00205140,-0.00036206,-0.0026387
 1,-0.00041972,0.00045248,0.00043374,0.00078920,0.00035353,-0.00299453,
 -0.00373668,0.00333853,0.00286931,0.00436654,-0.00053401,0.00609819,-0
 .02704279,0.00942019,-0.06284682,0.06109170,-0.02653964,-0.00028468,-0
 .00019582,0.00041579,0.00027095,-0.00003169,0.00010593,-0.00028814,-0.
 00022133,0.00017002,-0.00006819,-0.00017000,-0.00002425,0.00039141,0.0
 0025327,0.00040012,-0.00000451,0.00021907,-0.00003635,-0.00037911,-0.0
 0063433,-0.00134961,-0.00060660,0.00016281,0.00015656,-0.00491351,0.01
 813291,-0.00788384,0.06689148,-0.00030026,-0.00086052,-0.00035877,0.00
 334598,-0.01438320,0.00420054,0.00012232,0.00185199,0.00066835,0.00136
 476,-0.00077737,0.00085871,-0.00034476,-0.00088430,-0.00101532,0.00026
 251,-0.00205479,0.00145265,0.00050488,0.00276105,-0.00103845,0.0025249
 9,-0.01401156,0.00560404,0.06021824,-0.24927212,0.08763470,0.00030702,
 0.00005219,-0.00013909,0.00001417,0.00004452,0.00005518,0.00033466,0.0
 0015686,-0.00000337,-0.00008439,0.00023463,-0.00013256,-0.00072630,-0.
 00046852,-0.00062607,0.00006509,-0.00028437,0.00012960,-0.00048098,-0.
 00013600,-0.00071467,-0.00067070,-0.00055607,0.00023026,-0.00119838,0.
 00516577,-0.00198938,-0.06525887,0.27342180,-0.00038262,-0.00041913,-0
 .00033114,0.00475257,-0.02145044,0.00690576,0.00037732,0.00134934,0.00
 262046,0.00287508,-0.00245936,-0.00091886,-0.00089311,-0.00138234,-0.0
 0088209,0.00100128,-0.00079606,-0.00212144,0.00053502,-0.00168242,0.00
 190740,-0.00351135,0.00960766,-0.00380106,-0.02586610,0.08924605,-0.08
 274145,0.00023311,0.00009493,-0.00008722,0.00014093,-0.00003092,0.0000
 0374,0.00012149,0.00023491,0.00009415,0.00015410,0.00027774,0.00011866
 ,-0.00072553,0.00022793,-0.00033303,0.00008588,-0.00053686,0.00007179,
 -0.00010402,-0.00000446,0.00028217,0.00049203,0.00023922,-0.00014905,-
 0.00603369,0.02230056,-0.00968773,0.02674761,-0.09481636,0.08904894\\-
 0.00000629,0.00000861,0.00000464,0.00001300,-0.00000027,0.00000560,0.0
 0000895,0.00000103,-0.00002956,-0.00002224,0.00000592,0.00001494,0.000
 00684,0.00000475,0.00000187,0.00000098,-0.00002787,-0.00000832,-0.0000
 0287,0.00000028,-0.00000326,0.00000862,0.00001004,-0.00000299,-0.00001
 078,-0.00000446,-0.00000087,0.00000430,-0.00000084,0.00000414,-0.00000
 092,0.00000036,0.00000369,-0.00000004,0.00000108,0.00000279,0.00000303
 ,0.00000016,0.00000516,0.00000087,0.00000422,0.00000936,0.00000118,-0.
 00000179,-0.00000515,0.00000035,0.00000106,-0.00000377,-0.00000303,-0.
 00000202,-0.00000336,-0.00000323,-0.00000185,0.00000490,0.00000128,0.0
 0000161,0.00000020\\\@


 THE HURRIEDER I GO, THE BEHINDER I GET.
 Job cpu time:       0 days  0 hours 48 minutes 38.3 seconds.
 File lengths (MBytes):  RWF=    152 Int=      0 D2E=      0 Chk=      8 Scr=      1
 Normal termination of Gaussian 09 at Mon Jan 27 18:04:02 2020.
