 Entering Gaussian System, Link 0=/home/puck/opt/gaussian_09/g09
 Input=dsC7O2H10nsd_1948.com
 Output=dsC7O2H10nsd_1948.log
 Initial command:
 /home/puck/opt/gaussian_09/l1.exe "/scratch/puck/g09_88f485a7-e108-4f34-aae1-a34d519987b5/Gau-79102.inp" -scrdir="/scratch/puck/g09_88f485a7-e108-4f34-aae1-a34d519987b5/"
 Entering Link 1 = /home/puck/opt/gaussian_09/l1.exe PID=     79108.
  
 Copyright (c) 1988,1990,1992,1993,1995,1998,2003,2009,2013,
            Gaussian, Inc.  All Rights Reserved.
  
 This is part of the Gaussian(R) 09 program.  It is based on
 the Gaussian(R) 03 system (copyright 2003, Gaussian, Inc.),
 the Gaussian(R) 98 system (copyright 1998, Gaussian, Inc.),
 the Gaussian(R) 94 system (copyright 1995, Gaussian, Inc.),
 the Gaussian 92(TM) system (copyright 1992, Gaussian, Inc.),
 the Gaussian 90(TM) system (copyright 1990, Gaussian, Inc.),
 the Gaussian 88(TM) system (copyright 1988, Gaussian, Inc.),
 the Gaussian 86(TM) system (copyright 1986, Carnegie Mellon
 University), and the Gaussian 82(TM) system (copyright 1983,
 Carnegie Mellon University). Gaussian is a federally registered
 trademark of Gaussian, Inc.
  
 This software contains proprietary and confidential information,
 including trade secrets, belonging to Gaussian, Inc.
  
 This software is provided under written license and may be
 used, copied, transmitted, or stored only in accord with that
 written license.
  
 The following legend is applicable only to US Government
 contracts under FAR:
  
                    RESTRICTED RIGHTS LEGEND
  
 Use, reproduction and disclosure by the US Government is
 subject to restrictions as set forth in subparagraphs (a)
 and (c) of the Commercial Computer Software - Restricted
 Rights clause in FAR 52.227-19.
  
 Gaussian, Inc.
 340 Quinnipiac St., Bldg. 40, Wallingford CT 06492
  
  
 ---------------------------------------------------------------
 Warning -- This program may not be used in any manner that
 competes with the business of Gaussian, Inc. or will provide
 assistance to any competitor of Gaussian, Inc.  The licensee
 of this program is prohibited from giving any competitor of
 Gaussian, Inc. access to this program.  By using this program,
 the user acknowledges that Gaussian, Inc. is engaged in the
 business of creating and licensing software in the field of
 computational chemistry and represents and warrants to the
 licensee that it is not a competitor of Gaussian, Inc. and that
 it will not use this program in any manner prohibited above.
 ---------------------------------------------------------------
  

 Cite this work as:
 Gaussian 09, Revision D.01,
 M. J. Frisch, G. W. Trucks, H. B. Schlegel, G. E. Scuseria, 
 M. A. Robb, J. R. Cheeseman, G. Scalmani, V. Barone, B. Mennucci, 
 G. A. Petersson, H. Nakatsuji, M. Caricato, X. Li, H. P. Hratchian, 
 A. F. Izmaylov, J. Bloino, G. Zheng, J. L. Sonnenberg, M. Hada, 
 M. Ehara, K. Toyota, R. Fukuda, J. Hasegawa, M. Ishida, T. Nakajima, 
 Y. Honda, O. Kitao, H. Nakai, T. Vreven, J. A. Montgomery, Jr., 
 J. E. Peralta, F. Ogliaro, M. Bearpark, J. J. Heyd, E. Brothers, 
 K. N. Kudin, V. N. Staroverov, T. Keith, R. Kobayashi, J. Normand, 
 K. Raghavachari, A. Rendell, J. C. Burant, S. S. Iyengar, J. Tomasi, 
 M. Cossi, N. Rega, J. M. Millam, M. Klene, J. E. Knox, J. B. Cross, 
 V. Bakken, C. Adamo, J. Jaramillo, R. Gomperts, R. E. Stratmann, 
 O. Yazyev, A. J. Austin, R. Cammi, C. Pomelli, J. W. Ochterski, 
 R. L. Martin, K. Morokuma, V. G. Zakrzewski, G. A. Voth, 
 P. Salvador, J. J. Dannenberg, S. Dapprich, A. D. Daniels, 
 O. Farkas, J. B. Foresman, J. V. Ortiz, J. Cioslowski, 
 and D. J. Fox, Gaussian, Inc., Wallingford CT, 2013.
 
 ******************************************
 Gaussian 09:  ES64L-G09RevD.01 24-Apr-2013
                27-Jan-2020 
 ******************************************
 -----------------------------
 # b3lyp 6-31G(2df,p) opt Freq
 -----------------------------
 1/14=-1,18=20,19=15,26=3,38=1/1,3;
 2/9=110,12=2,17=6,18=5,40=1/2;
 3/5=1,6=6,7=104,11=2,16=1,25=1,30=1,71=1,74=-5/1,2,3;
 4//1;
 5/5=2,38=5/2;
 6/7=2,8=2,9=2,10=2,28=1/1;
 7//1,2,3,16;
 1/14=-1,18=20,19=15,26=3/3(2);
 2/9=110/2;
 99//99;
 2/9=110/2;
 3/5=1,6=6,7=104,11=2,16=1,25=1,30=1,71=1,74=-5/1,2,3;
 4/5=5,16=3,69=1/1;
 5/5=2,38=5/2;
 7//1,2,3,16;
 1/14=-1,18=20,19=15,26=3/3(-5);
 2/9=110/2;
 6/7=2,8=2,9=2,10=2,19=2,28=1/1;
 99/9=1/99;
 -----
 titel
 -----
 Symbolic Z-matrix:
 Charge =  0 Multiplicity = 1
 O                    -3.05417   2.90485   1.96858 
 C                    -2.45923   2.19755   0.92392 
 C                    -1.72644   2.93344  -0.17245 
 C                    -0.9631    2.0904    0.83577 
 C                    -0.81996   0.561     0.64172 
 O                     0.4477    0.0193    0.45075 
 C                    -1.8382    0.05089   1.74085 
 C                    -2.85266   0.71194   0.75118 
 C                    -1.91766   0.20042  -0.37963 
 H                    -3.9168    3.20935   1.66628 
 H                    -1.794     2.66156  -1.21919 
 H                    -1.64928   4.00264   0.00021 
 H                    -0.32368   2.58347   1.56101 
 H                     1.04501   0.39917   1.10356 
 H                    -1.90332  -1.03932   1.77785 
 H                    -1.77145   0.47853   2.74437 
 H                    -3.9157    0.47345   0.76381 
 H                    -1.99405  -0.88179  -0.50099 
 H                    -1.92538   0.68022  -1.35842 
 

 GradGradGradGradGradGradGradGradGradGradGradGradGradGradGradGradGradGrad
 Berny optimization.
 Initialization pass.
                           ----------------------------
                           !    Initial Parameters    !
                           ! (Angstroms and Degrees)  !
 --------------------------                            --------------------------
 ! Name  Definition              Value          Derivative Info.                !
 --------------------------------------------------------------------------------
 ! R1    R(1,2)                  1.3948         estimate D2E/DX2                !
 ! R2    R(1,10)                 0.9634         estimate D2E/DX2                !
 ! R3    R(2,3)                  1.5101         estimate D2E/DX2                !
 ! R4    R(2,4)                  1.5026         estimate D2E/DX2                !
 ! R5    R(2,8)                  1.5465         estimate D2E/DX2                !
 ! R6    R(3,4)                  1.5198         estimate D2E/DX2                !
 ! R7    R(3,11)                 1.0836         estimate D2E/DX2                !
 ! R8    R(3,12)                 1.0858         estimate D2E/DX2                !
 ! R9    R(4,5)                  1.5483         estimate D2E/DX2                !
 ! R10   R(4,13)                 1.0853         estimate D2E/DX2                !
 ! R11   R(5,6)                  1.3917         estimate D2E/DX2                !
 ! R12   R(5,7)                  1.5828         estimate D2E/DX2                !
 ! R13   R(5,9)                  1.5421         estimate D2E/DX2                !
 ! R14   R(6,14)                 0.9629         estimate D2E/DX2                !
 ! R15   R(7,8)                  1.5638         estimate D2E/DX2                !
 ! R16   R(7,15)                 1.0928         estimate D2E/DX2                !
 ! R17   R(7,16)                 1.0929         estimate D2E/DX2                !
 ! R18   R(8,9)                  1.5539         estimate D2E/DX2                !
 ! R19   R(8,17)                 1.0895         estimate D2E/DX2                !
 ! R20   R(9,18)                 1.0917         estimate D2E/DX2                !
 ! R21   R(9,19)                 1.0901         estimate D2E/DX2                !
 ! A1    A(2,1,10)             107.8878         estimate D2E/DX2                !
 ! A2    A(1,2,3)              120.2394         estimate D2E/DX2                !
 ! A3    A(1,2,4)              120.3186         estimate D2E/DX2                !
 ! A4    A(1,2,8)              117.5335         estimate D2E/DX2                !
 ! A5    A(3,2,8)              120.6949         estimate D2E/DX2                !
 ! A6    A(4,2,8)              100.2679         estimate D2E/DX2                !
 ! A7    A(2,3,11)             123.2844         estimate D2E/DX2                !
 ! A8    A(2,3,12)             113.5085         estimate D2E/DX2                !
 ! A9    A(4,3,11)             122.2053         estimate D2E/DX2                !
 ! A10   A(4,3,12)             113.8931         estimate D2E/DX2                !
 ! A11   A(11,3,12)            113.8984         estimate D2E/DX2                !
 ! A12   A(2,4,5)               99.7791         estimate D2E/DX2                !
 ! A13   A(2,4,13)             120.9995         estimate D2E/DX2                !
 ! A14   A(3,4,5)              120.7447         estimate D2E/DX2                !
 ! A15   A(3,4,13)             119.1554         estimate D2E/DX2                !
 ! A16   A(5,4,13)             118.5575         estimate D2E/DX2                !
 ! A17   A(4,5,6)              119.0706         estimate D2E/DX2                !
 ! A18   A(4,5,7)               99.8953         estimate D2E/DX2                !
 ! A19   A(4,5,9)              104.3691         estimate D2E/DX2                !
 ! A20   A(6,5,7)              123.7681         estimate D2E/DX2                !
 ! A21   A(6,5,9)              117.8059         estimate D2E/DX2                !
 ! A22   A(7,5,9)               85.7929         estimate D2E/DX2                !
 ! A23   A(5,6,14)             108.5683         estimate D2E/DX2                !
 ! A24   A(5,7,8)               80.8869         estimate D2E/DX2                !
 ! A25   A(5,7,15)             112.5436         estimate D2E/DX2                !
 ! A26   A(5,7,16)             118.1806         estimate D2E/DX2                !
 ! A27   A(8,7,15)             113.8593         estimate D2E/DX2                !
 ! A28   A(8,7,16)             117.0853         estimate D2E/DX2                !
 ! A29   A(15,7,16)            111.2803         estimate D2E/DX2                !
 ! A30   A(2,8,7)               99.8087         estimate D2E/DX2                !
 ! A31   A(2,8,9)              104.1483         estimate D2E/DX2                !
 ! A32   A(2,8,17)             117.2057         estimate D2E/DX2                !
 ! A33   A(7,8,9)               86.0467         estimate D2E/DX2                !
 ! A34   A(7,8,17)             122.2122         estimate D2E/DX2                !
 ! A35   A(9,8,17)             121.5649         estimate D2E/DX2                !
 ! A36   A(5,9,8)               82.4938         estimate D2E/DX2                !
 ! A37   A(5,9,18)             110.808          estimate D2E/DX2                !
 ! A38   A(5,9,19)             119.7894         estimate D2E/DX2                !
 ! A39   A(8,9,18)             111.4155         estimate D2E/DX2                !
 ! A40   A(8,9,19)             120.2827         estimate D2E/DX2                !
 ! A41   A(18,9,19)            109.634          estimate D2E/DX2                !
 ! D1    D(10,1,2,3)            82.8711         estimate D2E/DX2                !
 ! D2    D(10,1,2,4)           154.3592         estimate D2E/DX2                !
 ! D3    D(10,1,2,8)           -83.112          estimate D2E/DX2                !
 ! D4    D(1,2,3,11)          -139.3267         estimate D2E/DX2                !
 ! D5    D(1,2,3,12)             5.1661         estimate D2E/DX2                !
 ! D6    D(8,2,3,11)            26.2094         estimate D2E/DX2                !
 ! D7    D(8,2,3,12)           170.7022         estimate D2E/DX2                !
 ! D8    D(1,2,4,5)            130.1448         estimate D2E/DX2                !
 ! D9    D(1,2,4,13)            -1.882          estimate D2E/DX2                !
 ! D10   D(8,2,4,5)             -0.4088         estimate D2E/DX2                !
 ! D11   D(8,2,4,13)          -132.4356         estimate D2E/DX2                !
 ! D12   D(1,2,8,7)            -85.9518         estimate D2E/DX2                !
 ! D13   D(1,2,8,9)           -174.3144         estimate D2E/DX2                !
 ! D14   D(1,2,8,17)            48.2452         estimate D2E/DX2                !
 ! D15   D(3,2,8,7)            108.1321         estimate D2E/DX2                !
 ! D16   D(3,2,8,9)             19.7695         estimate D2E/DX2                !
 ! D17   D(3,2,8,17)          -117.6708         estimate D2E/DX2                !
 ! D18   D(4,2,8,7)             46.3463         estimate D2E/DX2                !
 ! D19   D(4,2,8,9)            -42.0163         estimate D2E/DX2                !
 ! D20   D(4,2,8,17)          -179.4567         estimate D2E/DX2                !
 ! D21   D(11,3,4,5)           -29.0704         estimate D2E/DX2                !
 ! D22   D(11,3,4,13)          136.564          estimate D2E/DX2                !
 ! D23   D(12,3,4,5)          -172.4574         estimate D2E/DX2                !
 ! D24   D(12,3,4,13)           -6.823          estimate D2E/DX2                !
 ! D25   D(2,4,5,6)            177.1415         estimate D2E/DX2                !
 ! D26   D(2,4,5,7)            -44.9112         estimate D2E/DX2                !
 ! D27   D(2,4,5,9)             43.2444         estimate D2E/DX2                !
 ! D28   D(3,4,5,6)            116.397          estimate D2E/DX2                !
 ! D29   D(3,4,5,7)           -105.6557         estimate D2E/DX2                !
 ! D30   D(3,4,5,9)            -17.5002         estimate D2E/DX2                !
 ! D31   D(13,4,5,6)           -49.3216         estimate D2E/DX2                !
 ! D32   D(13,4,5,7)            88.6257         estimate D2E/DX2                !
 ! D33   D(13,4,5,9)           176.7813         estimate D2E/DX2                !
 ! D34   D(4,5,6,14)            46.3373         estimate D2E/DX2                !
 ! D35   D(7,5,6,14)           -81.1242         estimate D2E/DX2                !
 ! D36   D(9,5,6,14)           174.2296         estimate D2E/DX2                !
 ! D37   D(4,5,7,8)             67.5788         estimate D2E/DX2                !
 ! D38   D(4,5,7,15)           179.7249         estimate D2E/DX2                !
 ! D39   D(4,5,7,16)           -48.3471         estimate D2E/DX2                !
 ! D40   D(6,5,7,8)           -157.1895         estimate D2E/DX2                !
 ! D41   D(6,5,7,15)           -45.0434         estimate D2E/DX2                !
 ! D42   D(6,5,7,16)            86.8846         estimate D2E/DX2                !
 ! D43   D(9,5,7,8)            -36.2938         estimate D2E/DX2                !
 ! D44   D(9,5,7,15)            75.8523         estimate D2E/DX2                !
 ! D45   D(9,5,7,16)          -152.2197         estimate D2E/DX2                !
 ! D46   D(4,5,9,8)            -62.7611         estimate D2E/DX2                !
 ! D47   D(4,5,9,18)          -172.8763         estimate D2E/DX2                !
 ! D48   D(4,5,9,19)            57.9454         estimate D2E/DX2                !
 ! D49   D(6,5,9,8)            162.6386         estimate D2E/DX2                !
 ! D50   D(6,5,9,18)            52.5234         estimate D2E/DX2                !
 ! D51   D(6,5,9,19)           -76.6549         estimate D2E/DX2                !
 ! D52   D(7,5,9,8)             36.3896         estimate D2E/DX2                !
 ! D53   D(7,5,9,18)           -73.7256         estimate D2E/DX2                !
 ! D54   D(7,5,9,19)           157.0961         estimate D2E/DX2                !
 ! D55   D(5,7,8,2)            -67.7301         estimate D2E/DX2                !
 ! D56   D(5,7,8,9)             35.9619         estimate D2E/DX2                !
 ! D57   D(5,7,8,17)           161.1757         estimate D2E/DX2                !
 ! D58   D(15,7,8,2)          -178.4391         estimate D2E/DX2                !
 ! D59   D(15,7,8,9)           -74.7471         estimate D2E/DX2                !
 ! D60   D(15,7,8,17)           50.4667         estimate D2E/DX2                !
 ! D61   D(16,7,8,2)            49.3458         estimate D2E/DX2                !
 ! D62   D(16,7,8,9)           153.0378         estimate D2E/DX2                !
 ! D63   D(16,7,8,17)          -81.7484         estimate D2E/DX2                !
 ! D64   D(2,8,9,5)             62.2419         estimate D2E/DX2                !
 ! D65   D(2,8,9,18)           171.7051         estimate D2E/DX2                !
 ! D66   D(2,8,9,19)           -57.9798         estimate D2E/DX2                !
 ! D67   D(7,8,9,5)            -36.8888         estimate D2E/DX2                !
 ! D68   D(7,8,9,18)            72.5745         estimate D2E/DX2                !
 ! D69   D(7,8,9,19)          -157.1105         estimate D2E/DX2                !
 ! D70   D(17,8,9,5)          -162.6673         estimate D2E/DX2                !
 ! D71   D(17,8,9,18)          -53.204          estimate D2E/DX2                !
 ! D72   D(17,8,9,19)           77.1111         estimate D2E/DX2                !
 --------------------------------------------------------------------------------
 Trust Radius=3.00D-01 FncErr=1.00D-07 GrdErr=1.00D-06
 Number of steps in this run=    114 maximum allowed number of steps=    114.
 GradGradGradGradGradGradGradGradGradGradGradGradGradGradGradGradGradGrad

                          Input orientation:                          
 ---------------------------------------------------------------------
 Center     Atomic      Atomic             Coordinates (Angstroms)
 Number     Number       Type             X           Y           Z
 ---------------------------------------------------------------------
      1          8           0       -3.054174    2.904855    1.968585
      2          6           0       -2.459234    2.197555    0.923915
      3          6           0       -1.726442    2.933444   -0.172451
      4          6           0       -0.963100    2.090403    0.835768
      5          6           0       -0.819961    0.560996    0.641716
      6          8           0        0.447702    0.019300    0.450748
      7          6           0       -1.838203    0.050885    1.740848
      8          6           0       -2.852659    0.711940    0.751178
      9          6           0       -1.917657    0.200421   -0.379628
     10          1           0       -3.916799    3.209349    1.666278
     11          1           0       -1.794002    2.661565   -1.219190
     12          1           0       -1.649281    4.002641    0.000210
     13          1           0       -0.323677    2.583473    1.561010
     14          1           0        1.045011    0.399169    1.103562
     15          1           0       -1.903323   -1.039323    1.777849
     16          1           0       -1.771451    0.478532    2.744369
     17          1           0       -3.915703    0.473450    0.763814
     18          1           0       -1.994050   -0.881791   -0.500995
     19          1           0       -1.925385    0.680222   -1.358424
 ---------------------------------------------------------------------
                    Distance matrix (angstroms):
                    1          2          3          4          5
     1  O    0.000000
     2  C    1.394834   0.000000
     3  C    2.519469   1.510145   0.000000
     4  C    2.513801   1.502553   1.519841   0.000000
     5  C    3.499423   2.333490   2.667037   1.548299   0.000000
     6  O    4.784704   3.663190   3.688837   2.535364   1.391716
     7  C    3.110562   2.379338   3.461554   2.396791   1.582758
     8  C    2.516260   1.546503   2.656414   2.340459   2.041232
     9  C    3.757624   2.445623   2.747526   2.441392   1.542107
    10  H    0.963446   1.923363   2.873101   3.265903   4.201655
    11  H    3.436442   2.291449   1.083580   2.288990   2.970541
    12  H    2.655816   2.183482   1.085794   2.196738   3.597808
    13  H    2.779392   2.261730   2.257237   1.085337   2.276359
    14  H    4.881603   3.942867   3.966323   2.639033   1.928111
    15  H    4.113074   3.393467   4.429203   3.400988   2.241761
    16  H    2.852063   2.596562   3.812671   2.625703   2.309391
    17  H    2.847005   2.262625   3.423599   3.367131   3.099385
    18  H    4.643423   3.424783   3.838695   3.418147   2.183096
    19  H    4.158382   2.792197   2.554040   2.780122   2.288391
                    6          7          8          9         10
     6  O    0.000000
     7  C    2.625017   0.000000
     8  C    3.385615   1.563829   0.000000
     9  C    2.513414   2.127227   1.553900   0.000000
    10  H    5.541010   3.781801   2.864761   4.151620   0.000000
    11  H    3.846491   3.947078   2.967178   2.603340   3.623846
    12  H    4.524084   4.322255   3.583404   3.830559   2.923479
    13  H    2.898740   2.956371   3.248724   3.462049   3.648743
    14  H    0.962937   2.973274   3.926045   3.319150   5.730037
    15  H    2.899861   1.092777   2.241029   2.488349   4.702951
    16  H    3.224319   1.092883   2.279539   3.139758   3.636229
    17  H    4.398131   2.334344   1.089541   2.318230   2.880901
    18  H    2.771269   2.433112   2.201165   1.091673   5.013129
    19  H    3.056380   3.163724   2.304618   1.090096   4.417130
                   11         12         13         14         15
    11  H    0.000000
    12  H    1.818342   0.000000
    13  H    3.146024   2.491457   0.000000
    14  H    4.309711   4.632668   2.617967   0.000000
    15  H    4.763482   5.352190   3.958150   3.349119   0.000000
    16  H    4.525035   4.468185   2.815522   3.260523   1.804283
    17  H    3.636175   4.263209   4.241505   4.972889   2.714115
    18  H    3.620938   4.922170   4.364638   3.667609   2.286083
    19  H    1.990570   3.600082   3.835482   3.868283   3.576804
                   16         17         18         19
    16  H    0.000000
    17  H    2.918979   0.000000
    18  H    3.525964   2.670050   0.000000
    19  H    4.110631   2.916850   1.783195   0.000000
 Stoichiometry    C7H10O2
 Framework group  C1[X(C7H10O2)]
 Deg. of freedom    51
 Full point group                 C1      NOp   1
 Largest Abelian subgroup         C1      NOp   1
 Largest concise Abelian subgroup C1      NOp   1
                         Standard orientation:                         
 ---------------------------------------------------------------------
 Center     Atomic      Atomic             Coordinates (Angstroms)
 Number     Number       Type             X           Y           Z
 ---------------------------------------------------------------------
      1          8           0       -2.303319    0.333065   -0.698887
      2          6           0       -1.194537   -0.014801    0.072573
      3          6           0       -1.072268   -1.407298    0.644009
      4          6           0       -0.152116   -0.948122   -0.475095
      5          6           0        1.124112   -0.128416   -0.164363
      6          8           0        2.368378   -0.674086   -0.465891
      7          6           0        0.651505    1.303500   -0.645382
      8          6           0       -0.294192    1.131998    0.588232
      9          6           0        0.899024    0.402763    1.265769
     10          1           0       -3.018306    0.571570   -0.098773
     11          1           0       -0.708427   -1.609727    1.644403
     12          1           0       -1.859689   -2.079993    0.317823
     13          1           0       -0.258696   -1.388290   -1.461426
     14          1           0        2.334197   -1.042930   -1.354728
     15          1           0        1.421770    2.066582   -0.509145
     16          1           0        0.178557    1.388140   -1.626988
     17          1           0       -0.788968    1.978746    1.062905
     18          1           0        1.686785    1.104080    1.547438
     19          1           0        0.723142   -0.297758    2.082252
 ---------------------------------------------------------------------
 Rotational constants (GHZ):      2.9972390      1.5449443      1.3847312
 Standard basis: 6-31G(2df,p) (6D, 7F)
 There are   329 symmetry adapted cartesian basis functions of A   symmetry.
 There are   302 symmetry adapted basis functions of A   symmetry.
   302 basis functions,   466 primitive gaussians,   329 cartesian basis functions
    34 alpha electrons       34 beta electrons
       nuclear repulsion energy       482.3817090921 Hartrees.
 NAtoms=   19 NActive=   19 NUniq=   19 SFac= 1.00D+00 NAtFMM=   60 NAOKFM=F Big=F
 Integral buffers will be    131072 words long.
 Raffenetti 2 integral format.
 Two-electron integral symmetry is turned on.
 One-electron integrals computed using PRISM.
 NBasis=   302 RedAO= T EigKep=  3.60D-04  NBF=   302
 NBsUse=   302 1.00D-06 EigRej= -1.00D+00 NBFU=   302
 ExpMin= 1.61D-01 ExpMax= 5.48D+03 ExpMxC= 8.25D+02 IAcc=1 IRadAn=         1 AccDes= 0.00D+00
 Harris functional with IExCor=  402 and IRadAn=       1 diagonalized for initial guess.
 HarFok:  IExCor=  402 AccDes= 0.00D+00 IRadAn=         1 IDoV= 1 UseB2=F ITyADJ=14
 ICtDFT=  3500011 ScaDFX=  1.000000  1.000000  1.000000  1.000000
 FoFCou: FMM=F IPFlag=           0 FMFlag=      100000 FMFlg1=           0
         NFxFlg=           0 DoJE=T BraDBF=F KetDBF=T FulRan=T
         wScrn=  0.000000 ICntrl=     500 IOpCl=  0 I1Cent=   200000004 NGrid=           0
         NMat0=    1 NMatS0=      1 NMatT0=    0 NMatD0=    1 NMtDS0=    0 NMtDT0=    0
 Petite list used in FoFCou.
 Requested convergence on RMS density matrix=1.00D-08 within 128 cycles.
 Requested convergence on MAX density matrix=1.00D-06.
 Requested convergence on             energy=1.00D-06.
 No special actions if energy rises.
 Integral accuracy reduced to 1.0D-05 until final iterations.
 Initial convergence to 1.0D-05 achieved.  Increase integral accuracy.
 SCF Done:  E(RB3LYP) =  -423.139329693     A.U. after   13 cycles
            NFock= 13  Conv=0.44D-08     -V/T= 2.0073

 **********************************************************************

            Population analysis using the SCF density.

 **********************************************************************

 Orbital symmetries:
       Occupied  (A) (A) (A) (A) (A) (A) (A) (A) (A) (A) (A) (A)
                 (A) (A) (A) (A) (A) (A) (A) (A) (A) (A) (A) (A)
                 (A) (A) (A) (A) (A) (A) (A) (A) (A) (A)
       Virtual   (A) (A) (A) (A) (A) (A) (A) (A) (A) (A) (A) (A)
                 (A) (A) (A) (A) (A) (A) (A) (A) (A) (A) (A) (A)
                 (A) (A) (A) (A) (A) (A) (A) (A) (A) (A) (A) (A)
                 (A) (A) (A) (A) (A) (A) (A) (A) (A) (A) (A) (A)
                 (A) (A) (A) (A) (A) (A) (A) (A) (A) (A) (A) (A)
                 (A) (A) (A) (A) (A) (A) (A) (A) (A) (A) (A) (A)
                 (A) (A) (A) (A) (A) (A) (A) (A) (A) (A) (A) (A)
                 (A) (A) (A) (A) (A) (A) (A) (A) (A) (A) (A) (A)
                 (A) (A) (A) (A) (A) (A) (A) (A) (A) (A) (A) (A)
                 (A) (A) (A) (A) (A) (A) (A) (A) (A) (A) (A) (A)
                 (A) (A) (A) (A) (A) (A) (A) (A) (A) (A) (A) (A)
                 (A) (A) (A) (A) (A) (A) (A) (A) (A) (A) (A) (A)
                 (A) (A) (A) (A) (A) (A) (A) (A) (A) (A) (A) (A)
                 (A) (A) (A) (A) (A) (A) (A) (A) (A) (A) (A) (A)
                 (A) (A) (A) (A) (A) (A) (A) (A) (A) (A) (A) (A)
                 (A) (A) (A) (A) (A) (A) (A) (A) (A) (A) (A) (A)
                 (A) (A) (A) (A) (A) (A) (A) (A) (A) (A) (A) (A)
                 (A) (A) (A) (A) (A) (A) (A) (A) (A) (A) (A) (A)
                 (A) (A) (A) (A) (A) (A) (A) (A) (A) (A) (A) (A)
                 (A) (A) (A) (A) (A) (A) (A) (A) (A) (A) (A) (A)
                 (A) (A) (A) (A) (A) (A) (A) (A) (A) (A) (A) (A)
                 (A) (A) (A) (A) (A) (A) (A) (A) (A) (A) (A) (A)
                 (A) (A) (A) (A)
 The electronic state is 1-A.
 Alpha  occ. eigenvalues --  -19.14342 -19.13883 -10.24179 -10.23458 -10.19355
 Alpha  occ. eigenvalues --  -10.18511 -10.18342 -10.17900 -10.17530  -1.03070
 Alpha  occ. eigenvalues --   -1.02413  -0.89828  -0.80074  -0.66533  -0.66039
 Alpha  occ. eigenvalues --   -0.61545  -0.56228  -0.55253  -0.52202  -0.49494
 Alpha  occ. eigenvalues --   -0.48702  -0.43177  -0.41812  -0.39986  -0.39380
 Alpha  occ. eigenvalues --   -0.37794  -0.35561  -0.34711  -0.33099  -0.32263
 Alpha  occ. eigenvalues --   -0.30339  -0.26944  -0.25091  -0.24552
 Alpha virt. eigenvalues --    0.07689   0.08342   0.10681   0.11694   0.11975
 Alpha virt. eigenvalues --    0.13209   0.14451   0.15842   0.16641   0.18116
 Alpha virt. eigenvalues --    0.18959   0.20423   0.21726   0.22785   0.23293
 Alpha virt. eigenvalues --    0.24431   0.26554   0.27986   0.30965   0.32530
 Alpha virt. eigenvalues --    0.35747   0.43536   0.45861   0.47271   0.48398
 Alpha virt. eigenvalues --    0.50324   0.50973   0.52449   0.53028   0.54172
 Alpha virt. eigenvalues --    0.54686   0.55179   0.56974   0.58199   0.59748
 Alpha virt. eigenvalues --    0.62045   0.64072   0.66187   0.67544   0.69548
 Alpha virt. eigenvalues --    0.71021   0.71941   0.74299   0.75940   0.76294
 Alpha virt. eigenvalues --    0.76550   0.77818   0.80243   0.81721   0.83248
 Alpha virt. eigenvalues --    0.84880   0.85794   0.87503   0.89831   0.90932
 Alpha virt. eigenvalues --    0.92853   0.93575   0.95220   0.97634   0.98026
 Alpha virt. eigenvalues --    1.01061   1.02533   1.06128   1.09822   1.12764
 Alpha virt. eigenvalues --    1.13940   1.16158   1.21118   1.21912   1.25062
 Alpha virt. eigenvalues --    1.26751   1.27044   1.30414   1.34636   1.34844
 Alpha virt. eigenvalues --    1.36958   1.40874   1.41266   1.44377   1.46383
 Alpha virt. eigenvalues --    1.48018   1.48826   1.50336   1.53313   1.55627
 Alpha virt. eigenvalues --    1.56337   1.57508   1.58235   1.59964   1.62302
 Alpha virt. eigenvalues --    1.62701   1.65115   1.67271   1.70005   1.71404
 Alpha virt. eigenvalues --    1.72893   1.77248   1.78757   1.79741   1.81314
 Alpha virt. eigenvalues --    1.82447   1.85064   1.90596   1.93884   1.95816
 Alpha virt. eigenvalues --    1.98163   1.99524   2.05017   2.14761   2.20427
 Alpha virt. eigenvalues --    2.22619   2.26192   2.28058   2.29179   2.33203
 Alpha virt. eigenvalues --    2.35947   2.38764   2.40866   2.44616   2.46867
 Alpha virt. eigenvalues --    2.51459   2.53162   2.54702   2.56919   2.58948
 Alpha virt. eigenvalues --    2.61990   2.66746   2.70337   2.73829   2.75395
 Alpha virt. eigenvalues --    2.77599   2.79111   2.81578   2.84551   2.88071
 Alpha virt. eigenvalues --    2.88677   2.90778   2.92910   2.93693   2.95023
 Alpha virt. eigenvalues --    2.97465   2.98315   3.00892   3.03340   3.06183
 Alpha virt. eigenvalues --    3.08199   3.11176   3.13835   3.15829   3.16882
 Alpha virt. eigenvalues --    3.17014   3.20281   3.23349   3.25114   3.27477
 Alpha virt. eigenvalues --    3.29380   3.29933   3.32570   3.35943   3.38539
 Alpha virt. eigenvalues --    3.38683   3.40977   3.41958   3.46057   3.52508
 Alpha virt. eigenvalues --    3.57294   3.60695   3.62838   3.68752   3.72777
 Alpha virt. eigenvalues --    3.74903   3.77489   3.81469   3.85160   3.87745
 Alpha virt. eigenvalues --    3.90970   3.92849   3.96735   3.98072   4.05350
 Alpha virt. eigenvalues --    4.07013   4.10011   4.13058   4.13615   4.14328
 Alpha virt. eigenvalues --    4.19665   4.21051   4.26244   4.28744   4.31140
 Alpha virt. eigenvalues --    4.33114   4.33656   4.37024   4.39749   4.40769
 Alpha virt. eigenvalues --    4.43688   4.48069   4.48190   4.51293   4.53175
 Alpha virt. eigenvalues --    4.55556   4.57764   4.60360   4.62354   4.64244
 Alpha virt. eigenvalues --    4.66218   4.68840   4.70623   4.71035   4.72045
 Alpha virt. eigenvalues --    4.74250   4.76087   4.77329   4.78399   4.81809
 Alpha virt. eigenvalues --    4.83048   4.87351   4.88527   4.92012   4.92953
 Alpha virt. eigenvalues --    4.95228   4.97434   4.99943   5.04258   5.06630
 Alpha virt. eigenvalues --    5.10587   5.13171   5.15713   5.19370   5.22502
 Alpha virt. eigenvalues --    5.28035   5.28791   5.36805   5.38191   5.39325
 Alpha virt. eigenvalues --    5.43831   5.44901   5.47883   5.51112   5.51877
 Alpha virt. eigenvalues --    5.57637   5.63844   5.64356   5.65841   5.68351
 Alpha virt. eigenvalues --    5.71713   5.74672   5.92059   5.96114   5.98739
 Alpha virt. eigenvalues --    6.08091   6.11931   6.13958   6.19408   6.26298
 Alpha virt. eigenvalues --    7.15821   7.24604   7.25052   7.55407  11.02426
 Alpha virt. eigenvalues --   11.54535  11.90531  12.03022  12.39850  12.85453
 Alpha virt. eigenvalues --   13.03517  13.59852  13.66237
          Condensed to atoms (all electrons):
               1          2          3          4          5          6
     1  O    7.831194   0.417185  -0.043082  -0.003641  -0.000375  -0.000004
     2  C    0.417185   4.436926   0.315392   0.227484  -0.037822   0.004264
     3  C   -0.043082   0.315392   5.229640   0.257304   0.007368   0.001191
     4  C   -0.003641   0.227484   0.257304   5.202681   0.361475  -0.051106
     5  C   -0.000375  -0.037822   0.007368   0.361475   4.374612   0.444202
     6  O   -0.000004   0.004264   0.001191  -0.051106   0.444202   7.820316
     7  C   -0.001750  -0.006532   0.012635  -0.112195   0.329928  -0.045742
     8  C   -0.054672   0.398560  -0.055654  -0.060044  -0.027529  -0.000565
     9  C    0.002367  -0.011204  -0.008837  -0.014248   0.321676  -0.010910
    10  H    0.319962  -0.078745  -0.003940   0.009334  -0.000284   0.000001
    11  H    0.001658  -0.011385   0.351729  -0.011570  -0.009603   0.000294
    12  H    0.000571  -0.003325   0.345399  -0.011538   0.002345  -0.000033
    13  H   -0.000353  -0.024136  -0.035417   0.369231  -0.042534  -0.001536
    14  H   -0.000001  -0.000236  -0.000035  -0.003404  -0.078868   0.322598
    15  H    0.000030   0.002906  -0.000643   0.006130  -0.019054   0.000228
    16  H    0.003369  -0.004442   0.000643  -0.001495  -0.017190   0.001266
    17  H   -0.000248  -0.044564   0.000788   0.009690   0.006431  -0.000074
    18  H   -0.000031   0.002815  -0.000166   0.004809  -0.019693  -0.000332
    19  H    0.000051  -0.006638   0.005560  -0.011590  -0.016538   0.000590
               7          8          9         10         11         12
     1  O   -0.001750  -0.054672   0.002367   0.319962   0.001658   0.000571
     2  C   -0.006532   0.398560  -0.011204  -0.078745  -0.011385  -0.003325
     3  C    0.012635  -0.055654  -0.008837  -0.003940   0.351729   0.345399
     4  C   -0.112195  -0.060044  -0.014248   0.009334  -0.011570  -0.011538
     5  C    0.329928  -0.027529   0.321676  -0.000284  -0.009603   0.002345
     6  O   -0.045742  -0.000565  -0.010910   0.000001   0.000294  -0.000033
     7  C    5.236354   0.330543  -0.115274  -0.000235   0.000203  -0.000369
     8  C    0.330543   5.016880   0.284283  -0.001357  -0.007200   0.004329
     9  C   -0.115274   0.284283   5.134800  -0.000129   0.002435  -0.000077
    10  H   -0.000235  -0.001357  -0.000129   0.470304   0.000477   0.000471
    11  H    0.000203  -0.007200   0.002435   0.000477   0.603106  -0.039551
    12  H   -0.000369   0.004329  -0.000077   0.000471  -0.039551   0.594651
    13  H   -0.003213   0.002383   0.006168   0.000030   0.002410  -0.005506
    14  H   -0.000095  -0.000588   0.008801   0.000000   0.000008  -0.000009
    15  H    0.348941  -0.018970  -0.006666   0.000014   0.000010   0.000009
    16  H    0.349073  -0.026791   0.010682  -0.000101   0.000005  -0.000030
    17  H   -0.040052   0.364295  -0.038775   0.002039   0.000464  -0.000049
    18  H   -0.010016  -0.016155   0.360416  -0.000004  -0.000252  -0.000003
    19  H    0.011483  -0.024310   0.352617   0.000010   0.003150  -0.000079
              13         14         15         16         17         18
     1  O   -0.000353  -0.000001   0.000030   0.003369  -0.000248  -0.000031
     2  C   -0.024136  -0.000236   0.002906  -0.004442  -0.044564   0.002815
     3  C   -0.035417  -0.000035  -0.000643   0.000643   0.000788  -0.000166
     4  C    0.369231  -0.003404   0.006130  -0.001495   0.009690   0.004809
     5  C   -0.042534  -0.078868  -0.019054  -0.017190   0.006431  -0.019693
     6  O   -0.001536   0.322598   0.000228   0.001266  -0.000074  -0.000332
     7  C   -0.003213  -0.000095   0.348941   0.349073  -0.040052  -0.010016
     8  C    0.002383  -0.000588  -0.018970  -0.026791   0.364295  -0.016155
     9  C    0.006168   0.008801  -0.006666   0.010682  -0.038775   0.360416
    10  H    0.000030   0.000000   0.000014  -0.000101   0.002039  -0.000004
    11  H    0.002410   0.000008   0.000010   0.000005   0.000464  -0.000252
    12  H   -0.005506  -0.000009   0.000009  -0.000030  -0.000049  -0.000003
    13  H    0.638417   0.003934  -0.000108   0.002718  -0.000112  -0.000104
    14  H    0.003934   0.468663  -0.000138   0.000742   0.000015  -0.000115
    15  H   -0.000108  -0.000138   0.629561  -0.039833  -0.000501   0.004585
    16  H    0.002718   0.000742  -0.039833   0.622276   0.001456   0.000010
    17  H   -0.000112   0.000015  -0.000501   0.001456   0.680292  -0.002832
    18  H   -0.000104  -0.000115   0.004585   0.000010  -0.002832   0.612811
    19  H   -0.000100  -0.000138  -0.000160  -0.000585   0.001167  -0.040881
              19
     1  O    0.000051
     2  C   -0.006638
     3  C    0.005560
     4  C   -0.011590
     5  C   -0.016538
     6  O    0.000590
     7  C    0.011483
     8  C   -0.024310
     9  C    0.352617
    10  H    0.000010
    11  H    0.003150
    12  H   -0.000079
    13  H   -0.000100
    14  H   -0.000138
    15  H   -0.000160
    16  H   -0.000585
    17  H    0.001167
    18  H   -0.040881
    19  H    0.630880
 Mulliken charges:
               1
     1  O   -0.472230
     2  C    0.423498
     3  C   -0.379875
     4  C   -0.167307
     5  C    0.421453
     6  O   -0.484646
     7  C   -0.283688
     8  C   -0.107437
     9  C   -0.278125
    10  H    0.282154
    11  H    0.113611
    12  H    0.112795
    13  H    0.087826
    14  H    0.278865
    15  H    0.093659
    16  H    0.098227
    17  H    0.060570
    18  H    0.105139
    19  H    0.095510
 Sum of Mulliken charges =   0.00000
 Mulliken charges with hydrogens summed into heavy atoms:
               1
     1  O   -0.190076
     2  C    0.423498
     3  C   -0.153469
     4  C   -0.079480
     5  C    0.421453
     6  O   -0.205781
     7  C   -0.091802
     8  C   -0.046867
     9  C   -0.077476
 Electronic spatial extent (au):  <R**2>=            998.3556
 Charge=              0.0000 electrons
 Dipole moment (field-independent basis, Debye):
    X=             -1.1550    Y=              0.0572    Z=              0.2547  Tot=              1.1841
 Quadrupole moment (field-independent basis, Debye-Ang):
   XX=            -53.7233   YY=            -52.2867   ZZ=            -50.9063
   XY=             -0.0676   XZ=             -5.3881   YZ=              2.7368
 Traceless Quadrupole moment (field-independent basis, Debye-Ang):
   XX=             -1.4179   YY=              0.0188   ZZ=              1.3991
   XY=             -0.0676   XZ=             -5.3881   YZ=              2.7368
 Octapole moment (field-independent basis, Debye-Ang**2):
  XXX=            -29.2613  YYY=             -0.9907  ZZZ=             -9.1234  XYY=             -0.9875
  XXY=              4.3279  XXZ=              0.8628  XZZ=             10.0540  YZZ=             -6.0347
  YYZ=             -2.9953  XYZ=              2.7675
 Hexadecapole moment (field-independent basis, Debye-Ang**3):
 XXXX=           -611.8376 YYYY=           -354.2211 ZZZZ=           -233.6986 XXXY=            -25.4688
 XXXZ=            -30.5305 YYYX=             -8.6017 YYYZ=              7.6834 ZZZX=            -11.2303
 ZZZY=              4.8394 XXYY=           -154.3616 XXZZ=           -143.5844 YYZZ=            -92.5904
 XXYZ=             15.8368 YYXZ=             -5.7572 ZZXY=            -10.9861
 N-N= 4.823817090921D+02 E-N=-1.951927208813D+03  KE= 4.200610308060D+02
 Calling FoFJK, ICntrl=      2127 FMM=F ISym2X=0 I1Cent= 0 IOpClX= 0 NMat=1 NMatS=1 NMatT=0.
 ***** Axes restored to original set *****
 -------------------------------------------------------------------
 Center     Atomic                   Forces (Hartrees/Bohr)
 Number     Number              X              Y              Z
 -------------------------------------------------------------------
      1        8           0.000010248   -0.000005454    0.000030334
      2        6          -0.000008560   -0.000036649    0.000003037
      3        6          -0.000005941    0.000004975   -0.000028019
      4        6           0.000015516    0.000062191    0.000015446
      5        6          -0.000012655   -0.000041525    0.000001172
      6        8          -0.000000140    0.000005657   -0.000012016
      7        6           0.000021254    0.000046350    0.000016733
      8        6          -0.000050772   -0.000033402    0.000014944
      9        6           0.000022784    0.000034659   -0.000037227
     10        1          -0.000021636   -0.000003783    0.000000640
     11        1          -0.000008840   -0.000007356    0.000009440
     12        1          -0.000025942   -0.000001735    0.000021392
     13        1           0.000009980   -0.000013334   -0.000012187
     14        1           0.000012669    0.000026183   -0.000003603
     15        1           0.000008499    0.000002152   -0.000010870
     16        1           0.000009759   -0.000012606   -0.000007505
     17        1           0.000019936   -0.000005696    0.000001586
     18        1           0.000008358   -0.000008095   -0.000005082
     19        1          -0.000004515   -0.000012532    0.000001785
 -------------------------------------------------------------------
 Cartesian Forces:  Max     0.000062191 RMS     0.000020537

 GradGradGradGradGradGradGradGradGradGradGradGradGradGradGradGradGradGrad
 Berny optimization.
 FormGI is forming the generalized inverse of G from B-inverse, IUseBI=4.
 Internal  Forces:  Max     0.000021267 RMS     0.000006587
 Search for a local minimum.
 Step number   1 out of a maximum of  114
 All quantities printed in internal units (Hartrees-Bohrs-Radians)
 Mixed Optimization -- En-DIIS/RFO-DIIS
 Second derivative matrix not updated -- first step.
 ITU=  0
     Eigenvalues ---    0.01128   0.01760   0.01785   0.01801   0.01835
     Eigenvalues ---    0.02329   0.02587   0.02697   0.02929   0.02950
     Eigenvalues ---    0.03280   0.03391   0.03784   0.04007   0.04809
     Eigenvalues ---    0.04897   0.05477   0.06231   0.06801   0.06985
     Eigenvalues ---    0.07700   0.08869   0.09305   0.10687   0.12811
     Eigenvalues ---    0.13394   0.14057   0.16000   0.16000   0.16394
     Eigenvalues ---    0.16893   0.20294   0.21465   0.22720   0.23584
     Eigenvalues ---    0.25598   0.26273   0.27817   0.30565   0.34482
     Eigenvalues ---    0.34494   0.34620   0.34802   0.34866   0.35303
     Eigenvalues ---    0.35357   0.35565   0.46488   0.47021   0.54739
     Eigenvalues ---    0.54847
 RFO step:  Lambda=-6.35172188D-08 EMin= 1.12825680D-02
 Linear search not attempted -- first point.
 Iteration  1 RMS(Cart)=  0.00013634 RMS(Int)=  0.00000001
 Iteration  2 RMS(Cart)=  0.00000001 RMS(Int)=  0.00000000
 Variable       Old X    -DE/DX   Delta X   Delta X   Delta X     New X
                                 (Linear)    (Quad)   (Total)
    R1        2.63585   0.00002   0.00000   0.00004   0.00004   2.63589
    R2        1.82065   0.00002   0.00000   0.00003   0.00003   1.82068
    R3        2.85376   0.00001   0.00000   0.00000   0.00000   2.85376
    R4        2.83941   0.00001   0.00000   0.00007   0.00007   2.83948
    R5        2.92247   0.00000   0.00000   0.00000   0.00000   2.92246
    R6        2.87208   0.00000   0.00000   0.00000   0.00000   2.87208
    R7        2.04767   0.00000   0.00000  -0.00001  -0.00001   2.04766
    R8        2.05185   0.00000   0.00000   0.00000   0.00000   2.05185
    R9        2.92586   0.00001   0.00000   0.00006   0.00006   2.92592
   R10        2.05099  -0.00001   0.00000  -0.00002  -0.00002   2.05097
   R11        2.62996   0.00000   0.00000   0.00000   0.00000   2.62996
   R12        2.99098   0.00000   0.00000  -0.00001  -0.00001   2.99097
   R13        2.91416   0.00001   0.00000   0.00000   0.00000   2.91416
   R14        1.81969   0.00001   0.00000   0.00002   0.00002   1.81971
   R15        2.95521   0.00000   0.00000  -0.00004  -0.00004   2.95517
   R16        2.06505   0.00000   0.00000  -0.00001  -0.00001   2.06504
   R17        2.06525  -0.00001   0.00000  -0.00003  -0.00003   2.06522
   R18        2.93644   0.00002   0.00000   0.00011   0.00011   2.93656
   R19        2.05893  -0.00002   0.00000  -0.00005  -0.00005   2.05889
   R20        2.06296   0.00001   0.00000   0.00003   0.00003   2.06299
   R21        2.05998  -0.00001   0.00000  -0.00002  -0.00002   2.05996
    A1        1.88300   0.00000   0.00000  -0.00002  -0.00002   1.88298
    A2        2.09857   0.00000   0.00000   0.00000   0.00000   2.09858
    A3        2.09996  -0.00001   0.00000  -0.00005  -0.00005   2.09991
    A4        2.05135   0.00000   0.00000   0.00003   0.00003   2.05138
    A5        2.10652   0.00000   0.00000  -0.00005  -0.00005   2.10647
    A6        1.75001   0.00001   0.00000   0.00009   0.00009   1.75009
    A7        2.15172  -0.00001   0.00000   0.00000   0.00000   2.15172
    A8        1.98110  -0.00001   0.00000  -0.00016  -0.00016   1.98093
    A9        2.13289   0.00000   0.00000  -0.00005  -0.00005   2.13284
   A10        1.98781  -0.00001   0.00000   0.00003   0.00003   1.98784
   A11        1.98790   0.00001   0.00000   0.00010   0.00010   1.98801
   A12        1.74147  -0.00001   0.00000  -0.00010  -0.00010   1.74138
   A13        2.11184   0.00001   0.00000   0.00018   0.00018   2.11202
   A14        2.10739  -0.00001   0.00000   0.00002   0.00002   2.10741
   A15        2.07965   0.00001   0.00000   0.00007   0.00007   2.07972
   A16        2.06922   0.00000   0.00000  -0.00009  -0.00009   2.06912
   A17        2.07817   0.00000   0.00000  -0.00007  -0.00007   2.07811
   A18        1.74350  -0.00001   0.00000  -0.00003  -0.00003   1.74347
   A19        1.82158   0.00000   0.00000  -0.00001  -0.00001   1.82157
   A20        2.16016   0.00001   0.00000   0.00002   0.00002   2.16018
   A21        2.05610   0.00000   0.00000   0.00004   0.00004   2.05614
   A22        1.49737   0.00001   0.00000   0.00009   0.00009   1.49745
   A23        1.89487  -0.00001   0.00000  -0.00004  -0.00004   1.89483
   A24        1.41174   0.00001   0.00000   0.00004   0.00004   1.41178
   A25        1.96426  -0.00001   0.00000  -0.00002  -0.00002   1.96423
   A26        2.06264   0.00000   0.00000   0.00005   0.00005   2.06269
   A27        1.98722  -0.00001   0.00000  -0.00013  -0.00013   1.98709
   A28        2.04352   0.00000   0.00000   0.00006   0.00006   2.04358
   A29        1.94221   0.00000   0.00000   0.00000   0.00000   1.94221
   A30        1.74199  -0.00001   0.00000  -0.00021  -0.00021   1.74178
   A31        1.81773   0.00000   0.00000  -0.00002  -0.00002   1.81771
   A32        2.04563   0.00000   0.00000   0.00004   0.00004   2.04567
   A33        1.50180   0.00000   0.00000   0.00006   0.00006   1.50186
   A34        2.13301   0.00001   0.00000   0.00007   0.00007   2.13307
   A35        2.12171   0.00000   0.00000   0.00002   0.00002   2.12173
   A36        1.43979   0.00000   0.00000  -0.00001  -0.00001   1.43978
   A37        1.93396   0.00000   0.00000  -0.00005  -0.00005   1.93392
   A38        2.09072   0.00001   0.00000   0.00007   0.00007   2.09079
   A39        1.94457   0.00000   0.00000  -0.00002  -0.00002   1.94455
   A40        2.09933   0.00001   0.00000   0.00007   0.00007   2.09940
   A41        1.91347   0.00000   0.00000  -0.00006  -0.00006   1.91341
    D1        1.44637   0.00000   0.00000  -0.00014  -0.00014   1.44623
    D2        2.69408  -0.00001   0.00000  -0.00018  -0.00018   2.69390
    D3       -1.45058   0.00000   0.00000  -0.00006  -0.00006  -1.45063
    D4       -2.43171  -0.00001   0.00000  -0.00011  -0.00011  -2.43182
    D5        0.09017   0.00000   0.00000  -0.00019  -0.00019   0.08998
    D6        0.45744   0.00000   0.00000  -0.00019  -0.00019   0.45725
    D7        2.97932   0.00000   0.00000  -0.00026  -0.00026   2.97905
    D8        2.27146   0.00000   0.00000  -0.00010  -0.00010   2.27136
    D9       -0.03285   0.00001   0.00000  -0.00001  -0.00001  -0.03286
   D10       -0.00714   0.00000   0.00000  -0.00019  -0.00019  -0.00733
   D11       -2.31144   0.00001   0.00000  -0.00011  -0.00011  -2.31154
   D12       -1.50014   0.00000   0.00000   0.00016   0.00016  -1.49998
   D13       -3.04236   0.00000   0.00000   0.00015   0.00015  -3.04221
   D14        0.84204   0.00000   0.00000   0.00010   0.00010   0.84213
   D15        1.88726   0.00000   0.00000   0.00024   0.00024   1.88750
   D16        0.34504   0.00000   0.00000   0.00023   0.00023   0.34527
   D17       -2.05374   0.00000   0.00000   0.00017   0.00017  -2.05357
   D18        0.80889   0.00000   0.00000   0.00020   0.00020   0.80909
   D19       -0.73332   0.00000   0.00000   0.00019   0.00019  -0.73314
   D20       -3.13211   0.00000   0.00000   0.00013   0.00013  -3.13198
   D21       -0.50737   0.00000   0.00000  -0.00018  -0.00018  -0.50756
   D22        2.38349   0.00000   0.00000  -0.00022  -0.00022   2.38327
   D23       -3.00995  -0.00001   0.00000  -0.00036  -0.00036  -3.01031
   D24       -0.11908  -0.00001   0.00000  -0.00039  -0.00039  -0.11948
   D25        3.09170   0.00000   0.00000   0.00020   0.00020   3.09191
   D26       -0.78385   0.00000   0.00000   0.00013   0.00013  -0.78371
   D27        0.75476   0.00001   0.00000   0.00021   0.00021   0.75497
   D28        2.03151   0.00001   0.00000   0.00028   0.00028   2.03179
   D29       -1.84404   0.00000   0.00000   0.00021   0.00021  -1.84383
   D30       -0.30544   0.00001   0.00000   0.00029   0.00029  -0.30514
   D31       -0.86082   0.00000   0.00000   0.00029   0.00029  -0.86053
   D32        1.54681   0.00000   0.00000   0.00022   0.00022   1.54703
   D33        3.08542   0.00001   0.00000   0.00030   0.00030   3.08572
   D34        0.80874  -0.00001   0.00000  -0.00026  -0.00026   0.80848
   D35       -1.41588   0.00000   0.00000  -0.00014  -0.00014  -1.41602
   D36        3.04088  -0.00001   0.00000  -0.00031  -0.00031   3.04057
   D37        1.17947   0.00001   0.00000   0.00010   0.00010   1.17958
   D38        3.13679   0.00000   0.00000  -0.00002  -0.00002   3.13677
   D39       -0.84382   0.00000   0.00000   0.00001   0.00001  -0.84381
   D40       -2.74347   0.00000   0.00000  -0.00002  -0.00002  -2.74350
   D41       -0.78616  -0.00001   0.00000  -0.00014  -0.00014  -0.78630
   D42        1.51642  -0.00001   0.00000  -0.00011  -0.00011   1.51631
   D43       -0.63345   0.00001   0.00000   0.00010   0.00010  -0.63335
   D44        1.32387   0.00000   0.00000  -0.00002  -0.00002   1.32385
   D45       -2.65673   0.00000   0.00000   0.00001   0.00001  -2.65673
   D46       -1.09539   0.00000   0.00000  -0.00012  -0.00012  -1.09551
   D47       -3.01726   0.00000   0.00000  -0.00010  -0.00010  -3.01736
   D48        1.01134   0.00000   0.00000  -0.00003  -0.00003   1.01131
   D49        2.83858   0.00000   0.00000  -0.00005  -0.00005   2.83853
   D50        0.91671   0.00000   0.00000  -0.00003  -0.00003   0.91668
   D51       -1.33788   0.00001   0.00000   0.00005   0.00005  -1.33784
   D52        0.63512  -0.00001   0.00000  -0.00013  -0.00013   0.63498
   D53       -1.28675  -0.00001   0.00000  -0.00011  -0.00011  -1.28687
   D54        2.74184   0.00000   0.00000  -0.00004  -0.00004   2.74180
   D55       -1.18211  -0.00001   0.00000  -0.00012  -0.00012  -1.18224
   D56        0.62765  -0.00001   0.00000  -0.00013  -0.00013   0.62753
   D57        2.81305   0.00000   0.00000  -0.00003  -0.00003   2.81302
   D58       -3.11435   0.00000   0.00000  -0.00012  -0.00012  -3.11447
   D59       -1.30458   0.00000   0.00000  -0.00012  -0.00012  -1.30470
   D60        0.88081   0.00000   0.00000  -0.00002  -0.00002   0.88079
   D61        0.86125   0.00000   0.00000  -0.00004  -0.00004   0.86121
   D62        2.67101   0.00000   0.00000  -0.00004  -0.00004   2.67097
   D63       -1.42678   0.00000   0.00000   0.00005   0.00005  -1.42672
   D64        1.08633   0.00000   0.00000  -0.00007  -0.00007   1.08626
   D65        2.99682  -0.00001   0.00000  -0.00012  -0.00012   2.99670
   D66       -1.01194  -0.00001   0.00000  -0.00017  -0.00017  -1.01210
   D67       -0.64383   0.00001   0.00000   0.00013   0.00013  -0.64370
   D68        1.26666   0.00001   0.00000   0.00007   0.00007   1.26674
   D69       -2.74209   0.00000   0.00000   0.00003   0.00003  -2.74206
   D70       -2.83908   0.00000   0.00000  -0.00001  -0.00001  -2.83909
   D71       -0.92859   0.00000   0.00000  -0.00006  -0.00006  -0.92864
   D72        1.34584   0.00000   0.00000  -0.00010  -0.00010   1.34574
         Item               Value     Threshold  Converged?
 Maximum Force            0.000021     0.000450     YES
 RMS     Force            0.000007     0.000300     YES
 Maximum Displacement     0.000547     0.001800     YES
 RMS     Displacement     0.000136     0.001200     YES
 Predicted change in Energy=-3.175896D-08
 Optimization completed.
    -- Stationary point found.
                           ----------------------------
                           !   Optimized Parameters   !
                           ! (Angstroms and Degrees)  !
 --------------------------                            --------------------------
 ! Name  Definition              Value          Derivative Info.                !
 --------------------------------------------------------------------------------
 ! R1    R(1,2)                  1.3948         -DE/DX =    0.0                 !
 ! R2    R(1,10)                 0.9634         -DE/DX =    0.0                 !
 ! R3    R(2,3)                  1.5101         -DE/DX =    0.0                 !
 ! R4    R(2,4)                  1.5026         -DE/DX =    0.0                 !
 ! R5    R(2,8)                  1.5465         -DE/DX =    0.0                 !
 ! R6    R(3,4)                  1.5198         -DE/DX =    0.0                 !
 ! R7    R(3,11)                 1.0836         -DE/DX =    0.0                 !
 ! R8    R(3,12)                 1.0858         -DE/DX =    0.0                 !
 ! R9    R(4,5)                  1.5483         -DE/DX =    0.0                 !
 ! R10   R(4,13)                 1.0853         -DE/DX =    0.0                 !
 ! R11   R(5,6)                  1.3917         -DE/DX =    0.0                 !
 ! R12   R(5,7)                  1.5828         -DE/DX =    0.0                 !
 ! R13   R(5,9)                  1.5421         -DE/DX =    0.0                 !
 ! R14   R(6,14)                 0.9629         -DE/DX =    0.0                 !
 ! R15   R(7,8)                  1.5638         -DE/DX =    0.0                 !
 ! R16   R(7,15)                 1.0928         -DE/DX =    0.0                 !
 ! R17   R(7,16)                 1.0929         -DE/DX =    0.0                 !
 ! R18   R(8,9)                  1.5539         -DE/DX =    0.0                 !
 ! R19   R(8,17)                 1.0895         -DE/DX =    0.0                 !
 ! R20   R(9,18)                 1.0917         -DE/DX =    0.0                 !
 ! R21   R(9,19)                 1.0901         -DE/DX =    0.0                 !
 ! A1    A(2,1,10)             107.8878         -DE/DX =    0.0                 !
 ! A2    A(1,2,3)              120.2394         -DE/DX =    0.0                 !
 ! A3    A(1,2,4)              120.3186         -DE/DX =    0.0                 !
 ! A4    A(1,2,8)              117.5335         -DE/DX =    0.0                 !
 ! A5    A(3,2,8)              120.6949         -DE/DX =    0.0                 !
 ! A6    A(4,2,8)              100.2679         -DE/DX =    0.0                 !
 ! A7    A(2,3,11)             123.2844         -DE/DX =    0.0                 !
 ! A8    A(2,3,12)             113.5085         -DE/DX =    0.0                 !
 ! A9    A(4,3,11)             122.2053         -DE/DX =    0.0                 !
 ! A10   A(4,3,12)             113.8931         -DE/DX =    0.0                 !
 ! A11   A(11,3,12)            113.8984         -DE/DX =    0.0                 !
 ! A12   A(2,4,5)               99.7791         -DE/DX =    0.0                 !
 ! A13   A(2,4,13)             120.9995         -DE/DX =    0.0                 !
 ! A14   A(3,4,5)              120.7447         -DE/DX =    0.0                 !
 ! A15   A(3,4,13)             119.1554         -DE/DX =    0.0                 !
 ! A16   A(5,4,13)             118.5575         -DE/DX =    0.0                 !
 ! A17   A(4,5,6)              119.0706         -DE/DX =    0.0                 !
 ! A18   A(4,5,7)               99.8953         -DE/DX =    0.0                 !
 ! A19   A(4,5,9)              104.3691         -DE/DX =    0.0                 !
 ! A20   A(6,5,7)              123.7681         -DE/DX =    0.0                 !
 ! A21   A(6,5,9)              117.8059         -DE/DX =    0.0                 !
 ! A22   A(7,5,9)               85.7929         -DE/DX =    0.0                 !
 ! A23   A(5,6,14)             108.5683         -DE/DX =    0.0                 !
 ! A24   A(5,7,8)               80.8869         -DE/DX =    0.0                 !
 ! A25   A(5,7,15)             112.5436         -DE/DX =    0.0                 !
 ! A26   A(5,7,16)             118.1806         -DE/DX =    0.0                 !
 ! A27   A(8,7,15)             113.8593         -DE/DX =    0.0                 !
 ! A28   A(8,7,16)             117.0853         -DE/DX =    0.0                 !
 ! A29   A(15,7,16)            111.2803         -DE/DX =    0.0                 !
 ! A30   A(2,8,7)               99.8087         -DE/DX =    0.0                 !
 ! A31   A(2,8,9)              104.1483         -DE/DX =    0.0                 !
 ! A32   A(2,8,17)             117.2057         -DE/DX =    0.0                 !
 ! A33   A(7,8,9)               86.0467         -DE/DX =    0.0                 !
 ! A34   A(7,8,17)             122.2122         -DE/DX =    0.0                 !
 ! A35   A(9,8,17)             121.5649         -DE/DX =    0.0                 !
 ! A36   A(5,9,8)               82.4938         -DE/DX =    0.0                 !
 ! A37   A(5,9,18)             110.808          -DE/DX =    0.0                 !
 ! A38   A(5,9,19)             119.7894         -DE/DX =    0.0                 !
 ! A39   A(8,9,18)             111.4155         -DE/DX =    0.0                 !
 ! A40   A(8,9,19)             120.2827         -DE/DX =    0.0                 !
 ! A41   A(18,9,19)            109.634          -DE/DX =    0.0                 !
 ! D1    D(10,1,2,3)            82.8711         -DE/DX =    0.0                 !
 ! D2    D(10,1,2,4)           154.3592         -DE/DX =    0.0                 !
 ! D3    D(10,1,2,8)           -83.112          -DE/DX =    0.0                 !
 ! D4    D(1,2,3,11)          -139.3267         -DE/DX =    0.0                 !
 ! D5    D(1,2,3,12)             5.1661         -DE/DX =    0.0                 !
 ! D6    D(8,2,3,11)            26.2094         -DE/DX =    0.0                 !
 ! D7    D(8,2,3,12)           170.7022         -DE/DX =    0.0                 !
 ! D8    D(1,2,4,5)            130.1448         -DE/DX =    0.0                 !
 ! D9    D(1,2,4,13)            -1.882          -DE/DX =    0.0                 !
 ! D10   D(8,2,4,5)             -0.4088         -DE/DX =    0.0                 !
 ! D11   D(8,2,4,13)          -132.4356         -DE/DX =    0.0                 !
 ! D12   D(1,2,8,7)            -85.9518         -DE/DX =    0.0                 !
 ! D13   D(1,2,8,9)           -174.3144         -DE/DX =    0.0                 !
 ! D14   D(1,2,8,17)            48.2452         -DE/DX =    0.0                 !
 ! D15   D(3,2,8,7)            108.1321         -DE/DX =    0.0                 !
 ! D16   D(3,2,8,9)             19.7695         -DE/DX =    0.0                 !
 ! D17   D(3,2,8,17)          -117.6708         -DE/DX =    0.0                 !
 ! D18   D(4,2,8,7)             46.3463         -DE/DX =    0.0                 !
 ! D19   D(4,2,8,9)            -42.0163         -DE/DX =    0.0                 !
 ! D20   D(4,2,8,17)          -179.4567         -DE/DX =    0.0                 !
 ! D21   D(11,3,4,5)           -29.0704         -DE/DX =    0.0                 !
 ! D22   D(11,3,4,13)          136.564          -DE/DX =    0.0                 !
 ! D23   D(12,3,4,5)          -172.4574         -DE/DX =    0.0                 !
 ! D24   D(12,3,4,13)           -6.823          -DE/DX =    0.0                 !
 ! D25   D(2,4,5,6)            177.1415         -DE/DX =    0.0                 !
 ! D26   D(2,4,5,7)            -44.9112         -DE/DX =    0.0                 !
 ! D27   D(2,4,5,9)             43.2444         -DE/DX =    0.0                 !
 ! D28   D(3,4,5,6)            116.397          -DE/DX =    0.0                 !
 ! D29   D(3,4,5,7)           -105.6557         -DE/DX =    0.0                 !
 ! D30   D(3,4,5,9)            -17.5002         -DE/DX =    0.0                 !
 ! D31   D(13,4,5,6)           -49.3216         -DE/DX =    0.0                 !
 ! D32   D(13,4,5,7)            88.6257         -DE/DX =    0.0                 !
 ! D33   D(13,4,5,9)           176.7813         -DE/DX =    0.0                 !
 ! D34   D(4,5,6,14)            46.3373         -DE/DX =    0.0                 !
 ! D35   D(7,5,6,14)           -81.1242         -DE/DX =    0.0                 !
 ! D36   D(9,5,6,14)           174.2296         -DE/DX =    0.0                 !
 ! D37   D(4,5,7,8)             67.5788         -DE/DX =    0.0                 !
 ! D38   D(4,5,7,15)           179.7249         -DE/DX =    0.0                 !
 ! D39   D(4,5,7,16)           -48.3471         -DE/DX =    0.0                 !
 ! D40   D(6,5,7,8)           -157.1895         -DE/DX =    0.0                 !
 ! D41   D(6,5,7,15)           -45.0434         -DE/DX =    0.0                 !
 ! D42   D(6,5,7,16)            86.8846         -DE/DX =    0.0                 !
 ! D43   D(9,5,7,8)            -36.2938         -DE/DX =    0.0                 !
 ! D44   D(9,5,7,15)            75.8523         -DE/DX =    0.0                 !
 ! D45   D(9,5,7,16)          -152.2197         -DE/DX =    0.0                 !
 ! D46   D(4,5,9,8)            -62.7611         -DE/DX =    0.0                 !
 ! D47   D(4,5,9,18)          -172.8763         -DE/DX =    0.0                 !
 ! D48   D(4,5,9,19)            57.9454         -DE/DX =    0.0                 !
 ! D49   D(6,5,9,8)            162.6386         -DE/DX =    0.0                 !
 ! D50   D(6,5,9,18)            52.5234         -DE/DX =    0.0                 !
 ! D51   D(6,5,9,19)           -76.6549         -DE/DX =    0.0                 !
 ! D52   D(7,5,9,8)             36.3896         -DE/DX =    0.0                 !
 ! D53   D(7,5,9,18)           -73.7256         -DE/DX =    0.0                 !
 ! D54   D(7,5,9,19)           157.0961         -DE/DX =    0.0                 !
 ! D55   D(5,7,8,2)            -67.7301         -DE/DX =    0.0                 !
 ! D56   D(5,7,8,9)             35.9619         -DE/DX =    0.0                 !
 ! D57   D(5,7,8,17)           161.1757         -DE/DX =    0.0                 !
 ! D58   D(15,7,8,2)          -178.4391         -DE/DX =    0.0                 !
 ! D59   D(15,7,8,9)           -74.7471         -DE/DX =    0.0                 !
 ! D60   D(15,7,8,17)           50.4667         -DE/DX =    0.0                 !
 ! D61   D(16,7,8,2)            49.3458         -DE/DX =    0.0                 !
 ! D62   D(16,7,8,9)           153.0378         -DE/DX =    0.0                 !
 ! D63   D(16,7,8,17)          -81.7484         -DE/DX =    0.0                 !
 ! D64   D(2,8,9,5)             62.2419         -DE/DX =    0.0                 !
 ! D65   D(2,8,9,18)           171.7051         -DE/DX =    0.0                 !
 ! D66   D(2,8,9,19)           -57.9798         -DE/DX =    0.0                 !
 ! D67   D(7,8,9,5)            -36.8888         -DE/DX =    0.0                 !
 ! D68   D(7,8,9,18)            72.5745         -DE/DX =    0.0                 !
 ! D69   D(7,8,9,19)          -157.1105         -DE/DX =    0.0                 !
 ! D70   D(17,8,9,5)          -162.6673         -DE/DX =    0.0                 !
 ! D71   D(17,8,9,18)          -53.204          -DE/DX =    0.0                 !
 ! D72   D(17,8,9,19)           77.1111         -DE/DX =    0.0                 !
 --------------------------------------------------------------------------------
 GradGradGradGradGradGradGradGradGradGradGradGradGradGradGradGradGradGrad

                          Input orientation:                          
 ---------------------------------------------------------------------
 Center     Atomic      Atomic             Coordinates (Angstroms)
 Number     Number       Type             X           Y           Z
 ---------------------------------------------------------------------
      1          8           0       -3.054174    2.904855    1.968585
      2          6           0       -2.459234    2.197555    0.923915
      3          6           0       -1.726442    2.933444   -0.172451
      4          6           0       -0.963100    2.090403    0.835768
      5          6           0       -0.819961    0.560996    0.641716
      6          8           0        0.447702    0.019300    0.450748
      7          6           0       -1.838203    0.050885    1.740848
      8          6           0       -2.852659    0.711940    0.751178
      9          6           0       -1.917657    0.200421   -0.379628
     10          1           0       -3.916799    3.209349    1.666278
     11          1           0       -1.794002    2.661565   -1.219190
     12          1           0       -1.649281    4.002641    0.000210
     13          1           0       -0.323677    2.583473    1.561010
     14          1           0        1.045011    0.399169    1.103562
     15          1           0       -1.903323   -1.039323    1.777849
     16          1           0       -1.771451    0.478532    2.744369
     17          1           0       -3.915703    0.473450    0.763814
     18          1           0       -1.994050   -0.881791   -0.500995
     19          1           0       -1.925385    0.680222   -1.358424
 ---------------------------------------------------------------------
                    Distance matrix (angstroms):
                    1          2          3          4          5
     1  O    0.000000
     2  C    1.394834   0.000000
     3  C    2.519469   1.510145   0.000000
     4  C    2.513801   1.502553   1.519841   0.000000
     5  C    3.499423   2.333490   2.667037   1.548299   0.000000
     6  O    4.784704   3.663190   3.688837   2.535364   1.391716
     7  C    3.110562   2.379338   3.461554   2.396791   1.582758
     8  C    2.516260   1.546503   2.656414   2.340459   2.041232
     9  C    3.757624   2.445623   2.747526   2.441392   1.542107
    10  H    0.963446   1.923363   2.873101   3.265903   4.201655
    11  H    3.436442   2.291449   1.083580   2.288990   2.970541
    12  H    2.655816   2.183482   1.085794   2.196738   3.597808
    13  H    2.779392   2.261730   2.257237   1.085337   2.276359
    14  H    4.881603   3.942867   3.966323   2.639033   1.928111
    15  H    4.113074   3.393467   4.429203   3.400988   2.241761
    16  H    2.852063   2.596562   3.812671   2.625703   2.309391
    17  H    2.847005   2.262625   3.423599   3.367131   3.099385
    18  H    4.643423   3.424783   3.838695   3.418147   2.183096
    19  H    4.158382   2.792197   2.554040   2.780122   2.288391
                    6          7          8          9         10
     6  O    0.000000
     7  C    2.625017   0.000000
     8  C    3.385615   1.563829   0.000000
     9  C    2.513414   2.127227   1.553900   0.000000
    10  H    5.541010   3.781801   2.864761   4.151620   0.000000
    11  H    3.846491   3.947078   2.967178   2.603340   3.623846
    12  H    4.524084   4.322255   3.583404   3.830559   2.923479
    13  H    2.898740   2.956371   3.248724   3.462049   3.648743
    14  H    0.962937   2.973274   3.926045   3.319150   5.730037
    15  H    2.899861   1.092777   2.241029   2.488349   4.702951
    16  H    3.224319   1.092883   2.279539   3.139758   3.636229
    17  H    4.398131   2.334344   1.089541   2.318230   2.880901
    18  H    2.771269   2.433112   2.201165   1.091673   5.013129
    19  H    3.056380   3.163724   2.304618   1.090096   4.417130
                   11         12         13         14         15
    11  H    0.000000
    12  H    1.818342   0.000000
    13  H    3.146024   2.491457   0.000000
    14  H    4.309711   4.632668   2.617967   0.000000
    15  H    4.763482   5.352190   3.958150   3.349119   0.000000
    16  H    4.525035   4.468185   2.815522   3.260523   1.804283
    17  H    3.636175   4.263209   4.241505   4.972889   2.714115
    18  H    3.620938   4.922170   4.364638   3.667609   2.286083
    19  H    1.990570   3.600082   3.835482   3.868283   3.576804
                   16         17         18         19
    16  H    0.000000
    17  H    2.918979   0.000000
    18  H    3.525964   2.670050   0.000000
    19  H    4.110631   2.916850   1.783195   0.000000
 Stoichiometry    C7H10O2
 Framework group  C1[X(C7H10O2)]
 Deg. of freedom    51
 Full point group                 C1      NOp   1
 Largest Abelian subgroup         C1      NOp   1
 Largest concise Abelian subgroup C1      NOp   1
                         Standard orientation:                         
 ---------------------------------------------------------------------
 Center     Atomic      Atomic             Coordinates (Angstroms)
 Number     Number       Type             X           Y           Z
 ---------------------------------------------------------------------
      1          8           0       -2.303319    0.333065   -0.698887
      2          6           0       -1.194537   -0.014801    0.072573
      3          6           0       -1.072268   -1.407298    0.644009
      4          6           0       -0.152116   -0.948122   -0.475095
      5          6           0        1.124112   -0.128416   -0.164363
      6          8           0        2.368378   -0.674086   -0.465891
      7          6           0        0.651505    1.303500   -0.645382
      8          6           0       -0.294192    1.131998    0.588232
      9          6           0        0.899024    0.402763    1.265769
     10          1           0       -3.018306    0.571570   -0.098773
     11          1           0       -0.708427   -1.609727    1.644403
     12          1           0       -1.859689   -2.079993    0.317823
     13          1           0       -0.258696   -1.388290   -1.461426
     14          1           0        2.334197   -1.042930   -1.354728
     15          1           0        1.421770    2.066582   -0.509145
     16          1           0        0.178557    1.388140   -1.626988
     17          1           0       -0.788968    1.978746    1.062905
     18          1           0        1.686785    1.104080    1.547438
     19          1           0        0.723142   -0.297758    2.082252
 ---------------------------------------------------------------------
 Rotational constants (GHZ):      2.9972390      1.5449443      1.3847312
 1\1\GINC-ALCHEMY-MO\FOpt\RB3LYP\6-31G(2df,p)\C7H10O2\PUCK\27-Jan-2020\
 0\\# b3lyp 6-31G(2df,p) opt Freq\\titel\\0,1\O,-3.0541742936,2.9048549
 642,1.9685845025\C,-2.4592338539,2.1975548473,0.923915282\C,-1.7264424
 175,2.9334444045,-0.1724513781\C,-0.9631004232,2.0904027508,0.83576760
 9\C,-0.819960858,0.5609962012,0.6417156243\O,0.4477015464,0.0192995125
 ,0.4507476079\C,-1.83820265,0.0508850762,1.7408480493\C,-2.8526588933,
 0.7119400345,0.751178436\C,-1.9176567452,0.2004213731,-0.3796281177\H,
 -3.9167989499,3.2093493387,1.6662775672\H,-1.7940022308,2.6615647504,-
 1.219190072\H,-1.6492811032,4.0026414859,0.0002101809\H,-0.3236773133,
 2.5834730359,1.561009849\H,1.0450113021,0.3991693654,1.1035621116\H,-1
 .903323228,-1.0393226008,1.7778490706\H,-1.7714512161,0.478532345,2.74
 43693982\H,-3.9157025787,0.4734496511,0.7638140454\H,-1.994050356,-0.8
 817910432,-0.5009948638\H,-1.925384548,0.6802215874,-1.3584236824\\Ver
 sion=ES64L-G09RevD.01\State=1-A\HF=-423.1393297\RMSD=4.380e-09\RMSF=2.
 054e-05\Dipole=-0.3444307,0.3136198,0.0073066\Quadrupole=3.1089673,-1.
 0583392,-2.0506281,0.3352584,3.26073,-1.7454441\PG=C01 [X(C7H10O2)]\\@


 IF YOU DON'T HAVE THE LAW - ARGUE THE FACTS.
 IF YOU DON'T HAVE THE FACTS - ARGUE THE LAW.
 IF YOU DON'T HAVE EITHER - POUND THE TABLE.
 Job cpu time:       0 days  0 hours  8 minutes 42.2 seconds.
 File lengths (MBytes):  RWF=     52 Int=      0 D2E=      0 Chk=      7 Scr=      1
 Normal termination of Gaussian 09 at Mon Jan 27 17:27:31 2020.
 Link1:  Proceeding to internal job step number  2.
 ----------------------------------------------------------------------
 #N Geom=AllCheck Guess=TCheck SCRF=Check GenChk RB3LYP/6-31G(2df,p) Fr
 eq
 ----------------------------------------------------------------------
 1/10=4,29=7,30=1,38=1,40=1/1,3;
 2/12=2,40=1/2;
 3/5=1,6=6,7=104,11=2,14=-4,16=1,25=1,30=1,70=2,71=2,74=-5,116=1,140=1/1,2,3;
 4/5=101/1;
 5/5=2,98=1/2;
 8/6=4,10=90,11=11/1;
 11/6=1,8=1,9=11,15=111,16=1/1,2,10;
 10/6=1/2;
 6/7=2,8=2,9=2,10=2,18=1,28=1/1;
 7/8=1,10=1,25=1/1,2,3,16;
 1/10=4,30=1/3;
 99//99;
 Structure from the checkpoint file:  "/scratch/puck/g09_88f485a7-e108-4f34-aae1-a34d519987b5/Gau-79108.chk"
 -----
 titel
 -----
 Charge =  0 Multiplicity = 1
 Redundant internal coordinates found in file.
 O,0,-3.0541742936,2.9048549642,1.9685845025
 C,0,-2.4592338539,2.1975548473,0.923915282
 C,0,-1.7264424175,2.9334444045,-0.1724513781
 C,0,-0.9631004232,2.0904027508,0.835767609
 C,0,-0.819960858,0.5609962012,0.6417156243
 O,0,0.4477015464,0.0192995125,0.4507476079
 C,0,-1.83820265,0.0508850762,1.7408480493
 C,0,-2.8526588933,0.7119400345,0.751178436
 C,0,-1.9176567452,0.2004213731,-0.3796281177
 H,0,-3.9167989499,3.2093493387,1.6662775672
 H,0,-1.7940022308,2.6615647504,-1.219190072
 H,0,-1.6492811032,4.0026414859,0.0002101809
 H,0,-0.3236773133,2.5834730359,1.561009849
 H,0,1.0450113021,0.3991693654,1.1035621116
 H,0,-1.903323228,-1.0393226008,1.7778490706
 H,0,-1.7714512161,0.478532345,2.7443693982
 H,0,-3.9157025787,0.4734496511,0.7638140454
 H,0,-1.994050356,-0.8817910432,-0.5009948638
 H,0,-1.925384548,0.6802215874,-1.3584236824
 Recover connectivity data from disk.

 GradGradGradGradGradGradGradGradGradGradGradGradGradGradGradGradGradGrad
 Berny optimization.
 Initialization pass.
                           ----------------------------
                           !    Initial Parameters    !
                           ! (Angstroms and Degrees)  !
 --------------------------                            --------------------------
 ! Name  Definition              Value          Derivative Info.                !
 --------------------------------------------------------------------------------
 ! R1    R(1,2)                  1.3948         calculate D2E/DX2 analytically  !
 ! R2    R(1,10)                 0.9634         calculate D2E/DX2 analytically  !
 ! R3    R(2,3)                  1.5101         calculate D2E/DX2 analytically  !
 ! R4    R(2,4)                  1.5026         calculate D2E/DX2 analytically  !
 ! R5    R(2,8)                  1.5465         calculate D2E/DX2 analytically  !
 ! R6    R(3,4)                  1.5198         calculate D2E/DX2 analytically  !
 ! R7    R(3,11)                 1.0836         calculate D2E/DX2 analytically  !
 ! R8    R(3,12)                 1.0858         calculate D2E/DX2 analytically  !
 ! R9    R(4,5)                  1.5483         calculate D2E/DX2 analytically  !
 ! R10   R(4,13)                 1.0853         calculate D2E/DX2 analytically  !
 ! R11   R(5,6)                  1.3917         calculate D2E/DX2 analytically  !
 ! R12   R(5,7)                  1.5828         calculate D2E/DX2 analytically  !
 ! R13   R(5,9)                  1.5421         calculate D2E/DX2 analytically  !
 ! R14   R(6,14)                 0.9629         calculate D2E/DX2 analytically  !
 ! R15   R(7,8)                  1.5638         calculate D2E/DX2 analytically  !
 ! R16   R(7,15)                 1.0928         calculate D2E/DX2 analytically  !
 ! R17   R(7,16)                 1.0929         calculate D2E/DX2 analytically  !
 ! R18   R(8,9)                  1.5539         calculate D2E/DX2 analytically  !
 ! R19   R(8,17)                 1.0895         calculate D2E/DX2 analytically  !
 ! R20   R(9,18)                 1.0917         calculate D2E/DX2 analytically  !
 ! R21   R(9,19)                 1.0901         calculate D2E/DX2 analytically  !
 ! A1    A(2,1,10)             107.8878         calculate D2E/DX2 analytically  !
 ! A2    A(1,2,3)              120.2394         calculate D2E/DX2 analytically  !
 ! A3    A(1,2,4)              120.3186         calculate D2E/DX2 analytically  !
 ! A4    A(1,2,8)              117.5335         calculate D2E/DX2 analytically  !
 ! A5    A(3,2,8)              120.6949         calculate D2E/DX2 analytically  !
 ! A6    A(4,2,8)              100.2679         calculate D2E/DX2 analytically  !
 ! A7    A(2,3,11)             123.2844         calculate D2E/DX2 analytically  !
 ! A8    A(2,3,12)             113.5085         calculate D2E/DX2 analytically  !
 ! A9    A(4,3,11)             122.2053         calculate D2E/DX2 analytically  !
 ! A10   A(4,3,12)             113.8931         calculate D2E/DX2 analytically  !
 ! A11   A(11,3,12)            113.8984         calculate D2E/DX2 analytically  !
 ! A12   A(2,4,5)               99.7791         calculate D2E/DX2 analytically  !
 ! A13   A(2,4,13)             120.9995         calculate D2E/DX2 analytically  !
 ! A14   A(3,4,5)              120.7447         calculate D2E/DX2 analytically  !
 ! A15   A(3,4,13)             119.1554         calculate D2E/DX2 analytically  !
 ! A16   A(5,4,13)             118.5575         calculate D2E/DX2 analytically  !
 ! A17   A(4,5,6)              119.0706         calculate D2E/DX2 analytically  !
 ! A18   A(4,5,7)               99.8953         calculate D2E/DX2 analytically  !
 ! A19   A(4,5,9)              104.3691         calculate D2E/DX2 analytically  !
 ! A20   A(6,5,7)              123.7681         calculate D2E/DX2 analytically  !
 ! A21   A(6,5,9)              117.8059         calculate D2E/DX2 analytically  !
 ! A22   A(7,5,9)               85.7929         calculate D2E/DX2 analytically  !
 ! A23   A(5,6,14)             108.5683         calculate D2E/DX2 analytically  !
 ! A24   A(5,7,8)               80.8869         calculate D2E/DX2 analytically  !
 ! A25   A(5,7,15)             112.5436         calculate D2E/DX2 analytically  !
 ! A26   A(5,7,16)             118.1806         calculate D2E/DX2 analytically  !
 ! A27   A(8,7,15)             113.8593         calculate D2E/DX2 analytically  !
 ! A28   A(8,7,16)             117.0853         calculate D2E/DX2 analytically  !
 ! A29   A(15,7,16)            111.2803         calculate D2E/DX2 analytically  !
 ! A30   A(2,8,7)               99.8087         calculate D2E/DX2 analytically  !
 ! A31   A(2,8,9)              104.1483         calculate D2E/DX2 analytically  !
 ! A32   A(2,8,17)             117.2057         calculate D2E/DX2 analytically  !
 ! A33   A(7,8,9)               86.0467         calculate D2E/DX2 analytically  !
 ! A34   A(7,8,17)             122.2122         calculate D2E/DX2 analytically  !
[...]
 .03049640,-0.05975168,0.05474779,-0.09071392,0.51105225,0.02083193,-0.
 00674614,0.00645819,0.01363768,-0.04164947,-0.02352945,0.03127432,-0.0
 9970768,0.03816659,0.04052375,0.47684126,0.02920157,-0.00601043,0.0073
 8623,-0.03740792,-0.01368764,-0.05160982,-0.05482424,0.03458161,-0.120
 15151,0.19568887,0.07642669,0.42092700,-0.00430092,-0.00068184,-0.0032
 6037,-0.02253400,0.03356972,0.00672447,-0.00345781,-0.00816630,0.00282
 954,-0.06487934,-0.00324196,-0.00783421,0.60002203,-0.00546130,0.00046
 687,0.00133108,0.02785279,-0.00943179,0.00159200,0.00507433,-0.0129374
 1,0.00335741,-0.01043607,-0.14647911,-0.01589235,-0.05000259,0.4349628
 0,0.00245997,-0.00146464,0.00081484,0.00445356,-0.01191351,-0.00493030
 ,-0.00152463,0.02324416,0.00900859,-0.01412171,-0.00980900,-0.07254222
 ,0.02190379,0.03904967,0.38900241,-0.00075488,0.00180466,0.00028053,0.
 00161035,-0.00178538,-0.00047895,-0.00081507,0.00216090,0.00058544,-0.
 01285604,0.00691938,-0.00079315,-0.22588673,0.07962138,0.03367227,0.50
 100960,0.00356596,-0.00097504,-0.00011818,-0.00251271,-0.00646074,-0.0
 0167298,0.00032679,0.00131733,-0.00151497,0.03892697,-0.00748672,-0.00
 386805,0.04737347,-0.10506370,-0.03193455,0.01565594,0.20363227,-0.000
 03491,-0.00016627,0.00012240,0.00117999,-0.00090339,0.00117091,0.00092
 387,-0.00097437,-0.00024015,0.00394557,-0.00222496,0.00176026,0.002626
 85,-0.01988486,-0.09095070,0.17305485,0.18338572,0.31358930,-0.0004171
 6,-0.00062034,-0.00091377,0.00148740,0.00757708,-0.00061919,0.00051798
 ,-0.00128691,-0.00036446,-0.00036630,-0.01284663,0.00777692,-0.0643918
 0,-0.01125158,0.02723468,-0.02100587,-0.00268438,0.01363925,0.27482575
 ,0.00044523,0.00306496,-0.00070881,0.00119195,-0.03632423,0.03223832,-
 0.00165391,-0.01301973,-0.00200152,-0.00069682,-0.03048468,0.02987643,
 -0.01291435,-0.07387999,0.01319259,0.01125303,0.00633810,-0.01287117,0
 .01559985,0.61461341,-0.00005808,-0.00148149,-0.00059676,0.00247714,0.
 00849036,0.00156444,0.00034251,-0.00143986,0.00041191,-0.00181318,0.00
 492742,-0.00151537,0.02397661,0.01169090,-0.09376354,0.00351660,-0.002
 60304,0.00667641,0.02572583,0.04091778,0.59013333,0.00344155,0.0197185
 2,0.00898721,-0.07439390,-0.02790217,0.00113487,-0.00263294,0.00650027
 ,-0.00368284,-0.03131471,-0.02947908,-0.00150466,-0.09753047,0.0167194
 5,0.00683823,-0.01076643,-0.00365976,-0.00007132,-0.09162102,0.0165648
 3,-0.03974816,0.69834263,0.00025988,-0.01327449,-0.00935289,-0.0300118
 9,-0.14155137,-0.00658914,-0.00617809,-0.01075721,0.00045696,-0.018135
 59,-0.00800238,0.00523254,0.00672195,0.00727782,0.00028559,-0.00214287
 ,-0.00051321,-0.00055434,0.01542645,-0.07503574,0.01670851,0.05677373,
 0.39054309,-0.00320096,-0.03034662,-0.01206043,0.01027484,0.00220127,-
 0.06360821,0.00418472,0.01986794,0.00564017,-0.00822721,-0.00661608,0.
 00093138,0.00720743,-0.00020717,0.01003909,0.00082550,-0.00097877,-0.0
 0186211,-0.03928225,0.01612651,-0.09235223,-0.01847918,0.01700142,0.33
 297710,0.00080735,-0.00256542,-0.00174136,0.00321519,0.00687234,0.0023
 7088,0.00159453,-0.00001283,-0.00051525,-0.00136632,-0.00845634,-0.007
 20513,-0.09516376,-0.01282923,-0.04785743,-0.02522586,-0.00553578,-0.0
 1623031,0.00605700,-0.00114106,-0.00418646,-0.09465166,0.00966158,0.04
 423867,0.31155448,-0.00133364,-0.00745690,-0.00341552,0.01487861,-0.01
 522463,-0.03051384,-0.00125940,-0.00424694,0.00112659,-0.01958283,-0.0
 1746694,-0.02807565,-0.01919434,-0.07981455,-0.01648109,0.01120131,0.0
 0456966,0.01116243,0.00024786,0.01064914,0.02335939,0.01017819,-0.0797
 3789,-0.01782729,0.02013789,0.61332029,0.00005076,0.00160492,0.0007740
 6,-0.00018489,-0.00792042,-0.00554509,0.00007389,0.00044308,0.00233312
 ,-0.00101897,-0.00510796,-0.00299403,-0.05703465,-0.01598211,-0.110763
 10,0.00452571,0.00303502,0.00959351,-0.00276556,-0.00782182,-0.0884291
 8,0.04402560,-0.01979747,-0.10507988,0.01494365,-0.03764247,0.61060868
 ,-0.40163661,0.14646438,-0.12735576,-0.01907076,0.00677797,-0.00504027
 ,-0.00115411,-0.00186482,-0.00155196,0.00138228,0.00267088,0.00386502,
 -0.00109036,-0.00070008,0.00105391,0.00011200,0.00040201,-0.00004246,-
 0.00008801,-0.00020652,-0.00013335,0.00193290,0.00040701,-0.00115672,-
 0.00038201,-0.00056922,-0.00020660,0.41858845,0.13132276,-0.05640143,0
 .02914306,0.02420489,-0.01063902,0.00358081,-0.00019750,0.00198985,-0.
 00115183,-0.00262193,-0.00137267,-0.00162714,0.00086524,0.00036417,0.0
 0007256,-0.00032972,-0.00036581,-0.00002759,0.00019582,-0.00022579,0.0
 0015910,0.00166389,0.00033848,0.00093566,-0.00026157,0.00024715,-0.000
 32107,-0.15317526,0.06645563,-0.17057398,0.04944680,-0.09222903,0.0377
 7443,-0.01619335,0.00424029,0.00007915,0.00080739,0.00153793,0.0016186
 9,-0.00381537,-0.00326915,0.00131237,0.00078726,-0.00059329,0.00002302
 ,-0.00053834,0.00003660,-0.00012499,0.00021775,-0.00028843,-0.00007124
 ,-0.00012942,-0.00030669,-0.00003122,-0.00006938,0.00007826,0.13070592
 ,-0.03056504,0.09035188,-0.00215623,-0.00182214,0.00793838,0.00345965,
 0.01462596,0.01255748,-0.04012172,-0.00655407,-0.01601689,-0.00176520,
 -0.01343039,-0.01854630,0.00106873,-0.00165360,0.00150745,0.00018701,-
 0.00023727,-0.00003535,-0.00002919,0.00003907,0.00008400,0.00051301,0.
 00126754,-0.00112377,0.00033510,-0.00032576,0.00012192,0.00103041,0.00
 007945,-0.00034655,0.03631898,0.00009633,0.00065288,0.00119574,0.00368
 817,0.00107997,0.01005094,-0.00611606,-0.06830299,-0.07677229,-0.00083
 940,0.00367089,0.01379750,0.00057918,0.00056979,-0.00069793,-0.0000372
 9,-0.00031123,-0.00014968,-0.00001352,0.00028112,-0.00055957,-0.000410
 92,0.00040461,-0.00052128,-0.00007183,-0.00309777,0.00113218,-0.000192
 89,0.00014848,-0.00024748,0.00606635,0.07419471,0.00012080,0.00058579,
 -0.00209690,-0.00398088,-0.00219921,-0.00967300,-0.01707980,-0.0760419
 0,-0.31223003,0.00055951,0.00085696,-0.00989408,-0.00128354,-0.0028214
 2,0.00040920,-0.00034216,0.00106963,0.00017179,-0.00005204,0.00005640,
 0.00016438,0.00092713,-0.00139726,0.00007593,-0.00003784,-0.00113204,-
 0.00052778,-0.00043101,-0.00013924,0.00024228,0.01951131,0.08031041,0.
 33254662,0.00155104,0.00265771,-0.00408582,-0.00335112,-0.02693436,-0.
 00565845,-0.03522447,-0.02192450,-0.00399642,0.00153965,0.02706045,0.0
 0583438,0.00026226,0.00059721,-0.00496015,-0.00059499,0.00063232,0.000
 12306,-0.00093738,0.00033211,-0.00008942,0.00025059,-0.00116336,0.0042
 4589,-0.00086920,0.00009771,0.00005760,-0.00072439,-0.00027076,0.00036
 546,-0.00054159,-0.00160877,0.00003860,0.03711893,0.00035730,0.0025140
 2,-0.00101556,0.00154096,-0.01057479,-0.00272692,-0.02184955,-0.323357
 97,-0.04752635,-0.00244346,-0.01094303,-0.00173622,-0.00170101,0.00120
 587,0.00191310,0.00058898,-0.00022898,-0.00004587,0.00014280,-0.002089
 31,-0.00000621,0.00131723,0.00083303,0.00091671,0.00005820,0.00062007,
 0.00051369,-0.00030756,-0.00010595,0.00042791,-0.00041490,-0.00408710,
 0.00067967,0.02260393,0.34529542,-0.00007239,-0.00096744,0.00203850,-0
 .00060061,0.01689156,0.00148918,-0.00384662,-0.05214446,-0.05768434,0.
 00120110,0.01422224,-0.00028956,0.00151154,-0.00069490,-0.00275876,-0.
 00023407,0.00015570,0.00012346,0.00013050,0.00223151,0.00023145,-0.001
 09347,-0.00009070,-0.00240464,-0.00007329,-0.00099162,-0.00111554,0.00
 069129,-0.00010021,-0.00017875,-0.00212986,-0.02763027,-0.00101677,0.0
 0549619,0.04843693,0.05912612,0.00503973,-0.00047476,0.00272865,-0.013
 34529,-0.01217535,-0.02392766,-0.00533011,0.00200134,0.00135521,-0.136
 38599,-0.07502763,-0.11517842,0.00448848,0.00473957,0.00695073,0.00168
 213,-0.00140956,-0.00001119,-0.00052314,-0.00020318,-0.00049920,-0.003
 93186,0.00169511,-0.00086538,0.00002241,0.00266176,0.00080623,0.001110
 73,-0.00028379,-0.00042513,0.00064310,-0.00053322,0.00161442,0.0002614
 7,0.00030967,-0.00110225,0.14589007,0.00028314,0.00067279,-0.00077186,
 0.00164880,-0.00392918,0.00250405,0.01205291,0.00688307,0.01265454,-0.
 07734039,-0.10831229,-0.09201818,-0.01910793,-0.00590132,-0.01702734,0
 .00011998,0.00173954,0.00088905,0.00108153,0.00103656,-0.00130505,-0.0
 0058229,-0.00038362,-0.00057946,0.00086282,-0.00519088,0.00077816,-0.0
 0002778,0.00000976,0.00016867,0.00288366,-0.00083928,0.00063014,-0.001
 63401,0.00113485,0.00031617,0.08065790,0.11379628,-0.00314134,0.000228
 93,0.00030883,0.00788241,0.00983647,0.00811732,-0.01097980,-0.01174151
 ,-0.01346071,-0.12262349,-0.09104227,-0.16696581,-0.00347481,-0.000561
 95,-0.00340733,0.00144980,0.00044389,0.00021307,0.00040168,-0.00049601
 ,0.00103481,0.00326107,-0.00000304,0.00014043,0.00086918,-0.00131297,0
 .00003432,-0.00037621,0.00021015,0.00013546,-0.00379788,0.00120395,-0.
 00094420,0.00230053,-0.00041327,0.00130200,0.12830719,0.09376327,0.173
 18806,0.00054808,-0.00020417,-0.00009337,-0.00005190,-0.00070667,0.000
 17831,0.00004060,0.00009032,-0.00014858,0.00317319,0.00068049,0.000025
 16,-0.03309023,-0.01648416,-0.03221952,-0.20698477,-0.09277222,-0.1797
 1019,-0.00028349,-0.00103614,0.00006258,-0.00172387,-0.00052027,-0.000
 93446,-0.00217213,0.00346171,0.00401843,0.00004030,-0.00006160,-0.0000
 4019,0.00003874,-0.00009366,0.00019058,0.00009873,-0.00006415,0.000056
 44,-0.00029210,0.00105040,0.00037152,0.24083913,-0.00037526,-0.0000270
 3,0.00031794,0.00050417,0.00003874,-0.00014684,0.00011782,-0.00035369,
 -0.00001236,0.00067168,0.00206339,0.00225842,0.01592247,0.00397415,0.0
 1335188,-0.12600432,-0.10019731,-0.15780645,0.00038279,-0.00010327,-0.
 00086973,0.00039508,0.00076243,-0.00005602,0.00263803,-0.00100344,-0.0
 0016120,-0.00003001,0.00005782,-0.00000463,-0.00011622,0.00009143,-0.0
 0013563,0.00000158,-0.00004175,-0.00005780,-0.00045579,-0.00035973,-0.
 00097311,0.10609355,0.09507165,0.00042210,0.00000669,-0.00009187,-0.00
 033100,-0.00046174,-0.00005568,-0.00023867,-0.00000528,-0.00040265,0.0
 0275796,-0.00006066,0.00081346,0.00646065,0.00101691,0.00149803,-0.216
 77755,-0.14512571,-0.24581588,0.00059290,-0.00002388,0.00055621,-0.000
 39246,-0.00032992,-0.00012083,0.00065908,0.00054983,0.00186795,0.00005
 116,-0.00007163,-0.00005208,-0.00013290,-0.00003184,0.00007398,0.00013
 046,-0.00003336,0.00005935,-0.00055560,0.00007509,0.00008242,0.2070351
 3,0.14451205,0.24178022,0.00036499,0.00005847,0.00013967,-0.00211808,0
 .00284919,-0.00465211,-0.00158829,0.00007167,0.00018907,-0.00050909,-0
 .00323122,0.00472590,0.00023227,-0.02386954,0.00046817,0.00128013,0.00
 205328,-0.00155905,-0.04299105,-0.01692864,-0.00021577,0.00342101,0.02
 360739,-0.00072501,-0.00194282,0.00036518,-0.00008817,0.00009246,-0.00
 012682,-0.00007728,0.00002458,-0.00004731,0.00003392,0.00113573,-0.000
 10285,0.00002586,0.00015557,-0.00002518,-0.00010493,-0.00001876,-0.000
 13463,-0.00003726,0.04193412,0.00013953,0.00002706,-0.00014638,-0.0025
 4347,-0.00118212,0.00223718,0.00005026,-0.00159528,0.00019266,0.002281
 14,-0.00124315,0.00185011,0.00295580,-0.00734654,-0.00201065,-0.000949
 56,0.00147405,-0.00001753,-0.01621166,-0.31213375,0.00557821,-0.003280
 93,-0.00797040,-0.00157970,-0.00005286,0.00015209,-0.00203306,-0.00004
 818,-0.00003235,0.00004264,0.00002189,-0.00017399,0.00024557,-0.000019
 23,-0.00023663,0.00057079,-0.00002144,-0.00000915,-0.00010710,0.000088
 44,-0.00017081,0.00008462,0.01792903,0.33801380,-0.00032892,0.00008953
 ,0.00055910,0.00148675,0.00165155,-0.00309556,0.00005942,0.00245076,0.
 00066792,-0.00093924,0.00179332,-0.00186176,-0.00284753,0.01425760,-0.
 00055727,-0.00062726,-0.00104562,0.00093371,-0.00037859,0.00197279,-0.
 05213477,0.00421148,0.01117474,-0.00060242,0.00022156,0.00250122,0.000
 24898,-0.00001122,0.00006587,0.00006983,-0.00000388,-0.00016527,0.0000
 2770,-0.00001299,0.00050495,-0.00051251,0.00022527,0.00030961,-0.00008
 552,0.00007066,-0.00008862,0.00002470,0.00072097,-0.00724791,0.0540231
 8,-0.00005341,0.00003395,0.00084038,0.00044385,-0.00214374,-0.00037866
 ,0.00019091,0.00009077,-0.00000927,0.00024227,0.00202643,-0.00014146,0
 .00662494,0.01077224,0.01436720,-0.00188139,-0.00016182,0.00024065,-0.
 04992046,-0.00668506,-0.01284796,0.00120314,-0.01072831,-0.01630964,-0
 .00116668,0.00012838,-0.00016236,-0.00008995,-0.00011620,0.00005335,-0
 .00013472,0.00006377,0.00008908,-0.00002396,0.00003555,-0.00000884,-0.
 00005067,-0.00031615,-0.00029936,-0.00007067,0.00010684,0.00002454,-0.
 00017864,-0.00079718,-0.00182896,0.04307714,-0.00006343,-0.00025147,0.
 00000122,0.00037569,0.00108570,0.00123875,-0.00001326,0.00040058,-0.00
 047467,0.00004140,0.00108924,0.00060691,0.00244428,0.00107515,0.007906
 70,-0.00007651,0.00007035,-0.00032463,-0.00819057,-0.09573377,-0.10090
 948,-0.00074172,0.00285275,0.01060070,0.00025733,-0.00141177,0.0025885
 3,0.00012676,0.00010723,-0.00013244,-0.00002760,0.00017645,0.00004478,
 0.00002884,0.00006417,-0.00004238,-0.00025002,0.00002311,0.00003951,-0
 .00003365,0.00016380,-0.00024712,-0.00177242,-0.00965285,-0.02752091,0
 .00779069,0.09822677,-0.00003486,0.00041481,0.00116291,-0.00074957,-0.
 00163749,-0.00117626,-0.00021891,0.00007221,0.00052510,0.00096522,-0.0
 0117457,0.00111695,-0.00715228,-0.00555651,-0.01020282,0.00185631,-0.0
 0000137,-0.00020470,-0.01505911,-0.09784610,-0.26657426,0.00265600,-0.
 00449031,-0.00990463,0.00056408,0.00413588,-0.00722915,-0.00004581,-0.
 00012726,0.00015688,0.00002886,-0.00023416,0.00026693,0.00006153,0.000
 01299,0.00010083,0.00029306,0.00065963,0.00001241,0.00023744,-0.000184
 30,-0.00014052,0.00031865,0.00182257,0.00262994,0.01681142,0.10498503,
 0.29091102,0.00185982,-0.00068153,-0.00124090,-0.00332768,0.00173570,0
 .00145106,-0.00044369,-0.00023002,-0.00003093,0.00072505,-0.00048667,-
 0.00046825,-0.00394350,0.00285317,0.00125201,-0.00099723,-0.00101962,-
 0.00029724,-0.00728848,-0.00402783,0.00377647,-0.30686304,-0.06008315,
 0.00204282,-0.00777194,-0.00242030,-0.00324607,-0.00031463,-0.00070622
 ,-0.00026198,-0.00001088,-0.00005947,0.00002872,-0.00002302,-0.0000754
 7,0.00000058,-0.00005594,-0.00009758,0.00031859,-0.00025585,0.00009552
 ,0.00013649,0.00033694,0.00036307,-0.00000426,-0.00025503,0.00001792,-
 0.00030982,0.32819907,0.00181767,0.00249768,0.00057269,-0.02821304,-0.
 00159790,0.00226829,-0.00001033,0.00015898,-0.00121342,-0.00263427,-0.
 00431928,-0.00154370,0.00232016,-0.00360160,-0.00048808,0.00208381,0.0
 0147795,-0.00031713,0.01230423,0.00300691,-0.00289100,-0.06019766,-0.0
 6099099,0.00020619,0.01019769,0.00176077,0.00213412,0.00031675,-0.0006
 8532,-0.00017505,0.00012596,-0.00018420,0.00044230,-0.00048942,-0.0001
 2437,0.00015530,-0.00123948,-0.00024617,0.00088632,0.00045822,-0.00014
 709,0.00011020,-0.00074191,0.00034387,-0.00034245,0.00000326,0.0000066
 4,0.00021036,0.06456484,0.06210590,-0.00000543,0.00083484,0.00022209,-
 0.00210574,-0.00144130,-0.00141202,0.00026112,0.00009145,0.00000342,-0
 .00132096,-0.00096119,0.00043378,0.00035583,-0.00069803,-0.00568222,0.
 00018507,0.00028451,0.00270696,-0.01467598,-0.00828731,0.00396015,0.00
 184708,0.00197936,-0.04842423,0.01887836,0.00878110,0.00502067,0.00000
 602,-0.00026753,0.00020919,0.00004527,-0.00013277,0.00002227,0.0000701
 6,0.00003125,0.00002562,-0.00019811,0.00004359,0.00022921,0.00065230,-
 0.00020037,0.00006203,0.00098231,0.00014625,0.00065020,-0.00064977,-0.
 00025710,-0.00029938,-0.00348476,-0.00034093,0.04163702,0.00043764,0.0
 0237005,0.00111622,-0.00375649,-0.00024022,0.00346364,-0.00081506,0.00
 016847,-0.00006039,-0.00326082,-0.00112340,-0.00404477,-0.00188244,-0.
 02916348,-0.00569832,0.00195885,0.00139111,0.00193903,-0.00178398,0.00
 018181,0.00034942,0.00314985,0.02567396,0.00470632,-0.04028545,-0.0191
 7175,-0.00294522,0.00025525,-0.00012282,-0.00000857,0.00006456,0.00012
 194,0.00008322,0.00012327,-0.00001346,0.00005032,0.00069023,-0.0015499
 6,-0.00035377,0.00050309,0.00019976,0.00015887,0.00051347,0.00005005,-
 0.00001577,-0.00027499,0.00009650,0.00004718,0.00060039,-0.00059043,-0
 .00146185,0.04355828,0.00013628,-0.00069959,-0.00069247,0.00075571,0.0
 0079853,-0.00038475,-0.00009665,0.00032257,-0.00019607,-0.00071986,0.0
 0033474,-0.00067863,0.00095687,-0.00784920,-0.00073673,-0.00042663,0.0
 0107238,0.00032895,0.00013982,0.00037933,0.00225480,-0.00156957,-0.008
 73090,-0.00104238,-0.02012937,-0.31226776,-0.02573387,-0.00010611,0.00
 009817,0.00002711,-0.00004569,0.00021325,-0.00022953,0.00000340,-0.000
 01759,-0.00013926,0.00020165,-0.00020209,-0.00015781,0.00003263,0.0001
 2852,0.00004910,0.00002329,0.00116006,0.00005644,0.00006279,0.00068615
 ,-0.00006386,0.00025589,0.00055700,0.00007592,0.02155391,0.33663758,-0
 .00006821,-0.00165851,-0.00048043,0.00173912,0.00089371,-0.00311109,-0
 .00012460,0.00100446,-0.00028243,-0.00213806,-0.00011283,-0.00253312,0
 .00142659,-0.01605525,-0.00313493,0.00072588,0.00093221,0.00101148,0.0
 0009308,-0.00311052,-0.00057448,-0.00404082,-0.01683505,-0.00349021,-0
 .00293702,-0.02157119,-0.05122525,-0.00009906,0.00011012,-0.00005276,0
 .00010975,-0.00027826,0.00075669,0.00001088,0.00003192,0.00047185,0.00
 047075,-0.00088190,-0.00010111,0.00022588,0.00003289,0.00006352,-0.000
 11327,0.00018080,-0.00144031,0.00008991,0.00034469,0.00050808,0.000023
 96,0.00050725,0.00093634,0.00264586,0.02917130,0.05906859,0.00003072,-
 0.00002931,-0.00005888,0.00012840,-0.00128232,-0.00073526,0.00044158,-
 0.00022309,0.00009979,0.00018630,0.00169803,0.00083071,0.00545264,0.01
 362150,-0.01578020,-0.00007080,-0.00033473,0.00031889,-0.00124080,-0.0
 0011437,-0.00071957,0.00317523,-0.01253108,0.01257839,-0.05258823,0.00
 049865,-0.00097130,0.00000604,-0.00005785,0.00002874,0.00107566,-0.000
 59140,0.00000997,-0.00005154,0.00001778,-0.00000244,-0.00006882,0.0000
 4013,-0.00001038,-0.00033808,-0.00001306,0.00003610,-0.00014454,0.0000
 4530,0.00000251,0.00231830,-0.00001023,-0.00026939,-0.00017037,-0.0000
 7605,0.00061911,0.00020433,-0.00102835,0.00195938,0.04165399,0.0000129
 0,0.00013137,0.00040799,-0.00043953,0.00065748,0.00026615,-0.00036549,
 -0.00293701,-0.00159505,0.00094265,0.00021400,0.00050776,0.00130118,0.
 00240857,-0.00645274,0.00034291,-0.00008890,0.00050207,0.00000737,-0.0
 0033929,-0.00202105,-0.00200710,0.00393599,-0.00810164,0.00037042,-0.1
 0439969,0.11029176,0.00006265,0.00001161,-0.00005504,-0.00048222,-0.00
 448705,-0.00082541,0.00002915,0.00014004,-0.00012114,-0.00019280,0.000
 07775,0.00019654,0.00002096,0.00005220,-0.00001333,0.00002301,0.000576
 08,-0.00041759,-0.00016620,0.00102175,-0.00099755,0.00000175,-0.000018
 78,0.00031826,0.00016797,-0.01262116,0.02729416,0.00037041,0.11566504,
 -0.00025515,-0.00053065,0.00057160,0.00035993,0.00214162,-0.00046760,-
 0.00006260,0.00056463,-0.00012422,0.00004564,0.00160294,0.00025739,0.0
 0655171,0.00527171,-0.01148568,-0.00144784,0.00009488,0.00096368,-0.00
 135887,-0.00366294,-0.00850408,-0.00480453,0.00673044,-0.00958759,-0.0
 0193016,0.10741661,-0.25765055,0.00007712,0.00012121,-0.00008842,0.000
 22896,-0.00026993,0.00162498,0.00006851,0.00003465,0.00099252,0.000011
 43,-0.00020819,0.00016633,0.00002188,0.00022388,-0.00020238,-0.0000316
 9,0.00019091,0.00045487,0.00011975,0.00155190,-0.00165934,0.00031351,-
 0.00018126,-0.00030110,0.00002858,-0.00190826,0.00360958,0.00206382,-0
 .11918415,0.28143002\\-0.00001021,0.00000545,-0.00003031,0.00000862,0.
 00003661,-0.00000311,0.00000593,-0.00000496,0.00002807,-0.00001554,-0.
 00006215,-0.00001543,0.00001258,0.00004155,-0.00000114,0.00000017,-0.0
 0000569,0.00001199,-0.00002126,-0.00004634,-0.00001677,0.00005078,0.00
 003342,-0.00001491,-0.00002280,-0.00003468,0.00003725,0.00002160,0.000
 00380,-0.00000064,0.00000884,0.00000735,-0.00000945,0.00002594,0.00000
 172,-0.00002140,-0.00000999,0.00001332,0.00001217,-0.00001266,-0.00002
 618,0.00000361,-0.00000850,-0.00000215,0.00001087,-0.00000975,0.000012
 60,0.00000750,-0.00001992,0.00000570,-0.00000159,-0.00000836,0.0000081
 0,0.00000508,0.00000452,0.00001254,-0.00000181\\\@


 ONE OF THE BENEFITS OF A COLLEGE EDUCATION
 IS TO SHOW THE BOY ITS LITTLE AVAIL 
                                    EMERSON IN 'CULTURE'
 Job cpu time:       0 days  0 hours 55 minutes 40.9 seconds.
 File lengths (MBytes):  RWF=    152 Int=      0 D2E=      0 Chk=      8 Scr=      1
 Normal termination of Gaussian 09 at Mon Jan 27 18:23:11 2020.
