 Entering Gaussian System, Link 0=/home/puck/opt/gaussian_09/g09
 Input=dsC7O2H10nsd_1043.com
 Output=dsC7O2H10nsd_1043.log
 Initial command:
 /home/puck/opt/gaussian_09/l1.exe "/scratch/puck/g09_94fbc84e-e0f8-4e82-b96d-cf43358ba65f/Gau-4519.inp" -scrdir="/scratch/puck/g09_94fbc84e-e0f8-4e82-b96d-cf43358ba65f/"
 Entering Link 1 = /home/puck/opt/gaussian_09/l1.exe PID=      4524.
  
 Copyright (c) 1988,1990,1992,1993,1995,1998,2003,2009,2013,
            Gaussian, Inc.  All Rights Reserved.
  
 This is part of the Gaussian(R) 09 program.  It is based on
 the Gaussian(R) 03 system (copyright 2003, Gaussian, Inc.),
 the Gaussian(R) 98 system (copyright 1998, Gaussian, Inc.),
 the Gaussian(R) 94 system (copyright 1995, Gaussian, Inc.),
 the Gaussian 92(TM) system (copyright 1992, Gaussian, Inc.),
 the Gaussian 90(TM) system (copyright 1990, Gaussian, Inc.),
 the Gaussian 88(TM) system (copyright 1988, Gaussian, Inc.),
 the Gaussian 86(TM) system (copyright 1986, Carnegie Mellon
 University), and the Gaussian 82(TM) system (copyright 1983,
 Carnegie Mellon University). Gaussian is a federally registered
 trademark of Gaussian, Inc.
  
 This software contains proprietary and confidential information,
 including trade secrets, belonging to Gaussian, Inc.
  
 This software is provided under written license and may be
 used, copied, transmitted, or stored only in accord with that
 written license.
  
 The following legend is applicable only to US Government
 contracts under FAR:
  
                    RESTRICTED RIGHTS LEGEND
  
 Use, reproduction and disclosure by the US Government is
 subject to restrictions as set forth in subparagraphs (a)
 and (c) of the Commercial Computer Software - Restricted
 Rights clause in FAR 52.227-19.
  
 Gaussian, Inc.
 340 Quinnipiac St., Bldg. 40, Wallingford CT 06492
  
  
 ---------------------------------------------------------------
 Warning -- This program may not be used in any manner that
 competes with the business of Gaussian, Inc. or will provide
 assistance to any competitor of Gaussian, Inc.  The licensee
 of this program is prohibited from giving any competitor of
 Gaussian, Inc. access to this program.  By using this program,
 the user acknowledges that Gaussian, Inc. is engaged in the
 business of creating and licensing software in the field of
 computational chemistry and represents and warrants to the
 licensee that it is not a competitor of Gaussian, Inc. and that
 it will not use this program in any manner prohibited above.
 ---------------------------------------------------------------
  

 Cite this work as:
 Gaussian 09, Revision D.01,
 M. J. Frisch, G. W. Trucks, H. B. Schlegel, G. E. Scuseria, 
 M. A. Robb, J. R. Cheeseman, G. Scalmani, V. Barone, B. Mennucci, 
 G. A. Petersson, H. Nakatsuji, M. Caricato, X. Li, H. P. Hratchian, 
 A. F. Izmaylov, J. Bloino, G. Zheng, J. L. Sonnenberg, M. Hada, 
 M. Ehara, K. Toyota, R. Fukuda, J. Hasegawa, M. Ishida, T. Nakajima, 
 Y. Honda, O. Kitao, H. Nakai, T. Vreven, J. A. Montgomery, Jr., 
 J. E. Peralta, F. Ogliaro, M. Bearpark, J. J. Heyd, E. Brothers, 
 K. N. Kudin, V. N. Staroverov, T. Keith, R. Kobayashi, J. Normand, 
 K. Raghavachari, A. Rendell, J. C. Burant, S. S. Iyengar, J. Tomasi, 
 M. Cossi, N. Rega, J. M. Millam, M. Klene, J. E. Knox, J. B. Cross, 
 V. Bakken, C. Adamo, J. Jaramillo, R. Gomperts, R. E. Stratmann, 
 O. Yazyev, A. J. Austin, R. Cammi, C. Pomelli, J. W. Ochterski, 
 R. L. Martin, K. Morokuma, V. G. Zakrzewski, G. A. Voth, 
 P. Salvador, J. J. Dannenberg, S. Dapprich, A. D. Daniels, 
 O. Farkas, J. B. Foresman, J. V. Ortiz, J. Cioslowski, 
 and D. J. Fox, Gaussian, Inc., Wallingford CT, 2013.
 
 ******************************************
 Gaussian 09:  ES64L-G09RevD.01 24-Apr-2013
                27-Jan-2020 
 ******************************************
 -----------------------------
 # b3lyp 6-31G(2df,p) opt Freq
 -----------------------------
 1/14=-1,18=20,19=15,26=3,38=1/1,3;
 2/9=110,12=2,17=6,18=5,40=1/2;
 3/5=1,6=6,7=104,11=2,16=1,25=1,30=1,71=1,74=-5/1,2,3;
 4//1;
 5/5=2,38=5/2;
 6/7=2,8=2,9=2,10=2,28=1/1;
 7//1,2,3,16;
 1/14=-1,18=20,19=15,26=3/3(2);
 2/9=110/2;
 99//99;
 2/9=110/2;
 3/5=1,6=6,7=104,11=2,16=1,25=1,30=1,71=1,74=-5/1,2,3;
 4/5=5,16=3,69=1/1;
 5/5=2,38=5/2;
 7//1,2,3,16;
 1/14=-1,18=20,19=15,26=3/3(-5);
 2/9=110/2;
 6/7=2,8=2,9=2,10=2,19=2,28=1/1;
 99/9=1/99;
 -----
 titel
 -----
 Symbolic Z-matrix:
 Charge =  0 Multiplicity = 1
 C                     1.50699  -0.01502   0.19033 
 C                     0.05478  -0.02881   0.07783 
 C                    -1.14431  -0.0726   -0.03656 
 C                    -2.60362  -0.04553  -0.13011 
 C                    -3.13951   1.37386  -0.01671 
 O                    -2.68608   2.07268   1.11823 
 C                    -4.54921   1.70557  -0.42359 
 C                    -3.37366   2.24417  -1.2261 
 O                    -3.03082   3.58904  -1.13941 
 H                     1.82866  -0.09934   1.23406 
 H                     1.95097  -0.85053  -0.3617 
 H                     1.92948   0.91063  -0.21525 
 H                    -2.93576  -0.48227  -1.07942 
 H                    -3.03845  -0.66141   0.6688 
 H                    -1.73095   1.92016   1.16452 
 H                    -5.16537   0.91801  -0.84566 
 H                    -5.07561   2.41938   0.20099 
 H                    -3.19406   1.84091  -2.21854 
 H                    -2.7617    3.7282   -0.21958 
 

 GradGradGradGradGradGradGradGradGradGradGradGradGradGradGradGradGradGrad
 Berny optimization.
 Initialization pass.
                           ----------------------------
                           !    Initial Parameters    !
                           ! (Angstroms and Degrees)  !
 --------------------------                            --------------------------
 ! Name  Definition              Value          Derivative Info.                !
 --------------------------------------------------------------------------------
 ! R1    R(1,2)                  1.4566         estimate D2E/DX2                !
 ! R2    R(1,10)                 1.0954         estimate D2E/DX2                !
 ! R3    R(1,11)                 1.0954         estimate D2E/DX2                !
 ! R4    R(1,12)                 1.0954         estimate D2E/DX2                !
 ! R5    R(2,3)                  1.2053         estimate D2E/DX2                !
 ! R6    R(3,4)                  1.4626         estimate D2E/DX2                !
 ! R7    R(4,5)                  1.5214         estimate D2E/DX2                !
 ! R8    R(4,13)                 1.0965         estimate D2E/DX2                !
 ! R9    R(4,14)                 1.0985         estimate D2E/DX2                !
 ! R10   R(5,6)                  1.4078         estimate D2E/DX2                !
 ! R11   R(5,7)                  1.5043         estimate D2E/DX2                !
 ! R12   R(5,8)                  1.5083         estimate D2E/DX2                !
 ! R13   R(6,15)                 0.9683         estimate D2E/DX2                !
 ! R14   R(7,8)                  1.5219         estimate D2E/DX2                !
 ! R15   R(7,16)                 1.0854         estimate D2E/DX2                !
 ! R16   R(7,17)                 1.0848         estimate D2E/DX2                !
 ! R17   R(8,9)                  1.3906         estimate D2E/DX2                !
 ! R18   R(8,18)                 1.0862         estimate D2E/DX2                !
 ! R19   R(9,19)                 0.9684         estimate D2E/DX2                !
 ! A1    A(2,1,10)             111.4457         estimate D2E/DX2                !
 ! A2    A(2,1,11)             110.9735         estimate D2E/DX2                !
 ! A3    A(2,1,12)             111.342          estimate D2E/DX2                !
 ! A4    A(10,1,11)            107.6043         estimate D2E/DX2                !
 ! A5    A(10,1,12)            107.7333         estimate D2E/DX2                !
 ! A6    A(11,1,12)            107.5553         estimate D2E/DX2                !
 ! A7    A(3,4,5)              111.343          estimate D2E/DX2                !
 ! A8    A(3,4,13)             110.5027         estimate D2E/DX2                !
 ! A9    A(3,4,14)             109.7598         estimate D2E/DX2                !
 ! A10   A(5,4,13)             109.2347         estimate D2E/DX2                !
 ! A11   A(5,4,14)             109.2337         estimate D2E/DX2                !
 ! A12   A(13,4,14)            106.6458         estimate D2E/DX2                !
 ! A13   A(4,5,6)              114.1877         estimate D2E/DX2                !
 ! A14   A(4,5,7)              121.041          estimate D2E/DX2                !
 ! A15   A(4,5,8)              122.2249         estimate D2E/DX2                !
 ! A16   A(6,5,7)              114.2315         estimate D2E/DX2                !
 ! A17   A(6,5,8)              114.2037         estimate D2E/DX2                !
 ! A18   A(5,6,15)             106.1433         estimate D2E/DX2                !
 ! A19   A(5,7,16)             118.501          estimate D2E/DX2                !
 ! A20   A(5,7,17)             116.3672         estimate D2E/DX2                !
 ! A21   A(8,7,16)             119.3575         estimate D2E/DX2                !
 ! A22   A(8,7,17)             116.4601         estimate D2E/DX2                !
 ! A23   A(16,7,17)            115.2072         estimate D2E/DX2                !
 ! A24   A(5,8,9)              118.0207         estimate D2E/DX2                !
 ! A25   A(5,8,18)             119.52           estimate D2E/DX2                !
 ! A26   A(7,8,9)              119.9896         estimate D2E/DX2                !
 ! A27   A(7,8,18)             118.5637         estimate D2E/DX2                !
 ! A28   A(9,8,18)             112.0404         estimate D2E/DX2                !
 ! A29   A(8,9,19)             105.4677         estimate D2E/DX2                !
 ! A30   L(1,2,3,15,-1)        181.8463         estimate D2E/DX2                !
 ! A31   L(2,3,4,15,-1)        176.3905         estimate D2E/DX2                !
 ! A32   L(1,2,3,15,-2)        179.9364         estimate D2E/DX2                !
 ! A33   L(2,3,4,15,-2)        179.8473         estimate D2E/DX2                !
 ! D1    D(10,1,4,5)            88.709          estimate D2E/DX2                !
 ! D2    D(10,1,4,13)         -149.8609         estimate D2E/DX2                !
 ! D3    D(10,1,4,14)          -31.5302         estimate D2E/DX2                !
 ! D4    D(11,1,4,5)          -151.3052         estimate D2E/DX2                !
 ! D5    D(11,1,4,13)          -29.8751         estimate D2E/DX2                !
 ! D6    D(11,1,4,14)           88.4556         estimate D2E/DX2                !
 ! D7    D(12,1,4,5)           -31.5552         estimate D2E/DX2                !
 ! D8    D(12,1,4,13)           89.8749         estimate D2E/DX2                !
 ! D9    D(12,1,4,14)         -151.7944         estimate D2E/DX2                !
 ! D10   D(3,4,5,6)            -52.8707         estimate D2E/DX2                !
 ! D11   D(3,4,5,7)            164.4322         estimate D2E/DX2                !
 ! D12   D(3,4,5,8)             91.6573         estimate D2E/DX2                !
 ! D13   D(13,4,5,6)          -175.1883         estimate D2E/DX2                !
 ! D14   D(13,4,5,7)            42.1147         estimate D2E/DX2                !
 ! D15   D(13,4,5,8)           -30.6603         estimate D2E/DX2                !
 ! D16   D(14,4,5,6)            68.5124         estimate D2E/DX2                !
 ! D17   D(14,4,5,7)           -74.1847         estimate D2E/DX2                !
 ! D18   D(14,4,5,8)          -146.9596         estimate D2E/DX2                !
 ! D19   D(4,5,6,15)            46.3585         estimate D2E/DX2                !
 ! D20   D(7,5,6,15)          -168.3508         estimate D2E/DX2                !
 ! D21   D(8,5,6,15)          -101.0783         estimate D2E/DX2                !
 ! D22   D(4,5,7,16)            -2.845          estimate D2E/DX2                !
 ! D23   D(4,5,7,17)           141.2554         estimate D2E/DX2                !
 ! D24   D(6,5,7,16)          -145.5271         estimate D2E/DX2                !
 ! D25   D(6,5,7,17)            -1.4266         estimate D2E/DX2                !
 ! D26   D(4,5,8,9)           -139.7005         estimate D2E/DX2                !
 ! D27   D(4,5,8,18)             2.4701         estimate D2E/DX2                !
 ! D28   D(6,5,8,9)              4.8224         estimate D2E/DX2                !
 ! D29   D(6,5,8,18)           146.993          estimate D2E/DX2                !
 ! D30   D(16,7,8,9)           145.3379         estimate D2E/DX2                !
 ! D31   D(16,7,8,18)            1.487          estimate D2E/DX2                !
 ! D32   D(17,7,8,9)            -0.3302         estimate D2E/DX2                !
 ! D33   D(17,7,8,18)         -144.1811         estimate D2E/DX2                !
 ! D34   D(5,8,9,19)            -5.3441         estimate D2E/DX2                !
 ! D35   D(7,8,9,19)            63.792          estimate D2E/DX2                !
 ! D36   D(18,8,9,19)         -150.1904         estimate D2E/DX2                !
 --------------------------------------------------------------------------------
 Trust Radius=3.00D-01 FncErr=1.00D-07 GrdErr=1.00D-06
 Number of steps in this run=     98 maximum allowed number of steps=    114.
 GradGradGradGradGradGradGradGradGradGradGradGradGradGradGradGradGradGrad

                          Input orientation:                          
 ---------------------------------------------------------------------
 Center     Atomic      Atomic             Coordinates (Angstroms)
 Number     Number       Type             X           Y           Z
 ---------------------------------------------------------------------
      1          6           0        1.506989   -0.015022    0.190335
      2          6           0        0.054778   -0.028806    0.077834
      3          6           0       -1.144311   -0.072602   -0.036563
      4          6           0       -2.603617   -0.045533   -0.130112
      5          6           0       -3.139513    1.373862   -0.016711
      6          8           0       -2.686076    2.072680    1.118227
      7          6           0       -4.549211    1.705571   -0.423594
      8          6           0       -3.373656    2.244174   -1.226102
      9          8           0       -3.030816    3.589042   -1.139405
     10          1           0        1.828656   -0.099343    1.234056
     11          1           0        1.950967   -0.850529   -0.361703
     12          1           0        1.929479    0.910635   -0.215251
     13          1           0       -2.935756   -0.482271   -1.079419
     14          1           0       -3.038450   -0.661405    0.668803
     15          1           0       -1.730955    1.920162    1.164519
     16          1           0       -5.165368    0.918008   -0.845657
     17          1           0       -5.075612    2.419384    0.200986
     18          1           0       -3.194056    1.840908   -2.218536
     19          1           0       -2.761699    3.728197   -0.219584
 ---------------------------------------------------------------------
                    Distance matrix (angstroms):
                    1          2          3          4          5
     1  C    0.000000
     2  C    1.456628   0.000000
     3  C    2.661614   1.205329   0.000000
     4  C    4.123191   2.666569   1.462553   0.000000
     5  C    4.854055   3.489973   2.464444   1.521422   0.000000
     6  O    4.775069   3.607069   2.883196   2.460077   1.407849
     7  C    6.325734   4.945322   3.860705   2.633977   1.504272
     8  C    5.561561   4.315188   3.428182   2.652718   1.508275
     9  O    5.945516   4.908298   4.264129   3.796223   2.485816
    10  H    1.095415   2.118601   3.233221   4.637769   5.330802
    11  H    1.095415   2.112807   3.208057   4.630971   5.565961
    12  H    1.095371   2.117299   3.232162   4.633624   5.093984
    13  H    4.644199   3.238543   2.112973   1.096467   2.148510
    14  H    4.616033   3.212085   2.105231   1.098473   2.149990
    15  H    3.895928   2.858007   2.399554   2.510293   1.917755
    16  H    6.816463   5.385092   4.219578   2.828954   2.235854
    17  H    7.018339   5.685921   4.660638   3.506593   2.211106
    18  H    5.598836   4.395915   3.553024   2.875551   2.251475
    19  H    5.692224   4.704898   4.134672   3.778099   2.393072
                    6          7          8          9         10
     6  O    0.000000
     7  C    2.446069   0.000000
     8  C    2.449094   1.521855   0.000000
     9  O    2.741369   2.522969   1.390585   0.000000
    10  H    5.011378   6.832475   6.213574   6.546142   0.000000
    11  H    5.677809   6.984970   6.219002   6.718093   1.767961
    12  H    4.942860   6.530602   5.560881   5.712483   1.769381
    13  H    3.379315   2.796426   2.765280   4.072864   5.310219
    14  H    2.793094   3.013023   3.485028   4.619088   4.931952
    15  H    0.968329   3.242024   2.918651   3.127757   4.093173
    16  H    3.367046   1.085377   2.261346   3.431767   7.367264
    17  H    2.582909   1.084770   2.227988   2.710339   7.421599
    18  H    3.383157   2.253127   1.086188   2.060860   6.396296
    19  H    2.129834   2.706998   1.894702   0.968431   6.150974
                   11         12         13         14         15
    11  H    0.000000
    12  H    1.767373   0.000000
    13  H    4.952857   5.133955   0.000000
    14  H    5.098235   5.285186   1.760374   0.000000
    15  H    4.854136   4.040011   3.501213   2.935944   0.000000
    16  H    7.348752   7.122803   2.643217   3.051543   4.103695
    17  H    7.770570   7.177805   3.825967   3.722921   3.516297
    18  H    6.096140   5.579352   2.600282   3.823939   3.686734
    19  H    6.572226   5.472278   4.300890   4.487140   2.499433
                   16         17         18         19
    16  H    0.000000
    17  H    1.832389   0.000000
    18  H    2.573444   3.119130   0.000000
    19  H    3.750567   2.691480   2.782912   0.000000
 Stoichiometry    C7H10O2
 Framework group  C1[X(C7H10O2)]
 Deg. of freedom    51
 Full point group                 C1      NOp   1
 Largest Abelian subgroup         C1      NOp   1
 Largest concise Abelian subgroup C1      NOp   1
                         Standard orientation:                         
 ---------------------------------------------------------------------
 Center     Atomic      Atomic             Coordinates (Angstroms)
 Number     Number       Type             X           Y           Z
 ---------------------------------------------------------------------
      1          6           0        3.792999    0.665089   -0.086895
      2          6           0        2.527503   -0.054186   -0.141000
      3          6           0        1.495006   -0.671805   -0.213896
      4          6           0        0.206524   -1.363318   -0.240084
      5          6           0       -0.922243   -0.448312    0.210885
      6          8           0       -0.699495    0.172619    1.454616
      7          6           0       -2.360187   -0.801925   -0.053901
      8          6           0       -1.720317    0.383755   -0.761553
      9          8           0       -2.057415    1.680329   -0.388742
     10          1           0        4.264754    0.572119    0.897350
     11          1           0        4.497371    0.275745   -0.830000
     12          1           0        3.653992    1.732303   -0.290780
     13          1           0       -0.010051   -1.733810   -1.249079
     14          1           0        0.243702   -2.242916    0.416856
     15          1           0        0.206405    0.513558    1.426921
     16          1           0       -2.576403   -1.704281   -0.616969
     17          1           0       -3.066704   -0.569708    0.735804
     18          1           0       -1.516841    0.305462   -1.825636
     19          1           0       -1.756658    1.772157    0.527212
 ---------------------------------------------------------------------
 Rotational constants (GHZ):      3.0839215      0.8508229      0.7804806
 Standard basis: 6-31G(2df,p) (6D, 7F)
 There are   329 symmetry adapted cartesian basis functions of A   symmetry.
 There are   302 symmetry adapted basis functions of A   symmetry.
   302 basis functions,   466 primitive gaussians,   329 cartesian basis functions
    34 alpha electrons       34 beta electrons
       nuclear repulsion energy       431.6775480643 Hartrees.
 NAtoms=   19 NActive=   19 NUniq=   19 SFac= 1.00D+00 NAtFMM=   60 NAOKFM=F Big=F
 Integral buffers will be    131072 words long.
 Raffenetti 2 integral format.
 Two-electron integral symmetry is turned on.
 One-electron integrals computed using PRISM.
 NBasis=   302 RedAO= T EigKep=  7.45D-05  NBF=   302
 NBsUse=   302 1.00D-06 EigRej= -1.00D+00 NBFU=   302
 ExpMin= 1.61D-01 ExpMax= 5.48D+03 ExpMxC= 8.25D+02 IAcc=1 IRadAn=         1 AccDes= 0.00D+00
 Harris functional with IExCor=  402 and IRadAn=       1 diagonalized for initial guess.
 HarFok:  IExCor=  402 AccDes= 0.00D+00 IRadAn=         1 IDoV= 1 UseB2=F ITyADJ=14
 ICtDFT=  3500011 ScaDFX=  1.000000  1.000000  1.000000  1.000000
 FoFCou: FMM=F IPFlag=           0 FMFlag=      100000 FMFlg1=           0
         NFxFlg=           0 DoJE=T BraDBF=F KetDBF=T FulRan=T
         wScrn=  0.000000 ICntrl=     500 IOpCl=  0 I1Cent=   200000004 NGrid=           0
         NMat0=    1 NMatS0=      1 NMatT0=    0 NMatD0=    1 NMtDS0=    0 NMtDT0=    0
 Petite list used in FoFCou.
 Requested convergence on RMS density matrix=1.00D-08 within 128 cycles.
 Requested convergence on MAX density matrix=1.00D-06.
 Requested convergence on             energy=1.00D-06.
 No special actions if energy rises.
 Integral accuracy reduced to 1.0D-05 until final iterations.
 Initial convergence to 1.0D-05 achieved.  Increase integral accuracy.
 SCF Done:  E(RB3LYP) =  -423.137876415     A.U. after   14 cycles
            NFock= 14  Conv=0.38D-08     -V/T= 2.0075

 **********************************************************************

            Population analysis using the SCF density.

 **********************************************************************

 Orbital symmetries:
       Occupied  (A) (A) (A) (A) (A) (A) (A) (A) (A) (A) (A) (A)
                 (A) (A) (A) (A) (A) (A) (A) (A) (A) (A) (A) (A)
                 (A) (A) (A) (A) (A) (A) (A) (A) (A) (A)
       Virtual   (A) (A) (A) (A) (A) (A) (A) (A) (A) (A) (A) (A)
                 (A) (A) (A) (A) (A) (A) (A) (A) (A) (A) (A) (A)
                 (A) (A) (A) (A) (A) (A) (A) (A) (A) (A) (A) (A)
                 (A) (A) (A) (A) (A) (A) (A) (A) (A) (A) (A) (A)
                 (A) (A) (A) (A) (A) (A) (A) (A) (A) (A) (A) (A)
                 (A) (A) (A) (A) (A) (A) (A) (A) (A) (A) (A) (A)
                 (A) (A) (A) (A) (A) (A) (A) (A) (A) (A) (A) (A)
                 (A) (A) (A) (A) (A) (A) (A) (A) (A) (A) (A) (A)
                 (A) (A) (A) (A) (A) (A) (A) (A) (A) (A) (A) (A)
                 (A) (A) (A) (A) (A) (A) (A) (A) (A) (A) (A) (A)
                 (A) (A) (A) (A) (A) (A) (A) (A) (A) (A) (A) (A)
                 (A) (A) (A) (A) (A) (A) (A) (A) (A) (A) (A) (A)
                 (A) (A) (A) (A) (A) (A) (A) (A) (A) (A) (A) (A)
                 (A) (A) (A) (A) (A) (A) (A) (A) (A) (A) (A) (A)
                 (A) (A) (A) (A) (A) (A) (A) (A) (A) (A) (A) (A)
                 (A) (A) (A) (A) (A) (A) (A) (A) (A) (A) (A) (A)
                 (A) (A) (A) (A) (A) (A) (A) (A) (A) (A) (A) (A)
                 (A) (A) (A) (A) (A) (A) (A) (A) (A) (A) (A) (A)
                 (A) (A) (A) (A) (A) (A) (A) (A) (A) (A) (A) (A)
                 (A) (A) (A) (A) (A) (A) (A) (A) (A) (A) (A) (A)
                 (A) (A) (A) (A) (A) (A) (A) (A) (A) (A) (A) (A)
                 (A) (A) (A) (A) (A) (A) (A) (A) (A) (A) (A) (A)
                 (A) (A) (A) (A)
 The electronic state is 1-A.
 Alpha  occ. eigenvalues --  -19.15452 -19.12977 -10.24358 -10.22847 -10.21512
 Alpha  occ. eigenvalues --  -10.21116 -10.18555 -10.18028 -10.17919  -1.04704
 Alpha  occ. eigenvalues --   -1.00982  -0.84060  -0.79203  -0.75540  -0.68189
 Alpha  occ. eigenvalues --   -0.60720  -0.58545  -0.52828  -0.50896  -0.48602
 Alpha  occ. eigenvalues --   -0.45722  -0.44885  -0.43745  -0.43269  -0.42748
 Alpha  occ. eigenvalues --   -0.40575  -0.38668  -0.36934  -0.35485  -0.31972
 Alpha  occ. eigenvalues --   -0.26766  -0.26240  -0.25992  -0.22851
 Alpha virt. eigenvalues --    0.04121   0.05148   0.08016   0.10454   0.11017
 Alpha virt. eigenvalues --    0.11902   0.13854   0.14172   0.16100   0.16625
 Alpha virt. eigenvalues --    0.17606   0.18123   0.19278   0.20813   0.22401
 Alpha virt. eigenvalues --    0.24715   0.24978   0.26234   0.30905   0.33191
 Alpha virt. eigenvalues --    0.36393   0.38840   0.43632   0.44134   0.47573
 Alpha virt. eigenvalues --    0.49272   0.50224   0.51116   0.51818   0.52351
 Alpha virt. eigenvalues --    0.56622   0.57797   0.58305   0.60298   0.62413
 Alpha virt. eigenvalues --    0.62571   0.64416   0.67358   0.67860   0.68592
 Alpha virt. eigenvalues --    0.69825   0.70230   0.71443   0.73091   0.73461
 Alpha virt. eigenvalues --    0.75430   0.76196   0.77634   0.78161   0.79566
 Alpha virt. eigenvalues --    0.80592   0.80799   0.82723   0.83114   0.86781
 Alpha virt. eigenvalues --    0.87455   0.89300   0.91439   0.92847   0.95735
 Alpha virt. eigenvalues --    0.98972   1.00350   1.01377   1.03684   1.04389
 Alpha virt. eigenvalues --    1.06670   1.08611   1.10225   1.11875   1.13401
 Alpha virt. eigenvalues --    1.15306   1.17044   1.18883   1.22434   1.25075
 Alpha virt. eigenvalues --    1.29415   1.32826   1.36470   1.37287   1.38192
 Alpha virt. eigenvalues --    1.40819   1.41595   1.42124   1.44852   1.46923
 Alpha virt. eigenvalues --    1.47618   1.49891   1.52381   1.53562   1.56520
 Alpha virt. eigenvalues --    1.58364   1.62569   1.64140   1.65748   1.68762
 Alpha virt. eigenvalues --    1.72898   1.74100   1.75125   1.76655   1.77875
 Alpha virt. eigenvalues --    1.82237   1.83968   1.88579   1.89995   1.92522
 Alpha virt. eigenvalues --    1.93042   1.96903   2.02256   2.09785   2.13490
 Alpha virt. eigenvalues --    2.17658   2.20032   2.24221   2.29159   2.30111
 Alpha virt. eigenvalues --    2.30955   2.34719   2.36220   2.42183   2.46226
 Alpha virt. eigenvalues --    2.48923   2.52500   2.54588   2.55491   2.61387
 Alpha virt. eigenvalues --    2.61482   2.62839   2.63262   2.65786   2.66301
 Alpha virt. eigenvalues --    2.68215   2.69912   2.71815   2.73466   2.77107
 Alpha virt. eigenvalues --    2.77698   2.79126   2.84014   2.87230   2.89599
 Alpha virt. eigenvalues --    2.93188   2.94334   2.94819   2.97374   2.98709
 Alpha virt. eigenvalues --    2.99659   3.02841   3.04560   3.05552   3.06187
 Alpha virt. eigenvalues --    3.07269   3.09924   3.11126   3.18347   3.19060
 Alpha virt. eigenvalues --    3.20350   3.22023   3.22538   3.25412   3.28140
 Alpha virt. eigenvalues --    3.29539   3.32740   3.33000   3.36564   3.36687
 Alpha virt. eigenvalues --    3.43127   3.48162   3.49586   3.52282   3.53579
 Alpha virt. eigenvalues --    3.57804   3.62344   3.63840   3.65834   3.66670
 Alpha virt. eigenvalues --    3.68629   3.75008   3.80445   3.82645   3.86815
 Alpha virt. eigenvalues --    3.88020   3.90760   3.92988   3.96375   3.99233
 Alpha virt. eigenvalues --    4.06889   4.08121   4.11432   4.13629   4.16563
 Alpha virt. eigenvalues --    4.18317   4.19902   4.23001   4.25339   4.27724
 Alpha virt. eigenvalues --    4.30638   4.31462   4.34591   4.35921   4.37029
 Alpha virt. eigenvalues --    4.37351   4.40124   4.45429   4.47438   4.48804
 Alpha virt. eigenvalues --    4.50841   4.52036   4.54576   4.57054   4.59745
 Alpha virt. eigenvalues --    4.62323   4.63734   4.66788   4.71004   4.71509
 Alpha virt. eigenvalues --    4.73709   4.74010   4.75820   4.77117   4.78571
 Alpha virt. eigenvalues --    4.80612   4.83060   4.84611   4.88603   4.91002
 Alpha virt. eigenvalues --    4.94221   4.97372   5.01088   5.01367   5.06908
 Alpha virt. eigenvalues --    5.08081   5.22701   5.23572   5.29522   5.33746
 Alpha virt. eigenvalues --    5.39999   5.43201   5.46772   5.48543   5.49999
 Alpha virt. eigenvalues --    5.52466   5.55458   5.58565   5.62769   5.67390
 Alpha virt. eigenvalues --    5.68734   5.73587   5.75556   5.98773   6.00908
 Alpha virt. eigenvalues --    6.08326   6.10988   6.14010   6.23730   6.24775
 Alpha virt. eigenvalues --    6.48028   7.08192   7.12795   7.23522   9.90713
 Alpha virt. eigenvalues --   10.75301  11.04133  11.71163  12.08196  12.19790
 Alpha virt. eigenvalues --   12.46089  13.21330  13.46599
          Condensed to atoms (all electrons):
               1          2          3          4          5          6
     1  C    4.994865   0.427551  -0.040556   0.000195   0.000071   0.000004
     2  C    0.427551   4.659590   0.919297  -0.029724  -0.007576  -0.002307
     3  C   -0.040556   0.919297   4.779876   0.402352  -0.037694  -0.005085
     4  C    0.000195  -0.029724   0.402352   5.158694   0.375806  -0.054142
     5  C    0.000071  -0.007576  -0.037694   0.375806   4.460813   0.417911
     6  O    0.000004  -0.002307  -0.005085  -0.054142   0.417911   7.843174
     7  C    0.000001   0.000448   0.006115  -0.038831   0.302823  -0.009600
     8  C   -0.000015  -0.001182  -0.005203  -0.054972   0.301700  -0.062082
     9  O    0.000000   0.000040   0.000123   0.001799  -0.017190  -0.008897
    10  H    0.374538  -0.023282  -0.003062  -0.000049   0.000007   0.000002
    11  H    0.368758  -0.020100  -0.000579  -0.000070  -0.000005   0.000000
    12  H    0.373832  -0.022994  -0.001831   0.000055  -0.000001   0.000004
    13  H   -0.000058  -0.004285  -0.022979   0.344354  -0.016388   0.002771
    14  H   -0.000067  -0.005473  -0.028771   0.337846  -0.015038   0.000933
    15  H   -0.000073   0.008674   0.022416  -0.012904  -0.075747   0.310481
    16  H    0.000000   0.000018   0.000596  -0.007635  -0.017573   0.001348
    17  H    0.000000  -0.000014  -0.000272   0.001985  -0.006989  -0.000554
    18  H    0.000001   0.000188   0.001496  -0.007720  -0.033246   0.001267
    19  H    0.000001   0.000067   0.000021   0.001242  -0.003984   0.037217
               7          8          9         10         11         12
     1  C    0.000001  -0.000015   0.000000   0.374538   0.368758   0.373832
     2  C    0.000448  -0.001182   0.000040  -0.023282  -0.020100  -0.022994
     3  C    0.006115  -0.005203   0.000123  -0.003062  -0.000579  -0.001831
     4  C   -0.038831  -0.054972   0.001799  -0.000049  -0.000070   0.000055
     5  C    0.302823   0.301700  -0.017190   0.000007  -0.000005  -0.000001
     6  O   -0.009600  -0.062082  -0.008897   0.000002   0.000000   0.000004
     7  C    5.301801   0.192266  -0.025559   0.000000   0.000000   0.000000
     8  C    0.192266   4.861161   0.397478   0.000000   0.000000  -0.000003
     9  O   -0.025559   0.397478   7.802376   0.000000   0.000000   0.000000
    10  H    0.000000   0.000000   0.000000   0.564600  -0.030956  -0.032053
    11  H    0.000000   0.000000   0.000000  -0.030956   0.559269  -0.030482
    12  H    0.000000  -0.000003   0.000000  -0.032053  -0.030482   0.561185
    13  H   -0.001530  -0.002359   0.000065  -0.000006   0.000020   0.000002
    14  H   -0.004315   0.006236  -0.000062   0.000022   0.000001  -0.000006
    15  H    0.008885   0.002759   0.000525  -0.000058   0.000019  -0.000074
    16  H    0.352863  -0.007137   0.001736   0.000000   0.000000   0.000000
    17  H    0.342584  -0.000610  -0.001784   0.000000   0.000000   0.000000
    18  H   -0.053783   0.377581  -0.028346   0.000000   0.000000  -0.000001
    19  H    0.008309  -0.099278   0.314392   0.000000   0.000000   0.000000
              13         14         15         16         17         18
     1  C   -0.000058  -0.000067  -0.000073   0.000000   0.000000   0.000001
     2  C   -0.004285  -0.005473   0.008674   0.000018  -0.000014   0.000188
     3  C   -0.022979  -0.028771   0.022416   0.000596  -0.000272   0.001496
     4  C    0.344354   0.337846  -0.012904  -0.007635   0.001985  -0.007720
     5  C   -0.016388  -0.015038  -0.075747  -0.017573  -0.006989  -0.033246
     6  O    0.002771   0.000933   0.310481   0.001348  -0.000554   0.001267
     7  C   -0.001530  -0.004315   0.008885   0.352863   0.342584  -0.053783
     8  C   -0.002359   0.006236   0.002759  -0.007137  -0.000610   0.377581
     9  O    0.000065  -0.000062   0.000525   0.001736  -0.001784  -0.028346
    10  H   -0.000006   0.000022  -0.000058   0.000000   0.000000   0.000000
    11  H    0.000020   0.000001   0.000019   0.000000   0.000000   0.000000
    12  H    0.000002  -0.000006  -0.000074   0.000000   0.000000  -0.000001
    13  H    0.604130  -0.037737   0.000428   0.001512  -0.000099   0.002030
    14  H   -0.037737   0.609614  -0.000468   0.001943   0.000282  -0.000021
    15  H    0.000428  -0.000468   0.447783  -0.000150  -0.000215   0.000363
    16  H    0.001512   0.001943  -0.000150   0.597313  -0.030985  -0.004073
    17  H   -0.000099   0.000282  -0.000215  -0.030985   0.568656   0.002529
    18  H    0.002030  -0.000021   0.000363  -0.004073   0.002529   0.636395
    19  H   -0.000058  -0.000054  -0.000567  -0.000290   0.000538   0.005974
              19
     1  C    0.000001
     2  C    0.000067
     3  C    0.000021
     4  C    0.001242
     5  C   -0.003984
     6  O    0.037217
     7  C    0.008309
     8  C   -0.099278
     9  O    0.314392
    10  H    0.000000
    11  H    0.000000
    12  H    0.000000
    13  H   -0.000058
    14  H   -0.000054
    15  H   -0.000567
    16  H   -0.000290
    17  H    0.000538
    18  H    0.005974
    19  H    0.453139
 Mulliken charges:
               1
     1  C   -0.499050
     2  C    0.101065
     3  C    0.013739
     4  C   -0.418281
     5  C    0.372300
     6  O   -0.472444
     7  C   -0.382477
     8  C    0.093658
     9  O   -0.436696
    10  H    0.150297
    11  H    0.154125
    12  H    0.152365
    13  H    0.130185
    14  H    0.135132
    15  H    0.287923
    16  H    0.110514
    17  H    0.124950
    18  H    0.099365
    19  H    0.283331
 Sum of Mulliken charges =   0.00000
 Mulliken charges with hydrogens summed into heavy atoms:
               1
     1  C   -0.042264
     2  C    0.101065
     3  C    0.013739
     4  C   -0.152964
     5  C    0.372300
     6  O   -0.184521
     7  C   -0.147013
     8  C    0.193023
     9  O   -0.153366
 Electronic spatial extent (au):  <R**2>=           1551.2248
 Charge=              0.0000 electrons
 Dipole moment (field-independent basis, Debye):
    X=              2.4432    Y=             -0.8944    Z=              0.0114  Tot=              2.6017
 Quadrupole moment (field-independent basis, Debye-Ang):
   XX=            -50.0180   YY=            -53.1754   ZZ=            -53.7341
   XY=              6.6304   XZ=              0.1577   YZ=              3.7593
 Traceless Quadrupole moment (field-independent basis, Debye-Ang):
   XX=              2.2912   YY=             -0.8662   ZZ=             -1.4250
   XY=              6.6304   XZ=              0.1577   YZ=              3.7593
 Octapole moment (field-independent basis, Debye-Ang**2):
  XXX=             29.5013  YYY=              3.6751  ZZZ=             -0.4596  XYY=              2.1820
  XXY=              3.1851  XXZ=              6.9594  XZZ=             -1.6758  YZZ=              3.9461
  YYZ=              6.6071  XYZ=             -5.3050
 Hexadecapole moment (field-independent basis, Debye-Ang**3):
 XXXX=          -1387.4327 YYYY=           -329.3127 ZZZZ=           -187.8505 XXXY=             40.8214
 XXXZ=            -26.6138 YYYX=              4.9208 YYYZ=             11.6793 ZZZX=             10.9524
 ZZZY=              2.9094 XXYY=           -319.8067 XXZZ=           -274.9968 YYZZ=            -83.5493
 XXYZ=             10.7223 YYXZ=             -8.6444 ZZXY=             -3.4028
 N-N= 4.316775480643D+02 E-N=-1.850106157272D+03  KE= 4.200044893790D+02
 Calling FoFJK, ICntrl=      2127 FMM=F ISym2X=0 I1Cent= 0 IOpClX= 0 NMat=1 NMatS=1 NMatT=0.
 ***** Axes restored to original set *****
 -------------------------------------------------------------------
 Center     Atomic                   Forces (Hartrees/Bohr)
 Number     Number              X              Y              Z
 -------------------------------------------------------------------
      1        6          -0.000005463   -0.000002288   -0.000002811
      2        6           0.000001766    0.000001093   -0.000000121
      3        6          -0.000001294   -0.000001329    0.000001254
      4        6           0.000003618    0.000001141    0.000007322
      5        6          -0.000003418   -0.000006902   -0.000007029
      6        8           0.000004582    0.000005926    0.000001702
      7        6          -0.000002676    0.000006716    0.000007402
      8        6           0.000002452    0.000005727   -0.000003391
      9        8          -0.000002291   -0.000006615   -0.000003092
     10        1           0.000002122    0.000001036   -0.000002681
     11        1          -0.000000371   -0.000003243   -0.000000949
     12        1           0.000000253   -0.000002963   -0.000005664
     13        1          -0.000002725   -0.000002376    0.000005874
     14        1          -0.000000478    0.000003961    0.000006212
     15        1           0.000002203    0.000003582   -0.000002713
     16        1           0.000001428   -0.000000665    0.000003621
     17        1           0.000000677    0.000002346    0.000001266
     18        1          -0.000003022   -0.000006228   -0.000000068
     19        1           0.000002637    0.000001080   -0.000006135
 -------------------------------------------------------------------
 Cartesian Forces:  Max     0.000007402 RMS     0.000003777

 GradGradGradGradGradGradGradGradGradGradGradGradGradGradGradGradGradGrad
 Berny optimization.
 FormGI is forming the generalized inverse of G from B-inverse, IUseBI=4.
 Internal  Forces:  Max     0.000004314 RMS     0.000001141
 Search for a local minimum.
 Step number   1 out of a maximum of   98
 All quantities printed in internal units (Hartrees-Bohrs-Radians)
 Mixed Optimization -- En-DIIS/RFO-DIIS
 Second derivative matrix not updated -- first step.
 ITU=  0
     Eigenvalues ---    0.00230   0.00483   0.00958   0.00976   0.01588
     Eigenvalues ---    0.01816   0.02098   0.02386   0.02960   0.03052
     Eigenvalues ---    0.03262   0.03551   0.03998   0.04134   0.04262
     Eigenvalues ---    0.05141   0.06972   0.07205   0.09110   0.10513
     Eigenvalues ---    0.10709   0.11981   0.12384   0.16000   0.16000
     Eigenvalues ---    0.16000   0.16000   0.16000   0.17354   0.19173
     Eigenvalues ---    0.20182   0.21864   0.24821   0.27426   0.30230
     Eigenvalues ---    0.31252   0.33851   0.34076   0.34194   0.34194
     Eigenvalues ---    0.34199   0.35257   0.35352   0.35424   0.36646
     Eigenvalues ---    0.37390   0.44344   0.47217   0.53699   0.53720
     Eigenvalues ---    1.02190
 RFO step:  Lambda= 0.00000000D+00 EMin= 2.30000000D-03
 Linear search not attempted -- first point.
 Iteration  1 RMS(Cart)=  0.00003141 RMS(Int)=  0.00000000
 Iteration  2 RMS(Cart)=  0.00000000 RMS(Int)=  0.00000000
 Variable       Old X    -DE/DX   Delta X   Delta X   Delta X     New X
                                 (Linear)    (Quad)   (Total)
    R1        2.75263   0.00000   0.00000  -0.00001  -0.00001   2.75262
    R2        2.07003   0.00000   0.00000   0.00000   0.00000   2.07003
    R3        2.07003   0.00000   0.00000   0.00000   0.00000   2.07004
    R4        2.06995   0.00000   0.00000   0.00000   0.00000   2.06995
    R5        2.27774   0.00000   0.00000   0.00000   0.00000   2.27774
    R6        2.76382   0.00000   0.00000   0.00000   0.00000   2.76382
    R7        2.87507   0.00000   0.00000   0.00000   0.00000   2.87507
    R8        2.07202   0.00000   0.00000   0.00000   0.00000   2.07202
    R9        2.07581   0.00000   0.00000   0.00000   0.00000   2.07581
   R10        2.66045   0.00000   0.00000   0.00001   0.00001   2.66046
   R11        2.84266   0.00000   0.00000   0.00000   0.00000   2.84266
   R12        2.85023   0.00000   0.00000   0.00000   0.00000   2.85023
   R13        1.82988   0.00000   0.00000   0.00000   0.00000   1.82988
   R14        2.87589   0.00000   0.00000   0.00001   0.00001   2.87589
   R15        2.05106   0.00000   0.00000   0.00000   0.00000   2.05106
   R16        2.04992   0.00000   0.00000   0.00000   0.00000   2.04992
   R17        2.62782   0.00000   0.00000  -0.00001  -0.00001   2.62782
   R18        2.05260   0.00000   0.00000   0.00000   0.00000   2.05260
   R19        1.83007   0.00000   0.00000   0.00000   0.00000   1.83007
    A1        1.94509   0.00000   0.00000   0.00000   0.00000   1.94510
    A2        1.93685   0.00000   0.00000   0.00001   0.00001   1.93686
    A3        1.94329   0.00000   0.00000   0.00000   0.00000   1.94329
    A4        1.87805   0.00000   0.00000   0.00000   0.00000   1.87804
    A5        1.88030   0.00000   0.00000   0.00000   0.00000   1.88030
    A6        1.87719   0.00000   0.00000  -0.00001  -0.00001   1.87719
    A7        1.94330   0.00000   0.00000   0.00001   0.00001   1.94331
    A8        1.92864   0.00000   0.00000   0.00000   0.00000   1.92863
    A9        1.91567   0.00000   0.00000   0.00000   0.00000   1.91567
   A10        1.90650   0.00000   0.00000   0.00000   0.00000   1.90651
   A11        1.90649   0.00000   0.00000  -0.00001  -0.00001   1.90647
   A12        1.86132   0.00000   0.00000   0.00000   0.00000   1.86132
   A13        1.99295   0.00000   0.00000  -0.00001  -0.00001   1.99294
   A14        2.11256   0.00000   0.00000   0.00001   0.00001   2.11257
   A15        2.13323   0.00000   0.00000   0.00002   0.00002   2.13325
   A16        1.99372   0.00000   0.00000   0.00000   0.00000   1.99371
   A17        1.99323   0.00000   0.00000  -0.00001  -0.00001   1.99322
   A18        1.85255   0.00000   0.00000   0.00000   0.00000   1.85255
   A19        2.06823   0.00000   0.00000  -0.00002  -0.00002   2.06822
   A20        2.03099   0.00000   0.00000   0.00001   0.00001   2.03100
   A21        2.08318   0.00000   0.00000  -0.00002  -0.00002   2.08316
   A22        2.03261   0.00000   0.00000   0.00001   0.00001   2.03263
   A23        2.01075   0.00000   0.00000   0.00001   0.00001   2.01075
   A24        2.05985   0.00000   0.00000   0.00000   0.00000   2.05985
   A25        2.08602   0.00000   0.00000   0.00000   0.00000   2.08601
   A26        2.09421   0.00000   0.00000  -0.00001  -0.00001   2.09421
   A27        2.06933   0.00000   0.00000  -0.00001  -0.00001   2.06932
   A28        1.95547   0.00000   0.00000   0.00001   0.00001   1.95549
   A29        1.84076   0.00000   0.00000   0.00001   0.00001   1.84077
   A30        3.17382   0.00000   0.00000   0.00003   0.00003   3.17384
   A31        3.07860   0.00000   0.00000  -0.00001  -0.00001   3.07859
   A32        3.14048   0.00000   0.00000   0.00002   0.00002   3.14050
   A33        3.13893   0.00000   0.00000   0.00000   0.00000   3.13893
    D1        1.54826   0.00000   0.00000   0.00000   0.00000   1.54826
    D2       -2.61557   0.00000   0.00000   0.00001   0.00001  -2.61555
    D3       -0.55031   0.00000   0.00000   0.00001   0.00001  -0.55030
    D4       -2.64077   0.00000   0.00000  -0.00001  -0.00001  -2.64079
    D5       -0.52142   0.00000   0.00000   0.00000   0.00000  -0.52142
    D6        1.54384   0.00000   0.00000   0.00000   0.00000   1.54384
    D7       -0.55074   0.00000   0.00000  -0.00001  -0.00001  -0.55075
    D8        1.56861   0.00000   0.00000   0.00000   0.00000   1.56862
    D9       -2.64931   0.00000   0.00000   0.00000   0.00000  -2.64931
   D10       -0.92277   0.00000   0.00000  -0.00004  -0.00004  -0.92281
   D11        2.86988   0.00000   0.00000  -0.00003  -0.00003   2.86986
   D12        1.59972   0.00000   0.00000  -0.00005  -0.00005   1.59968
   D13       -3.05761   0.00000   0.00000  -0.00004  -0.00004  -3.05766
   D14        0.73504   0.00000   0.00000  -0.00003  -0.00003   0.73501
   D15       -0.53512   0.00000   0.00000  -0.00005  -0.00005  -0.53517
   D16        1.19577   0.00000   0.00000  -0.00004  -0.00004   1.19573
   D17       -1.29477   0.00000   0.00000  -0.00003  -0.00003  -1.29479
   D18       -2.56493   0.00000   0.00000  -0.00004  -0.00004  -2.56497
   D19        0.80911   0.00000   0.00000   0.00001   0.00001   0.80912
   D20       -2.93828   0.00000   0.00000   0.00001   0.00001  -2.93827
   D21       -1.76415   0.00000   0.00000   0.00000   0.00000  -1.76415
   D22       -0.04966   0.00000   0.00000  -0.00004  -0.00004  -0.04970
   D23        2.46537   0.00000   0.00000  -0.00004  -0.00004   2.46534
   D24       -2.53993   0.00000   0.00000  -0.00003  -0.00003  -2.53996
   D25       -0.02490   0.00000   0.00000  -0.00002  -0.00002  -0.02492
   D26       -2.43823   0.00000   0.00000   0.00000   0.00000  -2.43823
   D27        0.04311   0.00000   0.00000   0.00001   0.00001   0.04312
   D28        0.08417   0.00000   0.00000  -0.00001  -0.00001   0.08416
   D29        2.56551   0.00000   0.00000   0.00000   0.00000   2.56552
   D30        2.53663   0.00000   0.00000   0.00001   0.00001   2.53664
   D31        0.02595   0.00000   0.00000   0.00001   0.00001   0.02596
   D32       -0.00576   0.00000   0.00000   0.00001   0.00001  -0.00575
   D33       -2.51644   0.00000   0.00000   0.00000   0.00000  -2.51643
   D34       -0.09327   0.00000   0.00000   0.00003   0.00003  -0.09324
   D35        1.11338   0.00000   0.00000   0.00002   0.00002   1.11340
   D36       -2.62132   0.00000   0.00000   0.00002   0.00002  -2.62129
         Item               Value     Threshold  Converged?
 Maximum Force            0.000004     0.000450     YES
 RMS     Force            0.000001     0.000300     YES
 Maximum Displacement     0.000111     0.001800     YES
 RMS     Displacement     0.000031     0.001200     YES
 Predicted change in Energy=-4.294940D-10
 Optimization completed.
    -- Stationary point found.
                           ----------------------------
                           !   Optimized Parameters   !
                           ! (Angstroms and Degrees)  !
 --------------------------                            --------------------------
 ! Name  Definition              Value          Derivative Info.                !
 --------------------------------------------------------------------------------
 ! R1    R(1,2)                  1.4566         -DE/DX =    0.0                 !
 ! R2    R(1,10)                 1.0954         -DE/DX =    0.0                 !
 ! R3    R(1,11)                 1.0954         -DE/DX =    0.0                 !
 ! R4    R(1,12)                 1.0954         -DE/DX =    0.0                 !
 ! R5    R(2,3)                  1.2053         -DE/DX =    0.0                 !
 ! R6    R(3,4)                  1.4626         -DE/DX =    0.0                 !
 ! R7    R(4,5)                  1.5214         -DE/DX =    0.0                 !
 ! R8    R(4,13)                 1.0965         -DE/DX =    0.0                 !
 ! R9    R(4,14)                 1.0985         -DE/DX =    0.0                 !
 ! R10   R(5,6)                  1.4078         -DE/DX =    0.0                 !
 ! R11   R(5,7)                  1.5043         -DE/DX =    0.0                 !
 ! R12   R(5,8)                  1.5083         -DE/DX =    0.0                 !
 ! R13   R(6,15)                 0.9683         -DE/DX =    0.0                 !
 ! R14   R(7,8)                  1.5219         -DE/DX =    0.0                 !
 ! R15   R(7,16)                 1.0854         -DE/DX =    0.0                 !
 ! R16   R(7,17)                 1.0848         -DE/DX =    0.0                 !
 ! R17   R(8,9)                  1.3906         -DE/DX =    0.0                 !
 ! R18   R(8,18)                 1.0862         -DE/DX =    0.0                 !
 ! R19   R(9,19)                 0.9684         -DE/DX =    0.0                 !
 ! A1    A(2,1,10)             111.4457         -DE/DX =    0.0                 !
 ! A2    A(2,1,11)             110.9735         -DE/DX =    0.0                 !
 ! A3    A(2,1,12)             111.342          -DE/DX =    0.0                 !
 ! A4    A(10,1,11)            107.6043         -DE/DX =    0.0                 !
 ! A5    A(10,1,12)            107.7333         -DE/DX =    0.0                 !
 ! A6    A(11,1,12)            107.5553         -DE/DX =    0.0                 !
 ! A7    A(3,4,5)              111.343          -DE/DX =    0.0                 !
 ! A8    A(3,4,13)             110.5027         -DE/DX =    0.0                 !
 ! A9    A(3,4,14)             109.7598         -DE/DX =    0.0                 !
 ! A10   A(5,4,13)             109.2347         -DE/DX =    0.0                 !
 ! A11   A(5,4,14)             109.2337         -DE/DX =    0.0                 !
 ! A12   A(13,4,14)            106.6458         -DE/DX =    0.0                 !
 ! A13   A(4,5,6)              114.1877         -DE/DX =    0.0                 !
 ! A14   A(4,5,7)              121.041          -DE/DX =    0.0                 !
 ! A15   A(4,5,8)              122.2249         -DE/DX =    0.0                 !
 ! A16   A(6,5,7)              114.2315         -DE/DX =    0.0                 !
 ! A17   A(6,5,8)              114.2037         -DE/DX =    0.0                 !
 ! A18   A(5,6,15)             106.1433         -DE/DX =    0.0                 !
 ! A19   A(5,7,16)             118.501          -DE/DX =    0.0                 !
 ! A20   A(5,7,17)             116.3672         -DE/DX =    0.0                 !
 ! A21   A(8,7,16)             119.3575         -DE/DX =    0.0                 !
 ! A22   A(8,7,17)             116.4601         -DE/DX =    0.0                 !
 ! A23   A(16,7,17)            115.2072         -DE/DX =    0.0                 !
 ! A24   A(5,8,9)              118.0207         -DE/DX =    0.0                 !
 ! A25   A(5,8,18)             119.52           -DE/DX =    0.0                 !
 ! A26   A(7,8,9)              119.9896         -DE/DX =    0.0                 !
 ! A27   A(7,8,18)             118.5637         -DE/DX =    0.0                 !
 ! A28   A(9,8,18)             112.0404         -DE/DX =    0.0                 !
 ! A29   A(8,9,19)             105.4677         -DE/DX =    0.0                 !
 ! A30   L(1,2,3,15,-1)        181.8463         -DE/DX =    0.0                 !
 ! A31   L(2,3,4,15,-1)        176.3905         -DE/DX =    0.0                 !
 ! A32   L(1,2,3,15,-2)        179.9364         -DE/DX =    0.0                 !
 ! A33   L(2,3,4,15,-2)        179.8473         -DE/DX =    0.0                 !
 ! D1    D(10,1,4,5)            88.709          -DE/DX =    0.0                 !
 ! D2    D(10,1,4,13)         -149.8609         -DE/DX =    0.0                 !
 ! D3    D(10,1,4,14)          -31.5302         -DE/DX =    0.0                 !
 ! D4    D(11,1,4,5)          -151.3052         -DE/DX =    0.0                 !
 ! D5    D(11,1,4,13)          -29.8751         -DE/DX =    0.0                 !
 ! D6    D(11,1,4,14)           88.4556         -DE/DX =    0.0                 !
 ! D7    D(12,1,4,5)           -31.5552         -DE/DX =    0.0                 !
 ! D8    D(12,1,4,13)           89.8749         -DE/DX =    0.0                 !
 ! D9    D(12,1,4,14)         -151.7944         -DE/DX =    0.0                 !
 ! D10   D(3,4,5,6)            -52.8707         -DE/DX =    0.0                 !
 ! D11   D(3,4,5,7)            164.4322         -DE/DX =    0.0                 !
 ! D12   D(3,4,5,8)             91.6573         -DE/DX =    0.0                 !
 ! D13   D(13,4,5,6)          -175.1883         -DE/DX =    0.0                 !
 ! D14   D(13,4,5,7)            42.1147         -DE/DX =    0.0                 !
 ! D15   D(13,4,5,8)           -30.6603         -DE/DX =    0.0                 !
 ! D16   D(14,4,5,6)            68.5124         -DE/DX =    0.0                 !
 ! D17   D(14,4,5,7)           -74.1847         -DE/DX =    0.0                 !
 ! D18   D(14,4,5,8)          -146.9596         -DE/DX =    0.0                 !
 ! D19   D(4,5,6,15)            46.3585         -DE/DX =    0.0                 !
 ! D20   D(7,5,6,15)          -168.3508         -DE/DX =    0.0                 !
 ! D21   D(8,5,6,15)          -101.0783         -DE/DX =    0.0                 !
 ! D22   D(4,5,7,16)            -2.845          -DE/DX =    0.0                 !
 ! D23   D(4,5,7,17)           141.2554         -DE/DX =    0.0                 !
 ! D24   D(6,5,7,16)          -145.5271         -DE/DX =    0.0                 !
 ! D25   D(6,5,7,17)            -1.4266         -DE/DX =    0.0                 !
 ! D26   D(4,5,8,9)           -139.7005         -DE/DX =    0.0                 !
 ! D27   D(4,5,8,18)             2.4701         -DE/DX =    0.0                 !
 ! D28   D(6,5,8,9)              4.8224         -DE/DX =    0.0                 !
 ! D29   D(6,5,8,18)           146.993          -DE/DX =    0.0                 !
 ! D30   D(16,7,8,9)           145.3379         -DE/DX =    0.0                 !
 ! D31   D(16,7,8,18)            1.487          -DE/DX =    0.0                 !
 ! D32   D(17,7,8,9)            -0.3302         -DE/DX =    0.0                 !
 ! D33   D(17,7,8,18)         -144.1811         -DE/DX =    0.0                 !
 ! D34   D(5,8,9,19)            -5.3441         -DE/DX =    0.0                 !
 ! D35   D(7,8,9,19)            63.792          -DE/DX =    0.0                 !
 ! D36   D(18,8,9,19)         -150.1904         -DE/DX =    0.0                 !
 --------------------------------------------------------------------------------
 GradGradGradGradGradGradGradGradGradGradGradGradGradGradGradGradGradGrad

                          Input orientation:                          
 ---------------------------------------------------------------------
 Center     Atomic      Atomic             Coordinates (Angstroms)
 Number     Number       Type             X           Y           Z
 ---------------------------------------------------------------------
      1          6           0        1.506989   -0.015022    0.190335
      2          6           0        0.054778   -0.028806    0.077834
      3          6           0       -1.144311   -0.072602   -0.036563
      4          6           0       -2.603617   -0.045533   -0.130112
      5          6           0       -3.139513    1.373862   -0.016711
      6          8           0       -2.686076    2.072680    1.118227
      7          6           0       -4.549211    1.705571   -0.423594
      8          6           0       -3.373656    2.244174   -1.226102
      9          8           0       -3.030816    3.589042   -1.139405
     10          1           0        1.828656   -0.099343    1.234056
     11          1           0        1.950967   -0.850529   -0.361703
     12          1           0        1.929479    0.910635   -0.215251
     13          1           0       -2.935756   -0.482271   -1.079419
     14          1           0       -3.038450   -0.661405    0.668803
     15          1           0       -1.730955    1.920162    1.164519
     16          1           0       -5.165368    0.918008   -0.845657
     17          1           0       -5.075612    2.419384    0.200986
     18          1           0       -3.194056    1.840908   -2.218536
     19          1           0       -2.761699    3.728197   -0.219584
 ---------------------------------------------------------------------
                    Distance matrix (angstroms):
                    1          2          3          4          5
     1  C    0.000000
     2  C    1.456628   0.000000
     3  C    2.661614   1.205329   0.000000
     4  C    4.123191   2.666569   1.462553   0.000000
     5  C    4.854055   3.489973   2.464444   1.521422   0.000000
     6  O    4.775069   3.607069   2.883196   2.460077   1.407849
     7  C    6.325734   4.945322   3.860705   2.633977   1.504272
     8  C    5.561561   4.315188   3.428182   2.652718   1.508275
     9  O    5.945516   4.908298   4.264129   3.796223   2.485816
    10  H    1.095415   2.118601   3.233221   4.637769   5.330802
    11  H    1.095415   2.112807   3.208057   4.630971   5.565961
    12  H    1.095371   2.117299   3.232162   4.633624   5.093984
    13  H    4.644199   3.238543   2.112973   1.096467   2.148510
    14  H    4.616033   3.212085   2.105231   1.098473   2.149990
    15  H    3.895928   2.858007   2.399554   2.510293   1.917755
    16  H    6.816463   5.385092   4.219578   2.828954   2.235854
    17  H    7.018339   5.685921   4.660638   3.506593   2.211106
    18  H    5.598836   4.395915   3.553024   2.875551   2.251475
    19  H    5.692224   4.704898   4.134672   3.778099   2.393072
                    6          7          8          9         10
     6  O    0.000000
     7  C    2.446069   0.000000
     8  C    2.449094   1.521855   0.000000
     9  O    2.741369   2.522969   1.390585   0.000000
    10  H    5.011378   6.832475   6.213574   6.546142   0.000000
    11  H    5.677809   6.984970   6.219002   6.718093   1.767961
    12  H    4.942860   6.530602   5.560881   5.712483   1.769381
    13  H    3.379315   2.796426   2.765280   4.072864   5.310219
    14  H    2.793094   3.013023   3.485028   4.619088   4.931952
    15  H    0.968329   3.242024   2.918651   3.127757   4.093173
    16  H    3.367046   1.085377   2.261346   3.431767   7.367264
    17  H    2.582909   1.084770   2.227988   2.710339   7.421599
    18  H    3.383157   2.253127   1.086188   2.060860   6.396296
    19  H    2.129834   2.706998   1.894702   0.968431   6.150974
                   11         12         13         14         15
    11  H    0.000000
    12  H    1.767373   0.000000
    13  H    4.952857   5.133955   0.000000
    14  H    5.098235   5.285186   1.760374   0.000000
    15  H    4.854136   4.040011   3.501213   2.935944   0.000000
    16  H    7.348752   7.122803   2.643217   3.051543   4.103695
    17  H    7.770570   7.177805   3.825967   3.722921   3.516297
    18  H    6.096140   5.579352   2.600282   3.823939   3.686734
    19  H    6.572226   5.472278   4.300890   4.487140   2.499433
                   16         17         18         19
    16  H    0.000000
    17  H    1.832389   0.000000
    18  H    2.573444   3.119130   0.000000
    19  H    3.750567   2.691480   2.782912   0.000000
 Stoichiometry    C7H10O2
 Framework group  C1[X(C7H10O2)]
 Deg. of freedom    51
 Full point group                 C1      NOp   1
 Largest Abelian subgroup         C1      NOp   1
 Largest concise Abelian subgroup C1      NOp   1
                         Standard orientation:                         
 ---------------------------------------------------------------------
 Center     Atomic      Atomic             Coordinates (Angstroms)
 Number     Number       Type             X           Y           Z
 ---------------------------------------------------------------------
      1          6           0        3.792999    0.665089   -0.086895
      2          6           0        2.527503   -0.054186   -0.141000
      3          6           0        1.495006   -0.671805   -0.213896
      4          6           0        0.206524   -1.363318   -0.240084
      5          6           0       -0.922243   -0.448312    0.210885
      6          8           0       -0.699495    0.172619    1.454616
      7          6           0       -2.360187   -0.801925   -0.053901
      8          6           0       -1.720317    0.383755   -0.761553
      9          8           0       -2.057415    1.680329   -0.388742
     10          1           0        4.264754    0.572119    0.897350
     11          1           0        4.497371    0.275745   -0.830000
     12          1           0        3.653992    1.732303   -0.290780
     13          1           0       -0.010051   -1.733810   -1.249079
     14          1           0        0.243702   -2.242916    0.416856
     15          1           0        0.206405    0.513558    1.426921
     16          1           0       -2.576403   -1.704281   -0.616969
     17          1           0       -3.066704   -0.569708    0.735804
     18          1           0       -1.516841    0.305462   -1.825636
     19          1           0       -1.756658    1.772157    0.527212
 ---------------------------------------------------------------------
 Rotational constants (GHZ):      3.0839215      0.8508229      0.7804806
 1\1\GINC-ALCHEMY-KR\FOpt\RB3LYP\6-31G(2df,p)\C7H10O2\PUCK\27-Jan-2020\
 0\\# b3lyp 6-31G(2df,p) opt Freq\\titel\\0,1\C,1.5069893308,-0.0150222
 1,0.1903345653\C,0.0547780388,-0.0288063399,0.0778337168\C,-1.14431060
 8,-0.0726017673,-0.0365634546\C,-2.6036174294,-0.045533174,-0.13011242
 92\C,-3.1395125341,1.3738618921,-0.0167110775\O,-2.6860757433,2.072680
 2585,1.1182274526\C,-4.5492112059,1.7055711206,-0.4235938237\C,-3.3736
 563433,2.2441738771,-1.2261022834\O,-3.0308161145,3.5890419493,-1.1394
 051216\H,1.8286563162,-0.0993431049,1.2340555894\H,1.9509671587,-0.850
 5294506,-0.3617031938\H,1.9294794968,0.9106345078,-0.2152512329\H,-2.9
 357560668,-0.4822710241,-1.0794194682\H,-3.0384502734,-0.6614051309,0.
 6688031019\H,-1.7309549071,1.9201620979,1.164519126\H,-5.1653679218,0.
 9180076196,-0.8456570138\H,-5.075611648,2.4193838841,0.2009857359\H,-3
 .1940558029,1.840907916,-2.2185360602\H,-2.7616986127,3.7281966986,-0.
 2195838891\\Version=ES64L-G09RevD.01\State=1-A\HF=-423.1378764\RMSD=3.
 777e-09\RMSF=3.777e-06\Dipole=0.6546978,-0.7591606,0.2069238\Quadrupol
 e=5.2582289,-3.0994207,-2.1588082,1.6993314,1.4110316,2.9168728\PG=C01
  [X(C7H10O2)]\\@


 THE VALUE OF PHILOSOPHY IS, IN FACT, TO BE SOUGHT LARGELY IN ITS
 VERY UNCERTAINTY.  THE MAN WHO HAS NO TINCTURE OF PHILOSOPHY GOES
 THROUGH LIFE IMPRISONED IN THE PREJUDICES DERIVED FROM COMMON SENSE,
 FROM THE HABITUAL BELIEFS OF HIS AGE OR HIS NATION, AND FROM
 CONVICTIONS WHICH HAVE GROWN UP IN HIS MIND WITHOUT THE CO-OPERATION
 OR CONSENT OF HIS DELIBERATE REASON.  TO SUCH A MAN THE WORLD TENDS
 TO BE DEFINITE, FINITE, OBVIOUS; COMMON OBJECTS ROUSE NO QUESTIONS,
 AND UNFAMILIAR POSSIBILITIES ARE CONTEMPTUOUSLY REJECTED.

                             -- BERTRAND RUSSELL
 Job cpu time:       0 days  0 hours 14 minutes 33.7 seconds.
 File lengths (MBytes):  RWF=     52 Int=      0 D2E=      0 Chk=      7 Scr=      1
 Normal termination of Gaussian 09 at Mon Jan 27 14:08:14 2020.
 Link1:  Proceeding to internal job step number  2.
 ----------------------------------------------------------------------
 #N Geom=AllCheck Guess=TCheck SCRF=Check GenChk RB3LYP/6-31G(2df,p) Fr
 eq
 ----------------------------------------------------------------------
 1/10=4,29=7,30=1,38=1,40=1/1,3;
 2/12=2,40=1/2;
 3/5=1,6=6,7=104,11=2,14=-4,16=1,25=1,30=1,70=2,71=2,74=-5,116=1,140=1/1,2,3;
 4/5=101/1;
 5/5=2,98=1/2;
 8/6=4,10=90,11=11/1;
 11/6=1,8=1,9=11,15=111,16=1/1,2,10;
 10/6=1/2;
 6/7=2,8=2,9=2,10=2,18=1,28=1/1;
 7/8=1,10=1,25=1/1,2,3,16;
 1/10=4,30=1/3;
 99//99;
 Structure from the checkpoint file:  "/scratch/puck/g09_94fbc84e-e0f8-4e82-b96d-cf43358ba65f/Gau-4524.chk"
 -----
 titel
 -----
 Charge =  0 Multiplicity = 1
 Redundant internal coordinates found in file.
 C,0,1.5069893308,-0.01502221,0.1903345653
 C,0,0.0547780388,-0.0288063399,0.0778337168
 C,0,-1.144310608,-0.0726017673,-0.0365634546
 C,0,-2.6036174294,-0.045533174,-0.1301124292
 C,0,-3.1395125341,1.3738618921,-0.0167110775
 O,0,-2.6860757433,2.0726802585,1.1182274526
 C,0,-4.5492112059,1.7055711206,-0.4235938237
 C,0,-3.3736563433,2.2441738771,-1.2261022834
 O,0,-3.0308161145,3.5890419493,-1.1394051216
 H,0,1.8286563162,-0.0993431049,1.2340555894
 H,0,1.9509671587,-0.8505294506,-0.3617031938
 H,0,1.9294794968,0.9106345078,-0.2152512329
 H,0,-2.9357560668,-0.4822710241,-1.0794194682
 H,0,-3.0384502734,-0.6614051309,0.6688031019
 H,0,-1.7309549071,1.9201620979,1.164519126
 H,0,-5.1653679218,0.9180076196,-0.8456570138
 H,0,-5.075611648,2.4193838841,0.2009857359
 H,0,-3.1940558029,1.840907916,-2.2185360602
 H,0,-2.7616986127,3.7281966986,-0.2195838891
 Recover connectivity data from disk.

 GradGradGradGradGradGradGradGradGradGradGradGradGradGradGradGradGradGrad
 Berny optimization.
 Initialization pass.
                           ----------------------------
                           !    Initial Parameters    !
                           ! (Angstroms and Degrees)  !
 --------------------------                            --------------------------
 ! Name  Definition              Value          Derivative Info.                !
 --------------------------------------------------------------------------------
 ! R1    R(1,2)                  1.4566         calculate D2E/DX2 analytically  !
 ! R2    R(1,10)                 1.0954         calculate D2E/DX2 analytically  !
 ! R3    R(1,11)                 1.0954         calculate D2E/DX2 analytically  !
 ! R4    R(1,12)                 1.0954         calculate D2E/DX2 analytically  !
 ! R5    R(2,3)                  1.2053         calculate D2E/DX2 analytically  !
 ! R6    R(3,4)                  1.4626         calculate D2E/DX2 analytically  !
 ! R7    R(4,5)                  1.5214         calculate D2E/DX2 analytically  !
 ! R8    R(4,13)                 1.0965         calculate D2E/DX2 analytically  !
 ! R9    R(4,14)                 1.0985         calculate D2E/DX2 analytically  !
 ! R10   R(5,6)                  1.4078         calculate D2E/DX2 analytically  !
 ! R11   R(5,7)                  1.5043         calculate D2E/DX2 analytically  !
 ! R12   R(5,8)                  1.5083         calculate D2E/DX2 analytically  !
 ! R13   R(6,15)                 0.9683         calculate D2E/DX2 analytically  !
 ! R14   R(7,8)                  1.5219         calculate D2E/DX2 analytically  !
 ! R15   R(7,16)                 1.0854         calculate D2E/DX2 analytically  !
 ! R16   R(7,17)                 1.0848         calculate D2E/DX2 analytically  !
 ! R17   R(8,9)                  1.3906         calculate D2E/DX2 analytically  !
 ! R18   R(8,18)                 1.0862         calculate D2E/DX2 analytically  !
 ! R19   R(9,19)                 0.9684         calculate D2E/DX2 analytically  !
 ! A1    A(2,1,10)             111.4457         calculate D2E/DX2 analytically  !
 ! A2    A(2,1,11)             110.9735         calculate D2E/DX2 analytically  !
 ! A3    A(2,1,12)             111.342          calculate D2E/DX2 analytically  !
 ! A4    A(10,1,11)            107.6043         calculate D2E/DX2 analytically  !
 ! A5    A(10,1,12)            107.7333         calculate D2E/DX2 analytically  !
 ! A6    A(11,1,12)            107.5553         calculate D2E/DX2 analytically  !
 ! A7    A(3,4,5)              111.343          calculate D2E/DX2 analytically  !
 ! A8    A(3,4,13)             110.5027         calculate D2E/DX2 analytically  !
 ! A9    A(3,4,14)             109.7598         calculate D2E/DX2 analytically  !
 ! A10   A(5,4,13)             109.2347         calculate D2E/DX2 analytically  !
 ! A11   A(5,4,14)             109.2337         calculate D2E/DX2 analytically  !
 ! A12   A(13,4,14)            106.6458         calculate D2E/DX2 analytically  !
 ! A13   A(4,5,6)              114.1877         calculate D2E/DX2 analytically  !
 ! A14   A(4,5,7)              121.041          calculate D2E/DX2 analytically  !
 ! A15   A(4,5,8)              122.2249         calculate D2E/DX2 analytically  !
 ! A16   A(6,5,7)              114.2315         calculate D2E/DX2 analytically  !
 ! A17   A(6,5,8)              114.2037         calculate D2E/DX2 analytically  !
 ! A18   A(5,6,15)             106.1433         calculate D2E/DX2 analytically  !
 ! A19   A(5,7,16)             118.501          calculate D2E/DX2 analytically  !
 ! A20   A(5,7,17)             116.3672         calculate D2E/DX2 analytically  !
 ! A21   A(8,7,16)             119.3575         calculate D2E/DX2 analytically  !
 ! A22   A(8,7,17)             116.4601         calculate D2E/DX2 analytically  !
 ! A23   A(16,7,17)            115.2072         calculate D2E/DX2 analytically  !
 ! A24   A(5,8,9)              118.0207         calculate D2E/DX2 analytically  !
 ! A25   A(5,8,18)             119.52           calculate D2E/DX2 analytically  !
 ! A26   A(7,8,9)              119.9896         calculate D2E/DX2 analytically  !
 ! A27   A(7,8,18)             118.5637         calculate D2E/DX2 analytically  !
 ! A28   A(9,8,18)             112.0404         calculate D2E/DX2 analytically  !
 ! A29   A(8,9,19)             105.4677         calculate D2E/DX2 analytically  !
 ! A30   L(1,2,3,15,-1)        181.8463         calculate D2E/DX2 analytically  !
 ! A31   L(2,3,4,15,-1)        176.3905         calculate D2E/DX2 analytically  !
 ! A32   L(1,2,3,15,-2)        179.9364         calculate D2E/DX2 analytically  !
 ! A33   L(2,3,4,15,-2)        179.8473         calculate D2E/DX2 analytically  !
 ! D1    D(10,1,4,5)            88.709          calculate D2E/DX2 analytically  !
 ! D2    D(10,1,4,13)         -149.8609         calculate D2E/DX2 analytically  !
 ! D3    D(10,1,4,14)          -31.5302         calculate D2E/DX2 analytically  !
 ! D4    D(11,1,4,5)          -151.3052         calculate D2E/DX2 analytically  !
 ! D5    D(11,1,4,13)          -29.8751         calculate D2E/DX2 analytically  !
 ! D6    D(11,1,4,14)           88.4556         calculate D2E/DX2 analytically  !
 ! D7    D(12,1,4,5)           -31.5552         calculate D2E/DX2 analytically  !
 ! D8    D(12,1,4,13)           89.8749         calculate D2E/DX2 analytically  !
 ! D9    D(12,1,4,14)         -151.7944         calculate D2E/DX2 analytically  !
 ! D10   D(3,4,5,6)            -52.8707         calculate D2E/DX2 analytically  !
 ! D11   D(3,4,5,7)            164.4322         calculate D2E/DX2 analytically  !
 ! D12   D(3,4,5,8)             91.6573         calculate D2E/DX2 analytically  !
 ! D13   D(13,4,5,6)          -175.1883         calculate D2E/DX2 analytically  !
 ! D14   D(13,4,5,7)            42.1147         calculate D2E/DX2 analytically  !
 ! D15   D(13,4,5,8)           -30.6603         calculate D2E/DX2 analytically  !
 ! D16   D(14,4,5,6)            68.5124         calculate D2E/DX2 analytically  !
 ! D17   D(14,4,5,7)           -74.1847         calculate D2E/DX2 analytically  !
 ! D18   D(14,4,5,8)          -146.9596         calculate D2E/DX2 analytically  !
 ! D19   D(4,5,6,15)            46.3585         calculate D2E/DX2 analytically  !
 ! D20   D(7,5,6,15)          -168.3508         calculate D2E/DX2 analytically  !
 ! D21   D(8,5,6,15)          -101.0783         calculate D2E/DX2 analytically  !
 ! D22   D(4,5,7,16)            -2.845          calculate D2E/DX2 analytically  !
 ! D23   D(4,5,7,17)           141.2554         calculate D2E/DX2 analytically  !
 ! D24   D(6,5,7,16)          -145.5271         calculate D2E/DX2 analytically  !
 ! D25   D(6,5,7,17)            -1.4266         calculate D2E/DX2 analytically  !
 ! D26   D(4,5,8,9)           -139.7005         calculate D2E/DX2 analytically  !
 ! D27   D(4,5,8,18)             2.4701         calculate D2E/DX2 analytically  !
 ! D28   D(6,5,8,9)              4.8224         calculate D2E/DX2 analytically  !
 ! D29   D(6,5,8,18)           146.993          calculate D2E/DX2 analytically  !
 ! D30   D(16,7,8,9)           145.3379         calculate D2E/DX2 analytically  !
 ! D31   D(16,7,8,18)            1.487          calculate D2E/DX2 analytically  !
 ! D32   D(17,7,8,9)            -0.3302         calculate D2E/DX2 analytically  !
 ! D33   D(17,7,8,18)         -144.1811         calculate D2E/DX2 analytically  !
 ! D34   D(5,8,9,19)            -5.3441         calculate D2E/DX2 analytically  !
 ! D35   D(7,8,9,19)            63.792          calculate D2E/DX2 analytically  !
 ! D36   D(18,8,9,19)         -150.1904         calculate D2E/DX2 analytically  !
 --------------------------------------------------------------------------------
 Trust Radius=3.00D-01 FncErr=1.00D-07 GrdErr=1.00D-07
 Number of steps in this run=      2 maximum allowed number of steps=      2.
 GradGradGradGradGradGradGradGradGradGradGradGradGradGradGradGradGradGrad

                          Input orientation:                          
 ---------------------------------------------------------------------
 Center     Atomic      Atomic             Coordinates (Angstroms)
 Number     Number       Type             X           Y           Z
 ---------------------------------------------------------------------
      1          6           0        1.506989   -0.015022    0.190335
      2          6           0        0.054778   -0.028806    0.077834
      3          6           0       -1.144311   -0.072602   -0.036563
      4          6           0       -2.603617   -0.045533   -0.130112
      5          6           0       -3.139513    1.373862   -0.016711
      6          8           0       -2.686076    2.072680    1.118227
      7          6           0       -4.549211    1.705571   -0.423594
      8          6           0       -3.373656    2.244174   -1.226102
      9          8           0       -3.030816    3.589042   -1.139405
     10          1           0        1.828656   -0.099343    1.234056
     11          1           0        1.950967   -0.850529   -0.361703
     12          1           0        1.929479    0.910635   -0.215251
     13          1           0       -2.935756   -0.482271   -1.079419
     14          1           0       -3.038450   -0.661405    0.668803
     15          1           0       -1.730955    1.920162    1.164519
     16          1           0       -5.165368    0.918008   -0.845657
     17          1           0       -5.075612    2.419384    0.200986
     18          1           0       -3.194056    1.840908   -2.218536
     19          1           0       -2.761699    3.728197   -0.219584
 ---------------------------------------------------------------------
                    Distance matrix (angstroms):
                    1          2          3          4          5
     1  C    0.000000
     2  C    1.456628   0.000000
     3  C    2.661614   1.205329   0.000000
     4  C    4.123191   2.666569   1.462553   0.000000
     5  C    4.854055   3.489973   2.464444   1.521422   0.000000
     6  O    4.775069   3.607069   2.883196   2.460077   1.407849
     7  C    6.325734   4.945322   3.860705   2.633977   1.504272
     8  C    5.561561   4.315188   3.428182   2.652718   1.508275
     9  O    5.945516   4.908298   4.264129   3.796223   2.485816
    10  H    1.095415   2.118601   3.233221   4.637769   5.330802
    11  H    1.095415   2.112807   3.208057   4.630971   5.565961
    12  H    1.095371   2.117299   3.232162   4.633624   5.093984
    13  H    4.644199   3.238543   2.112973   1.096467   2.148510
    14  H    4.616033   3.212085   2.105231   1.098473   2.149990
    15  H    3.895928   2.858007   2.399554   2.510293   1.917755
    16  H    6.816463   5.385092   4.219578   2.828954   2.235854
    17  H    7.018339   5.685921   4.660638   3.506593   2.211106
    18  H    5.598836   4.395915   3.553024   2.875551   2.251475
    19  H    5.692224   4.704898   4.134672   3.778099   2.393072
                    6          7          8          9         10
     6  O    0.000000
     7  C    2.446069   0.000000
     8  C    2.449094   1.521855   0.000000
     9  O    2.741369   2.522969   1.390585   0.000000
    10  H    5.011378   6.832475   6.213574   6.546142   0.000000
    11  H    5.677809   6.984970   6.219002   6.718093   1.767961
    12  H    4.942860   6.530602   5.560881   5.712483   1.769381
    13  H    3.379315   2.796426   2.765280   4.072864   5.310219
    14  H    2.793094   3.013023   3.485028   4.619088   4.931952
    15  H    0.968329   3.242024   2.918651   3.127757   4.093173
    16  H    3.367046   1.085377   2.261346   3.431767   7.367264
    17  H    2.582909   1.084770   2.227988   2.710339   7.421599
    18  H    3.383157   2.253127   1.086188   2.060860   6.396296
    19  H    2.129834   2.706998   1.894702   0.968431   6.150974
                   11         12         13         14         15
    11  H    0.000000
    12  H    1.767373   0.000000
    13  H    4.952857   5.133955   0.000000
    14  H    5.098235   5.285186   1.760374   0.000000
    15  H    4.854136   4.040011   3.501213   2.935944   0.000000
    16  H    7.348752   7.122803   2.643217   3.051543   4.103695
    17  H    7.770570   7.177805   3.825967   3.722921   3.516297
    18  H    6.096140   5.579352   2.600282   3.823939   3.686734
    19  H    6.572226   5.472278   4.300890   4.487140   2.499433
                   16         17         18         19
    16  H    0.000000
    17  H    1.832389   0.000000
    18  H    2.573444   3.119130   0.000000
    19  H    3.750567   2.691480   2.782912   0.000000
 Stoichiometry    C7H10O2
 Framework group  C1[X(C7H10O2)]
 Deg. of freedom    51
 Full point group                 C1      NOp   1
 Largest Abelian subgroup         C1      NOp   1
 Largest concise Abelian subgroup C1      NOp   1
                         Standard orientation:                         
 ---------------------------------------------------------------------
 Center     Atomic      Atomic             Coordinates (Angstroms)
 Number     Number       Type             X           Y           Z
 ---------------------------------------------------------------------
      1          6           0        3.792999    0.665089   -0.086895
      2          6           0        2.527503   -0.054186   -0.141000
      3          6           0        1.495006   -0.671805   -0.213896
      4          6           0        0.206524   -1.363318   -0.240084
      5          6           0       -0.922243   -0.448312    0.210885
      6          8           0       -0.699495    0.172619    1.454616
      7          6           0       -2.360187   -0.801925   -0.053901
      8          6           0       -1.720317    0.383755   -0.761553
      9          8           0       -2.057415    1.680329   -0.388742
     10          1           0        4.264754    0.572119    0.897350
     11          1           0        4.497371    0.275745   -0.830000
     12          1           0        3.653992    1.732303   -0.290780
     13          1           0       -0.010051   -1.733810   -1.249079
     14          1           0        0.243702   -2.242916    0.416856
     15          1           0        0.206405    0.513558    1.426921
     16          1           0       -2.576403   -1.704281   -0.616969
     17          1           0       -3.066704   -0.569708    0.735804
     18          1           0       -1.516841    0.305462   -1.825636
     19          1           0       -1.756658    1.772157    0.527212
 ---------------------------------------------------------------------
 Rotational constants (GHZ):      3.0839215      0.8508229      0.7804806
 Standard basis: 6-31G(2df,p) (6D, 7F)
 There are   329 symmetry adapted cartesian basis functions of A   symmetry.
 There are   302 symmetry adapted basis functions of A   symmetry.
   302 basis functions,   466 primitive gaussians,   329 cartesian basis functions
    34 alpha electrons       34 beta electrons
       nuclear repulsion energy       431.6775480643 Hartrees.
 NAtoms=   19 NActive=   19 NUniq=   19 SFac= 1.00D+00 NAtFMM=   60 NAOKFM=F Big=F
 Integral buffers will be    131072 words long.
 Raffenetti 2 integral format.
 Two-electron integral symmetry is turned on.
 One-electron integrals computed using PRISM.
 NBasis=   302 RedAO= T EigKep=  7.45D-05  NBF=   302
[...]
 048,0.00023007,0.00625131,-0.00117942,-0.00337542,0.00306440,0.0007057
 6,-0.00163692,-0.06244507,0.00106668,0.04409675,0.46352169,-0.00035724
 ,0.00073176,0.00717637,-0.00190750,-0.00071482,0.00128535,-0.01243054,
 0.00035676,-0.06436910,0.01278001,0.00038140,0.56241777,-0.00042763,-0
 .00152550,0.00034357,0.00034950,-0.00167562,-0.00101505,-0.02708435,0.
 03532898,0.00094863,-0.07945467,0.03667689,-0.00392584,0.46277217,0.00
 057701,-0.00012527,0.00006356,-0.00649203,-0.00246159,-0.00161831,0.02
 020946,-0.00097552,-0.00033638,0.03256049,-0.17045251,0.00393157,-0.07
 994108,0.51541475,-0.00002441,-0.00064552,0.00007645,-0.00215905,-0.00
 127738,-0.00080596,0.00253782,0.00166914,-0.00152199,0.00351548,-0.005
 67892,-0.07357127,0.12855712,0.01324957,0.47149390,0.00011454,0.000228
 31,0.00016015,0.00344581,0.00184521,0.00126890,-0.00380593,0.00358936,
 0.00279731,0.00157184,0.00036969,0.00370318,-0.10108460,-0.02502335,-0
 .05887957,0.58359490,-0.00031938,-0.00036175,-0.00007198,0.00000558,0.
 00007719,-0.00024288,-0.00211292,0.00037680,-0.00150925,-0.01255230,-0
 .02083062,-0.03908935,0.00252454,-0.10769162,-0.06961334,-0.06245739,0
 .15715917,0.00003590,0.00005448,-0.00010610,0.00118934,0.00072339,0.00
 105530,-0.00295377,0.00019783,0.00034110,-0.00442759,-0.01071287,-0.01
 378542,-0.02447038,-0.07578856,-0.17850717,0.08519355,0.11879283,0.270
 58147,0.00004599,-0.00008844,0.00009155,0.00046908,0.00048315,0.000086
 19,0.00040812,0.00109506,-0.00087332,-0.01012443,0.00175498,-0.0001309
 6,-0.19505708,0.05970683,-0.06550699,-0.01297141,-0.00103775,-0.008245
 20,0.58682131,-0.00005464,0.00027311,-0.00009535,0.00043444,0.00033142
 ,0.00033983,0.00198214,-0.00517200,-0.00013638,0.02878326,0.00070169,-
 0.00271226,0.03420703,-0.05978241,-0.01339590,-0.02148029,-0.00052707,
 0.00016840,0.03182274,0.52022355,-0.00007317,0.00022763,-0.00015140,0.
 00031883,0.00008568,0.00028143,0.00187943,-0.00269885,0.00071976,0.001
 42125,0.00646405,-0.00177253,-0.02340330,-0.01440264,-0.05114565,-0.03
 344250,0.00083743,-0.00141762,-0.03837823,0.20872070,0.37388731,-0.000
 05021,0.00007690,-0.00005132,-0.00035565,-0.00037414,0.00013342,0.0010
 3913,-0.00014388,-0.00043855,-0.00394457,0.00841597,-0.00447706,-0.029
 26344,-0.00792369,-0.00726251,0.00082491,0.00285203,-0.01162362,-0.115
 04544,-0.01893879,0.05868186,0.28068602,0.00017748,-0.00001566,0.00007
 747,0.00044732,-0.00004171,-0.00023434,-0.00175923,0.00216920,-0.00061
 765,-0.00539198,-0.01724870,0.01793693,0.02096238,-0.10653223,0.076878
 86,0.00261776,-0.00278143,-0.01726635,-0.04606827,-0.07039220,0.008507
 86,0.06639799,0.54868323,-0.00007050,0.00003259,-0.00009276,-0.0002788
 8,-0.00013126,0.00001640,-0.00015751,-0.00015054,0.00022425,-0.0050184
 6,0.00102434,0.00699212,-0.04229142,0.05547235,-0.14686508,-0.00275405
 ,0.00297056,-0.04511555,0.09468633,0.00709821,-0.09267985,-0.08066371,
 0.05953710,0.66569694,0.00001288,-0.00007735,0.00004304,0.00017110,0.0
 0020751,-0.00000477,0.00034022,-0.00015645,0.00001848,0.00149813,0.001
 24456,-0.00230585,0.00059638,0.01142060,0.00614733,0.00296257,0.002580
 49,0.00004835,-0.00477649,-0.03751265,-0.00628869,-0.06382131,-0.05451
 697,-0.00427292,0.09995574,-0.00028408,-0.00008888,-0.00004045,0.00050
 449,0.00027190,0.00012079,-0.00056703,0.00006334,-0.00018225,-0.004728
 60,-0.00062656,0.00589187,-0.00375302,-0.03617234,-0.00265995,0.002148
 60,0.00521028,-0.00482539,-0.01763764,-0.01555616,0.00191357,-0.041893
 78,-0.25612844,0.01188430,0.09801829,0.37626368,0.00006240,0.00003374,
 0.00001344,0.00010221,0.00009634,0.00012789,-0.00007725,-0.00011066,0.
 00028687,0.00232070,0.00068232,-0.00185636,0.00806160,0.01671235,-0.00
 236321,-0.00270677,0.01046686,-0.00078756,-0.00105177,0.00818675,0.001
 22012,-0.01181089,-0.03756313,-0.09481802,0.13695709,0.05651752,0.5331
 6288,-0.06372907,0.00554500,-0.06997931,-0.01786255,0.00259846,-0.0335
 1361,0.00008067,0.00040838,0.00049730,-0.00010707,-0.00064792,0.001547
 52,0.00003803,-0.00037049,-0.00017258,-0.00007396,0.00029137,0.0001643
 4,-0.00002245,0.00008955,0.00006526,0.00002814,-0.00014099,0.00007256,
 0.00000818,0.00019924,-0.00001146,0.07532263,0.00538977,-0.04583079,0.
 01957900,0.00046448,-0.00129312,-0.00088147,-0.00037557,0.00074623,0.0
 0023281,0.00007393,0.00015846,-0.00017819,0.00000027,0.00007349,0.0002
 1368,-0.00009668,0.00000174,-0.00011465,0.00000375,-0.00001077,-0.0000
 2541,-0.00001415,0.00000822,-0.00002000,0.00001145,-0.00001420,-0.0000
 1878,-0.00613182,0.04590446,-0.06823134,0.01953985,-0.28494008,-0.0060
 1741,-0.00045284,0.00233501,0.00241405,0.00017267,0.00010387,-0.000177
 91,-0.00007177,-0.00006585,0.00002020,-0.00004650,-0.00001861,-0.00004
 124,0.00009216,0.00002411,-0.00001636,0.00002008,0.00002420,0.00001820
 ,-0.00003510,0.00000698,-0.00001655,0.00004979,0.00000202,0.07803578,-
 0.02142706,0.30909076,-0.08340020,0.07930223,0.05251482,-0.02244964,0.
 02600093,0.01660380,0.00086166,-0.00053974,-0.00004326,0.00017362,-0.0
 0084291,-0.00129328,0.00018821,-0.00031766,0.00018411,-0.00027046,0.00
 034069,-0.00002610,-0.00003176,0.00006587,0.00006610,0.00002096,-0.000
 15088,0.00009844,0.00000499,0.00021276,-0.00005678,0.00361163,-0.00751
 845,-0.00370641,0.09694739,0.07780058,-0.19892160,-0.10287838,0.003105
 42,0.00314600,0.00333794,-0.00192722,0.00012622,-0.00054585,0.00014422
 ,-0.00020126,-0.00015130,0.00004271,0.00003066,0.00001718,0.00000173,0
 .00004989,0.00001861,0.00001467,-0.00001825,-0.00001703,-0.00001910,-0
 .00000225,-0.00003394,0.00002955,-0.00000782,0.00001864,-0.00214323,0.
 00216652,0.00198521,-0.08726753,0.21434703,0.05141380,-0.10277857,-0.1
 1197482,0.00083232,0.00494310,0.00221891,-0.00143037,-0.00063912,0.000
 26437,0.00015509,-0.00001687,0.00005910,-0.00010979,0.00003420,-0.0000
 6121,-0.00003568,-0.00000098,0.00002954,-0.00000520,0.00002524,0.00002
 716,0.00001111,-0.00001356,0.00004434,-0.00000194,0.00001330,-0.000009
 22,0.01201633,-0.02441852,-0.01534010,-0.05712046,0.11293659,0.1186895
 8,-0.07941071,-0.08314732,0.03646561,-0.02130028,-0.02888079,0.0120183
 9,0.00018691,0.00066476,-0.00026532,0.00010874,0.00150029,-0.00028952,
 -0.00051374,-0.00060325,-0.00034177,-0.00005082,0.00034270,0.00005426,
 -0.00001588,0.00020111,0.00017639,-0.00001023,-0.00024247,0.00010920,0
 .00010759,0.00029533,-0.00004597,0.00336237,0.00808264,-0.00234640,0.0
 0498077,0.01038142,-0.00573426,0.09275832,-0.08158586,-0.23414411,0.08
 374366,-0.00373123,0.00360992,-0.00275959,0.00203651,-0.00001605,0.000
 64186,-0.00011684,0.00003481,0.00007401,0.00002662,-0.00001402,0.00006
 854,-0.00010372,0.00002846,-0.00003586,-0.00000851,0.00000744,0.000011
 22,0.00001836,-0.00000925,0.00002669,-0.00001526,0.00003250,-0.0000233
 4,0.00027322,-0.00181852,0.00021036,-0.00869066,-0.02071220,0.01002401
 ,0.09172914,0.25312175,0.03570845,0.08373197,-0.08100767,0.00052455,-0
 .00483881,0.00093424,-0.00126805,0.00023477,0.00054312,0.00014256,0.00
 043658,-0.00004255,-0.00018107,0.00007968,0.00010690,-0.00010653,-0.00
 005602,-0.00007606,-0.00000855,0.00002739,0.00001349,0.00000283,0.0000
 0172,0.00003442,-0.00000069,-0.00000724,-0.00003363,0.01155498,0.02698
 697,-0.01115976,-0.00702514,-0.01466886,0.00618928,-0.03956948,-0.0918
 5357,0.08455279,-0.00014970,0.00115497,0.00125153,-0.00019175,-0.00024
 708,0.00014779,-0.01797941,-0.01309758,-0.02956125,-0.06549398,-0.0296
 4404,-0.06682651,0.00299768,0.00182813,0.00947964,0.00054432,0.0038298
 6,0.00102252,0.00004004,-0.00001981,0.00042053,0.00055707,-0.00002872,
 -0.00024504,-0.00006275,0.00004994,-0.00005434,0.00003640,-0.00012672,
 0.00001359,-0.00066300,-0.00014056,0.00002335,-0.00008374,-0.00001478,
 0.00001728,0.07751702,-0.00013770,0.00009986,0.00006503,0.00111159,0.0
 0038988,-0.00053965,-0.00185311,0.00041818,0.00243087,-0.02769057,-0.0
 8445692,-0.08589057,-0.01010495,-0.01104010,-0.02695772,0.00174989,-0.
 00797802,-0.00216412,-0.00062114,0.00065979,-0.00027774,-0.00077711,-0
 .00004156,-0.00068820,0.00011451,0.00069438,0.00069767,0.00014471,-0.0
 0002178,0.00004596,-0.00001821,0.00002197,-0.00004329,0.00003269,-0.00
 002465,-0.00005844,0.03112393,0.09301728,-0.00014023,-0.00002511,-0.00
 016803,0.00212782,-0.00018040,0.00030789,-0.00519090,0.00143689,0.0015
 9858,-0.06403314,-0.08929038,-0.24034384,-0.00062329,0.00007409,-0.003
 55484,0.00036375,-0.00074778,0.00156651,-0.00040096,-0.00001174,0.0000
 8659,-0.00028772,0.00042160,0.00026840,0.00009656,0.00004760,0.0001899
 3,-0.00003845,-0.00003021,-0.00000124,0.00004637,-0.00006475,0.0000128
 0,-0.00003737,0.00000126,0.00001856,0.07346835,0.09680397,0.26015185,0
 .00006012,0.00034974,-0.00156419,0.00007725,0.00042084,-0.00023040,-0.
 02315768,-0.01808994,0.02379974,-0.08257745,-0.05557076,0.07322585,0.0
 0406593,0.00806884,-0.01095504,0.00003940,-0.00072909,0.00017469,0.001
 22384,-0.00162604,0.00049701,0.00152160,0.00274620,0.00095626,-0.00055
 639,0.00113648,-0.00065598,-0.00066449,0.00014368,0.00002406,-0.000056
 96,0.00003473,-0.00000961,-0.00002342,0.00007328,0.00010031,0.00386701
 ,0.00549123,-0.00629997,0.09690218,-0.00017309,-0.00002802,0.00020156,
 0.00124962,0.00035871,0.00046036,-0.00292306,0.00139070,-0.00218107,-0
 .05413414,-0.12012509,0.10092181,-0.00798880,-0.02462886,0.02805256,-0
 .00005213,0.00364823,-0.00121692,0.00046772,0.00289731,-0.00072672,-0.
 00176569,-0.00195692,-0.00431177,0.00113605,-0.00276072,0.00069690,0.0
 0016387,0.00000483,0.00005514,0.00000025,0.00001352,-0.00003075,0.0000
 0734,-0.00000668,-0.00001892,0.00527785,0.00715987,-0.00935527,0.05814
 682,0.13415956,0.00015203,0.00013272,-0.00006040,-0.00187671,0.0003057
 5,-0.00003844,0.00177835,-0.00339650,0.00421410,0.07134235,0.10148091,
 -0.18263243,-0.00183688,-0.00092823,0.00108834,0.00027382,0.00083950,0
 .00127528,-0.00101262,0.00023768,0.00010059,0.00075764,-0.00090486,0.0
 0076804,-0.00037046,0.00012143,0.00029056,-0.00003877,0.00001701,-0.00
 002545,0.00000745,0.00001533,-0.00003535,-0.00006561,-0.00003486,-0.00
 001797,0.01049292,0.01549480,-0.02072263,-0.07937809,-0.11339885,0.195
 53378,-0.00035271,0.00015645,-0.00004849,-0.00279701,-0.00115618,-0.00
 077848,0.00414095,-0.00135794,-0.00001916,0.00222208,0.00187746,0.0027
 1044,-0.01983957,-0.00122623,-0.00593176,-0.47107117,0.06742803,-0.032
 53215,0.00053876,-0.00217903,-0.00197950,-0.00051478,0.00103312,0.0013
 5382,0.00046697,0.00052981,0.00100863,-0.00002560,0.00009050,0.0000221
 2,0.00009895,-0.00004355,0.00001006,-0.00000178,0.00010098,0.00011579,
 -0.00062995,0.00095094,0.00020702,-0.00047696,-0.00023210,-0.00009605,
 0.48769593,0.00050506,0.00048837,0.00019669,0.00232543,0.00033613,0.00
 091098,-0.00184573,-0.00034782,0.00022225,-0.00274740,-0.00034345,-0.0
 0075163,-0.02604448,0.00181931,-0.00568414,0.09473013,-0.03355444,-0.0
 1049684,-0.00103443,-0.00324645,-0.00276212,0.00187496,0.00123767,-0.0
 0026597,-0.00130979,-0.00085447,0.00011980,-0.00022250,-0.00006634,-0.
 00011469,-0.00047922,-0.00005058,-0.00002966,-0.00032993,-0.00005995,0
 .00000832,0.00017457,0.00038036,0.00032412,0.00011698,-0.00046853,0.00
 000926,-0.06720567,0.03500238,0.00023897,0.00009888,0.00035253,0.00109
 648,0.00062339,-0.00040372,-0.00053584,0.00024140,-0.00028662,-0.00091
 630,-0.00116683,0.00107998,-0.04031557,0.00201262,-0.00812966,0.006117
 97,-0.01938634,-0.03249934,-0.00043891,-0.00317701,-0.00369160,-0.0022
 9965,-0.00014511,0.00047802,0.00139524,0.00057139,-0.00040269,-0.00021
 517,0.00008014,-0.00003947,-0.00024261,0.00001706,-0.00008787,-0.00009
 581,-0.00008472,-0.00002626,0.00005620,0.00037940,-0.00009168,0.000313
 36,0.00022381,0.00003263,0.03753118,0.01832139,0.04427896,0.00000955,-
 0.00000998,0.00000357,0.00016058,0.00007144,0.00000368,0.00034265,-0.0
 0016191,0.00032437,0.00233888,-0.00052619,-0.00201007,-0.01089803,-0.0
 1526941,-0.00420469,-0.00308053,-0.00033441,0.00079874,-0.13500356,-0.
 11630576,-0.06264000,-0.00848714,-0.00392363,-0.00453350,-0.00071849,-
 0.00008306,-0.00088875,0.00001175,0.00000078,0.00000069,0.00000316,0.0
 0000677,-0.00000303,0.00001585,-0.00000267,-0.00000507,-0.00037430,0.0
 0042593,0.00049857,-0.00030899,0.00090040,-0.00023506,-0.00007107,-0.0
 0094652,-0.00044732,0.14401245,0.00000955,-0.00001418,0.00002196,-0.00
 003234,-0.00002322,-0.00000813,-0.00034539,0.00025844,0.00001946,-0.00
 072116,0.00057590,-0.00059307,0.00431611,0.01106875,0.00691636,0.00394
 781,0.00060630,0.00084288,-0.11822934,-0.19861452,-0.09016277,-0.00043
 720,-0.00872084,-0.01011457,-0.00447430,-0.00239916,0.00163161,-0.0000
 1549,0.00000029,-0.00000501,-0.00002159,0.00000496,-0.00000639,-0.0000
 2391,-0.00000536,-0.00000674,0.00022315,0.00024501,0.00013771,-0.00036
 007,0.00006409,0.00032253,0.00061204,0.00061711,0.00084908,0.12570258,
 0.20525830,-0.00000521,0.00004154,0.00000185,0.00027049,0.00009626,0.0
 0003597,0.00003177,-0.00030435,0.00013538,0.00232296,-0.00101142,0.001
 19691,-0.00023624,-0.01408903,-0.00814911,-0.00568161,-0.00001935,-0.0
 0091621,-0.06182310,-0.08868380,-0.08595775,0.00573387,0.01548335,0.01
 321509,0.00591589,0.00393250,-0.00031256,0.00001638,-0.00001179,0.0000
 0149,-0.00000114,-0.00000295,0.00000361,0.00002777,-0.00000143,-0.0000
 0487,0.00001356,0.00044058,0.00037961,-0.00011560,0.00009788,-0.000115
 34,-0.00063553,-0.00071552,-0.00093391,0.06698061,0.09401787,0.0863762
 5,0.00002164,-0.00007459,0.00004508,0.00004428,-0.00002410,-0.00009342
 ,-0.00048943,0.00105625,-0.00003402,-0.00194569,-0.00244348,0.00056110
 ,-0.01279007,0.01189274,0.01646574,0.00348463,0.00017462,-0.00119757,-
 0.11122503,0.08983021,0.07976486,-0.01007166,0.00922609,0.00368256,0.0
 0306762,-0.00119898,-0.00047564,-0.00002789,0.00000994,-0.00000807,-0.
 00002703,0.00000896,-0.00001371,-0.00005835,-0.00000299,-0.00000879,0.
 00006046,0.00004879,0.00017273,0.00011972,0.00012380,-0.00014852,0.000
 56884,0.00001615,0.00022823,0.01123997,-0.01177859,-0.01088850,0.12032
 142,-0.00002828,0.00004884,-0.00003562,0.00024293,0.00011384,0.0000556
 3,0.00029063,-0.00073663,0.00024572,0.00237158,0.00083278,0.00001808,0
 .00340276,-0.01038817,-0.00765022,-0.00307966,0.00070914,-0.00031122,0
 .09154748,-0.17151721,-0.11834901,-0.00846029,0.01258439,0.01092116,0.
 00373121,0.00087202,-0.00111956,0.00002970,-0.00000256,0.00000694,0.00
 002876,-0.00000570,0.00000506,0.00005984,0.00000258,0.00000698,-0.0001
 8088,0.00028341,0.00018599,-0.00001434,-0.00000046,-0.00004785,-0.0004
 0267,-0.00010216,-0.00039495,0.01149462,-0.01019692,-0.00940982,-0.097
 51010,0.17778211,0.00002518,-0.00008198,0.00005311,-0.00028788,-0.0001
 3185,-0.00007410,-0.00045658,0.00131562,-0.00000170,-0.00360011,-0.000
 67142,-0.00051895,-0.00815366,0.01540652,0.01055837,0.00342069,0.00006
 290,0.00085715,0.08248213,-0.11940449,-0.13488194,0.00894233,-0.018647
 15,-0.01468433,-0.00540518,-0.00011913,0.00300622,-0.00002103,0.000002
 71,-0.00000444,-0.00002951,0.00000957,-0.00001370,-0.00007590,-0.00000
 937,-0.00001641,-0.00000052,-0.00007310,-0.00004023,0.00011741,-0.0000
 3654,-0.00005092,0.00039199,0.00035545,0.00031738,0.00557580,-0.004156
 22,-0.00496303,-0.08769476,0.12512081,0.14011124,-0.00002817,0.0000402
 5,-0.00000259,0.00002758,0.00004837,0.00006355,-0.00012358,-0.00022984
 ,0.00005062,0.00079788,-0.00130561,0.00142229,0.00072477,-0.00902349,-
 0.01057697,-0.00018159,0.00055947,-0.00541877,-0.00470397,0.01168002,0
 .02508582,-0.04803756,0.01707149,0.04823945,0.00217378,-0.00476296,-0.
 00995415,0.00002262,-0.00001315,0.00000879,0.00000590,-0.00000191,-0.0
 0000011,0.00001802,-0.00000235,-0.00001389,0.00001705,0.00018532,0.000
 15395,0.00004666,-0.00011443,0.00018435,0.00054534,-0.00025642,0.00002
 356,0.00150021,0.00134053,-0.00249234,-0.00128339,-0.00313697,0.004252
 60,0.04842652,-0.00000566,0.00002307,-0.00001054,0.00005227,-0.0000023
 4,-0.00001462,0.00030086,-0.00021103,0.00011732,0.00079261,0.00150324,
 -0.00005964,-0.00411660,0.00673420,0.01054597,0.00028747,0.00052658,0.
 00377416,-0.00135342,0.00061055,0.00360722,0.01565822,-0.08085480,-0.0
 8725232,-0.00316102,-0.02128913,-0.03284905,-0.00000717,-0.00000339,0.
 00000070,-0.00000134,-0.00000040,0.00000145,0.00000885,-0.00000186,-0.
 00000151,-0.00006686,-0.00021801,0.00009060,-0.00016279,0.00007952,-0.
 00023892,-0.00027204,0.00000302,-0.00012255,-0.00095564,0.00130992,-0.
 00035992,0.00049327,-0.00059051,0.00090492,-0.00982549,0.09889793,-0.0
 0001270,-0.00001487,0.00002370,-0.00001348,-0.00001365,0.00003855,-0.0
 0036237,0.00051597,0.00023131,-0.00070259,-0.00184498,0.00055636,0.006
 67977,-0.00663112,-0.01163263,0.00013167,0.00038017,-0.00280952,-0.000
 64539,0.00174324,-0.00495835,0.04551001,-0.09407094,-0.28692778,-0.002
 71311,-0.00284102,0.00301319,0.00002296,-0.00001222,0.00000882,-0.0000
 1056,0.00000866,-0.00001065,-0.00001988,-0.00000786,-0.00002732,0.0001
 0051,0.00090018,0.00037596,0.00013269,-0.00004827,0.00031394,0.0003826
 4,-0.00026812,0.00019205,0.00071987,-0.00034366,0.00089788,-0.00089286
 ,0.00074831,-0.00007066,-0.04937200,0.10153524,0.30004365,-0.00001297,
 0.00003983,-0.00003075,-0.00013812,-0.00012747,-0.00002430,-0.00004218
 ,0.00005442,0.00004723,-0.00021627,-0.00017341,0.00000399,0.00468050,-
 0.00007342,-0.00087193,-0.00399245,-0.00138614,0.00221346,-0.00056964,
 -0.00097935,-0.00217194,-0.00507585,-0.00845668,-0.00891260,-0.0414307
 1,-0.02818580,-0.12072288,-0.00000934,0.00000535,0.00000420,0.00000180
 ,-0.00002767,0.00000210,-0.00006961,0.00001678,0.00002051,-0.00000847,
 -0.00017675,-0.00008309,-0.00010137,-0.00009029,0.00006986,-0.00049724
 ,0.00267881,-0.00149401,-0.00069292,0.00028761,0.00056598,-0.00101007,
 -0.00038633,0.00051700,0.00005191,0.00233451,0.00106481,0.04913302,0.0
 0015613,0.00003579,0.00003444,0.00017806,0.00010658,0.00009310,-0.0000
 5453,0.00012007,0.00005667,0.00067464,0.00008593,-0.00010336,-0.002338
 24,-0.00487650,-0.00404879,0.00077727,0.00533118,-0.00163980,-0.000817
 43,-0.00086784,-0.00095307,-0.01454660,-0.01995670,-0.04599875,-0.0172
 7045,-0.04751021,-0.02417596,-0.00006388,-0.00000276,-0.00002588,-0.00
 010331,0.00001328,-0.00000523,-0.00007845,-0.00002482,-0.00000428,-0.0
 0009538,0.00041106,0.00018181,-0.00017577,0.00019897,-0.00002685,0.001
 29608,-0.00079016,0.00105896,-0.00008333,-0.00003486,0.00049941,0.0001
 5201,0.00031121,0.00015276,-0.00225282,-0.00651655,0.00026495,0.034646
 01,0.07396634,-0.00004615,-0.00005414,0.00000842,-0.00013114,-0.000059
 25,-0.00013816,-0.00004208,-0.00001780,-0.00004506,-0.00016949,-0.0005
 9715,-0.00180566,0.00195160,0.00680427,0.00300242,0.00021697,-0.003705
 13,0.00029009,0.00119135,0.00104941,0.00029605,-0.00087625,-0.00934671
 ,-0.00656161,-0.12924181,-0.07038862,-0.44072989,-0.00000301,0.0000259
 8,-0.00000227,0.00003418,-0.00000174,-0.00000578,0.00003567,0.00000898
 ,0.00001970,0.00017988,-0.00056564,-0.00003418,-0.00013251,0.00061505,
 0.00008167,-0.00171257,0.00062043,-0.00013871,0.00006157,0.00063712,-0
 .00089125,0.00053555,0.00000358,0.00041695,-0.00165414,0.00033149,0.00
 074150,0.12980237,0.07463988,0.44549574\\0.00000551,0.00000227,0.00000
 281,-0.00000169,-0.00000108,0.00000014,0.00000117,0.00000132,-0.000001
 27,-0.00000365,-0.00000115,-0.00000734,0.00000346,0.00000686,0.0000070
 1,-0.00000460,-0.00000590,-0.00000168,0.00000265,-0.00000673,-0.000007
 42,-0.00000242,-0.00000573,0.00000334,0.00000228,0.00000661,0.00000306
 ,-0.00000212,-0.00000104,0.00000269,0.00000037,0.00000324,0.00000095,-
 0.00000025,0.00000298,0.00000566,0.00000274,0.00000239,-0.00000585,0.0
 0000049,-0.00000395,-0.00000622,-0.00000219,-0.00000358,0.00000272,-0.
 00000143,0.00000066,-0.00000362,-0.00000069,-0.00000232,-0.00000125,0.
 00000301,0.00000624,0.00000010,-0.00000263,-0.00000107,0.00000616\\\@



 IN THIS SHORT LIFE

 THAT ONLY LASTS AN HOUR

 HOW MUCH, HOW LITTLE, IS WITHIN OUR POWER....


 EMILY DICKINSON BOLTS OF MELODY NO. 521
 Job cpu time:       0 days  1 hours 43 minutes 46.8 seconds.
 File lengths (MBytes):  RWF=    152 Int=      0 D2E=      0 Chk=      8 Scr=      1
 Normal termination of Gaussian 09 at Mon Jan 27 15:52:30 2020.
