 Entering Gaussian System, Link 0=/home/puck/opt/gaussian_09/g09
 Input=dsC7O2H10nsd_0708.com
 Output=dsC7O2H10nsd_0708.log
 Initial command:
 /home/puck/opt/gaussian_09/l1.exe "/scratch/puck/g09_d05baf5e-962f-4437-9d71-a25165713f7f/Gau-47926.inp" -scrdir="/scratch/puck/g09_d05baf5e-962f-4437-9d71-a25165713f7f/"
 Entering Link 1 = /home/puck/opt/gaussian_09/l1.exe PID=     47927.
  
 Copyright (c) 1988,1990,1992,1993,1995,1998,2003,2009,2013,
            Gaussian, Inc.  All Rights Reserved.
  
 This is part of the Gaussian(R) 09 program.  It is based on
 the Gaussian(R) 03 system (copyright 2003, Gaussian, Inc.),
 the Gaussian(R) 98 system (copyright 1998, Gaussian, Inc.),
 the Gaussian(R) 94 system (copyright 1995, Gaussian, Inc.),
 the Gaussian 92(TM) system (copyright 1992, Gaussian, Inc.),
 the Gaussian 90(TM) system (copyright 1990, Gaussian, Inc.),
 the Gaussian 88(TM) system (copyright 1988, Gaussian, Inc.),
 the Gaussian 86(TM) system (copyright 1986, Carnegie Mellon
 University), and the Gaussian 82(TM) system (copyright 1983,
 Carnegie Mellon University). Gaussian is a federally registered
 trademark of Gaussian, Inc.
  
 This software contains proprietary and confidential information,
 including trade secrets, belonging to Gaussian, Inc.
  
 This software is provided under written license and may be
 used, copied, transmitted, or stored only in accord with that
 written license.
  
 The following legend is applicable only to US Government
 contracts under FAR:
  
                    RESTRICTED RIGHTS LEGEND
  
 Use, reproduction and disclosure by the US Government is
 subject to restrictions as set forth in subparagraphs (a)
 and (c) of the Commercial Computer Software - Restricted
 Rights clause in FAR 52.227-19.
  
 Gaussian, Inc.
 340 Quinnipiac St., Bldg. 40, Wallingford CT 06492
  
  
 ---------------------------------------------------------------
 Warning -- This program may not be used in any manner that
 competes with the business of Gaussian, Inc. or will provide
 assistance to any competitor of Gaussian, Inc.  The licensee
 of this program is prohibited from giving any competitor of
 Gaussian, Inc. access to this program.  By using this program,
 the user acknowledges that Gaussian, Inc. is engaged in the
 business of creating and licensing software in the field of
 computational chemistry and represents and warrants to the
 licensee that it is not a competitor of Gaussian, Inc. and that
 it will not use this program in any manner prohibited above.
 ---------------------------------------------------------------
  

 Cite this work as:
 Gaussian 09, Revision D.01,
 M. J. Frisch, G. W. Trucks, H. B. Schlegel, G. E. Scuseria, 
 M. A. Robb, J. R. Cheeseman, G. Scalmani, V. Barone, B. Mennucci, 
 G. A. Petersson, H. Nakatsuji, M. Caricato, X. Li, H. P. Hratchian, 
 A. F. Izmaylov, J. Bloino, G. Zheng, J. L. Sonnenberg, M. Hada, 
 M. Ehara, K. Toyota, R. Fukuda, J. Hasegawa, M. Ishida, T. Nakajima, 
 Y. Honda, O. Kitao, H. Nakai, T. Vreven, J. A. Montgomery, Jr., 
 J. E. Peralta, F. Ogliaro, M. Bearpark, J. J. Heyd, E. Brothers, 
 K. N. Kudin, V. N. Staroverov, T. Keith, R. Kobayashi, J. Normand, 
 K. Raghavachari, A. Rendell, J. C. Burant, S. S. Iyengar, J. Tomasi, 
 M. Cossi, N. Rega, J. M. Millam, M. Klene, J. E. Knox, J. B. Cross, 
 V. Bakken, C. Adamo, J. Jaramillo, R. Gomperts, R. E. Stratmann, 
 O. Yazyev, A. J. Austin, R. Cammi, C. Pomelli, J. W. Ochterski, 
 R. L. Martin, K. Morokuma, V. G. Zakrzewski, G. A. Voth, 
 P. Salvador, J. J. Dannenberg, S. Dapprich, A. D. Daniels, 
 O. Farkas, J. B. Foresman, J. V. Ortiz, J. Cioslowski, 
 and D. J. Fox, Gaussian, Inc., Wallingford CT, 2013.
 
 ******************************************
 Gaussian 09:  ES64L-G09RevD.01 24-Apr-2013
                27-Jan-2020 
 ******************************************
 -----------------------------
 # b3lyp 6-31G(2df,p) opt Freq
 -----------------------------
 1/14=-1,18=20,19=15,26=3,38=1/1,3;
 2/9=110,12=2,17=6,18=5,40=1/2;
 3/5=1,6=6,7=104,11=2,16=1,25=1,30=1,71=1,74=-5/1,2,3;
 4//1;
 5/5=2,38=5/2;
 6/7=2,8=2,9=2,10=2,28=1/1;
 7//1,2,3,16;
 1/14=-1,18=20,19=15,26=3/3(2);
 2/9=110/2;
 99//99;
 2/9=110/2;
 3/5=1,6=6,7=104,11=2,16=1,25=1,30=1,71=1,74=-5/1,2,3;
 4/5=5,16=3,69=1/1;
 5/5=2,38=5/2;
 7//1,2,3,16;
 1/14=-1,18=20,19=15,26=3/3(-5);
 2/9=110/2;
 6/7=2,8=2,9=2,10=2,19=2,28=1/1;
 99/9=1/99;
 -----
 titel
 -----
 Symbolic Z-matrix:
 Charge =  0 Multiplicity = 1
 O                     1.91406   0.04901   3.41085 
 C                     1.77931  -0.00487   2.21813 
 C                     1.90299  -1.31946   1.45063 
 C                     0.82329  -1.71402   0.42431 
 C                     0.45556  -0.62016  -0.58474 
 C                    -0.28859   0.57409   0.08005 
 C                     1.07604   1.28737   0.22794 
 C                     1.6277    0.3606   -0.88796 
 O                     1.64397   1.16578   1.53547 
 H                     2.87739  -1.27901   0.94825 
 H                     1.98298  -2.09007   2.21908 
 H                     1.19562  -2.59679  -0.10781 
 H                    -0.08551  -2.03208   0.94968 
 H                    -0.03961  -1.06488  -1.4514 
 H                    -0.93937   1.10144  -0.62203 
 H                    -0.84145   0.38633   1.005 
 H                     1.11158   2.36031   0.03778 
 H                     1.506     0.84649  -1.85974 
 H                     2.65762   0.00855  -0.80593 
 

 GradGradGradGradGradGradGradGradGradGradGradGradGradGradGradGradGradGrad
 Berny optimization.
 Initialization pass.
                           ----------------------------
                           !    Initial Parameters    !
                           ! (Angstroms and Degrees)  !
 --------------------------                            --------------------------
 ! Name  Definition              Value          Derivative Info.                !
 --------------------------------------------------------------------------------
 ! R1    R(1,2)                  1.2015         estimate D2E/DX2                !
 ! R2    R(2,3)                  1.5273         estimate D2E/DX2                !
 ! R3    R(2,9)                  1.3619         estimate D2E/DX2                !
 ! R4    R(3,4)                  1.541          estimate D2E/DX2                !
 ! R5    R(3,10)                 1.097          estimate D2E/DX2                !
 ! R6    R(3,11)                 1.0912         estimate D2E/DX2                !
 ! R7    R(4,5)                  1.533          estimate D2E/DX2                !
 ! R8    R(4,12)                 1.0959         estimate D2E/DX2                !
 ! R9    R(4,13)                 1.0969         estimate D2E/DX2                !
 ! R10   R(5,6)                  1.5563         estimate D2E/DX2                !
 ! R11   R(5,8)                  1.5581         estimate D2E/DX2                !
 ! R12   R(5,14)                 1.0927         estimate D2E/DX2                !
 ! R13   R(6,7)                  1.5469         estimate D2E/DX2                !
 ! R14   R(6,15)                 1.0929         estimate D2E/DX2                !
 ! R15   R(6,16)                 1.0938         estimate D2E/DX2                !
 ! R16   R(7,8)                  1.5519         estimate D2E/DX2                !
 ! R17   R(7,9)                  1.4307         estimate D2E/DX2                !
 ! R18   R(7,17)                 1.0902         estimate D2E/DX2                !
 ! R19   R(8,18)                 1.0933         estimate D2E/DX2                !
 ! R20   R(8,19)                 1.0915         estimate D2E/DX2                !
 ! A1    A(1,2,3)              121.8956         estimate D2E/DX2                !
 ! A2    A(1,2,9)              118.0466         estimate D2E/DX2                !
 ! A3    A(3,2,9)              119.7373         estimate D2E/DX2                !
 ! A4    A(2,3,4)              119.8894         estimate D2E/DX2                !
 ! A5    A(2,3,10)             105.6837         estimate D2E/DX2                !
 ! A6    A(2,3,11)             105.0643         estimate D2E/DX2                !
 ! A7    A(4,3,10)             109.0725         estimate D2E/DX2                !
 ! A8    A(4,3,11)             109.8495         estimate D2E/DX2                !
 ! A9    A(10,3,11)            106.4652         estimate D2E/DX2                !
 ! A10   A(3,4,5)              115.0721         estimate D2E/DX2                !
 ! A11   A(3,4,12)             106.9517         estimate D2E/DX2                !
 ! A12   A(3,4,13)             109.6183         estimate D2E/DX2                !
 ! A13   A(5,4,12)             109.6745         estimate D2E/DX2                !
 ! A14   A(5,4,13)             108.8717         estimate D2E/DX2                !
 ! A15   A(12,4,13)            106.2889         estimate D2E/DX2                !
 ! A16   A(4,5,6)              112.4019         estimate D2E/DX2                !
 ! A17   A(4,5,8)              113.3781         estimate D2E/DX2                !
 ! A18   A(4,5,14)             109.8981         estimate D2E/DX2                !
 ! A19   A(6,5,8)               87.6969         estimate D2E/DX2                !
 ! A20   A(6,5,14)             115.7489         estimate D2E/DX2                !
 ! A21   A(8,5,14)             116.2777         estimate D2E/DX2                !
 ! A22   A(5,6,7)               88.4443         estimate D2E/DX2                !
 ! A23   A(5,6,15)             112.3694         estimate D2E/DX2                !
 ! A24   A(5,6,16)             118.1108         estimate D2E/DX2                !
 ! A25   A(7,6,15)             111.3595         estimate D2E/DX2                !
 ! A26   A(7,6,16)             116.3719         estimate D2E/DX2                !
 ! A27   A(15,6,16)            108.9699         estimate D2E/DX2                !
 ! A28   A(6,7,8)               88.2514         estimate D2E/DX2                !
 ! A29   A(6,7,9)              113.4766         estimate D2E/DX2                !
 ! A30   A(6,7,17)             117.7664         estimate D2E/DX2                !
 ! A31   A(8,7,9)              117.7283         estimate D2E/DX2                !
 ! A32   A(8,7,17)             116.7879         estimate D2E/DX2                !
 ! A33   A(9,7,17)             103.3028         estimate D2E/DX2                !
 ! A34   A(5,8,7)               88.1978         estimate D2E/DX2                !
 ! A35   A(5,8,18)             111.6533         estimate D2E/DX2                !
 ! A36   A(5,8,19)             119.4841         estimate D2E/DX2                !
 ! A37   A(7,8,18)             109.5217         estimate D2E/DX2                !
 ! A38   A(7,8,19)             118.293          estimate D2E/DX2                !
 ! A39   A(18,8,19)            108.3716         estimate D2E/DX2                !
 ! A40   A(2,9,7)              124.7918         estimate D2E/DX2                !
 ! D1    D(1,2,3,4)            131.5142         estimate D2E/DX2                !
 ! D2    D(1,2,3,10)          -104.9224         estimate D2E/DX2                !
 ! D3    D(1,2,3,11)             7.4388         estimate D2E/DX2                !
 ! D4    D(9,2,3,4)            -55.1141         estimate D2E/DX2                !
 ! D5    D(9,2,3,10)            68.4492         estimate D2E/DX2                !
 ! D6    D(9,2,3,11)          -179.1896         estimate D2E/DX2                !
 ! D7    D(1,2,9,7)           -159.6666         estimate D2E/DX2                !
 ! D8    D(3,2,9,7)             26.7087         estimate D2E/DX2                !
 ! D9    D(2,3,4,5)             49.1148         estimate D2E/DX2                !
 ! D10   D(2,3,4,12)           171.2003         estimate D2E/DX2                !
 ! D11   D(2,3,4,13)           -73.969          estimate D2E/DX2                !
 ! D12   D(10,3,4,5)           -72.7986         estimate D2E/DX2                !
 ! D13   D(10,3,4,12)           49.2869         estimate D2E/DX2                !
 ! D14   D(10,3,4,13)          164.1176         estimate D2E/DX2                !
 ! D15   D(11,3,4,5)           170.8642         estimate D2E/DX2                !
 ! D16   D(11,3,4,12)          -67.0502         estimate D2E/DX2                !
 ! D17   D(11,3,4,13)           47.7805         estimate D2E/DX2                !
 ! D18   D(3,4,5,6)            -68.4612         estimate D2E/DX2                !
 ! D19   D(3,4,5,8)             29.0568         estimate D2E/DX2                !
 ! D20   D(3,4,5,14)           161.0783         estimate D2E/DX2                !
 ! D21   D(12,4,5,6)           170.933          estimate D2E/DX2                !
 ! D22   D(12,4,5,8)           -91.549          estimate D2E/DX2                !
 ! D23   D(12,4,5,14)           40.4724         estimate D2E/DX2                !
 ! D24   D(13,4,5,6)            55.0197         estimate D2E/DX2                !
 ! D25   D(13,4,5,8)           152.5377         estimate D2E/DX2                !
 ! D26   D(13,4,5,14)          -75.4409         estimate D2E/DX2                !
 ! D27   D(4,5,6,7)             94.0221         estimate D2E/DX2                !
 ! D28   D(4,5,6,15)          -153.4692         estimate D2E/DX2                !
 ! D29   D(4,5,6,16)           -25.2711         estimate D2E/DX2                !
 ! D30   D(8,5,6,7)            -20.3685         estimate D2E/DX2                !
 ! D31   D(8,5,6,15)            92.1402         estimate D2E/DX2                !
 ! D32   D(8,5,6,16)          -139.6617         estimate D2E/DX2                !
 ! D33   D(14,5,6,7)          -138.5669         estimate D2E/DX2                !
 ! D34   D(14,5,6,15)          -26.0581         estimate D2E/DX2                !
 ! D35   D(14,5,6,16)          102.1399         estimate D2E/DX2                !
 ! D36   D(4,5,8,7)            -93.1595         estimate D2E/DX2                !
 ! D37   D(4,5,8,18)           156.5232         estimate D2E/DX2                !
 ! D38   D(4,5,8,19)            28.6419         estimate D2E/DX2                !
 ! D39   D(6,5,8,7)             20.3022         estimate D2E/DX2                !
 ! D40   D(6,5,8,18)           -90.0152         estimate D2E/DX2                !
 ! D41   D(6,5,8,19)           142.1035         estimate D2E/DX2                !
 ! D42   D(14,5,8,7)           138.0143         estimate D2E/DX2                !
 ! D43   D(14,5,8,18)           27.6969         estimate D2E/DX2                !
 ! D44   D(14,5,8,19)         -100.1844         estimate D2E/DX2                !
 ! D45   D(5,6,7,8)             20.4462         estimate D2E/DX2                !
 ! D46   D(5,6,7,9)            -99.1739         estimate D2E/DX2                !
 ! D47   D(5,6,7,17)           140.0172         estimate D2E/DX2                !
 ! D48   D(15,6,7,8)           -93.018          estimate D2E/DX2                !
 ! D49   D(15,6,7,9)           147.3619         estimate D2E/DX2                !
 ! D50   D(15,6,7,17)           26.5531         estimate D2E/DX2                !
 ! D51   D(16,6,7,8)           141.2859         estimate D2E/DX2                !
 ! D52   D(16,6,7,9)            21.6658         estimate D2E/DX2                !
 ! D53   D(16,6,7,17)          -99.143          estimate D2E/DX2                !
 ! D54   D(6,7,8,5)            -20.4234         estimate D2E/DX2                !
 ! D55   D(6,7,8,18)            91.9432         estimate D2E/DX2                !
 ! D56   D(6,7,8,19)          -143.2635         estimate D2E/DX2                !
 ! D57   D(9,7,8,5)             95.3122         estimate D2E/DX2                !
 ! D58   D(9,7,8,18)          -152.3212         estimate D2E/DX2                !
 ! D59   D(9,7,8,19)           -27.5279         estimate D2E/DX2                !
 ! D60   D(17,7,8,5)          -140.8681         estimate D2E/DX2                !
 ! D61   D(17,7,8,18)          -28.5015         estimate D2E/DX2                !
 ! D62   D(17,7,8,19)           96.2918         estimate D2E/DX2                !
 ! D63   D(6,7,9,2)             49.6126         estimate D2E/DX2                !
 ! D64   D(8,7,9,2)            -51.3819         estimate D2E/DX2                !
 ! D65   D(17,7,9,2)           178.2661         estimate D2E/DX2                !
 --------------------------------------------------------------------------------
 Trust Radius=3.00D-01 FncErr=1.00D-07 GrdErr=1.00D-06
 Number of steps in this run=    114 maximum allowed number of steps=    114.
 GradGradGradGradGradGradGradGradGradGradGradGradGradGradGradGradGradGrad

                          Input orientation:                          
 ---------------------------------------------------------------------
 Center     Atomic      Atomic             Coordinates (Angstroms)
 Number     Number       Type             X           Y           Z
 ---------------------------------------------------------------------
      1          8           0        1.914063    0.049007    3.410850
      2          6           0        1.779306   -0.004873    2.218134
      3          6           0        1.902994   -1.319463    1.450632
      4          6           0        0.823287   -1.714019    0.424308
      5          6           0        0.455562   -0.620156   -0.584742
      6          6           0       -0.288593    0.574095    0.080050
      7          6           0        1.076041    1.287366    0.227940
      8          6           0        1.627697    0.360603   -0.887962
      9          8           0        1.643970    1.165779    1.535465
     10          1           0        2.877388   -1.279006    0.948248
     11          1           0        1.982977   -2.090070    2.219075
     12          1           0        1.195618   -2.596790   -0.107806
     13          1           0       -0.085506   -2.032079    0.949682
     14          1           0       -0.039606   -1.064881   -1.451405
     15          1           0       -0.939369    1.101436   -0.622027
     16          1           0       -0.841451    0.386330    1.004999
     17          1           0        1.111584    2.360310    0.037778
     18          1           0        1.505998    0.846493   -1.859736
     19          1           0        2.657620    0.008553   -0.805934
 ---------------------------------------------------------------------
                    Distance matrix (angstroms):
                    1          2          3          4          5
     1  O    0.000000
     2  C    1.201513   0.000000
     3  C    2.390667   1.527255   0.000000
     4  C    3.635587   2.655742   1.541033   0.000000
     5  C    4.305782   3.160219   2.593614   1.532951   0.000000
     6  C    4.027610   3.030316   3.204233   2.567149   1.556262
     7  C    3.516635   2.474941   2.995727   3.018403   2.164275
     8  C    4.319592   3.131196   2.892651   2.583251   1.558118
     9  O    2.199363   1.361902   2.500144   3.193968   3.016150
    10  H    2.959058   2.107561   1.097029   2.164043   2.940984
    11  H    2.449638   2.095121   1.091209   2.169674   3.514973
    12  H    4.460644   3.531108   2.135572   1.095928   2.163847
    13  H    3.792960   3.032500   2.170922   1.096852   2.154237
    14  H    5.357153   4.230552   3.501474   2.164315   1.092737
    15  H    5.051116   4.084314   4.270327   3.482608   2.216101
    16  H    3.673522   2.914293   3.261947   2.742266   2.285287
    17  H    4.166978   3.285406   4.020351   4.102765   3.114655
    18  H    5.346174   4.174751   3.975866   3.498453   2.209091
    19  H    4.282030   3.149064   2.724918   2.800987   2.300708
                    6          7          8          9         10
     6  C    0.000000
     7  C    1.546885   0.000000
     8  C    2.157497   1.551918   0.000000
     9  O    2.490607   1.430716   2.553737   0.000000
    10  H    3.769773   3.217136   2.760745   2.800558   0.000000
    11  H    4.102833   4.024205   3.973122   3.344070   1.752940
    12  H    3.506092   3.900473   3.088933   4.130168   2.383307
    13  H    2.754931   3.590099   3.469427   3.682462   3.057101
    14  H    2.256898   3.098053   2.264812   4.090436   3.783257
    15  H    1.092936   2.195197   2.685030   3.366385   4.764442
    16  H    1.093819   2.256648   3.111376   2.658243   4.075087
    17  H    2.269988   1.090245   2.263227   1.988317   4.146281
    18  H    2.656601   2.176609   1.093273   3.412972   3.779317
    19  H    3.128094   2.281590   1.091517   2.801573   2.187067
                   11         12         13         14         15
    11  H    0.000000
    12  H    2.508201   0.000000
    13  H    2.427621   1.754554   0.000000
    14  H    4.314427   2.382810   2.588976   0.000000
    15  H    5.176647   4.301101   3.608083   2.488046   0.000000
    16  H    3.947649   3.779813   2.534405   2.963594   1.779938
    17  H    5.032223   4.959949   4.643024   3.908303   2.495298
    18  H    5.048526   3.875796   4.325724   2.491782   2.752588
    19  H    3.742999   3.068003   3.843319   2.973873   3.763847
                   16         17         18         19
    16  H    0.000000
    17  H    2.940486   0.000000
    18  H    3.732155   2.459221   0.000000
    19  H    3.957991   2.938170   1.771687   0.000000
 Stoichiometry    C7H10O2
 Framework group  C1[X(C7H10O2)]
 Deg. of freedom    51
 Full point group                 C1      NOp   1
 Largest Abelian subgroup         C1      NOp   1
 Largest concise Abelian subgroup C1      NOp   1
                         Standard orientation:                         
 ---------------------------------------------------------------------
 Center     Atomic      Atomic             Coordinates (Angstroms)
 Number     Number       Type             X           Y           Z
 ---------------------------------------------------------------------
      1          8           0       -2.635292   -0.257132    0.284687
      2          6           0       -1.482167   -0.128017   -0.027188
      3          6           0       -0.891494    1.233247   -0.388535
      4          6           0        0.436052    1.687867    0.248430
      5          6           0        1.570835    0.658929    0.189334
      6          6           0        1.297296   -0.578258    1.092936
      7          6           0        0.698027   -1.293873   -0.140605
      8          6           0        1.476479   -0.295716   -1.038462
      9          8           0       -0.731446   -1.253402   -0.184369
     10          1           0       -0.782359    1.228851   -1.480113
     11          1           0       -1.678325    1.953714   -0.159274
     12          1           0        0.741551    2.604234   -0.269257
     13          1           0        0.265398    1.968108    1.295057
     14          1           0        2.531828    1.155861    0.343036
     15          1           0        2.218999   -1.062527    1.425286
     16          1           0        0.632204   -0.452009    1.952095
     17          1           0        0.923187   -2.352387   -0.272844
     18          1           0        2.450923   -0.719279   -1.295952
     19          1           0        1.000329    0.054636   -1.956036
 ---------------------------------------------------------------------
 Rotational constants (GHZ):      2.7814813      1.6245895      1.2734026
 Standard basis: 6-31G(2df,p) (6D, 7F)
 There are   329 symmetry adapted cartesian basis functions of A   symmetry.
 There are   302 symmetry adapted basis functions of A   symmetry.
   302 basis functions,   466 primitive gaussians,   329 cartesian basis functions
    34 alpha electrons       34 beta electrons
       nuclear repulsion energy       475.7379165470 Hartrees.
 NAtoms=   19 NActive=   19 NUniq=   19 SFac= 1.00D+00 NAtFMM=   60 NAOKFM=F Big=F
 Integral buffers will be    131072 words long.
 Raffenetti 2 integral format.
 Two-electron integral symmetry is turned on.
 One-electron integrals computed using PRISM.
 NBasis=   302 RedAO= T EigKep=  5.22D-04  NBF=   302
 NBsUse=   302 1.00D-06 EigRej= -1.00D+00 NBFU=   302
 ExpMin= 1.61D-01 ExpMax= 5.48D+03 ExpMxC= 8.25D+02 IAcc=1 IRadAn=         1 AccDes= 0.00D+00
 Harris functional with IExCor=  402 and IRadAn=       1 diagonalized for initial guess.
 HarFok:  IExCor=  402 AccDes= 0.00D+00 IRadAn=         1 IDoV= 1 UseB2=F ITyADJ=14
 ICtDFT=  3500011 ScaDFX=  1.000000  1.000000  1.000000  1.000000
 FoFCou: FMM=F IPFlag=           0 FMFlag=      100000 FMFlg1=           0
         NFxFlg=           0 DoJE=T BraDBF=F KetDBF=T FulRan=T
         wScrn=  0.000000 ICntrl=     500 IOpCl=  0 I1Cent=   200000004 NGrid=           0
         NMat0=    1 NMatS0=      1 NMatT0=    0 NMatD0=    1 NMtDS0=    0 NMtDT0=    0
 Petite list used in FoFCou.
 Requested convergence on RMS density matrix=1.00D-08 within 128 cycles.
 Requested convergence on MAX density matrix=1.00D-06.
 Requested convergence on             energy=1.00D-06.
 No special actions if energy rises.
 Integral accuracy reduced to 1.0D-05 until final iterations.
 Initial convergence to 1.0D-05 achieved.  Increase integral accuracy.
 SCF Done:  E(RB3LYP) =  -423.216077723     A.U. after   14 cycles
            NFock= 14  Conv=0.66D-08     -V/T= 2.0075

 **********************************************************************

            Population analysis using the SCF density.

 **********************************************************************

 Orbital symmetries:
       Occupied  (A) (A) (A) (A) (A) (A) (A) (A) (A) (A) (A) (A)
                 (A) (A) (A) (A) (A) (A) (A) (A) (A) (A) (A) (A)
                 (A) (A) (A) (A) (A) (A) (A) (A) (A) (A)
       Virtual   (A) (A) (A) (A) (A) (A) (A) (A) (A) (A) (A) (A)
                 (A) (A) (A) (A) (A) (A) (A) (A) (A) (A) (A) (A)
                 (A) (A) (A) (A) (A) (A) (A) (A) (A) (A) (A) (A)
                 (A) (A) (A) (A) (A) (A) (A) (A) (A) (A) (A) (A)
                 (A) (A) (A) (A) (A) (A) (A) (A) (A) (A) (A) (A)
                 (A) (A) (A) (A) (A) (A) (A) (A) (A) (A) (A) (A)
                 (A) (A) (A) (A) (A) (A) (A) (A) (A) (A) (A) (A)
                 (A) (A) (A) (A) (A) (A) (A) (A) (A) (A) (A) (A)
                 (A) (A) (A) (A) (A) (A) (A) (A) (A) (A) (A) (A)
                 (A) (A) (A) (A) (A) (A) (A) (A) (A) (A) (A) (A)
                 (A) (A) (A) (A) (A) (A) (A) (A) (A) (A) (A) (A)
                 (A) (A) (A) (A) (A) (A) (A) (A) (A) (A) (A) (A)
                 (A) (A) (A) (A) (A) (A) (A) (A) (A) (A) (A) (A)
                 (A) (A) (A) (A) (A) (A) (A) (A) (A) (A) (A) (A)
                 (A) (A) (A) (A) (A) (A) (A) (A) (A) (A) (A) (A)
                 (A) (A) (A) (A) (A) (A) (A) (A) (A) (A) (A) (A)
                 (A) (A) (A) (A) (A) (A) (A) (A) (A) (A) (A) (A)
                 (A) (A) (A) (A) (A) (A) (A) (A) (A) (A) (A) (A)
                 (A) (A) (A) (A) (A) (A) (A) (A) (A) (A) (A) (A)
                 (A) (A) (A) (A) (A) (A) (A) (A) (A) (A) (A) (A)
                 (A) (A) (A) (A) (A) (A) (A) (A) (A) (A) (A) (A)
                 (A) (A) (A) (A) (A) (A) (A) (A) (A) (A) (A) (A)
                 (A) (A) (A) (A)
 The electronic state is 1-A.
 Alpha  occ. eigenvalues --  -19.17127 -19.11392 -10.30134 -10.25133 -10.20289
 Alpha  occ. eigenvalues --  -10.20023 -10.19946 -10.19499 -10.19221  -1.08746
 Alpha  occ. eigenvalues --   -1.00867  -0.86188  -0.78750  -0.69273  -0.67792
 Alpha  occ. eigenvalues --   -0.66553  -0.56298  -0.53015  -0.51214  -0.49875
 Alpha  occ. eigenvalues --   -0.47324  -0.44906  -0.43183  -0.42975  -0.40958
 Alpha  occ. eigenvalues --   -0.39355  -0.37589  -0.37119  -0.35008  -0.32975
 Alpha  occ. eigenvalues --   -0.31749  -0.30200  -0.27931  -0.25807
 Alpha virt. eigenvalues --    0.00847   0.06693   0.09043   0.10557   0.12183
 Alpha virt. eigenvalues --    0.12965   0.13328   0.14695   0.15632   0.16726
 Alpha virt. eigenvalues --    0.17978   0.19292   0.19402   0.20278   0.21260
 Alpha virt. eigenvalues --    0.24007   0.24551   0.25447   0.31886   0.33979
 Alpha virt. eigenvalues --    0.37683   0.40162   0.42748   0.44538   0.45915
 Alpha virt. eigenvalues --    0.47109   0.50058   0.50163   0.50813   0.52092
 Alpha virt. eigenvalues --    0.53121   0.55133   0.57262   0.58871   0.60403
 Alpha virt. eigenvalues --    0.61743   0.63254   0.63377   0.63745   0.68029
 Alpha virt. eigenvalues --    0.68574   0.69787   0.71727   0.73139   0.73926
 Alpha virt. eigenvalues --    0.74812   0.77192   0.78523   0.80219   0.81160
 Alpha virt. eigenvalues --    0.82009   0.82740   0.84787   0.86165   0.86924
 Alpha virt. eigenvalues --    0.89090   0.90937   0.95410   0.98165   0.99980
 Alpha virt. eigenvalues --    1.00469   1.03470   1.04815   1.07602   1.11379
 Alpha virt. eigenvalues --    1.12275   1.15789   1.16086   1.18351   1.21435
 Alpha virt. eigenvalues --    1.22297   1.25939   1.29186   1.31629   1.33527
 Alpha virt. eigenvalues --    1.34472   1.35809   1.38473   1.40425   1.40693
 Alpha virt. eigenvalues --    1.43440   1.45000   1.47411   1.48461   1.49311
 Alpha virt. eigenvalues --    1.50400   1.51533   1.52128   1.55244   1.55892
 Alpha virt. eigenvalues --    1.59195   1.62498   1.63078   1.64492   1.66607
 Alpha virt. eigenvalues --    1.68835   1.69526   1.75139   1.76622   1.78681
 Alpha virt. eigenvalues --    1.84011   1.85388   1.87358   1.90148   1.92128
 Alpha virt. eigenvalues --    1.95411   1.98701   2.02998   2.07848   2.11588
 Alpha virt. eigenvalues --    2.14359   2.17328   2.18095   2.20652   2.26227
 Alpha virt. eigenvalues --    2.29940   2.33460   2.36682   2.39006   2.39720
 Alpha virt. eigenvalues --    2.43624   2.44496   2.48276   2.54153   2.57405
 Alpha virt. eigenvalues --    2.58607   2.64360   2.64936   2.67045   2.71422
 Alpha virt. eigenvalues --    2.73664   2.76237   2.78380   2.79266   2.83487
 Alpha virt. eigenvalues --    2.86977   2.87443   2.89986   2.91325   2.95918
 Alpha virt. eigenvalues --    2.96548   2.99374   3.01858   3.03412   3.07553
 Alpha virt. eigenvalues --    3.09313   3.11397   3.13248   3.15887   3.16454
 Alpha virt. eigenvalues --    3.16957   3.21690   3.24745   3.25969   3.26666
 Alpha virt. eigenvalues --    3.28154   3.31301   3.33280   3.33821   3.39929
 Alpha virt. eigenvalues --    3.40275   3.42074   3.43164   3.47224   3.49392
 Alpha virt. eigenvalues --    3.51562   3.55700   3.57170   3.62429   3.65778
 Alpha virt. eigenvalues --    3.68873   3.71703   3.72420   3.79842   3.83186
 Alpha virt. eigenvalues --    3.84746   3.89097   3.89766   3.94623   3.97998
 Alpha virt. eigenvalues --    4.00808   4.04722   4.08937   4.12989   4.16097
 Alpha virt. eigenvalues --    4.18343   4.20126   4.21208   4.22547   4.27016
 Alpha virt. eigenvalues --    4.30296   4.30481   4.33510   4.37970   4.38642
 Alpha virt. eigenvalues --    4.41046   4.43687   4.45262   4.47916   4.48895
 Alpha virt. eigenvalues --    4.52119   4.55332   4.56021   4.58696   4.60895
 Alpha virt. eigenvalues --    4.62505   4.64230   4.66993   4.67549   4.68677
 Alpha virt. eigenvalues --    4.70838   4.73738   4.75349   4.75931   4.77319
 Alpha virt. eigenvalues --    4.78974   4.80827   4.81828   4.83345   4.85605
 Alpha virt. eigenvalues --    4.86488   4.87672   4.93287   4.94923   4.96113
 Alpha virt. eigenvalues --    4.98815   5.01004   5.04883   5.10390   5.10974
 Alpha virt. eigenvalues --    5.12977   5.15415   5.17852   5.19421   5.22116
 Alpha virt. eigenvalues --    5.31067   5.33688   5.39539   5.42572   5.44597
 Alpha virt. eigenvalues --    5.48083   5.52398   5.53599   5.55672   5.58934
 Alpha virt. eigenvalues --    5.71063   5.81474   5.83078   5.88101   5.93414
 Alpha virt. eigenvalues --    6.03481   6.15326   6.29508   6.40742   6.47727
 Alpha virt. eigenvalues --    6.70700   6.84343   6.94108   7.32173  11.00015
 Alpha virt. eigenvalues --   11.19946  11.69757  12.06451  12.30856  12.57892
 Alpha virt. eigenvalues --   12.82375  13.12032  13.66504
          Condensed to atoms (all electrons):
               1          2          3          4          5          6
     1  O    7.645926   0.797868  -0.074295   0.001142   0.000020  -0.000028
     2  C    0.797868   4.217276   0.324905  -0.010934  -0.002607   0.003335
     3  C   -0.074295   0.324905   5.196092   0.354170  -0.024845  -0.005716
     4  C    0.001142  -0.010934   0.354170   4.892932   0.415994  -0.022545
     5  C    0.000020  -0.002607  -0.024845   0.415994   4.702235   0.369728
     6  C   -0.000028   0.003335  -0.005716  -0.022545   0.369728   5.069457
     7  C    0.001689  -0.046432   0.006922  -0.005173  -0.031129   0.354938
     8  C   -0.000075  -0.012070   0.001237  -0.032616   0.364742  -0.124394
     9  O   -0.064755   0.368306  -0.088652   0.004328   0.001734  -0.037653
    10  H    0.000824  -0.020085   0.347778  -0.028248  -0.006453  -0.000098
    11  H    0.002326  -0.012143   0.347963  -0.026058   0.003640   0.000030
    12  H   -0.000061   0.002209  -0.025917   0.359935  -0.024688   0.004443
    13  H    0.000291  -0.002679  -0.035727   0.370729  -0.032398  -0.009917
    14  H    0.000000   0.000016   0.004818  -0.042747   0.365289  -0.035987
    15  H    0.000001  -0.000352   0.000164   0.003487  -0.022247   0.349329
    16  H   -0.000216   0.002983   0.000047  -0.006786  -0.029846   0.360094
    17  H   -0.000142   0.001896  -0.000796   0.000272   0.007548  -0.044979
    18  H    0.000001   0.000289  -0.000234   0.004485  -0.021894   0.004367
    19  H   -0.000024   0.000565   0.000398  -0.008676  -0.026598   0.010097
               7          8          9         10         11         12
     1  O    0.001689  -0.000075  -0.064755   0.000824   0.002326  -0.000061
     2  C   -0.046432  -0.012070   0.368306  -0.020085  -0.012143   0.002209
     3  C    0.006922   0.001237  -0.088652   0.347778   0.347963  -0.025917
     4  C   -0.005173  -0.032616   0.004328  -0.028248  -0.026058   0.359935
     5  C   -0.031129   0.364742   0.001734  -0.006453   0.003640  -0.024688
     6  C    0.354938  -0.124394  -0.037653  -0.000098   0.000030   0.004443
     7  C    4.583442   0.344040   0.359056  -0.002302  -0.000103   0.000181
     8  C    0.344040   5.098897  -0.029879   0.004018   0.000017  -0.001785
     9  O    0.359056  -0.029879   7.749040   0.001538   0.002634  -0.000112
    10  H   -0.002302   0.004018   0.001538   0.597704  -0.029106  -0.007460
    11  H   -0.000103   0.000017   0.002634  -0.029106   0.583439  -0.001294
    12  H    0.000181  -0.001785  -0.000112  -0.007460  -0.001294   0.631760
    13  H   -0.000584   0.005720   0.000143   0.005552  -0.004439  -0.038030
    14  H    0.004556  -0.035787  -0.000077  -0.000051  -0.000150  -0.006993
    15  H   -0.017655   0.005873   0.002478  -0.000003   0.000004  -0.000184
    16  H   -0.022832   0.010055  -0.002884   0.000059  -0.000108   0.000082
    17  H    0.376871  -0.048438  -0.025716  -0.000002   0.000011   0.000014
    18  H   -0.016013   0.349527   0.002005   0.000023  -0.000007  -0.000146
    19  H   -0.023342   0.359380  -0.002073   0.003396  -0.000037   0.001085
              13         14         15         16         17         18
     1  O    0.000291   0.000000   0.000001  -0.000216  -0.000142   0.000001
     2  C   -0.002679   0.000016  -0.000352   0.002983   0.001896   0.000289
     3  C   -0.035727   0.004818   0.000164   0.000047  -0.000796  -0.000234
     4  C    0.370729  -0.042747   0.003487  -0.006786   0.000272   0.004485
     5  C   -0.032398   0.365289  -0.022247  -0.029846   0.007548  -0.021894
     6  C   -0.009917  -0.035987   0.349329   0.360094  -0.044979   0.004367
     7  C   -0.000584   0.004556  -0.017655  -0.022832   0.376871  -0.016013
     8  C    0.005720  -0.035787   0.005873   0.010055  -0.048438   0.349527
     9  O    0.000143  -0.000077   0.002478  -0.002884  -0.025716   0.002005
    10  H    0.005552  -0.000051  -0.000003   0.000059  -0.000002   0.000023
    11  H   -0.004439  -0.000150   0.000004  -0.000108   0.000011  -0.000007
    12  H   -0.038030  -0.006993  -0.000184   0.000082   0.000014  -0.000146
    13  H    0.622765   0.000619   0.000110   0.005256   0.000015  -0.000136
    14  H    0.000619   0.682108  -0.006229   0.002525  -0.000818  -0.005781
    15  H    0.000110  -0.006229   0.614034  -0.032503  -0.004421   0.000445
    16  H    0.005256   0.002525  -0.032503   0.601002   0.001732  -0.000397
    17  H    0.000015  -0.000818  -0.004421   0.001732   0.643757  -0.004750
    18  H   -0.000136  -0.005781   0.000445  -0.000397  -0.004750   0.613073
    19  H   -0.000021   0.002384  -0.000420  -0.000572   0.001735  -0.034063
              19
     1  O   -0.000024
     2  C    0.000565
     3  C    0.000398
     4  C   -0.008676
     5  C   -0.026598
     6  C    0.010097
     7  C   -0.023342
     8  C    0.359380
     9  O   -0.002073
    10  H    0.003396
    11  H   -0.000037
    12  H    0.001085
    13  H   -0.000021
    14  H    0.002384
    15  H   -0.000420
    16  H   -0.000572
    17  H    0.001735
    18  H   -0.034063
    19  H    0.609268
 Mulliken charges:
               1
     1  O   -0.310495
     2  C    0.387655
     3  C   -0.328313
     4  C   -0.223692
     5  C   -0.008225
     6  C   -0.244502
     7  C    0.133871
     8  C   -0.258463
     9  O   -0.239460
    10  H    0.132917
    11  H    0.133381
    12  H    0.106961
    13  H    0.112729
    14  H    0.072305
    15  H    0.108088
    16  H    0.112308
    17  H    0.096210
    18  H    0.109205
    19  H    0.107517
 Sum of Mulliken charges =   0.00000
 Mulliken charges with hydrogens summed into heavy atoms:
               1
     1  O   -0.310495
     2  C    0.387655
     3  C   -0.062015
     4  C   -0.004002
     5  C    0.064080
     6  C   -0.024106
     7  C    0.230081
     8  C   -0.041740
     9  O   -0.239460
 Electronic spatial extent (au):  <R**2>=           1031.2961
 Charge=              0.0000 electrons
 Dipole moment (field-independent basis, Debye):
    X=              4.1528    Y=              1.4097    Z=             -0.5972  Tot=              4.4261
 Quadrupole moment (field-independent basis, Debye-Ang):
   XX=            -61.3494   YY=            -52.0021   ZZ=            -51.5715
   XY=             -4.1785   XZ=              1.5959   YZ=             -0.2351
 Traceless Quadrupole moment (field-independent basis, Debye-Ang):
   XX=             -6.3750   YY=              2.9723   ZZ=              3.4028
   XY=             -4.1785   XZ=              1.5959   YZ=             -0.2351
 Octapole moment (field-independent basis, Debye-Ang**2):
  XXX=             22.3380  YYY=             -3.9693  ZZZ=             -0.2030  XYY=             -0.2374
  XXY=              1.2846  XXZ=             -4.3453  XZZ=             -4.6172  YZZ=             -1.1375
  YYZ=             -0.3516  XYZ=             -0.0724
 Hexadecapole moment (field-independent basis, Debye-Ang**3):
 XXXX=           -769.7706 YYYY=           -408.9580 ZZZZ=           -195.1988 XXXY=             -9.6010
 XXXZ=             10.8553 YYYX=             -3.9059 YYYZ=              0.7122 ZZZX=             -1.8911
 ZZZY=             -0.7047 XXYY=           -183.1137 XXZZ=           -149.1977 YYZZ=           -103.5193
 XXYZ=              1.4772 YYXZ=             -1.3297 ZZXY=              0.3767
 N-N= 4.757379165470D+02 E-N=-1.937921337978D+03  KE= 4.200720499344D+02
 Calling FoFJK, ICntrl=      2127 FMM=F ISym2X=0 I1Cent= 0 IOpClX= 0 NMat=1 NMatS=1 NMatT=0.
 ***** Axes restored to original set *****
 -------------------------------------------------------------------
 Center     Atomic                   Forces (Hartrees/Bohr)
 Number     Number              X              Y              Z
 -------------------------------------------------------------------
      1        8           0.000002160   -0.000016837    0.000020777
      2        6           0.000000544   -0.000005994   -0.000024460
      3        6          -0.000019057   -0.000003587   -0.000004459
      4        6           0.000004211    0.000003048    0.000000042
      5        6          -0.000007942    0.000005936   -0.000007041
      6        6           0.000009483   -0.000002843    0.000008517
      7        6           0.000008676    0.000004889    0.000023463
      8        6          -0.000000008    0.000005442   -0.000009880
      9        8           0.000005407   -0.000011232    0.000001607
     10        1          -0.000002285   -0.000009380    0.000000734
     11        1          -0.000003583   -0.000008181   -0.000007822
     12        1          -0.000011892    0.000005026   -0.000008383
     13        1          -0.000007692    0.000001084   -0.000007817
     14        1          -0.000002780    0.000011368   -0.000001778
     15        1           0.000008106    0.000011619    0.000000831
     16        1          -0.000001447    0.000006046    0.000001172
     17        1           0.000006807   -0.000000355    0.000005206
     18        1           0.000008961    0.000006948    0.000005769
     19        1           0.000002331   -0.000002998    0.000003521
 -------------------------------------------------------------------
 Cartesian Forces:  Max     0.000024460 RMS     0.000008653

 GradGradGradGradGradGradGradGradGradGradGradGradGradGradGradGradGradGrad
 Berny optimization.
 FormGI is forming the generalized inverse of G from B-inverse, IUseBI=4.
 Internal  Forces:  Max     0.000019357 RMS     0.000002522
 Search for a local minimum.
 Step number   1 out of a maximum of  114
 All quantities printed in internal units (Hartrees-Bohrs-Radians)
 Mixed Optimization -- En-DIIS/RFO-DIIS
 Second derivative matrix not updated -- first step.
 ITU=  0
     Eigenvalues ---    0.00450   0.00831   0.01110   0.01256   0.02126
     Eigenvalues ---    0.02288   0.02765   0.02950   0.03455   0.03607
     Eigenvalues ---    0.04386   0.04647   0.04686   0.04881   0.05055
     Eigenvalues ---    0.05394   0.05758   0.06250   0.06338   0.06610
     Eigenvalues ---    0.07473   0.08405   0.08697   0.09293   0.09795
     Eigenvalues ---    0.10505   0.10617   0.12909   0.18770   0.20478
     Eigenvalues ---    0.23261   0.24713   0.24921   0.25765   0.26706
     Eigenvalues ---    0.27970   0.28525   0.29076   0.34013   0.34033
     Eigenvalues ---    0.34136   0.34375   0.34437   0.34476   0.34498
     Eigenvalues ---    0.34638   0.34673   0.34784   0.39864   0.50579
     Eigenvalues ---    1.04067
 RFO step:  Lambda= 0.00000000D+00 EMin= 4.50232473D-03
 Linear search not attempted -- first point.
 Iteration  1 RMS(Cart)=  0.00002153 RMS(Int)=  0.00000000
 Iteration  2 RMS(Cart)=  0.00000000 RMS(Int)=  0.00000000
 Variable       Old X    -DE/DX   Delta X   Delta X   Delta X     New X
                                 (Linear)    (Quad)   (Total)
    R1        2.27053   0.00002   0.00000   0.00002   0.00002   2.27055
    R2        2.88609  -0.00001   0.00000  -0.00002  -0.00002   2.88607
    R3        2.57362  -0.00001   0.00000  -0.00001  -0.00001   2.57361
    R4        2.91213  -0.00001   0.00000  -0.00002  -0.00002   2.91211
    R5        2.07308   0.00000   0.00000   0.00000   0.00000   2.07308
    R6        2.06209   0.00000   0.00000  -0.00001  -0.00001   2.06208
    R7        2.89686   0.00000   0.00000   0.00000   0.00000   2.89686
    R8        2.07100   0.00000   0.00000  -0.00001  -0.00001   2.07099
    R9        2.07275   0.00000   0.00000   0.00000   0.00000   2.07275
   R10        2.94091   0.00000   0.00000  -0.00002  -0.00002   2.94088
   R11        2.94442   0.00000   0.00000   0.00001   0.00001   2.94443
   R12        2.06497   0.00000   0.00000   0.00000   0.00000   2.06497
   R13        2.92319   0.00000   0.00000   0.00000   0.00000   2.92319
   R14        2.06535   0.00000   0.00000   0.00000   0.00000   2.06535
   R15        2.06702   0.00000   0.00000   0.00000   0.00000   2.06702
   R16        2.93270   0.00000   0.00000   0.00002   0.00002   2.93272
   R17        2.70366  -0.00001   0.00000  -0.00001  -0.00001   2.70365
   R18        2.06026   0.00000   0.00000   0.00000   0.00000   2.06026
   R19        2.06599   0.00000   0.00000  -0.00001  -0.00001   2.06598
   R20        2.06267   0.00000   0.00000   0.00000   0.00000   2.06267
    A1        2.12748   0.00000   0.00000  -0.00002  -0.00002   2.12746
    A2        2.06030   0.00000   0.00000   0.00002   0.00002   2.06032
    A3        2.08981   0.00000   0.00000   0.00000   0.00000   2.08981
    A4        2.09247   0.00000   0.00000   0.00003   0.00003   2.09249
    A5        1.84453   0.00000   0.00000  -0.00002  -0.00002   1.84451
    A6        1.83372   0.00000   0.00000   0.00000   0.00000   1.83371
    A7        1.90368   0.00000   0.00000   0.00001   0.00001   1.90369
    A8        1.91723   0.00000   0.00000   0.00002   0.00002   1.91725
    A9        1.85817   0.00000   0.00000  -0.00004  -0.00004   1.85813
   A10        2.00839   0.00000   0.00000   0.00002   0.00002   2.00840
   A11        1.86666   0.00000   0.00000   0.00001   0.00001   1.86667
   A12        1.91320   0.00000   0.00000   0.00001   0.00001   1.91321
   A13        1.91418   0.00000   0.00000  -0.00002  -0.00002   1.91416
   A14        1.90017   0.00000   0.00000   0.00000   0.00000   1.90017
   A15        1.85509   0.00000   0.00000  -0.00001  -0.00001   1.85508
   A16        1.96178   0.00000   0.00000  -0.00002  -0.00002   1.96176
   A17        1.97882   0.00000   0.00000  -0.00001  -0.00001   1.97881
   A18        1.91808   0.00000   0.00000   0.00001   0.00001   1.91809
   A19        1.53060   0.00000   0.00000   0.00000   0.00000   1.53060
   A20        2.02020   0.00000   0.00000   0.00000   0.00000   2.02020
   A21        2.02943   0.00000   0.00000   0.00002   0.00002   2.02945
   A22        1.54364   0.00000   0.00000   0.00002   0.00002   1.54366
   A23        1.96122   0.00000   0.00000  -0.00004  -0.00004   1.96117
   A24        2.06142   0.00000   0.00000   0.00003   0.00003   2.06145
   A25        1.94359   0.00000   0.00000  -0.00004  -0.00004   1.94355
   A26        2.03107   0.00000   0.00000   0.00003   0.00003   2.03111
   A27        1.90188   0.00000   0.00000   0.00000   0.00000   1.90188
   A28        1.54028   0.00000   0.00000  -0.00001  -0.00001   1.54027
   A29        1.98054   0.00000   0.00000   0.00002   0.00002   1.98056
   A30        2.05541   0.00000   0.00000  -0.00003  -0.00003   2.05538
   A31        2.05475   0.00000   0.00000   0.00000   0.00000   2.05475
   A32        2.03833   0.00000   0.00000  -0.00002  -0.00002   2.03831
   A33        1.80297   0.00000   0.00000   0.00003   0.00003   1.80301
   A34        1.53934   0.00000   0.00000   0.00000   0.00000   1.53934
   A35        1.94872   0.00000   0.00000   0.00004   0.00004   1.94876
   A36        2.08539   0.00000   0.00000  -0.00003  -0.00003   2.08537
   A37        1.91151   0.00000   0.00000   0.00001   0.00001   1.91153
   A38        2.06460   0.00000   0.00000  -0.00002  -0.00002   2.06458
   A39        1.89144   0.00000   0.00000   0.00000   0.00000   1.89144
   A40        2.17803   0.00000   0.00000  -0.00001  -0.00001   2.17802
    D1        2.29536   0.00000   0.00000   0.00001   0.00001   2.29536
    D2       -1.83124   0.00000   0.00000   0.00002   0.00002  -1.83122
    D3        0.12983   0.00000   0.00000  -0.00004  -0.00004   0.12979
    D4       -0.96192   0.00000   0.00000   0.00004   0.00004  -0.96188
    D5        1.19466   0.00000   0.00000   0.00006   0.00006   1.19472
    D6       -3.12745   0.00000   0.00000   0.00000   0.00000  -3.12745
    D7       -2.78671   0.00000   0.00000   0.00002   0.00002  -2.78668
    D8        0.46615   0.00000   0.00000  -0.00001  -0.00001   0.46615
    D9        0.85721   0.00000   0.00000  -0.00003  -0.00003   0.85718
   D10        2.98801   0.00000   0.00000  -0.00004  -0.00004   2.98797
   D11       -1.29100   0.00000   0.00000  -0.00004  -0.00004  -1.29105
   D12       -1.27058   0.00000   0.00000  -0.00003  -0.00003  -1.27061
   D13        0.86022   0.00000   0.00000  -0.00004  -0.00004   0.86018
   D14        2.86439   0.00000   0.00000  -0.00005  -0.00005   2.86435
   D15        2.98214   0.00000   0.00000   0.00000   0.00000   2.98214
   D16       -1.17025   0.00000   0.00000  -0.00001  -0.00001  -1.17025
   D17        0.83393   0.00000   0.00000  -0.00001  -0.00001   0.83391
   D18       -1.19487   0.00000   0.00000   0.00002   0.00002  -1.19485
   D19        0.50714   0.00000   0.00000   0.00001   0.00001   0.50715
   D20        2.81135   0.00000   0.00000   0.00003   0.00003   2.81138
   D21        2.98334   0.00000   0.00000   0.00001   0.00001   2.98335
   D22       -1.59783   0.00000   0.00000   0.00000   0.00000  -1.59784
   D23        0.70638   0.00000   0.00000   0.00002   0.00002   0.70640
   D24        0.96027   0.00000   0.00000   0.00004   0.00004   0.96032
   D25        2.66228   0.00000   0.00000   0.00003   0.00003   2.66231
   D26       -1.31669   0.00000   0.00000   0.00005   0.00005  -1.31664
   D27        1.64100   0.00000   0.00000  -0.00001  -0.00001   1.64098
   D28       -2.67854   0.00000   0.00000  -0.00005  -0.00005  -2.67859
   D29       -0.44106   0.00000   0.00000  -0.00007  -0.00007  -0.44113
   D30       -0.35550   0.00000   0.00000   0.00000   0.00000  -0.35550
   D31        1.60815   0.00000   0.00000  -0.00004  -0.00004   1.60811
   D32       -2.43756   0.00000   0.00000  -0.00006  -0.00006  -2.43761
   D33       -2.41845   0.00000   0.00000  -0.00002  -0.00002  -2.41847
   D34       -0.45480   0.00000   0.00000  -0.00006  -0.00006  -0.45486
   D35        1.78268   0.00000   0.00000  -0.00008  -0.00008   1.78260
   D36       -1.62594   0.00000   0.00000   0.00002   0.00002  -1.62592
   D37        2.73184   0.00000   0.00000   0.00001   0.00001   2.73185
   D38        0.49989   0.00000   0.00000  -0.00001  -0.00001   0.49989
   D39        0.35434   0.00000   0.00000   0.00000   0.00000   0.35434
   D40       -1.57106   0.00000   0.00000  -0.00002  -0.00002  -1.57108
   D41        2.48017   0.00000   0.00000  -0.00004  -0.00004   2.48014
   D42        2.40880   0.00000   0.00000   0.00000   0.00000   2.40881
   D43        0.48340   0.00000   0.00000  -0.00001  -0.00001   0.48339
   D44       -1.74855   0.00000   0.00000  -0.00003  -0.00003  -1.74858
   D45        0.35685   0.00000   0.00000   0.00000   0.00000   0.35685
   D46       -1.73091   0.00000   0.00000  -0.00001  -0.00001  -1.73092
   D47        2.44376   0.00000   0.00000  -0.00004  -0.00004   2.44372
   D48       -1.62347   0.00000   0.00000   0.00004   0.00004  -1.62343
   D49        2.57195   0.00000   0.00000   0.00004   0.00004   2.57199
   D50        0.46344   0.00000   0.00000   0.00000   0.00000   0.46344
   D51        2.46590   0.00000   0.00000   0.00005   0.00005   2.46595
   D52        0.37814   0.00000   0.00000   0.00005   0.00005   0.37819
   D53       -1.73037   0.00000   0.00000   0.00001   0.00001  -1.73037
   D54       -0.35646   0.00000   0.00000   0.00001   0.00001  -0.35645
   D55        1.60471   0.00000   0.00000   0.00005   0.00005   1.60476
   D56       -2.50042   0.00000   0.00000   0.00004   0.00004  -2.50038
   D57        1.66351   0.00000   0.00000   0.00003   0.00003   1.66354
   D58       -2.65851   0.00000   0.00000   0.00007   0.00007  -2.65844
   D59       -0.48045   0.00000   0.00000   0.00006   0.00006  -0.48039
   D60       -2.45861   0.00000   0.00000   0.00005   0.00005  -2.45856
   D61       -0.49744   0.00000   0.00000   0.00010   0.00010  -0.49734
   D62        1.68061   0.00000   0.00000   0.00009   0.00009   1.68070
   D63        0.86590   0.00000   0.00000  -0.00003  -0.00003   0.86587
   D64       -0.89678   0.00000   0.00000  -0.00003  -0.00003  -0.89682
   D65        3.11133   0.00000   0.00000  -0.00003  -0.00003   3.11130
         Item               Value     Threshold  Converged?
 Maximum Force            0.000019     0.000450     YES
 RMS     Force            0.000003     0.000300     YES
 Maximum Displacement     0.000076     0.001800     YES
 RMS     Displacement     0.000022     0.001200     YES
 Predicted change in Energy=-2.347131D-09
 Optimization completed.
    -- Stationary point found.
                           ----------------------------
                           !   Optimized Parameters   !
                           ! (Angstroms and Degrees)  !
 --------------------------                            --------------------------
 ! Name  Definition              Value          Derivative Info.                !
 --------------------------------------------------------------------------------
 ! R1    R(1,2)                  1.2015         -DE/DX =    0.0                 !
 ! R2    R(2,3)                  1.5273         -DE/DX =    0.0                 !
 ! R3    R(2,9)                  1.3619         -DE/DX =    0.0                 !
 ! R4    R(3,4)                  1.541          -DE/DX =    0.0                 !
 ! R5    R(3,10)                 1.097          -DE/DX =    0.0                 !
 ! R6    R(3,11)                 1.0912         -DE/DX =    0.0                 !
 ! R7    R(4,5)                  1.533          -DE/DX =    0.0                 !
 ! R8    R(4,12)                 1.0959         -DE/DX =    0.0                 !
 ! R9    R(4,13)                 1.0969         -DE/DX =    0.0                 !
 ! R10   R(5,6)                  1.5563         -DE/DX =    0.0                 !
 ! R11   R(5,8)                  1.5581         -DE/DX =    0.0                 !
 ! R12   R(5,14)                 1.0927         -DE/DX =    0.0                 !
 ! R13   R(6,7)                  1.5469         -DE/DX =    0.0                 !
 ! R14   R(6,15)                 1.0929         -DE/DX =    0.0                 !
 ! R15   R(6,16)                 1.0938         -DE/DX =    0.0                 !
 ! R16   R(7,8)                  1.5519         -DE/DX =    0.0                 !
 ! R17   R(7,9)                  1.4307         -DE/DX =    0.0                 !
 ! R18   R(7,17)                 1.0902         -DE/DX =    0.0                 !
 ! R19   R(8,18)                 1.0933         -DE/DX =    0.0                 !
 ! R20   R(8,19)                 1.0915         -DE/DX =    0.0                 !
 ! A1    A(1,2,3)              121.8956         -DE/DX =    0.0                 !
 ! A2    A(1,2,9)              118.0466         -DE/DX =    0.0                 !
 ! A3    A(3,2,9)              119.7373         -DE/DX =    0.0                 !
 ! A4    A(2,3,4)              119.8894         -DE/DX =    0.0                 !
 ! A5    A(2,3,10)             105.6837         -DE/DX =    0.0                 !
 ! A6    A(2,3,11)             105.0643         -DE/DX =    0.0                 !
 ! A7    A(4,3,10)             109.0725         -DE/DX =    0.0                 !
 ! A8    A(4,3,11)             109.8495         -DE/DX =    0.0                 !
 ! A9    A(10,3,11)            106.4652         -DE/DX =    0.0                 !
 ! A10   A(3,4,5)              115.0721         -DE/DX =    0.0                 !
 ! A11   A(3,4,12)             106.9517         -DE/DX =    0.0                 !
 ! A12   A(3,4,13)             109.6183         -DE/DX =    0.0                 !
 ! A13   A(5,4,12)             109.6745         -DE/DX =    0.0                 !
 ! A14   A(5,4,13)             108.8717         -DE/DX =    0.0                 !
 ! A15   A(12,4,13)            106.2889         -DE/DX =    0.0                 !
 ! A16   A(4,5,6)              112.4019         -DE/DX =    0.0                 !
 ! A17   A(4,5,8)              113.3781         -DE/DX =    0.0                 !
 ! A18   A(4,5,14)             109.8981         -DE/DX =    0.0                 !
 ! A19   A(6,5,8)               87.6969         -DE/DX =    0.0                 !
 ! A20   A(6,5,14)             115.7489         -DE/DX =    0.0                 !
 ! A21   A(8,5,14)             116.2777         -DE/DX =    0.0                 !
 ! A22   A(5,6,7)               88.4443         -DE/DX =    0.0                 !
 ! A23   A(5,6,15)             112.3694         -DE/DX =    0.0                 !
 ! A24   A(5,6,16)             118.1108         -DE/DX =    0.0                 !
 ! A25   A(7,6,15)             111.3595         -DE/DX =    0.0                 !
 ! A26   A(7,6,16)             116.3719         -DE/DX =    0.0                 !
 ! A27   A(15,6,16)            108.9699         -DE/DX =    0.0                 !
 ! A28   A(6,7,8)               88.2514         -DE/DX =    0.0                 !
 ! A29   A(6,7,9)              113.4766         -DE/DX =    0.0                 !
 ! A30   A(6,7,17)             117.7664         -DE/DX =    0.0                 !
 ! A31   A(8,7,9)              117.7283         -DE/DX =    0.0                 !
 ! A32   A(8,7,17)             116.7879         -DE/DX =    0.0                 !
 ! A33   A(9,7,17)             103.3028         -DE/DX =    0.0                 !
 ! A34   A(5,8,7)               88.1978         -DE/DX =    0.0                 !
 ! A35   A(5,8,18)             111.6533         -DE/DX =    0.0                 !
 ! A36   A(5,8,19)             119.4841         -DE/DX =    0.0                 !
 ! A37   A(7,8,18)             109.5217         -DE/DX =    0.0                 !
 ! A38   A(7,8,19)             118.293          -DE/DX =    0.0                 !
 ! A39   A(18,8,19)            108.3716         -DE/DX =    0.0                 !
 ! A40   A(2,9,7)              124.7918         -DE/DX =    0.0                 !
 ! D1    D(1,2,3,4)            131.5142         -DE/DX =    0.0                 !
 ! D2    D(1,2,3,10)          -104.9224         -DE/DX =    0.0                 !
 ! D3    D(1,2,3,11)             7.4388         -DE/DX =    0.0                 !
 ! D4    D(9,2,3,4)            -55.1141         -DE/DX =    0.0                 !
 ! D5    D(9,2,3,10)            68.4492         -DE/DX =    0.0                 !
 ! D6    D(9,2,3,11)          -179.1896         -DE/DX =    0.0                 !
 ! D7    D(1,2,9,7)           -159.6666         -DE/DX =    0.0                 !
 ! D8    D(3,2,9,7)             26.7087         -DE/DX =    0.0                 !
 ! D9    D(2,3,4,5)             49.1148         -DE/DX =    0.0                 !
 ! D10   D(2,3,4,12)           171.2003         -DE/DX =    0.0                 !
 ! D11   D(2,3,4,13)           -73.969          -DE/DX =    0.0                 !
 ! D12   D(10,3,4,5)           -72.7986         -DE/DX =    0.0                 !
 ! D13   D(10,3,4,12)           49.2869         -DE/DX =    0.0                 !
 ! D14   D(10,3,4,13)          164.1176         -DE/DX =    0.0                 !
 ! D15   D(11,3,4,5)           170.8642         -DE/DX =    0.0                 !
 ! D16   D(11,3,4,12)          -67.0502         -DE/DX =    0.0                 !
 ! D17   D(11,3,4,13)           47.7805         -DE/DX =    0.0                 !
 ! D18   D(3,4,5,6)            -68.4612         -DE/DX =    0.0                 !
 ! D19   D(3,4,5,8)             29.0568         -DE/DX =    0.0                 !
 ! D20   D(3,4,5,14)           161.0783         -DE/DX =    0.0                 !
 ! D21   D(12,4,5,6)           170.933          -DE/DX =    0.0                 !
 ! D22   D(12,4,5,8)           -91.549          -DE/DX =    0.0                 !
 ! D23   D(12,4,5,14)           40.4724         -DE/DX =    0.0                 !
 ! D24   D(13,4,5,6)            55.0197         -DE/DX =    0.0                 !
 ! D25   D(13,4,5,8)           152.5377         -DE/DX =    0.0                 !
 ! D26   D(13,4,5,14)          -75.4409         -DE/DX =    0.0                 !
 ! D27   D(4,5,6,7)             94.0221         -DE/DX =    0.0                 !
 ! D28   D(4,5,6,15)          -153.4692         -DE/DX =    0.0                 !
 ! D29   D(4,5,6,16)           -25.2711         -DE/DX =    0.0                 !
 ! D30   D(8,5,6,7)            -20.3685         -DE/DX =    0.0                 !
 ! D31   D(8,5,6,15)            92.1402         -DE/DX =    0.0                 !
 ! D32   D(8,5,6,16)          -139.6617         -DE/DX =    0.0                 !
 ! D33   D(14,5,6,7)          -138.5669         -DE/DX =    0.0                 !
 ! D34   D(14,5,6,15)          -26.0581         -DE/DX =    0.0                 !
 ! D35   D(14,5,6,16)          102.1399         -DE/DX =    0.0                 !
 ! D36   D(4,5,8,7)            -93.1595         -DE/DX =    0.0                 !
 ! D37   D(4,5,8,18)           156.5232         -DE/DX =    0.0                 !
 ! D38   D(4,5,8,19)            28.6419         -DE/DX =    0.0                 !
 ! D39   D(6,5,8,7)             20.3022         -DE/DX =    0.0                 !
 ! D40   D(6,5,8,18)           -90.0152         -DE/DX =    0.0                 !
 ! D41   D(6,5,8,19)           142.1035         -DE/DX =    0.0                 !
 ! D42   D(14,5,8,7)           138.0143         -DE/DX =    0.0                 !
 ! D43   D(14,5,8,18)           27.6969         -DE/DX =    0.0                 !
 ! D44   D(14,5,8,19)         -100.1844         -DE/DX =    0.0                 !
 ! D45   D(5,6,7,8)             20.4462         -DE/DX =    0.0                 !
 ! D46   D(5,6,7,9)            -99.1739         -DE/DX =    0.0                 !
 ! D47   D(5,6,7,17)           140.0172         -DE/DX =    0.0                 !
 ! D48   D(15,6,7,8)           -93.018          -DE/DX =    0.0                 !
 ! D49   D(15,6,7,9)           147.3619         -DE/DX =    0.0                 !
 ! D50   D(15,6,7,17)           26.5531         -DE/DX =    0.0                 !
 ! D51   D(16,6,7,8)           141.2859         -DE/DX =    0.0                 !
 ! D52   D(16,6,7,9)            21.6658         -DE/DX =    0.0                 !
 ! D53   D(16,6,7,17)          -99.143          -DE/DX =    0.0                 !
 ! D54   D(6,7,8,5)            -20.4234         -DE/DX =    0.0                 !
 ! D55   D(6,7,8,18)            91.9432         -DE/DX =    0.0                 !
 ! D56   D(6,7,8,19)          -143.2635         -DE/DX =    0.0                 !
 ! D57   D(9,7,8,5)             95.3122         -DE/DX =    0.0                 !
 ! D58   D(9,7,8,18)          -152.3212         -DE/DX =    0.0                 !
 ! D59   D(9,7,8,19)           -27.5279         -DE/DX =    0.0                 !
 ! D60   D(17,7,8,5)          -140.8681         -DE/DX =    0.0                 !
 ! D61   D(17,7,8,18)          -28.5015         -DE/DX =    0.0                 !
 ! D62   D(17,7,8,19)           96.2918         -DE/DX =    0.0                 !
 ! D63   D(6,7,9,2)             49.6126         -DE/DX =    0.0                 !
 ! D64   D(8,7,9,2)            -51.3819         -DE/DX =    0.0                 !
 ! D65   D(17,7,9,2)           178.2661         -DE/DX =    0.0                 !
 --------------------------------------------------------------------------------
 GradGradGradGradGradGradGradGradGradGradGradGradGradGradGradGradGradGrad

                          Input orientation:                          
 ---------------------------------------------------------------------
 Center     Atomic      Atomic             Coordinates (Angstroms)
 Number     Number       Type             X           Y           Z
 ---------------------------------------------------------------------
      1          8           0        1.914063    0.049007    3.410850
      2          6           0        1.779306   -0.004873    2.218134
      3          6           0        1.902994   -1.319463    1.450632
      4          6           0        0.823287   -1.714019    0.424308
      5          6           0        0.455562   -0.620156   -0.584742
      6          6           0       -0.288593    0.574095    0.080050
      7          6           0        1.076041    1.287366    0.227940
      8          6           0        1.627697    0.360603   -0.887962
      9          8           0        1.643970    1.165779    1.535465
     10          1           0        2.877388   -1.279006    0.948248
     11          1           0        1.982977   -2.090070    2.219075
     12          1           0        1.195618   -2.596790   -0.107806
     13          1           0       -0.085506   -2.032079    0.949682
     14          1           0       -0.039606   -1.064881   -1.451405
     15          1           0       -0.939369    1.101436   -0.622027
     16          1           0       -0.841451    0.386330    1.004999
     17          1           0        1.111584    2.360310    0.037778
     18          1           0        1.505998    0.846493   -1.859736
     19          1           0        2.657620    0.008553   -0.805934
 ---------------------------------------------------------------------
                    Distance matrix (angstroms):
                    1          2          3          4          5
     1  O    0.000000
     2  C    1.201513   0.000000
     3  C    2.390667   1.527255   0.000000
     4  C    3.635587   2.655742   1.541033   0.000000
     5  C    4.305782   3.160219   2.593614   1.532951   0.000000
     6  C    4.027610   3.030316   3.204233   2.567149   1.556262
     7  C    3.516635   2.474941   2.995727   3.018403   2.164275
     8  C    4.319592   3.131196   2.892651   2.583251   1.558118
     9  O    2.199363   1.361902   2.500144   3.193968   3.016150
    10  H    2.959058   2.107561   1.097029   2.164043   2.940984
    11  H    2.449638   2.095121   1.091209   2.169674   3.514973
    12  H    4.460644   3.531108   2.135572   1.095928   2.163847
    13  H    3.792960   3.032500   2.170922   1.096852   2.154237
    14  H    5.357153   4.230552   3.501474   2.164315   1.092737
    15  H    5.051116   4.084314   4.270327   3.482608   2.216101
    16  H    3.673522   2.914293   3.261947   2.742266   2.285287
    17  H    4.166978   3.285406   4.020351   4.102765   3.114655
    18  H    5.346174   4.174751   3.975866   3.498453   2.209091
    19  H    4.282030   3.149064   2.724918   2.800987   2.300708
                    6          7          8          9         10
     6  C    0.000000
     7  C    1.546885   0.000000
     8  C    2.157497   1.551918   0.000000
     9  O    2.490607   1.430716   2.553737   0.000000
    10  H    3.769773   3.217136   2.760745   2.800558   0.000000
    11  H    4.102833   4.024205   3.973122   3.344070   1.752940
    12  H    3.506092   3.900473   3.088933   4.130168   2.383307
    13  H    2.754931   3.590099   3.469427   3.682462   3.057101
    14  H    2.256898   3.098053   2.264812   4.090436   3.783257
    15  H    1.092936   2.195197   2.685030   3.366385   4.764442
    16  H    1.093819   2.256648   3.111376   2.658243   4.075087
    17  H    2.269988   1.090245   2.263227   1.988317   4.146281
    18  H    2.656601   2.176609   1.093273   3.412972   3.779317
    19  H    3.128094   2.281590   1.091517   2.801573   2.187067
                   11         12         13         14         15
    11  H    0.000000
    12  H    2.508201   0.000000
    13  H    2.427621   1.754554   0.000000
    14  H    4.314427   2.382810   2.588976   0.000000
    15  H    5.176647   4.301101   3.608083   2.488046   0.000000
    16  H    3.947649   3.779813   2.534405   2.963594   1.779938
    17  H    5.032223   4.959949   4.643024   3.908303   2.495298
    18  H    5.048526   3.875796   4.325724   2.491782   2.752588
    19  H    3.742999   3.068003   3.843319   2.973873   3.763847
                   16         17         18         19
    16  H    0.000000
    17  H    2.940486   0.000000
    18  H    3.732155   2.459221   0.000000
    19  H    3.957991   2.938170   1.771687   0.000000
 Stoichiometry    C7H10O2
 Framework group  C1[X(C7H10O2)]
 Deg. of freedom    51
 Full point group                 C1      NOp   1
 Largest Abelian subgroup         C1      NOp   1
 Largest concise Abelian subgroup C1      NOp   1
                         Standard orientation:                         
 ---------------------------------------------------------------------
 Center     Atomic      Atomic             Coordinates (Angstroms)
 Number     Number       Type             X           Y           Z
 ---------------------------------------------------------------------
      1          8           0       -2.635292   -0.257132    0.284687
      2          6           0       -1.482167   -0.128017   -0.027188
      3          6           0       -0.891494    1.233247   -0.388535
      4          6           0        0.436052    1.687867    0.248430
      5          6           0        1.570835    0.658929    0.189334
      6          6           0        1.297296   -0.578258    1.092936
      7          6           0        0.698027   -1.293873   -0.140605
      8          6           0        1.476479   -0.295716   -1.038462
      9          8           0       -0.731446   -1.253402   -0.184369
     10          1           0       -0.782359    1.228851   -1.480113
     11          1           0       -1.678325    1.953714   -0.159274
     12          1           0        0.741551    2.604234   -0.269257
     13          1           0        0.265398    1.968108    1.295057
     14          1           0        2.531828    1.155861    0.343036
     15          1           0        2.218999   -1.062527    1.425286
     16          1           0        0.632204   -0.452009    1.952095
     17          1           0        0.923187   -2.352387   -0.272844
     18          1           0        2.450923   -0.719279   -1.295952
     19          1           0        1.000329    0.054636   -1.956036
 ---------------------------------------------------------------------
 Rotational constants (GHZ):      2.7814813      1.6245895      1.2734026
 1\1\GINC-ALCHEMY-N\FOpt\RB3LYP\6-31G(2df,p)\C7H10O2\PUCK\27-Jan-2020\0
 \\# b3lyp 6-31G(2df,p) opt Freq\\titel\\0,1\O,1.9140633119,0.049007475
 ,3.410849614\C,1.7793057612,-0.0048726521,2.218134049\C,1.9029935547,-
 1.3194634688,1.4506315333\C,0.8232867956,-1.714019233,0.4243076713\C,0
 .4555624399,-0.6201561302,-0.5847424897\C,-0.288592945,0.5740949004,0.
 0800496417\C,1.0760407483,1.2873657696,0.2279404638\C,1.6276974603,0.3
 606033256,-0.8879615323\O,1.6439697292,1.1657793047,1.5354653741\H,2.8
 773884486,-1.279006413,0.9482478189\H,1.9829768726,-2.090069829,2.2190
 754515\H,1.1956182598,-2.5967898285,-0.1078056147\H,-0.0855062942,-2.0
 320785072,0.9496819751\H,-0.0396058467,-1.0648810319,-1.4514046135\H,-
 0.939368849,1.1014363544,-0.6220265252\H,-0.8414512671,0.3863296915,1.
 0049993384\H,1.1115835608,2.3603100955,0.0377779705\H,1.5059978262,0.8
 464928404,-1.8597363331\H,2.6576198629,0.0085527366,-0.8059340633\\Ver
 sion=ES64L-G09RevD.01\State=1-A\HF=-423.2160777\RMSD=6.569e-09\RMSF=8.
 653e-06\Dipole=-0.3817509,-0.4529035,-1.6375094\Quadrupole=2.3656257,2
 .5310886,-4.8967143,-1.2018435,-1.6960329,-2.3775083\PG=C01 [X(C7H10O2
 )]\\@


 BLESSED ARE THOSE WHO NOUGHT EXPECT,
 FOR THEY SHALL NOT BE DISAPPOINTED..  WALCOT - ODE TO PITT
 Job cpu time:       0 days  0 hours  7 minutes 11.3 seconds.
 File lengths (MBytes):  RWF=     52 Int=      0 D2E=      0 Chk=      7 Scr=      1
 Normal termination of Gaussian 09 at Mon Jan 27 13:07:46 2020.
 Link1:  Proceeding to internal job step number  2.
 ----------------------------------------------------------------------
 #N Geom=AllCheck Guess=TCheck SCRF=Check GenChk RB3LYP/6-31G(2df,p) Fr
 eq
 ----------------------------------------------------------------------
 1/10=4,29=7,30=1,38=1,40=1/1,3;
 2/12=2,40=1/2;
 3/5=1,6=6,7=104,11=2,14=-4,16=1,25=1,30=1,70=2,71=2,74=-5,116=1,140=1/1,2,3;
 4/5=101/1;
 5/5=2,98=1/2;
 8/6=4,10=90,11=11/1;
 11/6=1,8=1,9=11,15=111,16=1/1,2,10;
 10/6=1/2;
 6/7=2,8=2,9=2,10=2,18=1,28=1/1;
 7/8=1,10=1,25=1/1,2,3,16;
 1/10=4,30=1/3;
 99//99;
 Structure from the checkpoint file:  "/scratch/puck/g09_d05baf5e-962f-4437-9d71-a25165713f7f/Gau-47927.chk"
 -----
 titel
 -----
 Charge =  0 Multiplicity = 1
 Redundant internal coordinates found in file.
 O,0,1.9140633119,0.049007475,3.410849614
 C,0,1.7793057612,-0.0048726521,2.218134049
 C,0,1.9029935547,-1.3194634688,1.4506315333
 C,0,0.8232867956,-1.714019233,0.4243076713
 C,0,0.4555624399,-0.6201561302,-0.5847424897
 C,0,-0.288592945,0.5740949004,0.0800496417
 C,0,1.0760407483,1.2873657696,0.2279404638
 C,0,1.6276974603,0.3606033256,-0.8879615323
 O,0,1.6439697292,1.1657793047,1.5354653741
 H,0,2.8773884486,-1.279006413,0.9482478189
 H,0,1.9829768726,-2.090069829,2.2190754515
 H,0,1.1956182598,-2.5967898285,-0.1078056147
 H,0,-0.0855062942,-2.0320785072,0.9496819751
 H,0,-0.0396058467,-1.0648810319,-1.4514046135
 H,0,-0.939368849,1.1014363544,-0.6220265252
 H,0,-0.8414512671,0.3863296915,1.0049993384
 H,0,1.1115835608,2.3603100955,0.0377779705
 H,0,1.5059978262,0.8464928404,-1.8597363331
 H,0,2.6576198629,0.0085527366,-0.8059340633
 Recover connectivity data from disk.

 GradGradGradGradGradGradGradGradGradGradGradGradGradGradGradGradGradGrad
 Berny optimization.
 Initialization pass.
                           ----------------------------
                           !    Initial Parameters    !
                           ! (Angstroms and Degrees)  !
 --------------------------                            --------------------------
 ! Name  Definition              Value          Derivative Info.                !
 --------------------------------------------------------------------------------
 ! R1    R(1,2)                  1.2015         calculate D2E/DX2 analytically  !
 ! R2    R(2,3)                  1.5273         calculate D2E/DX2 analytically  !
 ! R3    R(2,9)                  1.3619         calculate D2E/DX2 analytically  !
 ! R4    R(3,4)                  1.541          calculate D2E/DX2 analytically  !
 ! R5    R(3,10)                 1.097          calculate D2E/DX2 analytically  !
 ! R6    R(3,11)                 1.0912         calculate D2E/DX2 analytically  !
 ! R7    R(4,5)                  1.533          calculate D2E/DX2 analytically  !
 ! R8    R(4,12)                 1.0959         calculate D2E/DX2 analytically  !
 ! R9    R(4,13)                 1.0969         calculate D2E/DX2 analytically  !
 ! R10   R(5,6)                  1.5563         calculate D2E/DX2 analytically  !
 ! R11   R(5,8)                  1.5581         calculate D2E/DX2 analytically  !
 ! R12   R(5,14)                 1.0927         calculate D2E/DX2 analytically  !
 ! R13   R(6,7)                  1.5469         calculate D2E/DX2 analytically  !
 ! R14   R(6,15)                 1.0929         calculate D2E/DX2 analytically  !
 ! R15   R(6,16)                 1.0938         calculate D2E/DX2 analytically  !
 ! R16   R(7,8)                  1.5519         calculate D2E/DX2 analytically  !
 ! R17   R(7,9)                  1.4307         calculate D2E/DX2 analytically  !
 ! R18   R(7,17)                 1.0902         calculate D2E/DX2 analytically  !
 ! R19   R(8,18)                 1.0933         calculate D2E/DX2 analytically  !
 ! R20   R(8,19)                 1.0915         calculate D2E/DX2 analytically  !
 ! A1    A(1,2,3)              121.8956         calculate D2E/DX2 analytically  !
 ! A2    A(1,2,9)              118.0466         calculate D2E/DX2 analytically  !
 ! A3    A(3,2,9)              119.7373         calculate D2E/DX2 analytically  !
 ! A4    A(2,3,4)              119.8894         calculate D2E/DX2 analytically  !
 ! A5    A(2,3,10)             105.6837         calculate D2E/DX2 analytically  !
 ! A6    A(2,3,11)             105.0643         calculate D2E/DX2 analytically  !
 ! A7    A(4,3,10)             109.0725         calculate D2E/DX2 analytically  !
 ! A8    A(4,3,11)             109.8495         calculate D2E/DX2 analytically  !
 ! A9    A(10,3,11)            106.4652         calculate D2E/DX2 analytically  !
 ! A10   A(3,4,5)              115.0721         calculate D2E/DX2 analytically  !
 ! A11   A(3,4,12)             106.9517         calculate D2E/DX2 analytically  !
 ! A12   A(3,4,13)             109.6183         calculate D2E/DX2 analytically  !
 ! A13   A(5,4,12)             109.6745         calculate D2E/DX2 analytically  !
 ! A14   A(5,4,13)             108.8717         calculate D2E/DX2 analytically  !
 ! A15   A(12,4,13)            106.2889         calculate D2E/DX2 analytically  !
 ! A16   A(4,5,6)              112.4019         calculate D2E/DX2 analytically  !
 ! A17   A(4,5,8)              113.3781         calculate D2E/DX2 analytically  !
 ! A18   A(4,5,14)             109.8981         calculate D2E/DX2 analytically  !
 ! A19   A(6,5,8)               87.6969         calculate D2E/DX2 analytically  !
 ! A20   A(6,5,14)             115.7489         calculate D2E/DX2 analytically  !
 ! A21   A(8,5,14)             116.2777         calculate D2E/DX2 analytically  !
 ! A22   A(5,6,7)               88.4443         calculate D2E/DX2 analytically  !
 ! A23   A(5,6,15)             112.3694         calculate D2E/DX2 analytically  !
 ! A24   A(5,6,16)             118.1108         calculate D2E/DX2 analytically  !
 ! A25   A(7,6,15)             111.3595         calculate D2E/DX2 analytically  !
 ! A26   A(7,6,16)             116.3719         calculate D2E/DX2 analytically  !
 ! A27   A(15,6,16)            108.9699         calculate D2E/DX2 analytically  !
 ! A28   A(6,7,8)               88.2514         calculate D2E/DX2 analytically  !
 ! A29   A(6,7,9)              113.4766         calculate D2E/DX2 analytically  !
 ! A30   A(6,7,17)             117.7664         calculate D2E/DX2 analytically  !
 ! A31   A(8,7,9)              117.7283         calculate D2E/DX2 analytically  !
 ! A32   A(8,7,17)             116.7879         calculate D2E/DX2 analytically  !
 ! A33   A(9,7,17)             103.3028         calculate D2E/DX2 analytically  !
 ! A34   A(5,8,7)               88.1978         calculate D2E/DX2 analytically  !
 ! A35   A(5,8,18)             111.6533         calculate D2E/DX2 analytically  !
 ! A36   A(5,8,19)             119.4841         calculate D2E/DX2 analytically  !
 ! A37   A(7,8,18)             109.5217         calculate D2E/DX2 analytically  !
 ! A38   A(7,8,19)             118.293          calculate D2E/DX2 analytically  !
 ! A39   A(18,8,19)            108.3716         calculate D2E/DX2 analytically  !
 ! A40   A(2,9,7)              124.7918         calculate D2E/DX2 analytically  !
 ! D1    D(1,2,3,4)            131.5142         calculate D2E/DX2 analytically  !
 ! D2    D(1,2,3,10)          -104.9224         calculate D2E/DX2 analytically  !
 ! D3    D(1,2,3,11)             7.4388         calculate D2E/DX2 analytically  !
 ! D4    D(9,2,3,4)            -55.1141         calculate D2E/DX2 analytically  !
 ! D5    D(9,2,3,10)            68.4492         calculate D2E/DX2 analytically  !
 ! D6    D(9,2,3,11)          -179.1896         calculate D2E/DX2 analytically  !
 ! D7    D(1,2,9,7)           -159.6666         calculate D2E/DX2 analytically  !
 ! D8    D(3,2,9,7)             26.7087         calculate D2E/DX2 analytically  !
 ! D9    D(2,3,4,5)             49.1148         calculate D2E/DX2 analytically  !
 ! D10   D(2,3,4,12)           171.2003         calculate D2E/DX2 analytically  !
 ! D11   D(2,3,4,13)           -73.969          calculate D2E/DX2 analytically  !
 ! D12   D(10,3,4,5)           -72.7986         calculate D2E/DX2 analytically  !
 ! D13   D(10,3,4,12)           49.2869         calculate D2E/DX2 analytically  !
 ! D14   D(10,3,4,13)          164.1176         calculate D2E/DX2 analytically  !
 ! D15   D(11,3,4,5)           170.8642         calculate D2E/DX2 analytically  !
 ! D16   D(11,3,4,12)          -67.0502         calculate D2E/DX2 analytically  !
 ! D17   D(11,3,4,13)           47.7805         calculate D2E/DX2 analytically  !
 ! D18   D(3,4,5,6)            -68.4612         calculate D2E/DX2 analytically  !
 ! D19   D(3,4,5,8)             29.0568         calculate D2E/DX2 analytically  !
 ! D20   D(3,4,5,14)           161.0783         calculate D2E/DX2 analytically  !
 ! D21   D(12,4,5,6)           170.933          calculate D2E/DX2 analytically  !
 ! D22   D(12,4,5,8)           -91.549          calculate D2E/DX2 analytically  !
[...]
 26635,0.00136470,-0.12372034,-0.01146974,-0.04320233,0.53340817,0.0027
 3837,-0.00309506,-0.00396023,-0.02378664,0.00053640,-0.01719776,-0.022
 15389,-0.08966767,-0.01525632,-0.01006531,0.52523955,0.00018914,-0.001
 94908,-0.00000327,-0.00652821,-0.00844751,-0.01478478,-0.04882992,-0.0
 1026417,-0.11094920,-0.06841640,0.02490323,0.48245175,0.00001948,-0.00
 015094,0.00019734,0.00147147,0.00054814,-0.00014063,-0.00474261,0.0166
 1807,-0.01522253,-0.08302434,0.01769847,-0.01977176,0.41887904,0.00034
 117,-0.00161455,0.00044334,-0.00056101,0.00560415,-0.00199517,0.001031
 62,0.00981447,-0.00369689,0.01294893,-0.13041795,0.04504658,0.04971758
 ,0.51393572,0.00000064,0.00024336,0.00067602,0.00013363,-0.00012502,-0
 .00046905,-0.00695968,0.01596878,-0.02083950,-0.02004701,0.04775646,-0
 .12262464,0.09500191,0.06069329,0.53732154,-0.00006529,0.00036533,-0.0
 0002350,0.00046627,-0.00223666,-0.00023603,-0.00023517,0.00044087,0.00
 037787,-0.00707392,0.00858915,0.00334850,-0.07423856,0.03892795,0.0106
 8601,0.53812939,-0.00028660,-0.00057150,0.00114522,0.00195442,0.003677
 44,-0.00056249,-0.00090454,0.00042798,-0.00037957,0.01647865,-0.023308
 88,-0.00673461,0.04690504,-0.11234932,-0.03268575,-0.04847744,0.399382
 14,0.00121446,0.00046717,-0.00220161,-0.00343723,-0.00505214,0.0041790
 0,0.00075056,0.00057004,0.00008111,-0.01269876,0.01440597,0.01217223,0
 .01850977,-0.02804823,-0.10029154,-0.03516214,-0.09174322,0.58420428,0
 .00614859,-0.00373559,0.00590892,-0.01156580,0.01042443,-0.00699200,0.
 00102467,-0.00048636,0.00167933,-0.00060494,0.00020382,0.00149351,-0.0
 0862859,-0.02028176,-0.00553828,-0.13692339,-0.05886192,-0.00211431,0.
 38609877,0.00018028,-0.00307175,0.00210851,0.01151147,-0.00119066,0.02
 991116,0.00005766,-0.00115124,0.00027542,-0.00037612,-0.00176556,-0.00
 058594,-0.02953763,-0.06455962,-0.04260690,-0.04164088,-0.09005888,0.0
 1406083,0.03339856,0.66498382,-0.00025943,-0.00337747,0.01321629,-0.00
 412442,0.02974009,-0.03664218,0.00011719,-0.00223574,0.00291334,0.0032
 2807,-0.00028023,0.00203543,-0.00495920,-0.02777337,-0.00488505,-0.003
 38312,0.01664099,-0.06622788,0.02046057,-0.00997565,0.41647629,-0.0003
 9571,0.00069075,-0.00068162,0.00146463,-0.00249179,0.00101174,0.001900
 39,-0.00054927,-0.00004244,0.00814812,0.00014001,0.00285094,-0.1205301
 0,-0.03888484,0.00303461,-0.06311172,0.00190804,0.04088460,-0.07429612
 ,0.03454913,0.01738896,0.58582774,0.00043629,-0.00096205,0.00145383,-0
 .00084249,0.00361137,-0.00041534,0.00055013,0.00117924,-0.00054824,-0.
 01966261,-0.01457587,0.01186979,-0.05208045,-0.09079124,0.02171668,0.0
 0426447,-0.00244660,-0.01302905,0.04813227,-0.10960060,-0.03750895,-0.
 08269584,0.40291195,-0.00103961,0.00139412,-0.00118345,0.00149313,-0.0
 0496731,0.00167484,-0.00027254,0.00261084,-0.00108908,0.01940810,0.012
 25122,-0.01016436,-0.00439135,0.01858156,-0.06994455,0.03328161,-0.010
 76009,-0.00540966,0.02082277,-0.02997108,-0.10468398,-0.00285867,-0.08
 591315,0.51940922,0.01224018,0.01316929,-0.01686728,-0.05181497,0.0086
 2633,-0.01415658,0.01494038,0.00616526,-0.00302820,-0.00080830,0.00185
 851,0.00001895,-0.00034099,0.00119174,0.00017142,-0.01675025,0.0089532
 1,-0.03719657,-0.07730257,-0.00241874,-0.04674657,0.00888872,-0.007218
 82,0.00661521,0.10660261,0.00974429,0.00076399,0.05838952,0.00265737,-
 0.22867911,0.01316515,0.00399560,-0.02798194,0.02102118,0.00308576,-0.
 00065696,0.00309955,0.00035498,-0.00184279,0.00179561,-0.00300623,0.00
 383333,-0.00686816,0.00104044,-0.08608848,-0.00184488,-0.00783282,0.00
 674841,-0.01089232,-0.02763561,0.33899549,-0.01503079,0.07015272,-0.08
 335463,-0.01474684,0.04494243,-0.09751247,0.00033415,-0.00744893,0.010
 11320,-0.00204875,0.00103186,-0.00071623,0.00135646,0.00225099,0.00017
 397,-0.01410909,0.00104337,-0.01554691,-0.05297036,-0.00411150,-0.1575
 6223,-0.01217854,0.00579261,-0.03381834,0.12082128,-0.11015775,0.40114
 634,0.00019993,0.00082187,-0.00063760,-0.00491399,-0.00073374,0.004524
 50,-0.24221119,-0.00632445,0.10705894,-0.02323829,-0.00240654,0.009165
 70,0.00001899,-0.00093593,0.00109011,0.00006294,-0.00003050,-0.0000634
 9,-0.00036853,0.00030691,0.00049338,-0.00081406,-0.00002763,0.00072542
 ,0.00102399,0.00071652,-0.00065377,0.26660017,-0.00453347,-0.00297052,
 -0.00176318,0.03066457,0.00336487,-0.01599477,-0.00200187,-0.04726540,
 0.00447573,-0.00903312,-0.00132063,0.00309198,0.00041101,-0.00009964,-
 0.00006943,0.00016156,-0.00002075,0.00001300,0.00027581,-0.00009506,-0
 .00095448,0.00081284,-0.00037394,0.00051974,-0.00359305,-0.00175378,0.
 00180355,0.01018763,0.05002948,-0.00298730,-0.00349774,-0.00046308,0.0
 1505101,0.00072841,-0.01144166,0.11100278,0.00575224,-0.09926621,-0.02
 222640,-0.00214783,0.00904470,0.00013243,-0.00007231,0.00105833,0.0001
 1363,-0.00010366,0.00007205,0.00011059,-0.00006901,0.00009659,-0.00014
 706,0.00101397,-0.00121041,-0.00133347,-0.00007428,0.00076496,-0.11610
 799,-0.00209149,0.11387577,-0.00061501,-0.00143227,-0.00061022,-0.0019
 4020,0.00575368,-0.00343102,-0.04716250,0.01164632,-0.01075914,-0.0037
 5017,0.01776975,-0.01819581,-0.00295615,-0.00320403,-0.00298790,0.0002
 0375,-0.00027362,-0.00011633,-0.00024175,-0.00019944,0.00019787,-0.000
 54437,-0.00048887,0.00073961,0.00189077,0.00118371,0.00041769,0.001712
 72,-0.02095001,0.01983395,0.05150383,-0.00021159,0.00437700,-0.0007670
 5,0.00167113,-0.02536022,0.02514860,0.01180430,-0.18085498,0.13242332,
 -0.00116780,0.00732045,-0.00705049,-0.00138429,-0.00032763,-0.00120842
 ,-0.00012744,0.00001616,-0.00003814,-0.00104133,0.00064793,-0.00190975
 ,-0.00013908,0.00012344,-0.00005516,0.00138410,-0.00614862,-0.00338439
 ,-0.00030431,-0.00031234,-0.00014733,-0.01151642,0.19907411,0.00035485
 ,-0.00114090,0.00062682,0.00087581,-0.01272982,0.00954323,-0.01147325,
 0.13958934,-0.18180361,-0.00156984,0.01399274,-0.01378493,-0.00200924,
 -0.00240414,-0.00159944,0.00001705,-0.00013691,-0.00008200,-0.00041742
 ,0.00007689,-0.00110528,-0.00012684,-0.00050286,0.00012997,0.00068035,
 -0.00452047,-0.00045036,-0.00099041,0.01051021,-0.01021277,0.01492752,
 -0.14361790,0.19761613,0.00072249,-0.00170526,-0.00194461,-0.00392479,
 0.00288186,-0.00255346,0.00414779,-0.02289170,-0.01441093,-0.07739724,
 0.07113105,0.04702003,-0.00409009,0.00608943,0.00350278,0.00011829,0.0
 0111773,-0.00175755,-0.00048075,0.00035155,-0.00079898,0.00035758,0.00
 009801,-0.00018065,0.00072125,-0.00128575,0.00090840,0.00161017,-0.000
 40314,0.00048440,0.00057980,0.00058173,0.00051513,0.08623183,0.0002546
 7,-0.00062714,-0.00089950,-0.00142059,0.00180870,-0.00049423,0.0015174
 2,-0.00822490,-0.00554102,0.07044809,-0.21077743,-0.10018670,0.0095492
 7,-0.01979095,-0.01143732,0.00093303,-0.00124294,0.00464250,0.00048593
 ,0.00068569,-0.00035946,0.00016813,0.00058161,0.00001258,-0.00009754,0
 .00011198,0.00015167,0.00009890,0.00041351,0.00038354,-0.00026173,0.00
 032519,-0.00021694,-0.07816748,0.22913576,0.00077886,-0.00151102,-0.00
 143169,-0.00411541,0.00406710,-0.00101323,0.00443594,-0.01975234,-0.01
 242171,0.04693645,-0.10089019,-0.10873731,-0.00952787,0.01956378,0.010
 34359,-0.00061248,0.00282067,-0.00291758,-0.00068015,-0.00017892,-0.00
 062041,-0.00029221,-0.00074905,0.00053835,0.00081082,-0.00135513,0.000
 91364,0.00011791,0.00045673,0.00161663,0.00050297,0.00038955,0.0000393
 2,-0.04401881,0.10943568,0.12013873,0.00016129,-0.00045855,-0.00088886
 ,-0.00029155,0.00183952,0.00128948,-0.02005862,-0.00614086,0.00846607,
 -0.22142319,-0.05855614,0.10289973,0.00633773,0.00299561,-0.00328545,0
 .00139058,-0.00008788,-0.00064385,0.00009957,0.00040175,-0.00062623,0.
 00037341,0.00209047,-0.00071228,0.00003798,-0.00076778,0.00027244,-0.0
 0222035,-0.00163291,-0.00371609,0.00074249,0.00038273,0.00001901,-0.00
 937131,-0.00276312,0.00569355,0.24330212,0.00028577,0.00017307,-0.0003
 2101,-0.00072691,-0.00013792,0.00126643,-0.00734382,-0.00280045,0.0040
 6381,-0.05819241,-0.06692417,0.03152922,-0.01936445,-0.01134106,0.0127
 0750,-0.00174670,0.00194309,0.00072360,-0.00059504,0.00057964,0.000379
 19,0.00223208,-0.00243670,0.00453291,0.00015576,-0.00003768,-0.0004228
 6,-0.00109196,0.00040083,-0.00074553,0.00070958,0.00060488,-0.00006876
 ,0.02159714,0.00746252,-0.01276567,0.06390186,0.07322953,0.00026937,0.
 00006620,-0.00022024,-0.00041096,0.00148041,0.00141516,-0.02099924,-0.
 00647510,0.00943242,0.10413691,0.03340887,-0.10762362,0.01843607,0.008
 60429,-0.01054144,0.00002086,-0.00144817,0.00130015,-0.00009937,-0.000
 25335,-0.00080074,-0.00254191,0.00120325,-0.00276281,0.00018097,-0.000
 70676,0.00062330,-0.00400937,-0.00179263,-0.00256618,0.00062857,0.0001
 2680,0.00128442,0.01348050,0.00453433,-0.00834574,-0.10884514,-0.03958
 821,0.11794854,0.00003832,-0.00016259,-0.00024835,-0.00020033,0.000465
 95,0.00037415,0.00081938,0.00152609,-0.00150809,-0.00360565,-0.0024005
 0,-0.00637982,-0.10522559,-0.04795937,-0.09254920,0.00894278,0.0047317
 4,0.01460533,-0.00243571,-0.00095117,0.00162113,-0.00749012,-0.0050725
 9,-0.01855245,0.00081521,-0.00011329,-0.00017913,0.00021542,-0.0001379
 3,0.00028752,-0.00043580,-0.00013398,-0.00040686,0.00016692,-0.0001465
 1,0.00004537,0.00006955,0.00036727,-0.00030565,0.10603417,-0.00023371,
 0.00077992,-0.00019497,0.00041262,-0.00254182,0.00064812,-0.00012532,-
 0.00310939,0.00341863,0.01334792,0.00847680,0.02020637,-0.04815225,-0.
 08713263,-0.08445707,-0.00946305,-0.00719859,-0.01429476,-0.00066238,-
 0.00658034,-0.00028122,-0.00503351,-0.00617116,-0.01162551,-0.00044947
 ,0.00136804,-0.00104610,0.00002706,0.00000298,-0.00020262,0.00114938,0
 .00034648,0.00089354,0.00007629,0.00153012,-0.00032305,-0.00060909,0.0
 0034198,-0.00043857,0.05058233,0.10080531,0.00001228,-0.00030144,-0.00
 014414,0.00030263,0.00082291,0.00045780,0.00086570,0.00392739,-0.00150
 069,-0.01103233,-0.00854452,-0.01635779,-0.09296021,-0.08453224,-0.216
 64747,-0.00552810,-0.00140463,-0.00773846,0.00155703,-0.00096448,0.000
 20663,0.00444126,0.00348021,0.00853637,-0.00014734,-0.00002154,0.00053
 908,-0.00012766,0.00002947,0.00001886,-0.00112288,-0.00032863,-0.00065
 845,-0.00009916,0.00016948,0.00146740,0.00053724,-0.00004778,-0.000044
 67,0.10376640,0.08861421,0.22989849,0.00021962,0.00038913,-0.00101426,
 -0.00051872,-0.00234192,0.00158600,0.00015425,0.00013934,-0.00002203,-
 0.00089469,-0.00026640,0.00147757,-0.00502984,0.00372260,-0.00631956,-
 0.14049814,0.07605369,-0.10100065,-0.01081545,0.01388807,-0.01593570,0
 .00022160,-0.00088049,0.00123699,-0.00510715,0.00028639,-0.00181002,-0
 .00000563,-0.00002176,0.00000879,-0.00005624,0.00005201,-0.00000201,0.
 00005393,0.00019462,-0.00036862,0.00016696,0.00006728,-0.00005735,0.00
 106927,0.00005995,0.00009989,0.14916819,0.00011162,0.00068463,-0.00068
 431,-0.00048063,-0.00279406,0.00109510,-0.00036230,-0.00001296,-0.0002
 9651,0.00311473,-0.00309645,-0.00410195,0.01454829,-0.01335278,0.01959
 415,0.07626452,-0.10499671,0.08602714,-0.00843286,0.01026352,-0.013105
 85,-0.00062290,-0.00038514,0.00080181,-0.00565006,0.00055198,-0.003477
 63,0.00003979,0.00002065,-0.00002820,0.00005483,0.00013332,0.00011857,
 0.00069524,-0.00134678,0.00109977,-0.00004729,0.00027798,-0.00021186,-
 0.00149904,0.00140782,0.00050927,-0.08305061,0.11352982,-0.00007985,0.
 00024472,-0.00029673,0.00065612,-0.00153767,0.00112674,0.00000176,-0.0
 0035314,0.00004898,0.00200286,-0.00097250,-0.00129501,0.00940256,-0.00
 753179,0.01016583,-0.10169254,0.08525108,-0.16000770,-0.00102341,0.003
 68053,-0.00523508,-0.00015980,-0.00000263,-0.00076502,-0.00273294,-0.0
 0043665,-0.00078748,-0.00002794,0.00003385,-0.00000635,0.00004077,0.00
 011082,0.00010946,0.00003682,-0.00057156,0.00048996,-0.00023691,-0.000
 15337,0.00004487,-0.00073041,0.00041482,0.00134795,0.11071200,-0.09039
 150,0.17002885,-0.00004461,0.00011063,-0.00063030,-0.00100894,0.000322
 36,-0.00006098,-0.00033199,0.00018675,0.00005435,0.00077289,-0.0006303
 1,0.00060912,-0.00622821,-0.00239338,0.00606498,-0.10976989,-0.0245967
 2,0.10985989,-0.01026459,-0.00325841,0.02139881,-0.00622993,0.00184567
 ,-0.00018470,0.00459283,0.00115207,0.00063197,0.00018182,-0.00008930,-
 0.00000422,0.00006638,-0.00004748,-0.00005782,0.00023720,-0.00009871,-
 0.00018815,0.00021326,0.00064233,-0.00049712,-0.00033449,-0.00012148,0
 .00010198,0.01079836,0.00372244,-0.01672692,0.11953407,-0.00012457,0.0
 0003086,-0.00021301,0.00016129,0.00050765,-0.00045755,-0.00007436,-0.0
 0004500,0.00028572,-0.00010061,0.00289929,-0.00067138,0.00815922,0.007
 46203,-0.02001921,-0.02474108,-0.05938668,0.03882304,-0.00202319,-0.00
 425220,0.01640956,0.00075676,-0.00128056,-0.00094658,0.00302743,0.0014
 0802,0.00054919,-0.00008573,0.00000710,-0.00008882,0.00008207,-0.00001
 176,0.00004920,-0.00039030,0.00030252,-0.00010934,-0.00082235,-0.00027
 397,0.00062596,0.00155362,-0.00136171,-0.00122909,-0.00795799,-0.00235
 465,0.01237296,0.02353296,0.05529391,-0.00020496,-0.00008813,0.0001353
 0,0.00061032,0.00053439,-0.00011058,-0.00004554,-0.00019566,0.00041314
 ,-0.00098033,0.00154349,0.00048185,0.00258959,0.00482203,-0.00731451,0
 .11115691,0.04045979,-0.23937145,-0.00466177,-0.00271561,0.00397617,0.
 00186638,-0.00138389,0.00007621,0.00099885,-0.00037092,0.00246591,-0.0
 0011261,0.00007784,-0.00003751,0.00007611,0.00000672,0.00008775,-0.000
 33244,0.00006497,0.00004181,-0.00010385,-0.00086758,0.00064694,0.00099
 807,-0.00056988,-0.00055808,0.01073998,0.00344805,-0.01584749,-0.12222
 523,-0.04519592,0.25494452,-0.00015131,0.00082168,-0.00138909,0.000174
 29,-0.00177643,-0.00071025,-0.00008671,0.00002714,0.00007234,0.0001517
 4,-0.00010109,-0.00020042,-0.00283931,-0.00109925,0.00018569,0.0031333
 7,-0.02373172,0.00555872,-0.05392036,-0.01309895,0.00882807,0.00124138
 ,0.01248180,-0.00473823,-0.00077091,0.01786710,-0.01184392,0.00003838,
 0.00004382,0.00009791,0.00004398,0.00005117,-0.00000407,0.00027607,-0.
 00013485,0.00018562,0.00004020,0.00016150,-0.00017165,0.00123750,-0.00
 065227,-0.00076203,0.00174417,0.00132938,0.00029142,-0.00133770,-0.001
 82603,-0.00029811,0.05039440,0.00004917,-0.00024513,0.00054261,-0.0002
 7394,0.00283730,-0.00136956,-0.00007737,0.00016049,-0.00009697,-0.0000
 5840,0.00041872,-0.00026708,-0.00190064,-0.00238329,-0.00339746,0.0013
 6953,-0.00595653,-0.00021636,-0.00861461,-0.31372037,0.04537627,-0.002
 03418,-0.01000364,0.00291636,0.00254817,-0.00227832,0.00675296,-0.0000
 2779,0.00001597,-0.00004130,0.00002253,0.00000795,0.00005731,0.0000596
 4,0.00001760,-0.00002789,-0.00003885,0.00001211,0.00004733,-0.00021507
 ,-0.00113468,0.00020481,-0.00040216,0.00076902,-0.00020750,-0.00013853
 ,-0.00029249,-0.00022714,0.00978285,0.33139795,-0.00040862,0.00164272,
 -0.00300591,-0.00093110,-0.00425114,0.00016151,0.00017015,0.00053219,-
 0.00015488,-0.00045926,0.00022948,-0.00030144,0.00005036,-0.00243748,-
 0.00180052,-0.00119353,-0.00070365,0.00027971,0.00734414,0.03514470,-0
 .04760033,-0.00022181,-0.01845346,0.00493219,-0.00863939,0.03932441,-0
 .02607320,-0.00008011,0.00010425,-0.00002360,-0.00001556,0.00019064,0.
 00011575,0.00015681,0.00006323,0.00007090,-0.00000792,-0.00005409,0.00
 016199,-0.00084311,-0.00075971,0.00017078,-0.00043343,-0.00025502,0.00
 075228,0.00008589,-0.00018097,-0.00009966,0.00516338,-0.04930160,0.071
 97096,-0.00001633,-0.00012672,-0.00004744,-0.00011346,0.00028939,0.000
 57228,-0.00071067,0.00049372,-0.00049869,-0.00420252,-0.00075067,0.000
 83581,0.00311852,-0.01005452,0.01990492,-0.00062512,0.00033954,-0.0012
 0045,-0.00017834,-0.00263728,0.00498462,-0.05135368,0.01626316,-0.0278
 9127,-0.00027371,-0.00030698,0.00017854,0.00062983,-0.00010607,-0.0001
 0126,0.00034916,0.00003388,-0.00012585,0.00002872,-0.00005549,0.000003
 65,0.00032459,-0.00114184,0.00079311,0.00168722,0.00016435,-0.00055880
 ,-0.00069271,0.00010836,0.00054282,0.00014937,0.00010663,-0.00032838,0
 .00095876,0.00002122,0.00014228,0.05337029,-0.00033474,0.00093500,-0.0
 0072706,0.00063128,-0.00314175,0.00082439,-0.00035261,-0.00000916,-0.0
 0042171,-0.00482841,-0.00115445,0.00119712,0.00446362,-0.01163724,0.02
 101303,0.00107251,-0.00070327,0.00019831,-0.00462026,0.01092756,-0.018
 86250,0.01665638,-0.09567392,0.10670315,0.00166028,-0.00067843,-0.0063
 8826,-0.00018344,0.00013268,-0.00005925,-0.00009204,0.00005028,0.00008
 249,0.00010730,-0.00008519,0.00002383,0.00028933,-0.00132497,0.0010178
 0,0.00123827,0.00101815,-0.00088604,0.00027887,0.00069986,-0.00002521,
 -0.00028368,-0.00006303,0.00003094,-0.00116773,0.00104671,0.00072693,-
 0.01549117,0.10396418,-0.00031787,0.00050200,-0.00086111,0.00051941,-0
 .00204316,0.00140473,0.00009801,-0.00027850,0.00034915,0.00027158,-0.0
 0081959,0.00071229,-0.00075643,0.00005127,-0.00048012,0.00002862,-0.00
 062625,0.00075291,-0.00517513,0.01196967,-0.01837878,-0.02764985,0.106
 30500,-0.25689271,0.00247129,-0.00148751,-0.00401012,0.00001703,-0.000
 02072,0.00008033,-0.00002627,0.00001875,0.00001547,0.00006412,0.000122
 14,-0.00002079,0.00001718,0.00005494,0.00005377,0.00040837,0.00018653,
 0.00088382,0.00076042,0.00006614,0.00009141,0.00016664,-0.00020218,0.0
 0006274,-0.00090076,-0.00025543,0.00128033,0.02994771,-0.11428045,0.27
 633433,0.00002261,-0.00041128,0.00013271,-0.00032971,0.00146849,0.0003
 1103,-0.00038041,0.00067398,-0.00058132,0.00048867,0.00098836,-0.00158
 667,-0.01197085,0.00840745,-0.00208963,-0.00315592,-0.00119111,0.00400
 799,-0.00534472,-0.00052675,-0.00188501,-0.28365775,0.08280753,-0.0235
 0109,0.00141492,-0.00113579,0.00065027,0.00147770,-0.00005465,-0.00049
 921,0.00060931,0.00011265,-0.00020611,0.00001216,-0.00050402,0.0002925
 8,0.00010527,0.00008255,-0.00000859,-0.00136806,-0.00031735,0.00065410
 ,0.00002221,0.00015650,-0.00027640,-0.00099584,0.00076623,0.00025701,-
 0.00032795,-0.00007156,0.00012083,-0.00244993,0.00095623,0.00005594,0.
 30582830,-0.00003396,0.00001344,-0.00035926,-0.00007882,-0.00000239,-0
 .00022367,0.00028559,-0.00043707,0.00104638,0.00108831,0.00186990,-0.0
 0068495,-0.01640304,0.01082432,-0.00548228,-0.00094943,-0.00103948,-0.
 00064154,0.01539405,-0.00595342,0.00992345,0.08237011,-0.08045461,0.00
 480690,-0.00167679,0.00236487,0.00196607,-0.00004665,-0.00017600,0.001
 49124,0.00004660,-0.00001163,-0.00003159,0.00005666,-0.00027989,-0.000
 19451,0.00002355,0.00025129,-0.00020057,-0.00167321,-0.00084729,0.0005
 0263,-0.00021061,0.00000093,0.00007474,0.00014278,0.00141067,0.0006265
 1,0.00102186,-0.00066939,-0.00156144,0.01285047,-0.00430300,0.00073736
 ,-0.09220747,0.07743875,0.00005370,0.00027796,0.00020547,0.00011718,-0
 .00073308,-0.00066694,0.00062580,0.00081353,-0.00083157,-0.00005707,0.
 00054586,0.00044434,0.00406272,-0.00156551,-0.00230145,0.00290945,-0.0
 0007210,-0.00324663,0.02029535,-0.00579528,0.00482120,-0.02457774,0.00
 567127,-0.04737276,-0.00192078,0.00194095,0.00309158,-0.00038205,0.001
 57034,-0.00140042,-0.00009992,0.00009206,0.00012852,-0.00007240,0.0001
 2661,-0.00015185,-0.00012812,-0.00022274,-0.00000613,-0.00040329,-0.00
 018876,0.00012257,0.00034199,-0.00020717,0.00003453,0.00160180,0.00019
 841,0.00000695,0.00063539,-0.00048938,-0.00083685,-0.02715359,0.009832
 51,-0.00137766,0.02415157,-0.01179548,0.04933709\\-0.00000212,0.000016
 88,-0.00002038,-0.00000060,0.00000584,0.00002414,0.00001915,0.00000352
 ,0.00000448,-0.00000428,-0.00000321,-0.00000006,0.00000789,-0.00000597
 ,0.00000695,-0.00000956,0.00000288,-0.00000856,-0.00000875,-0.00000477
 ,-0.00002363,0.00000005,-0.00000542,0.00000977,-0.00000531,0.00001142,
 -0.00000145,0.00000230,0.00000939,-0.00000074,0.00000358,0.00000819,0.
 00000783,0.00001190,-0.00000500,0.00000840,0.00000770,-0.00000107,0.00
 000782,0.00000279,-0.00001136,0.00000179,-0.00000807,-0.00001163,-0.00
 000081,0.00000144,-0.00000606,-0.00000112,-0.00000680,0.00000035,-0.00
 000520,-0.00000896,-0.00000697,-0.00000572,-0.00000230,0.00000298,-0.0
 0000350\\\@


 BULLDOZER: SOMEONE WHO SLEEPS THROUGH SPEECHES.
 Job cpu time:       0 days  0 hours 46 minutes 36.2 seconds.
 File lengths (MBytes):  RWF=    152 Int=      0 D2E=      0 Chk=      8 Scr=      1
 Normal termination of Gaussian 09 at Mon Jan 27 13:54:22 2020.
