 Entering Gaussian System, Link 0=/home/puck/opt/gaussian_09/g09
 Input=dsC7O2H10nsd_1513.com
 Output=dsC7O2H10nsd_1513.log
 Initial command:
 /home/puck/opt/gaussian_09/l1.exe "/scratch/puck/g09_29d2dd1c-c92d-45f3-bfcf-2372bb7a3183/Gau-109488.inp" -scrdir="/scratch/puck/g09_29d2dd1c-c92d-45f3-bfcf-2372bb7a3183/"
 Entering Link 1 = /home/puck/opt/gaussian_09/l1.exe PID=    109489.
  
 Copyright (c) 1988,1990,1992,1993,1995,1998,2003,2009,2013,
            Gaussian, Inc.  All Rights Reserved.
  
 This is part of the Gaussian(R) 09 program.  It is based on
 the Gaussian(R) 03 system (copyright 2003, Gaussian, Inc.),
 the Gaussian(R) 98 system (copyright 1998, Gaussian, Inc.),
 the Gaussian(R) 94 system (copyright 1995, Gaussian, Inc.),
 the Gaussian 92(TM) system (copyright 1992, Gaussian, Inc.),
 the Gaussian 90(TM) system (copyright 1990, Gaussian, Inc.),
 the Gaussian 88(TM) system (copyright 1988, Gaussian, Inc.),
 the Gaussian 86(TM) system (copyright 1986, Carnegie Mellon
 University), and the Gaussian 82(TM) system (copyright 1983,
 Carnegie Mellon University). Gaussian is a federally registered
 trademark of Gaussian, Inc.
  
 This software contains proprietary and confidential information,
 including trade secrets, belonging to Gaussian, Inc.
  
 This software is provided under written license and may be
 used, copied, transmitted, or stored only in accord with that
 written license.
  
 The following legend is applicable only to US Government
 contracts under FAR:
  
                    RESTRICTED RIGHTS LEGEND
  
 Use, reproduction and disclosure by the US Government is
 subject to restrictions as set forth in subparagraphs (a)
 and (c) of the Commercial Computer Software - Restricted
 Rights clause in FAR 52.227-19.
  
 Gaussian, Inc.
 340 Quinnipiac St., Bldg. 40, Wallingford CT 06492
  
  
 ---------------------------------------------------------------
 Warning -- This program may not be used in any manner that
 competes with the business of Gaussian, Inc. or will provide
 assistance to any competitor of Gaussian, Inc.  The licensee
 of this program is prohibited from giving any competitor of
 Gaussian, Inc. access to this program.  By using this program,
 the user acknowledges that Gaussian, Inc. is engaged in the
 business of creating and licensing software in the field of
 computational chemistry and represents and warrants to the
 licensee that it is not a competitor of Gaussian, Inc. and that
 it will not use this program in any manner prohibited above.
 ---------------------------------------------------------------
  

 Cite this work as:
 Gaussian 09, Revision D.01,
 M. J. Frisch, G. W. Trucks, H. B. Schlegel, G. E. Scuseria, 
 M. A. Robb, J. R. Cheeseman, G. Scalmani, V. Barone, B. Mennucci, 
 G. A. Petersson, H. Nakatsuji, M. Caricato, X. Li, H. P. Hratchian, 
 A. F. Izmaylov, J. Bloino, G. Zheng, J. L. Sonnenberg, M. Hada, 
 M. Ehara, K. Toyota, R. Fukuda, J. Hasegawa, M. Ishida, T. Nakajima, 
 Y. Honda, O. Kitao, H. Nakai, T. Vreven, J. A. Montgomery, Jr., 
 J. E. Peralta, F. Ogliaro, M. Bearpark, J. J. Heyd, E. Brothers, 
 K. N. Kudin, V. N. Staroverov, T. Keith, R. Kobayashi, J. Normand, 
 K. Raghavachari, A. Rendell, J. C. Burant, S. S. Iyengar, J. Tomasi, 
 M. Cossi, N. Rega, J. M. Millam, M. Klene, J. E. Knox, J. B. Cross, 
 V. Bakken, C. Adamo, J. Jaramillo, R. Gomperts, R. E. Stratmann, 
 O. Yazyev, A. J. Austin, R. Cammi, C. Pomelli, J. W. Ochterski, 
 R. L. Martin, K. Morokuma, V. G. Zakrzewski, G. A. Voth, 
 P. Salvador, J. J. Dannenberg, S. Dapprich, A. D. Daniels, 
 O. Farkas, J. B. Foresman, J. V. Ortiz, J. Cioslowski, 
 and D. J. Fox, Gaussian, Inc., Wallingford CT, 2013.
 
 ******************************************
 Gaussian 09:  ES64L-G09RevD.01 24-Apr-2013
                27-Jan-2020 
 ******************************************
 -----------------------------
 # b3lyp 6-31G(2df,p) opt Freq
 -----------------------------
 1/14=-1,18=20,19=15,26=3,38=1/1,3;
 2/9=110,12=2,17=6,18=5,40=1/2;
 3/5=1,6=6,7=104,11=2,16=1,25=1,30=1,71=1,74=-5/1,2,3;
 4//1;
 5/5=2,38=5/2;
 6/7=2,8=2,9=2,10=2,28=1/1;
 7//1,2,3,16;
 1/14=-1,18=20,19=15,26=3/3(2);
 2/9=110/2;
 99//99;
 2/9=110/2;
 3/5=1,6=6,7=104,11=2,16=1,25=1,30=1,71=1,74=-5/1,2,3;
 4/5=5,16=3,69=1/1;
 5/5=2,38=5/2;
 7//1,2,3,16;
 1/14=-1,18=20,19=15,26=3/3(-5);
 2/9=110/2;
 6/7=2,8=2,9=2,10=2,19=2,28=1/1;
 99/9=1/99;
 -----
 titel
 -----
 Symbolic Z-matrix:
 Charge =  0 Multiplicity = 1
 C                    -0.05293  -0.44151  -0.09195 
 C                     1.41164  -0.12117   0.09676 
 C                     2.02785  -0.56563   1.40287 
 O                     2.24629  -0.39198  -1.08739 
 C                     2.03663   0.93102  -0.68595 
 C                     1.58257   2.15024  -1.51158 
 C                     3.04968   2.3293   -1.98012 
 C                     3.05625   2.06253  -0.45277 
 O                     1.895     2.97613  -0.31941 
 H                    -0.65574   0.06381   0.66998 
 H                    -0.39947  -0.124    -1.07768 
 H                    -0.22397  -1.51926   0.00315 
 H                     1.90928  -1.64675   1.53315 
 H                     3.09384  -0.33048   1.43323 
 H                     1.53617  -0.06878   2.24588 
 H                     0.65067   2.35188  -2.03846 
 H                     3.47545   1.56649  -2.63593 
 H                     3.31348   3.34914  -2.2628 
 H                     3.86471   2.16058   0.27074 
 

 GradGradGradGradGradGradGradGradGradGradGradGradGradGradGradGradGradGrad
 Berny optimization.
 Initialization pass.
                           ----------------------------
                           !    Initial Parameters    !
                           ! (Angstroms and Degrees)  !
 --------------------------                            --------------------------
 ! Name  Definition              Value          Derivative Info.                !
 --------------------------------------------------------------------------------
 ! R1    R(1,2)                  1.511          estimate D2E/DX2                !
 ! R2    R(1,10)                 1.0951         estimate D2E/DX2                !
 ! R3    R(1,11)                 1.092          estimate D2E/DX2                !
 ! R4    R(1,12)                 1.0954         estimate D2E/DX2                !
 ! R5    R(2,3)                  1.511          estimate D2E/DX2                !
 ! R6    R(2,4)                  1.4738         estimate D2E/DX2                !
 ! R7    R(2,5)                  1.4527         estimate D2E/DX2                !
 ! R8    R(3,13)                 1.0954         estimate D2E/DX2                !
 ! R9    R(3,14)                 1.092          estimate D2E/DX2                !
 ! R10   R(3,15)                 1.0951         estimate D2E/DX2                !
 ! R11   R(4,5)                  1.3984         estimate D2E/DX2                !
 ! R12   R(5,6)                  1.5409         estimate D2E/DX2                !
 ! R13   R(5,8)                  1.5409         estimate D2E/DX2                !
 ! R14   R(6,7)                  1.5505         estimate D2E/DX2                !
 ! R15   R(6,8)                  1.8167         estimate D2E/DX2                !
 ! R16   R(6,9)                  1.4836         estimate D2E/DX2                !
 ! R17   R(6,16)                 1.0894         estimate D2E/DX2                !
 ! R18   R(7,8)                  1.5505         estimate D2E/DX2                !
 ! R19   R(7,17)                 1.0924         estimate D2E/DX2                !
 ! R20   R(7,18)                 1.0907         estimate D2E/DX2                !
 ! R21   R(8,9)                  1.4836         estimate D2E/DX2                !
 ! R22   R(8,19)                 1.0894         estimate D2E/DX2                !
 ! A1    A(2,1,10)             110.4148         estimate D2E/DX2                !
 ! A2    A(2,1,11)             111.0186         estimate D2E/DX2                !
 ! A3    A(2,1,12)             110.4319         estimate D2E/DX2                !
 ! A4    A(10,1,11)            108.6137         estimate D2E/DX2                !
 ! A5    A(10,1,12)            107.9174         estimate D2E/DX2                !
 ! A6    A(11,1,12)            108.354          estimate D2E/DX2                !
 ! A7    A(1,2,3)              116.1595         estimate D2E/DX2                !
 ! A8    A(1,2,4)              114.1796         estimate D2E/DX2                !
 ! A9    A(1,2,5)              120.2155         estimate D2E/DX2                !
 ! A10   A(3,2,4)              114.1732         estimate D2E/DX2                !
 ! A11   A(3,2,5)              120.2206         estimate D2E/DX2                !
 ! A12   A(2,3,13)             110.4248         estimate D2E/DX2                !
 ! A13   A(2,3,14)             111.0249         estimate D2E/DX2                !
 ! A14   A(2,3,15)             110.4167         estimate D2E/DX2                !
 ! A15   A(13,3,14)            108.3542         estimate D2E/DX2                !
 ! A16   A(13,3,15)            107.9169         estimate D2E/DX2                !
 ! A17   A(14,3,15)            108.6128         estimate D2E/DX2                !
 ! A18   A(2,5,6)              137.3086         estimate D2E/DX2                !
 ! A19   A(2,5,8)              137.3086         estimate D2E/DX2                !
 ! A20   A(4,5,6)              129.7146         estimate D2E/DX2                !
 ! A21   A(4,5,8)              129.7155         estimate D2E/DX2                !
 ! A22   A(5,6,7)               88.5367         estimate D2E/DX2                !
 ! A23   A(5,6,9)               87.0107         estimate D2E/DX2                !
 ! A24   A(5,6,16)             131.1241         estimate D2E/DX2                !
 ! A25   A(7,6,9)               88.8127         estimate D2E/DX2                !
 ! A26   A(7,6,16)             129.9351         estimate D2E/DX2                !
 ! A27   A(9,6,16)             117.7608         estimate D2E/DX2                !
 ! A28   A(6,7,17)             118.0082         estimate D2E/DX2                !
 ! A29   A(6,7,18)             114.5298         estimate D2E/DX2                !
 ! A30   A(8,7,17)             118.0083         estimate D2E/DX2                !
 ! A31   A(8,7,18)             114.5296         estimate D2E/DX2                !
 ! A32   A(17,7,18)            113.7714         estimate D2E/DX2                !
 ! A33   A(5,8,7)               88.5367         estimate D2E/DX2                !
 ! A34   A(5,8,9)               87.011          estimate D2E/DX2                !
 ! A35   A(5,8,19)             131.1242         estimate D2E/DX2                !
 ! A36   A(7,8,9)               88.8128         estimate D2E/DX2                !
 ! A37   A(7,8,19)             129.9347         estimate D2E/DX2                !
 ! A38   A(9,8,19)             117.7609         estimate D2E/DX2                !
 ! A39   L(8,6,16,1,-1)        182.409          estimate D2E/DX2                !
 ! A40   L(6,8,19,2,-1)        183.1557         estimate D2E/DX2                !
 ! A41   L(8,6,16,1,-2)        170.2331         estimate D2E/DX2                !
 ! A42   L(6,8,19,2,-2)        190.1626         estimate D2E/DX2                !
 ! D1    D(10,1,2,3)            61.9954         estimate D2E/DX2                !
 ! D2    D(10,1,2,4)          -161.8972         estimate D2E/DX2                !
 ! D3    D(10,1,2,5)           -97.2308         estimate D2E/DX2                !
 ! D4    D(11,1,2,3)          -177.4831         estimate D2E/DX2                !
 ! D5    D(11,1,2,4)           -41.3757         estimate D2E/DX2                !
 ! D6    D(11,1,2,5)            23.2907         estimate D2E/DX2                !
 ! D7    D(12,1,2,3)           -57.2764         estimate D2E/DX2                !
 ! D8    D(12,1,2,4)            78.831          estimate D2E/DX2                !
 ! D9    D(12,1,2,5)           143.4973         estimate D2E/DX2                !
 ! D10   D(1,2,3,13)            57.4018         estimate D2E/DX2                !
 ! D11   D(1,2,3,14)           177.608          estimate D2E/DX2                !
 ! D12   D(1,2,3,15)           -61.8662         estimate D2E/DX2                !
 ! D13   D(4,2,3,13)           -78.7083         estimate D2E/DX2                !
 ! D14   D(4,2,3,14)            41.4979         estimate D2E/DX2                !
 ! D15   D(4,2,3,15)           162.0237         estimate D2E/DX2                !
 ! D16   D(5,2,3,13)          -143.3731         estimate D2E/DX2                !
 ! D17   D(5,2,3,14)           -23.1669         estimate D2E/DX2                !
 ! D18   D(5,2,3,15)            97.3589         estimate D2E/DX2                !
 ! D19   D(1,2,5,6)             18.7932         estimate D2E/DX2                !
 ! D20   D(1,2,5,8)            139.5762         estimate D2E/DX2                !
 ! D21   D(3,2,5,6)           -139.5886         estimate D2E/DX2                !
 ! D22   D(3,2,5,8)            -18.8056         estimate D2E/DX2                !
 ! D23   D(2,5,6,7)           -172.6908         estimate D2E/DX2                !
 ! D24   D(2,5,6,9)             98.422          estimate D2E/DX2                !
 ! D25   D(2,5,6,16)           -26.5783         estimate D2E/DX2                !
 ! D26   D(4,5,6,7)            -82.299          estimate D2E/DX2                !
 ! D27   D(4,5,6,9)           -171.1861         estimate D2E/DX2                !
 ! D28   D(4,5,6,16)            63.8135         estimate D2E/DX2                !
 ! D29   D(2,5,8,7)            172.6909         estimate D2E/DX2                !
 ! D30   D(2,5,8,9)            -98.4219         estimate D2E/DX2                !
 ! D31   D(2,5,8,19)            26.579          estimate D2E/DX2                !
 ! D32   D(4,5,8,7)             82.298          estimate D2E/DX2                !
 ! D33   D(4,5,8,9)            171.1853         estimate D2E/DX2                !
 ! D34   D(4,5,8,19)           -63.8138         estimate D2E/DX2                !
 ! D35   D(5,6,7,17)            67.7826         estimate D2E/DX2                !
 ! D36   D(5,6,7,18)          -154.0937         estimate D2E/DX2                !
 ! D37   D(9,6,7,17)           154.8221         estimate D2E/DX2                !
 ! D38   D(9,6,7,18)           -67.0542         estimate D2E/DX2                !
 ! D39   D(16,6,7,17)          -79.0041         estimate D2E/DX2                !
 ! D40   D(16,6,7,18)           59.1197         estimate D2E/DX2                !
 ! D41   D(17,7,8,5)           -67.7823         estimate D2E/DX2                !
 ! D42   D(17,7,8,9)          -154.8221         estimate D2E/DX2                !
 ! D43   D(17,7,8,19)           79.004          estimate D2E/DX2                !
 ! D44   D(18,7,8,5)           154.094          estimate D2E/DX2                !
 ! D45   D(18,7,8,9)            67.0542         estimate D2E/DX2                !
 ! D46   D(18,7,8,19)          -59.1197         estimate D2E/DX2                !
 --------------------------------------------------------------------------------
 Trust Radius=3.00D-01 FncErr=1.00D-07 GrdErr=1.00D-06
 Number of steps in this run=    114 maximum allowed number of steps=    114.
 GradGradGradGradGradGradGradGradGradGradGradGradGradGradGradGradGradGrad

                          Input orientation:                          
 ---------------------------------------------------------------------
 Center     Atomic      Atomic             Coordinates (Angstroms)
 Number     Number       Type             X           Y           Z
 ---------------------------------------------------------------------
      1          6           0       -0.052929   -0.441510   -0.091954
      2          6           0        1.411640   -0.121173    0.096764
      3          6           0        2.027850   -0.565634    1.402870
      4          8           0        2.246289   -0.391985   -1.087390
      5          6           0        2.036627    0.931024   -0.685952
      6          6           0        1.582567    2.150244   -1.511575
      7          6           0        3.049680    2.329296   -1.980123
      8          6           0        3.056252    2.062529   -0.452767
      9          8           0        1.895000    2.976129   -0.319405
     10          1           0       -0.655743    0.063809    0.669981
     11          1           0       -0.399468   -0.124002   -1.077680
     12          1           0       -0.223972   -1.519263    0.003149
     13          1           0        1.909279   -1.646755    1.533146
     14          1           0        3.093839   -0.330479    1.433231
     15          1           0        1.536166   -0.068785    2.245878
     16          1           0        0.650673    2.351879   -2.038458
     17          1           0        3.475454    1.566487   -2.635926
     18          1           0        3.313482    3.349136   -2.262802
     19          1           0        3.864714    2.160577    0.270742
 ---------------------------------------------------------------------
                    Distance matrix (angstroms):
                    1          2          3          4          5
     1  C    0.000000
     2  C    1.511024   0.000000
     3  C    2.565063   1.511017   0.000000
     4  O    2.505943   1.473838   2.505846   0.000000
     5  C    2.569617   1.452712   2.569677   1.398379   0.000000
     6  C    3.377479   2.788424   4.008524   2.661464   1.540884
     7  C    4.568231   3.605750   4.568304   2.974522   2.157851
     8  C    4.008417   2.788420   3.377609   2.661471   1.540881
     9  O    3.940358   3.162295   3.940554   3.472376   2.082515
    10  H    1.095115   2.153339   2.852191   3.423140   3.136794
    11  H    1.092042   2.158573   3.498577   2.659311   2.683485
    12  H    1.095378   2.153752   2.817682   2.926127   3.404273
    13  H    2.818480   2.153657   1.095378   2.924932   3.403756
    14  H    3.498667   2.158645   1.092041   2.660011   2.683286
    15  H    2.851247   2.153356   1.095114   3.423362   3.137787
    16  H    3.476630   3.354732   4.717122   3.313504   2.401869
    17  H    4.790964   3.817737   4.790967   2.782880   2.505281
    18  H    5.514916   4.607341   5.515018   4.064047   3.156593
    19  H    4.717026   3.354732   3.476782   3.313518   2.401867
                    6          7          8          9         10
     6  C    0.000000
     7  C    1.550490   0.000000
     8  C    1.816732   1.550491   0.000000
     9  O    1.483567   2.123597   1.483562   0.000000
    10  H    3.757982   5.087794   4.362838   3.995846   0.000000
    11  H    3.047774   4.327782   4.136839   3.930697   1.776307
    12  H    4.361566   5.427852   4.878213   4.980224   1.771217
    13  H    4.877937   5.427021   4.360984   4.980282   3.201628
    14  H    4.136401   4.327510   3.047112   3.929708   3.846737
    15  H    4.364023   5.089264   3.759767   3.997617   2.702869
    16  H    1.089353   2.399823   2.895678   2.212054   3.778575
    17  H    2.277709   1.092354   2.277711   3.138661   5.500350
    18  H    2.235565   1.090675   2.235564   2.434752   5.928688
    19  H    2.895679   2.399821   1.089353   2.212052   4.999036
                   11         12         13         14         15
    11  H    0.000000
    12  H    1.773624   0.000000
    13  H    3.803354   2.628289   0.000000
    14  H    4.307030   3.803448   1.773626   0.000000
    15  H    3.846526   3.198720   1.771211   1.776295   0.000000
    16  H    2.855850   4.463060   5.507224   5.021627   4.999925
    17  H    4.505653   5.492934   5.491719   4.505790   5.501541
    18  H    5.220460   6.430351   6.429613   5.220006   5.930365
    19  H    5.022031   5.507285   4.462417   2.854994   3.780655
                   16         17         18         19
    16  H    0.000000
    17  H    2.992190   0.000000
    18  H    2.852264   1.828467   0.000000
    19  H    3.962205   2.992187   2.852257   0.000000
 Stoichiometry    C7H10O2
 Framework group  C1[X(C7H10O2)]
 Deg. of freedom    51
 Full point group                 C1      NOp   1
 Largest Abelian subgroup         C1      NOp   1
 Largest concise Abelian subgroup C1      NOp   1
                         Standard orientation:                         
 ---------------------------------------------------------------------
 Center     Atomic      Atomic             Coordinates (Angstroms)
 Number     Number       Type             X           Y           Z
 ---------------------------------------------------------------------
      1          6           0        2.027594    1.282638   -0.303737
      2          6           0        1.304049    0.000001    0.034668
      3          6           0        2.027771   -1.282425   -0.304128
      4          8           0        0.665117   -0.000336    1.362812
      5          6           0       -0.137120   -0.000063    0.217438
      6          6           0       -1.325651    0.908387   -0.151934
      7          6           0       -2.237430   -0.000214    0.712429
      8          6           0       -1.325628   -0.908346   -0.152404
      9          8           0       -1.562326    0.000312   -1.301001
     10          1           0        2.196966    1.352241   -1.383433
     11          1           0        1.451155    2.153470    0.015518
     12          1           0        3.003301    1.313804    0.193131
     13          1           0        3.002518   -1.314485    0.194565
     14          1           0        1.450526   -2.153559    0.012840
     15          1           0        2.199202   -1.350627   -1.383588
     16          1           0       -1.378005    1.981169   -0.333833
     17          1           0       -2.084159   -0.000491    1.793976
     18          1           0       -3.287386   -0.000153    0.417191
     19          1           0       -1.377961   -1.981036   -0.334851
 ---------------------------------------------------------------------
 Rotational constants (GHZ):      3.2155213      1.2875315      1.2548139
 Standard basis: 6-31G(2df,p) (6D, 7F)
 There are   329 symmetry adapted cartesian basis functions of A   symmetry.
 There are   302 symmetry adapted basis functions of A   symmetry.
   302 basis functions,   466 primitive gaussians,   329 cartesian basis functions
    34 alpha electrons       34 beta electrons
       nuclear repulsion energy       471.5167734953 Hartrees.
 NAtoms=   19 NActive=   19 NUniq=   19 SFac= 1.00D+00 NAtFMM=   60 NAOKFM=F Big=F
 Integral buffers will be    131072 words long.
 Raffenetti 2 integral format.
 Two-electron integral symmetry is turned on.
 One-electron integrals computed using PRISM.
 NBasis=   302 RedAO= T EigKep=  3.15D-04  NBF=   302
 NBsUse=   302 1.00D-06 EigRej= -1.00D+00 NBFU=   302
 ExpMin= 1.61D-01 ExpMax= 5.48D+03 ExpMxC= 8.25D+02 IAcc=1 IRadAn=         1 AccDes= 0.00D+00
 Harris functional with IExCor=  402 and IRadAn=       1 diagonalized for initial guess.
 HarFok:  IExCor=  402 AccDes= 0.00D+00 IRadAn=         1 IDoV= 1 UseB2=F ITyADJ=14
 ICtDFT=  3500011 ScaDFX=  1.000000  1.000000  1.000000  1.000000
 FoFCou: FMM=F IPFlag=           0 FMFlag=      100000 FMFlg1=           0
         NFxFlg=           0 DoJE=T BraDBF=F KetDBF=T FulRan=T
         wScrn=  0.000000 ICntrl=     500 IOpCl=  0 I1Cent=   200000004 NGrid=           0
         NMat0=    1 NMatS0=      1 NMatT0=    0 NMatD0=    1 NMtDS0=    0 NMtDT0=    0
 Petite list used in FoFCou.
 Requested convergence on RMS density matrix=1.00D-08 within 128 cycles.
 Requested convergence on MAX density matrix=1.00D-06.
 Requested convergence on             energy=1.00D-06.
 No special actions if energy rises.
 Integral accuracy reduced to 1.0D-05 until final iterations.
 Initial convergence to 1.0D-05 achieved.  Increase integral accuracy.
 SCF Done:  E(RB3LYP) =  -423.095695415     A.U. after   13 cycles
            NFock= 13  Conv=0.42D-08     -V/T= 2.0074

 **********************************************************************

            Population analysis using the SCF density.

 **********************************************************************

 Orbital symmetries:
       Occupied  (A) (A) (A) (A) (A) (A) (A) (A) (A) (A) (A) (A)
                 (A) (A) (A) (A) (A) (A) (A) (A) (A) (A) (A) (A)
                 (A) (A) (A) (A) (A) (A) (A) (A) (A) (A)
       Virtual   (A) (A) (A) (A) (A) (A) (A) (A) (A) (A) (A) (A)
                 (A) (A) (A) (A) (A) (A) (A) (A) (A) (A) (A) (A)
                 (A) (A) (A) (A) (A) (A) (A) (A) (A) (A) (A) (A)
                 (A) (A) (A) (A) (A) (A) (A) (A) (A) (A) (A) (A)
                 (A) (A) (A) (A) (A) (A) (A) (A) (A) (A) (A) (A)
                 (A) (A) (A) (A) (A) (A) (A) (A) (A) (A) (A) (A)
                 (A) (A) (A) (A) (A) (A) (A) (A) (A) (A) (A) (A)
                 (A) (A) (A) (A) (A) (A) (A) (A) (A) (A) (A) (A)
                 (A) (A) (A) (A) (A) (A) (A) (A) (A) (A) (A) (A)
                 (A) (A) (A) (A) (A) (A) (A) (A) (A) (A) (A) (A)
                 (A) (A) (A) (A) (A) (A) (A) (A) (A) (A) (A) (A)
                 (A) (A) (A) (A) (A) (A) (A) (A) (A) (A) (A) (A)
                 (A) (A) (A) (A) (A) (A) (A) (A) (A) (A) (A) (A)
                 (A) (A) (A) (A) (A) (A) (A) (A) (A) (A) (A) (A)
                 (A) (A) (A) (A) (A) (A) (A) (A) (A) (A) (A) (A)
                 (A) (A) (A) (A) (A) (A) (A) (A) (A) (A) (A) (A)
                 (A) (A) (A) (A) (A) (A) (A) (A) (A) (A) (A) (A)
                 (A) (A) (A) (A) (A) (A) (A) (A) (A) (A) (A) (A)
                 (A) (A) (A) (A) (A) (A) (A) (A) (A) (A) (A) (A)
                 (A) (A) (A) (A) (A) (A) (A) (A) (A) (A) (A) (A)
                 (A) (A) (A) (A) (A) (A) (A) (A) (A) (A) (A) (A)
                 (A) (A) (A) (A) (A) (A) (A) (A) (A) (A) (A) (A)
                 (A) (A) (A) (A)
 The electronic state is 1-A.
 Alpha  occ. eigenvalues --  -19.14825 -19.13863 -10.24935 -10.24931 -10.24523
 Alpha  occ. eigenvalues --  -10.24484 -10.19584 -10.18407 -10.18407  -1.07836
 Alpha  occ. eigenvalues --   -1.05085  -0.78506  -0.77131  -0.70318  -0.66058
 Alpha  occ. eigenvalues --   -0.65757  -0.58722  -0.52766  -0.51433  -0.47045
 Alpha  occ. eigenvalues --   -0.46517  -0.44573  -0.42834  -0.40890  -0.40254
 Alpha  occ. eigenvalues --   -0.39445  -0.37542  -0.37349  -0.33908  -0.33258
 Alpha  occ. eigenvalues --   -0.33128  -0.28817  -0.26235  -0.24521
 Alpha virt. eigenvalues --    0.07793   0.09122   0.09839   0.11187   0.12328
 Alpha virt. eigenvalues --    0.12776   0.12870   0.15490   0.15680   0.16700
 Alpha virt. eigenvalues --    0.17198   0.18257   0.18784   0.19139   0.19546
 Alpha virt. eigenvalues --    0.20832   0.21397   0.23584   0.27307   0.27866
 Alpha virt. eigenvalues --    0.37707   0.41443   0.42066   0.42796   0.43078
 Alpha virt. eigenvalues --    0.46020   0.47965   0.48317   0.49939   0.51130
 Alpha virt. eigenvalues --    0.51208   0.52698   0.58507   0.59113   0.59954
 Alpha virt. eigenvalues --    0.61758   0.64853   0.65079   0.68434   0.69646
 Alpha virt. eigenvalues --    0.71606   0.72145   0.72651   0.73368   0.75265
 Alpha virt. eigenvalues --    0.75505   0.76308   0.77473   0.79527   0.80678
 Alpha virt. eigenvalues --    0.81634   0.83556   0.85248   0.85751   0.86015
 Alpha virt. eigenvalues --    0.87447   0.89978   0.94805   0.94936   0.97400
 Alpha virt. eigenvalues --    0.98450   1.01060   1.04946   1.09030   1.09912
 Alpha virt. eigenvalues --    1.12948   1.14634   1.17941   1.18285   1.20629
 Alpha virt. eigenvalues --    1.25684   1.26922   1.30721   1.30759   1.33691
 Alpha virt. eigenvalues --    1.37187   1.38215   1.38602   1.38718   1.40242
 Alpha virt. eigenvalues --    1.44269   1.45321   1.45930   1.46611   1.47690
 Alpha virt. eigenvalues --    1.48292   1.53749   1.54781   1.55134   1.55467
 Alpha virt. eigenvalues --    1.58744   1.59928   1.61442   1.63499   1.65169
 Alpha virt. eigenvalues --    1.66157   1.74181   1.74927   1.80821   1.82263
 Alpha virt. eigenvalues --    1.84407   1.86395   1.90320   1.92309   1.92754
 Alpha virt. eigenvalues --    1.96687   1.96868   1.97875   2.06428   2.08683
 Alpha virt. eigenvalues --    2.10743   2.13999   2.14372   2.24757   2.29151
 Alpha virt. eigenvalues --    2.31016   2.34693   2.35635   2.37609   2.40872
 Alpha virt. eigenvalues --    2.43560   2.47643   2.48280   2.51625   2.53887
 Alpha virt. eigenvalues --    2.58594   2.62990   2.64475   2.69978   2.71321
 Alpha virt. eigenvalues --    2.76150   2.77680   2.78893   2.82489   2.84388
 Alpha virt. eigenvalues --    2.87219   2.88123   2.89329   2.89584   2.92370
 Alpha virt. eigenvalues --    2.93280   2.97317   2.97736   3.00261   3.00550
 Alpha virt. eigenvalues --    3.02895   3.04735   3.06541   3.10986   3.11595
 Alpha virt. eigenvalues --    3.12413   3.17121   3.18553   3.21787   3.22273
 Alpha virt. eigenvalues --    3.26478   3.26711   3.32549   3.33985   3.39485
 Alpha virt. eigenvalues --    3.40221   3.43968   3.43998   3.47675   3.48085
 Alpha virt. eigenvalues --    3.51158   3.51397   3.62360   3.62881   3.65237
 Alpha virt. eigenvalues --    3.66794   3.67126   3.68669   3.72549   3.76013
 Alpha virt. eigenvalues --    3.76502   3.86108   3.88120   3.90588   3.92153
 Alpha virt. eigenvalues --    3.96016   3.97732   4.03160   4.07252   4.10357
 Alpha virt. eigenvalues --    4.13666   4.16703   4.18487   4.23961   4.25430
 Alpha virt. eigenvalues --    4.25956   4.30349   4.31953   4.37245   4.38259
 Alpha virt. eigenvalues --    4.40750   4.40961   4.42647   4.45074   4.45180
 Alpha virt. eigenvalues --    4.46140   4.48199   4.52424   4.52887   4.54628
 Alpha virt. eigenvalues --    4.55079   4.57417   4.59361   4.61247   4.64964
 Alpha virt. eigenvalues --    4.65477   4.67765   4.69869   4.71846   4.74268
 Alpha virt. eigenvalues --    4.74872   4.80366   4.80882   4.81452   4.81643
 Alpha virt. eigenvalues --    4.83341   4.84315   4.85140   4.86948   4.87999
 Alpha virt. eigenvalues --    4.91856   4.95732   4.99354   5.09285   5.09433
 Alpha virt. eigenvalues --    5.14063   5.21331   5.23908   5.25435   5.31017
 Alpha virt. eigenvalues --    5.32456   5.37086   5.41946   5.43773   5.48702
 Alpha virt. eigenvalues --    5.50227   5.56718   5.59383   5.63276   5.70567
 Alpha virt. eigenvalues --    5.72699   5.86209   5.86801   5.90736   5.92564
 Alpha virt. eigenvalues --    6.00407   6.06807   6.07964   6.13998   6.23106
 Alpha virt. eigenvalues --    6.32628   6.76989   7.09763   7.21120  10.70074
 Alpha virt. eigenvalues --   11.04052  11.61481  11.85543  11.87159  12.18643
 Alpha virt. eigenvalues --   12.51791  13.41559  13.51183
          Condensed to atoms (all electrons):
               1          2          3          4          5          6
     1  C    5.108712   0.374033  -0.099980  -0.023467   0.004843  -0.006354
     2  C    0.374033   4.709311   0.374026   0.223968   0.291982  -0.051012
     3  C   -0.099980   0.374026   5.108636  -0.023443   0.004876   0.003077
     4  O   -0.023467   0.223968  -0.023443   7.935686   0.266813  -0.022139
     5  C    0.004843   0.291982   0.004876   0.266813   4.456580   0.315532
     6  C   -0.006354  -0.051012   0.003077  -0.022139   0.315532   5.041188
     7  C    0.000090   0.010122   0.000091   0.001414  -0.001155   0.282083
     8  C    0.003076  -0.050873  -0.006362  -0.022130   0.315447  -0.140843
     9  O   -0.000001   0.007631   0.000000   0.003046  -0.078762   0.277983
    10  H    0.361746  -0.019371   0.001748   0.002736  -0.003237   0.000035
    11  H    0.354510  -0.009711   0.005292   0.000354  -0.001567   0.002487
    12  H    0.367697  -0.019126  -0.001129  -0.002172  -0.000940  -0.000015
    13  H   -0.001122  -0.019086   0.367658  -0.002181  -0.000937  -0.000140
    14  H    0.005293  -0.009718   0.354542   0.000348  -0.001596   0.000148
    15  H    0.001738  -0.019389   0.361756   0.002735  -0.003226   0.000258
    16  H    0.000512  -0.001430  -0.000028   0.000889  -0.031821   0.356590
    17  H   -0.000002   0.000430  -0.000002   0.000519  -0.005153  -0.012734
    18  H    0.000005  -0.000553   0.000005  -0.000056  -0.002066  -0.003992
    19  H   -0.000028  -0.001429   0.000511   0.000889  -0.031823   0.016717
               7          8          9         10         11         12
     1  C    0.000090   0.003076  -0.000001   0.361746   0.354510   0.367697
     2  C    0.010122  -0.050873   0.007631  -0.019371  -0.009711  -0.019126
     3  C    0.000091  -0.006362   0.000000   0.001748   0.005292  -0.001129
     4  O    0.001414  -0.022130   0.003046   0.002736   0.000354  -0.002172
     5  C   -0.001155   0.315447  -0.078762  -0.003237  -0.001567  -0.000940
     6  C    0.282083  -0.140843   0.277983   0.000035   0.002487  -0.000015
     7  C    5.147015   0.282072  -0.070351  -0.000019  -0.000090   0.000006
     8  C    0.282072   5.041118   0.277988   0.000259   0.000148  -0.000140
     9  O   -0.070351   0.277988   7.932602  -0.000015  -0.000026  -0.000002
    10  H   -0.000019   0.000259  -0.000015   0.585362  -0.026228  -0.032675
    11  H   -0.000090   0.000148  -0.000026  -0.026228   0.575918  -0.028570
    12  H    0.000006  -0.000140  -0.000002  -0.032675  -0.028570   0.587102
    13  H    0.000006  -0.000015  -0.000002  -0.000168  -0.000068   0.004018
    14  H   -0.000091   0.002501  -0.000027  -0.000075  -0.000210  -0.000067
    15  H   -0.000019   0.000034  -0.000016   0.000792  -0.000074  -0.000169
    16  H   -0.044046   0.016716  -0.021949   0.000109   0.001383  -0.000033
    17  H    0.337564  -0.012734   0.006270  -0.000001   0.000008   0.000001
    18  H    0.329586  -0.003990   0.000360   0.000000   0.000002   0.000000
    19  H   -0.044047   0.356586  -0.021949  -0.000001  -0.000002  -0.000001
              13         14         15         16         17         18
     1  C   -0.001122   0.005293   0.001738   0.000512  -0.000002   0.000005
     2  C   -0.019086  -0.009718  -0.019389  -0.001430   0.000430  -0.000553
     3  C    0.367658   0.354542   0.361756  -0.000028  -0.000002   0.000005
     4  O   -0.002181   0.000348   0.002735   0.000889   0.000519  -0.000056
     5  C   -0.000937  -0.001596  -0.003226  -0.031821  -0.005153  -0.002066
     6  C   -0.000140   0.000148   0.000258   0.356590  -0.012734  -0.003992
     7  C    0.000006  -0.000091  -0.000019  -0.044046   0.337564   0.329586
     8  C   -0.000015   0.002501   0.000034   0.016716  -0.012734  -0.003990
     9  O   -0.000002  -0.000027  -0.000016  -0.021949   0.006270   0.000360
    10  H   -0.000168  -0.000075   0.000792   0.000109  -0.000001   0.000000
    11  H   -0.000068  -0.000210  -0.000074   0.001383   0.000008   0.000002
    12  H    0.004018  -0.000067  -0.000169  -0.000033   0.000001   0.000000
    13  H    0.587066  -0.028579  -0.032667  -0.000001   0.000001   0.000000
    14  H   -0.028579   0.575959  -0.026238  -0.000002   0.000008   0.000002
    15  H   -0.032667  -0.026238   0.585403  -0.000001  -0.000001   0.000000
    16  H   -0.000001  -0.000002  -0.000001   0.621512   0.001072   0.000960
    17  H    0.000001   0.000008  -0.000001   0.001072   0.602944  -0.036669
    18  H    0.000000   0.000002   0.000000   0.000960  -0.036669   0.606438
    19  H   -0.000033   0.001387   0.000108  -0.000930   0.001071   0.000960
              19
     1  C   -0.000028
     2  C   -0.001429
     3  C    0.000511
     4  O    0.000889
     5  C   -0.031823
     6  C    0.016717
     7  C   -0.044047
     8  C    0.356586
     9  O   -0.021949
    10  H   -0.000001
    11  H   -0.000002
    12  H   -0.000001
    13  H   -0.000033
    14  H    0.001387
    15  H    0.000108
    16  H   -0.000930
    17  H    0.001071
    18  H    0.000960
    19  H    0.621513
 Mulliken charges:
               1
     1  C   -0.451301
     2  C    0.210194
     3  C   -0.451272
     4  O   -0.343808
     5  C    0.506209
     6  C   -0.058870
     7  C   -0.230232
     8  C   -0.058858
     9  O   -0.312780
    10  H    0.129004
    11  H    0.126445
    12  H    0.126214
    13  H    0.126251
    14  H    0.126416
    15  H    0.128976
    16  H    0.100499
    17  H    0.117409
    18  H    0.109006
    19  H    0.100499
 Sum of Mulliken charges =   0.00000
 Mulliken charges with hydrogens summed into heavy atoms:
               1
     1  C   -0.069639
     2  C    0.210194
     3  C   -0.069629
     4  O   -0.343808
     5  C    0.506209
     6  C    0.041628
     7  C   -0.003816
     8  C    0.041640
     9  O   -0.312780
 Electronic spatial extent (au):  <R**2>=           1115.0685
 Charge=              0.0000 electrons
 Dipole moment (field-independent basis, Debye):
    X=              0.5684    Y=              0.0001    Z=             -0.0378  Tot=              0.5696
 Quadrupole moment (field-independent basis, Debye-Ang):
   XX=            -50.4263   YY=            -49.2635   ZZ=            -58.9960
   XY=              0.0011   XZ=             -4.8090   YZ=              0.0023
 Traceless Quadrupole moment (field-independent basis, Debye-Ang):
   XX=              2.4689   YY=              3.6318   ZZ=             -6.1007
   XY=              0.0011   XZ=             -4.8090   YZ=              0.0023
 Octapole moment (field-independent basis, Debye-Ang**2):
  XXX=              3.2701  YYY=              0.0016  ZZZ=             -0.0561  XYY=             -4.4864
  XXY=             -0.0027  XXZ=              5.3841  XZZ=              2.2208  YZZ=              0.0004
  YYZ=             -1.9401  XYZ=             -0.0024
 Hexadecapole moment (field-independent basis, Debye-Ang**3):
 XXXX=           -903.0300 YYYY=           -293.7246 ZZZZ=           -228.2887 XXXY=             -0.0058
 XXXZ=              7.3165 YYYX=             -0.0040 YYYZ=              0.0062 ZZZX=             -6.4932
 ZZZY=             -0.0050 XXYY=           -204.3962 XXZZ=           -198.4919 YYZZ=            -88.3741
 XXYZ=             -0.0015 YYXZ=              8.1378 ZZXY=              0.0043
 N-N= 4.715167734953D+02 E-N=-1.929480172330D+03  KE= 4.199885616276D+02
 Calling FoFJK, ICntrl=      2127 FMM=F ISym2X=0 I1Cent= 0 IOpClX= 0 NMat=1 NMatS=1 NMatT=0.
 ***** Axes restored to original set *****
 -------------------------------------------------------------------
 Center     Atomic                   Forces (Hartrees/Bohr)
 Number     Number              X              Y              Z
 -------------------------------------------------------------------
      1        6          -0.000002841   -0.000005044    0.000003168
      2        6           0.000009569   -0.000002000   -0.000013195
      3        6          -0.000005413   -0.000001908    0.000006958
      4        8          -0.000001968   -0.000030569   -0.000000286
      5        6           0.000003666    0.000058627   -0.000000025
      6        6          -0.000040715   -0.000010852   -0.000025882
      7        6           0.000017724   -0.000005415   -0.000025183
      8        6           0.000037972   -0.000016112    0.000029197
      9        8          -0.000012522    0.000017595    0.000017990
     10        1           0.000001242   -0.000002279    0.000000601
     11        1          -0.000001966    0.000000762   -0.000001482
     12        1           0.000003261   -0.000001870   -0.000005076
     13        1           0.000000706   -0.000001131   -0.000001353
     14        1           0.000003003   -0.000002820   -0.000001830
     15        1           0.000001294    0.000001464   -0.000001587
     16        1           0.000013654   -0.000002695    0.000010659
     17        1          -0.000003882    0.000003571    0.000005788
     18        1          -0.000007963    0.000001552    0.000011123
     19        1          -0.000014821   -0.000000875   -0.000009583
 -------------------------------------------------------------------
 Cartesian Forces:  Max     0.000058627 RMS     0.000014812

 GradGradGradGradGradGradGradGradGradGradGradGradGradGradGradGradGradGrad
 Berny optimization.
 FormGI is forming the generalized inverse of G from B-inverse, IUseBI=4.
 Internal  Forces:  Max     0.000018845 RMS     0.000004917
 Search for a local minimum.
 Step number   1 out of a maximum of  114
 All quantities printed in internal units (Hartrees-Bohrs-Radians)
 Mixed Optimization -- En-DIIS/RFO-DIIS
 Second derivative matrix not updated -- first step.
 ITU=  0
     Eigenvalues ---    0.00620   0.00620   0.01662   0.02035   0.02061
     Eigenvalues ---    0.02732   0.02855   0.03039   0.03612   0.03859
     Eigenvalues ---    0.05714   0.05714   0.05808   0.05809   0.07291
     Eigenvalues ---    0.07391   0.07566   0.08929   0.09468   0.10972
     Eigenvalues ---    0.12248   0.16000   0.16000   0.16000   0.16000
     Eigenvalues ---    0.16000   0.16000   0.16088   0.17424   0.20479
     Eigenvalues ---    0.21001   0.23063   0.23996   0.26078   0.27597
     Eigenvalues ---    0.28074   0.30320   0.31247   0.31248   0.31533
     Eigenvalues ---    0.34198   0.34199   0.34228   0.34228   0.34542
     Eigenvalues ---    0.34578   0.34578   0.34735   0.34887   0.34888
     Eigenvalues ---    0.40111
 RFO step:  Lambda=-1.87519950D-08 EMin= 6.20120578D-03
 Linear search not attempted -- first point.
 Iteration  1 RMS(Cart)=  0.00010362 RMS(Int)=  0.00000001
 Iteration  2 RMS(Cart)=  0.00000001 RMS(Int)=  0.00000000
 Variable       Old X    -DE/DX   Delta X   Delta X   Delta X     New X
                                 (Linear)    (Quad)   (Total)
    R1        2.85542   0.00000   0.00000   0.00001   0.00001   2.85543
    R2        2.06947   0.00000   0.00000   0.00000   0.00000   2.06947
    R3        2.06366   0.00000   0.00000   0.00001   0.00001   2.06367
    R4        2.06996   0.00000   0.00000   0.00000   0.00000   2.06996
    R5        2.85541   0.00000   0.00000   0.00001   0.00001   2.85542
    R6        2.78515   0.00000   0.00000  -0.00004  -0.00004   2.78511
    R7        2.74523   0.00000   0.00000   0.00002   0.00002   2.74524
    R8        2.06996   0.00000   0.00000   0.00000   0.00000   2.06996
    R9        2.06366   0.00000   0.00000   0.00001   0.00001   2.06366
   R10        2.06946   0.00000   0.00000   0.00000   0.00000   2.06947
   R11        2.64255   0.00002   0.00000   0.00008   0.00008   2.64263
   R12        2.91185  -0.00001   0.00000  -0.00004  -0.00004   2.91181
   R13        2.91184  -0.00001   0.00000  -0.00004  -0.00004   2.91181
   R14        2.93000   0.00001   0.00000   0.00004   0.00004   2.93004
   R15        3.43313   0.00001   0.00000   0.00008   0.00008   3.43321
   R16        2.80353   0.00001   0.00000   0.00005   0.00005   2.80359
   R17        2.05858  -0.00002   0.00000  -0.00005  -0.00005   2.05853
   R18        2.93000   0.00001   0.00000   0.00004   0.00004   2.93004
   R19        2.06425  -0.00001   0.00000  -0.00002  -0.00002   2.06423
   R20        2.06108   0.00000   0.00000  -0.00001  -0.00001   2.06106
   R21        2.80353   0.00001   0.00000   0.00006   0.00006   2.80358
   R22        2.05858  -0.00002   0.00000  -0.00005  -0.00005   2.05853
    A1        1.92710   0.00000   0.00000   0.00000   0.00000   1.92710
    A2        1.93764   0.00000   0.00000   0.00002   0.00002   1.93766
    A3        1.92740   0.00000   0.00000  -0.00002  -0.00002   1.92738
    A4        1.89567   0.00000   0.00000   0.00000   0.00000   1.89567
    A5        1.88351   0.00000   0.00000   0.00002   0.00002   1.88353
    A6        1.89113   0.00000   0.00000  -0.00001  -0.00001   1.89113
    A7        2.02737   0.00000   0.00000  -0.00003  -0.00003   2.02734
    A8        1.99281   0.00000   0.00000  -0.00001  -0.00001   1.99280
    A9        2.09816   0.00000   0.00000   0.00002   0.00002   2.09817
   A10        1.99270   0.00000   0.00000   0.00001   0.00001   1.99271
   A11        2.09824   0.00000   0.00000   0.00000   0.00000   2.09825
   A12        1.92728   0.00000   0.00000   0.00000   0.00000   1.92728
   A13        1.93775   0.00000   0.00000   0.00000   0.00000   1.93775
   A14        1.92714   0.00000   0.00000  -0.00001  -0.00001   1.92713
   A15        1.89114   0.00000   0.00000  -0.00001  -0.00001   1.89113
   A16        1.88351   0.00000   0.00000   0.00002   0.00002   1.88352
   A17        1.89565   0.00000   0.00000   0.00000   0.00000   1.89565
   A18        2.39649   0.00000   0.00000  -0.00002  -0.00002   2.39647
   A19        2.39649   0.00000   0.00000  -0.00002  -0.00002   2.39647
   A20        2.26395   0.00000   0.00000   0.00001   0.00001   2.26395
   A21        2.26396   0.00000   0.00000   0.00000   0.00000   2.26397
   A22        1.54526  -0.00001   0.00000  -0.00002  -0.00002   1.54524
   A23        1.51862   0.00000   0.00000  -0.00003  -0.00003   1.51859
   A24        2.28855   0.00000   0.00000   0.00001   0.00001   2.28856
   A25        1.55007   0.00000   0.00000   0.00000   0.00000   1.55007
   A26        2.26780   0.00000   0.00000   0.00002   0.00002   2.26782
   A27        2.05531   0.00000   0.00000   0.00000   0.00000   2.05531
   A28        2.05963   0.00000   0.00000   0.00001   0.00001   2.05964
   A29        1.99892   0.00000   0.00000  -0.00005  -0.00005   1.99887
   A30        2.05963   0.00000   0.00000   0.00001   0.00001   2.05964
   A31        1.99892   0.00000   0.00000  -0.00005  -0.00005   1.99887
   A32        1.98569   0.00000   0.00000   0.00005   0.00005   1.98574
   A33        1.54526  -0.00001   0.00000  -0.00002  -0.00002   1.54524
   A34        1.51863   0.00000   0.00000  -0.00003  -0.00003   1.51860
   A35        2.28855   0.00000   0.00000   0.00001   0.00001   2.28856
   A36        1.55008   0.00000   0.00000  -0.00001  -0.00001   1.55007
   A37        2.26779   0.00000   0.00000   0.00003   0.00003   2.26781
   A38        2.05532   0.00000   0.00000   0.00000   0.00000   2.05531
   A39        3.18364   0.00000   0.00000  -0.00002  -0.00002   3.18362
   A40        3.19667   0.00000   0.00000  -0.00002  -0.00002   3.19665
   A41        2.97113   0.00000   0.00000  -0.00001  -0.00001   2.97112
   A42        3.31896   0.00000   0.00000   0.00001   0.00001   3.31897
    D1        1.08202   0.00000   0.00000  -0.00023  -0.00023   1.08179
    D2       -2.82564  -0.00001   0.00000  -0.00025  -0.00025  -2.82589
    D3       -1.69700   0.00000   0.00000  -0.00021  -0.00021  -1.69721
    D4       -3.09766   0.00000   0.00000  -0.00022  -0.00022  -3.09789
    D5       -0.72214   0.00000   0.00000  -0.00024  -0.00024  -0.72239
    D6        0.40650   0.00000   0.00000  -0.00020  -0.00020   0.40630
    D7       -0.99966   0.00000   0.00000  -0.00024  -0.00024  -0.99990
    D8        1.37586  -0.00001   0.00000  -0.00026  -0.00026   1.37560
    D9        2.50450   0.00000   0.00000  -0.00021  -0.00021   2.50429
   D10        1.00185   0.00000   0.00000  -0.00022  -0.00022   1.00163
   D11        3.09985   0.00000   0.00000  -0.00023  -0.00023   3.09961
   D12       -1.07977   0.00000   0.00000  -0.00024  -0.00024  -1.08000
   D13       -1.37372   0.00000   0.00000  -0.00019  -0.00019  -1.37391
   D14        0.72427   0.00000   0.00000  -0.00020  -0.00020   0.72407
   D15        2.82785   0.00000   0.00000  -0.00021  -0.00021   2.82764
   D16       -2.50233   0.00000   0.00000  -0.00024  -0.00024  -2.50257
   D17       -0.40434   0.00000   0.00000  -0.00025  -0.00025  -0.40459
   D18        1.69923   0.00000   0.00000  -0.00026  -0.00026   1.69898
   D19        0.32800   0.00000   0.00000  -0.00002  -0.00002   0.32798
   D20        2.43606   0.00000   0.00000   0.00003   0.00003   2.43609
   D21       -2.43628   0.00000   0.00000   0.00001   0.00001  -2.43627
   D22       -0.32822   0.00000   0.00000   0.00006   0.00006  -0.32816
   D23       -3.01402   0.00000   0.00000   0.00001   0.00001  -3.01401
   D24        1.71779   0.00000   0.00000   0.00001   0.00001   1.71780
   D25       -0.46388   0.00000   0.00000   0.00004   0.00004  -0.46384
   D26       -1.43639   0.00000   0.00000  -0.00006  -0.00006  -1.43645
   D27       -2.98776  -0.00001   0.00000  -0.00006  -0.00006  -2.98782
   D28        1.11376   0.00000   0.00000  -0.00003  -0.00003   1.11373
   D29        3.01402   0.00000   0.00000  -0.00001  -0.00001   3.01401
   D30       -1.71779   0.00000   0.00000  -0.00001  -0.00001  -1.71780
   D31        0.46389   0.00000   0.00000  -0.00004  -0.00004   0.46385
   D32        1.43637   0.00000   0.00000   0.00006   0.00006   1.43643
   D33        2.98775   0.00001   0.00000   0.00006   0.00006   2.98780
   D34       -1.11376   0.00000   0.00000   0.00003   0.00003  -1.11373
   D35        1.18303   0.00000   0.00000   0.00004   0.00004   1.18307
   D36       -2.68944   0.00000   0.00000   0.00007   0.00007  -2.68937
   D37        2.70215   0.00000   0.00000   0.00001   0.00001   2.70216
   D38       -1.17032   0.00000   0.00000   0.00004   0.00004  -1.17028
   D39       -1.37888   0.00000   0.00000   0.00002   0.00002  -1.37887
   D40        1.03183   0.00000   0.00000   0.00005   0.00005   1.03188
   D41       -1.18303   0.00000   0.00000  -0.00004  -0.00004  -1.18306
   D42       -2.70216   0.00000   0.00000  -0.00001  -0.00001  -2.70216
   D43        1.37888   0.00000   0.00000  -0.00001  -0.00001   1.37886
   D44        2.68945   0.00000   0.00000  -0.00007  -0.00007   2.68938
   D45        1.17032   0.00000   0.00000  -0.00004  -0.00004   1.17028
   D46       -1.03183   0.00000   0.00000  -0.00005  -0.00005  -1.03188
         Item               Value     Threshold  Converged?
 Maximum Force            0.000019     0.000450     YES
 RMS     Force            0.000005     0.000300     YES
 Maximum Displacement     0.000450     0.001800     YES
 RMS     Displacement     0.000104     0.001200     YES
 Predicted change in Energy=-9.376003D-09
 Optimization completed.
    -- Stationary point found.
                           ----------------------------
                           !   Optimized Parameters   !
                           ! (Angstroms and Degrees)  !
 --------------------------                            --------------------------
 ! Name  Definition              Value          Derivative Info.                !
 --------------------------------------------------------------------------------
 ! R1    R(1,2)                  1.511          -DE/DX =    0.0                 !
 ! R2    R(1,10)                 1.0951         -DE/DX =    0.0                 !
 ! R3    R(1,11)                 1.092          -DE/DX =    0.0                 !
 ! R4    R(1,12)                 1.0954         -DE/DX =    0.0                 !
 ! R5    R(2,3)                  1.511          -DE/DX =    0.0                 !
 ! R6    R(2,4)                  1.4738         -DE/DX =    0.0                 !
 ! R7    R(2,5)                  1.4527         -DE/DX =    0.0                 !
 ! R8    R(3,13)                 1.0954         -DE/DX =    0.0                 !
 ! R9    R(3,14)                 1.092          -DE/DX =    0.0                 !
 ! R10   R(3,15)                 1.0951         -DE/DX =    0.0                 !
 ! R11   R(4,5)                  1.3984         -DE/DX =    0.0                 !
 ! R12   R(5,6)                  1.5409         -DE/DX =    0.0                 !
 ! R13   R(5,8)                  1.5409         -DE/DX =    0.0                 !
 ! R14   R(6,7)                  1.5505         -DE/DX =    0.0                 !
 ! R15   R(6,8)                  1.8167         -DE/DX =    0.0                 !
 ! R16   R(6,9)                  1.4836         -DE/DX =    0.0                 !
 ! R17   R(6,16)                 1.0894         -DE/DX =    0.0                 !
 ! R18   R(7,8)                  1.5505         -DE/DX =    0.0                 !
 ! R19   R(7,17)                 1.0924         -DE/DX =    0.0                 !
 ! R20   R(7,18)                 1.0907         -DE/DX =    0.0                 !
 ! R21   R(8,9)                  1.4836         -DE/DX =    0.0                 !
 ! R22   R(8,19)                 1.0894         -DE/DX =    0.0                 !
 ! A1    A(2,1,10)             110.4148         -DE/DX =    0.0                 !
 ! A2    A(2,1,11)             111.0186         -DE/DX =    0.0                 !
 ! A3    A(2,1,12)             110.4319         -DE/DX =    0.0                 !
 ! A4    A(10,1,11)            108.6137         -DE/DX =    0.0                 !
 ! A5    A(10,1,12)            107.9174         -DE/DX =    0.0                 !
 ! A6    A(11,1,12)            108.354          -DE/DX =    0.0                 !
 ! A7    A(1,2,3)              116.1595         -DE/DX =    0.0                 !
 ! A8    A(1,2,4)              114.1796         -DE/DX =    0.0                 !
 ! A9    A(1,2,5)              120.2155         -DE/DX =    0.0                 !
 ! A10   A(3,2,4)              114.1732         -DE/DX =    0.0                 !
 ! A11   A(3,2,5)              120.2206         -DE/DX =    0.0                 !
 ! A12   A(2,3,13)             110.4248         -DE/DX =    0.0                 !
 ! A13   A(2,3,14)             111.0249         -DE/DX =    0.0                 !
 ! A14   A(2,3,15)             110.4167         -DE/DX =    0.0                 !
 ! A15   A(13,3,14)            108.3542         -DE/DX =    0.0                 !
 ! A16   A(13,3,15)            107.9169         -DE/DX =    0.0                 !
 ! A17   A(14,3,15)            108.6128         -DE/DX =    0.0                 !
 ! A18   A(2,5,6)              137.3086         -DE/DX =    0.0                 !
 ! A19   A(2,5,8)              137.3086         -DE/DX =    0.0                 !
 ! A20   A(4,5,6)              129.7146         -DE/DX =    0.0                 !
 ! A21   A(4,5,8)              129.7155         -DE/DX =    0.0                 !
 ! A22   A(5,6,7)               88.5367         -DE/DX =    0.0                 !
 ! A23   A(5,6,9)               87.0107         -DE/DX =    0.0                 !
 ! A24   A(5,6,16)             131.1241         -DE/DX =    0.0                 !
 ! A25   A(7,6,9)               88.8127         -DE/DX =    0.0                 !
 ! A26   A(7,6,16)             129.9351         -DE/DX =    0.0                 !
 ! A27   A(9,6,16)             117.7608         -DE/DX =    0.0                 !
 ! A28   A(6,7,17)             118.0082         -DE/DX =    0.0                 !
 ! A29   A(6,7,18)             114.5298         -DE/DX =    0.0                 !
 ! A30   A(8,7,17)             118.0083         -DE/DX =    0.0                 !
 ! A31   A(8,7,18)             114.5296         -DE/DX =    0.0                 !
 ! A32   A(17,7,18)            113.7714         -DE/DX =    0.0                 !
 ! A33   A(5,8,7)               88.5367         -DE/DX =    0.0                 !
 ! A34   A(5,8,9)               87.011          -DE/DX =    0.0                 !
 ! A35   A(5,8,19)             131.1242         -DE/DX =    0.0                 !
 ! A36   A(7,8,9)               88.8128         -DE/DX =    0.0                 !
 ! A37   A(7,8,19)             129.9347         -DE/DX =    0.0                 !
 ! A38   A(9,8,19)             117.7609         -DE/DX =    0.0                 !
 ! A39   L(8,6,16,1,-1)        182.409          -DE/DX =    0.0                 !
 ! A40   L(6,8,19,2,-1)        183.1557         -DE/DX =    0.0                 !
 ! A41   L(8,6,16,1,-2)        170.2331         -DE/DX =    0.0                 !
 ! A42   L(6,8,19,2,-2)        190.1626         -DE/DX =    0.0                 !
 ! D1    D(10,1,2,3)            61.9954         -DE/DX =    0.0                 !
 ! D2    D(10,1,2,4)          -161.8972         -DE/DX =    0.0                 !
 ! D3    D(10,1,2,5)           -97.2308         -DE/DX =    0.0                 !
 ! D4    D(11,1,2,3)          -177.4831         -DE/DX =    0.0                 !
 ! D5    D(11,1,2,4)           -41.3757         -DE/DX =    0.0                 !
 ! D6    D(11,1,2,5)            23.2907         -DE/DX =    0.0                 !
 ! D7    D(12,1,2,3)           -57.2764         -DE/DX =    0.0                 !
 ! D8    D(12,1,2,4)            78.831          -DE/DX =    0.0                 !
 ! D9    D(12,1,2,5)           143.4973         -DE/DX =    0.0                 !
 ! D10   D(1,2,3,13)            57.4018         -DE/DX =    0.0                 !
 ! D11   D(1,2,3,14)           177.608          -DE/DX =    0.0                 !
 ! D12   D(1,2,3,15)           -61.8662         -DE/DX =    0.0                 !
 ! D13   D(4,2,3,13)           -78.7083         -DE/DX =    0.0                 !
 ! D14   D(4,2,3,14)            41.4979         -DE/DX =    0.0                 !
 ! D15   D(4,2,3,15)           162.0237         -DE/DX =    0.0                 !
 ! D16   D(5,2,3,13)          -143.3731         -DE/DX =    0.0                 !
 ! D17   D(5,2,3,14)           -23.1669         -DE/DX =    0.0                 !
 ! D18   D(5,2,3,15)            97.3589         -DE/DX =    0.0                 !
 ! D19   D(1,2,5,6)             18.7932         -DE/DX =    0.0                 !
 ! D20   D(1,2,5,8)            139.5762         -DE/DX =    0.0                 !
 ! D21   D(3,2,5,6)           -139.5886         -DE/DX =    0.0                 !
 ! D22   D(3,2,5,8)            -18.8056         -DE/DX =    0.0                 !
 ! D23   D(2,5,6,7)           -172.6908         -DE/DX =    0.0                 !
 ! D24   D(2,5,6,9)             98.422          -DE/DX =    0.0                 !
 ! D25   D(2,5,6,16)           -26.5783         -DE/DX =    0.0                 !
 ! D26   D(4,5,6,7)            -82.299          -DE/DX =    0.0                 !
 ! D27   D(4,5,6,9)           -171.1861         -DE/DX =    0.0                 !
 ! D28   D(4,5,6,16)            63.8135         -DE/DX =    0.0                 !
 ! D29   D(2,5,8,7)            172.6909         -DE/DX =    0.0                 !
 ! D30   D(2,5,8,9)            -98.4219         -DE/DX =    0.0                 !
 ! D31   D(2,5,8,19)            26.579          -DE/DX =    0.0                 !
 ! D32   D(4,5,8,7)             82.298          -DE/DX =    0.0                 !
 ! D33   D(4,5,8,9)            171.1853         -DE/DX =    0.0                 !
 ! D34   D(4,5,8,19)           -63.8138         -DE/DX =    0.0                 !
 ! D35   D(5,6,7,17)            67.7826         -DE/DX =    0.0                 !
 ! D36   D(5,6,7,18)          -154.0937         -DE/DX =    0.0                 !
 ! D37   D(9,6,7,17)           154.8221         -DE/DX =    0.0                 !
 ! D38   D(9,6,7,18)           -67.0542         -DE/DX =    0.0                 !
 ! D39   D(16,6,7,17)          -79.0041         -DE/DX =    0.0                 !
 ! D40   D(16,6,7,18)           59.1197         -DE/DX =    0.0                 !
 ! D41   D(17,7,8,5)           -67.7823         -DE/DX =    0.0                 !
 ! D42   D(17,7,8,9)          -154.8221         -DE/DX =    0.0                 !
 ! D43   D(17,7,8,19)           79.004          -DE/DX =    0.0                 !
 ! D44   D(18,7,8,5)           154.094          -DE/DX =    0.0                 !
 ! D45   D(18,7,8,9)            67.0542         -DE/DX =    0.0                 !
 ! D46   D(18,7,8,19)          -59.1197         -DE/DX =    0.0                 !
 --------------------------------------------------------------------------------
 GradGradGradGradGradGradGradGradGradGradGradGradGradGradGradGradGradGrad

                          Input orientation:                          
 ---------------------------------------------------------------------
 Center     Atomic      Atomic             Coordinates (Angstroms)
 Number     Number       Type             X           Y           Z
 ---------------------------------------------------------------------
      1          6           0       -0.052929   -0.441510   -0.091954
      2          6           0        1.411640   -0.121173    0.096764
      3          6           0        2.027850   -0.565634    1.402870
      4          8           0        2.246289   -0.391985   -1.087390
      5          6           0        2.036627    0.931024   -0.685952
      6          6           0        1.582567    2.150244   -1.511575
      7          6           0        3.049680    2.329296   -1.980123
      8          6           0        3.056252    2.062529   -0.452767
      9          8           0        1.895000    2.976129   -0.319405
     10          1           0       -0.655743    0.063809    0.669981
     11          1           0       -0.399468   -0.124002   -1.077680
     12          1           0       -0.223972   -1.519263    0.003149
     13          1           0        1.909279   -1.646755    1.533146
     14          1           0        3.093839   -0.330479    1.433231
     15          1           0        1.536166   -0.068785    2.245878
     16          1           0        0.650673    2.351879   -2.038458
     17          1           0        3.475454    1.566487   -2.635926
     18          1           0        3.313482    3.349136   -2.262802
     19          1           0        3.864714    2.160577    0.270742
 ---------------------------------------------------------------------
                    Distance matrix (angstroms):
                    1          2          3          4          5
     1  C    0.000000
     2  C    1.511024   0.000000
     3  C    2.565063   1.511017   0.000000
     4  O    2.505943   1.473838   2.505846   0.000000
     5  C    2.569617   1.452712   2.569677   1.398379   0.000000
     6  C    3.377479   2.788424   4.008524   2.661464   1.540884
     7  C    4.568231   3.605750   4.568304   2.974522   2.157851
     8  C    4.008417   2.788420   3.377609   2.661471   1.540881
     9  O    3.940358   3.162295   3.940554   3.472376   2.082515
    10  H    1.095115   2.153339   2.852191   3.423140   3.136794
    11  H    1.092042   2.158573   3.498577   2.659311   2.683485
    12  H    1.095378   2.153752   2.817682   2.926127   3.404273
    13  H    2.818480   2.153657   1.095378   2.924932   3.403756
    14  H    3.498667   2.158645   1.092041   2.660011   2.683286
    15  H    2.851247   2.153356   1.095114   3.423362   3.137787
    16  H    3.476630   3.354732   4.717122   3.313504   2.401869
    17  H    4.790964   3.817737   4.790967   2.782880   2.505281
    18  H    5.514916   4.607341   5.515018   4.064047   3.156593
    19  H    4.717026   3.354732   3.476782   3.313518   2.401867
                    6          7          8          9         10
     6  C    0.000000
     7  C    1.550490   0.000000
     8  C    1.816732   1.550491   0.000000
     9  O    1.483567   2.123597   1.483562   0.000000
    10  H    3.757982   5.087794   4.362838   3.995846   0.000000
    11  H    3.047774   4.327782   4.136839   3.930697   1.776307
    12  H    4.361566   5.427852   4.878213   4.980224   1.771217
    13  H    4.877937   5.427021   4.360984   4.980282   3.201628
    14  H    4.136401   4.327510   3.047112   3.929708   3.846737
    15  H    4.364023   5.089264   3.759767   3.997617   2.702869
    16  H    1.089353   2.399823   2.895678   2.212054   3.778575
    17  H    2.277709   1.092354   2.277711   3.138661   5.500350
    18  H    2.235565   1.090675   2.235564   2.434752   5.928688
    19  H    2.895679   2.399821   1.089353   2.212052   4.999036
                   11         12         13         14         15
    11  H    0.000000
    12  H    1.773624   0.000000
    13  H    3.803354   2.628289   0.000000
    14  H    4.307030   3.803448   1.773626   0.000000
    15  H    3.846526   3.198720   1.771211   1.776295   0.000000
    16  H    2.855850   4.463060   5.507224   5.021627   4.999925
    17  H    4.505653   5.492934   5.491719   4.505790   5.501541
    18  H    5.220460   6.430351   6.429613   5.220006   5.930365
    19  H    5.022031   5.507285   4.462417   2.854994   3.780655
                   16         17         18         19
    16  H    0.000000
    17  H    2.992190   0.000000
    18  H    2.852264   1.828467   0.000000
    19  H    3.962205   2.992187   2.852257   0.000000
 Stoichiometry    C7H10O2
 Framework group  C1[X(C7H10O2)]
 Deg. of freedom    51
 Full point group                 C1      NOp   1
 Largest Abelian subgroup         C1      NOp   1
 Largest concise Abelian subgroup C1      NOp   1
                         Standard orientation:                         
 ---------------------------------------------------------------------
 Center     Atomic      Atomic             Coordinates (Angstroms)
 Number     Number       Type             X           Y           Z
 ---------------------------------------------------------------------
      1          6           0        2.027594    1.282638   -0.303737
      2          6           0        1.304049    0.000001    0.034668
      3          6           0        2.027771   -1.282425   -0.304128
      4          8           0        0.665117   -0.000336    1.362812
      5          6           0       -0.137120   -0.000063    0.217438
      6          6           0       -1.325651    0.908387   -0.151934
      7          6           0       -2.237430   -0.000214    0.712429
      8          6           0       -1.325628   -0.908346   -0.152404
      9          8           0       -1.562326    0.000312   -1.301001
     10          1           0        2.196966    1.352241   -1.383433
     11          1           0        1.451155    2.153470    0.015518
     12          1           0        3.003301    1.313804    0.193131
     13          1           0        3.002518   -1.314485    0.194565
     14          1           0        1.450526   -2.153559    0.012840
     15          1           0        2.199202   -1.350627   -1.383588
     16          1           0       -1.378005    1.981169   -0.333833
     17          1           0       -2.084159   -0.000491    1.793976
     18          1           0       -3.287386   -0.000153    0.417191
     19          1           0       -1.377961   -1.981036   -0.334851
 ---------------------------------------------------------------------
 Rotational constants (GHZ):      3.2155213      1.2875315      1.2548139
 1\1\GINC-ALCHEMY-AL\FOpt\RB3LYP\6-31G(2df,p)\C7H10O2\PUCK\27-Jan-2020\
 0\\# b3lyp 6-31G(2df,p) opt Freq\\titel\\0,1\C,-0.0529293385,-0.441509
 955,-0.0919543206\C,1.4116398812,-0.121172516,0.0967638891\C,2.0278498
 127,-0.565633583,1.402870104\O,2.246288524,-0.39198487,-1.0873900971\C
 ,2.0366273128,0.9310242934,-0.6859516394\C,1.5825668196,2.1502442835,-
 1.5115754657\C,3.0496804714,2.329296081,-1.980123293\C,3.0562520231,2.
 0625294651,-0.4527673661\O,1.8949997287,2.9761293523,-0.3194052922\H,-
 0.6557432254,0.0638087557,0.6699806731\H,-0.3994680631,-0.1240019023,-
 1.0776798425\H,-0.223971775,-1.5192631184,0.003148661\H,1.9092794436,-
 1.6467545368,1.5331456318\H,3.0938393821,-0.3304785911,1.4332312221\H,
 1.536166123,-0.0687848731,2.2458780275\H,0.6506725054,2.3518791058,-2.
 0384582633\H,3.4754540891,1.5664871596,-2.6359255023\H,3.3134824457,3.
 3491356413,-2.2628017098\H,3.8647142094,2.1605773878,0.2707421335\\Ver
 sion=ES64L-G09RevD.01\State=1-A\HF=-423.0956954\RMSD=4.237e-09\RMSF=1.
 481e-05\Dipole=-0.0909597,-0.1712393,0.1123644\Quadrupole=2.3360925,-3
 .7927739,1.4566814,2.1402463,0.6840256,-3.5169672\PG=C01 [X(C7H10O2)]\
 \@


 IF YOU'RE NOT PART OF THE SOLUTION,
 THEN YOU'RE PART OF THE PRECIPITATE.
 Job cpu time:       0 days  0 hours  6 minutes 17.2 seconds.
 File lengths (MBytes):  RWF=     52 Int=      0 D2E=      0 Chk=      7 Scr=      1
 Normal termination of Gaussian 09 at Mon Jan 27 16:11:40 2020.
 Link1:  Proceeding to internal job step number  2.
 ----------------------------------------------------------------------
 #N Geom=AllCheck Guess=TCheck SCRF=Check GenChk RB3LYP/6-31G(2df,p) Fr
 eq
 ----------------------------------------------------------------------
 1/10=4,29=7,30=1,38=1,40=1/1,3;
 2/12=2,40=1/2;
 3/5=1,6=6,7=104,11=2,14=-4,16=1,25=1,30=1,70=2,71=2,74=-5,116=1,140=1/1,2,3;
 4/5=101/1;
 5/5=2,98=1/2;
 8/6=4,10=90,11=11/1;
 11/6=1,8=1,9=11,15=111,16=1/1,2,10;
 10/6=1/2;
 6/7=2,8=2,9=2,10=2,18=1,28=1/1;
 7/8=1,10=1,25=1/1,2,3,16;
 1/10=4,30=1/3;
 99//99;
 Structure from the checkpoint file:  "/scratch/puck/g09_29d2dd1c-c92d-45f3-bfcf-2372bb7a3183/Gau-109489.chk"
 -----
 titel
 -----
 Charge =  0 Multiplicity = 1
 Redundant internal coordinates found in file.
 C,0,-0.0529293385,-0.441509955,-0.0919543206
 C,0,1.4116398812,-0.121172516,0.0967638891
 C,0,2.0278498127,-0.565633583,1.402870104
 O,0,2.246288524,-0.39198487,-1.0873900971
 C,0,2.0366273128,0.9310242934,-0.6859516394
 C,0,1.5825668196,2.1502442835,-1.5115754657
 C,0,3.0496804714,2.329296081,-1.980123293
 C,0,3.0562520231,2.0625294651,-0.4527673661
 O,0,1.8949997287,2.9761293523,-0.3194052922
 H,0,-0.6557432254,0.0638087557,0.6699806731
 H,0,-0.3994680631,-0.1240019023,-1.0776798425
 H,0,-0.223971775,-1.5192631184,0.003148661
 H,0,1.9092794436,-1.6467545368,1.5331456318
 H,0,3.0938393821,-0.3304785911,1.4332312221
 H,0,1.536166123,-0.0687848731,2.2458780275
 H,0,0.6506725054,2.3518791058,-2.0384582633
 H,0,3.4754540891,1.5664871596,-2.6359255023
 H,0,3.3134824457,3.3491356413,-2.2628017098
 H,0,3.8647142094,2.1605773878,0.2707421335
 Recover connectivity data from disk.

 GradGradGradGradGradGradGradGradGradGradGradGradGradGradGradGradGradGrad
 Berny optimization.
 Initialization pass.
                           ----------------------------
                           !    Initial Parameters    !
                           ! (Angstroms and Degrees)  !
 --------------------------                            --------------------------
 ! Name  Definition              Value          Derivative Info.                !
 --------------------------------------------------------------------------------
 ! R1    R(1,2)                  1.511          calculate D2E/DX2 analytically  !
 ! R2    R(1,10)                 1.0951         calculate D2E/DX2 analytically  !
 ! R3    R(1,11)                 1.092          calculate D2E/DX2 analytically  !
 ! R4    R(1,12)                 1.0954         calculate D2E/DX2 analytically  !
 ! R5    R(2,3)                  1.511          calculate D2E/DX2 analytically  !
 ! R6    R(2,4)                  1.4738         calculate D2E/DX2 analytically  !
 ! R7    R(2,5)                  1.4527         calculate D2E/DX2 analytically  !
 ! R8    R(3,13)                 1.0954         calculate D2E/DX2 analytically  !
 ! R9    R(3,14)                 1.092          calculate D2E/DX2 analytically  !
 ! R10   R(3,15)                 1.0951         calculate D2E/DX2 analytically  !
 ! R11   R(4,5)                  1.3984         calculate D2E/DX2 analytically  !
 ! R12   R(5,6)                  1.5409         calculate D2E/DX2 analytically  !
 ! R13   R(5,8)                  1.5409         calculate D2E/DX2 analytically  !
 ! R14   R(6,7)                  1.5505         calculate D2E/DX2 analytically  !
 ! R15   R(6,8)                  1.8167         calculate D2E/DX2 analytically  !
 ! R16   R(6,9)                  1.4836         calculate D2E/DX2 analytically  !
 ! R17   R(6,16)                 1.0894         calculate D2E/DX2 analytically  !
 ! R18   R(7,8)                  1.5505         calculate D2E/DX2 analytically  !
 ! R19   R(7,17)                 1.0924         calculate D2E/DX2 analytically  !
 ! R20   R(7,18)                 1.0907         calculate D2E/DX2 analytically  !
 ! R21   R(8,9)                  1.4836         calculate D2E/DX2 analytically  !
 ! R22   R(8,19)                 1.0894         calculate D2E/DX2 analytically  !
 ! A1    A(2,1,10)             110.4148         calculate D2E/DX2 analytically  !
 ! A2    A(2,1,11)             111.0186         calculate D2E/DX2 analytically  !
 ! A3    A(2,1,12)             110.4319         calculate D2E/DX2 analytically  !
 ! A4    A(10,1,11)            108.6137         calculate D2E/DX2 analytically  !
 ! A5    A(10,1,12)            107.9174         calculate D2E/DX2 analytically  !
 ! A6    A(11,1,12)            108.354          calculate D2E/DX2 analytically  !
 ! A7    A(1,2,3)              116.1595         calculate D2E/DX2 analytically  !
 ! A8    A(1,2,4)              114.1796         calculate D2E/DX2 analytically  !
 ! A9    A(1,2,5)              120.2155         calculate D2E/DX2 analytically  !
 ! A10   A(3,2,4)              114.1732         calculate D2E/DX2 analytically  !
 ! A11   A(3,2,5)              120.2206         calculate D2E/DX2 analytically  !
 ! A12   A(2,3,13)             110.4248         calculate D2E/DX2 analytically  !
 ! A13   A(2,3,14)             111.0249         calculate D2E/DX2 analytically  !
 ! A14   A(2,3,15)             110.4167         calculate D2E/DX2 analytically  !
 ! A15   A(13,3,14)            108.3542         calculate D2E/DX2 analytically  !
 ! A16   A(13,3,15)            107.9169         calculate D2E/DX2 analytically  !
 ! A17   A(14,3,15)            108.6128         calculate D2E/DX2 analytically  !
 ! A18   A(2,5,6)              137.3086         calculate D2E/DX2 analytically  !
 ! A19   A(2,5,8)              137.3086         calculate D2E/DX2 analytically  !
 ! A20   A(4,5,6)              129.7146         calculate D2E/DX2 analytically  !
 ! A21   A(4,5,8)              129.7155         calculate D2E/DX2 analytically  !
 ! A22   A(5,6,7)               88.5367         calculate D2E/DX2 analytically  !
 ! A23   A(5,6,9)               87.0107         calculate D2E/DX2 analytically  !
 ! A24   A(5,6,16)             131.1241         calculate D2E/DX2 analytically  !
 ! A25   A(7,6,9)               88.8127         calculate D2E/DX2 analytically  !
 ! A26   A(7,6,16)             129.9351         calculate D2E/DX2 analytically  !
 ! A27   A(9,6,16)             117.7608         calculate D2E/DX2 analytically  !
 ! A28   A(6,7,17)             118.0082         calculate D2E/DX2 analytically  !
 ! A29   A(6,7,18)             114.5298         calculate D2E/DX2 analytically  !
 ! A30   A(8,7,17)             118.0083         calculate D2E/DX2 analytically  !
 ! A31   A(8,7,18)             114.5296         calculate D2E/DX2 analytically  !
 ! A32   A(17,7,18)            113.7714         calculate D2E/DX2 analytically  !
 ! A33   A(5,8,7)               88.5367         calculate D2E/DX2 analytically  !
 ! A34   A(5,8,9)               87.011          calculate D2E/DX2 analytically  !
 ! A35   A(5,8,19)             131.1242         calculate D2E/DX2 analytically  !
 ! A36   A(7,8,9)               88.8128         calculate D2E/DX2 analytically  !
 ! A37   A(7,8,19)             129.9347         calculate D2E/DX2 analytically  !
 ! A38   A(9,8,19)             117.7609         calculate D2E/DX2 analytically  !
 ! A39   L(8,6,16,1,-1)        182.409          calculate D2E/DX2 analytically  !
 ! A40   L(6,8,19,2,-1)        183.1557         calculate D2E/DX2 analytically  !
 ! A41   L(8,6,16,1,-2)        170.2331         calculate D2E/DX2 analytically  !
 ! A42   L(6,8,19,2,-2)        190.1626         calculate D2E/DX2 analytically  !
 ! D1    D(10,1,2,3)            61.9954         calculate D2E/DX2 analytically  !
 ! D2    D(10,1,2,4)          -161.8972         calculate D2E/DX2 analytically  !
 ! D3    D(10,1,2,5)           -97.2308         calculate D2E/DX2 analytically  !
 ! D4    D(11,1,2,3)          -177.4831         calculate D2E/DX2 analytically  !
 ! D5    D(11,1,2,4)           -41.3757         calculate D2E/DX2 analytically  !
 ! D6    D(11,1,2,5)            23.2907         calculate D2E/DX2 analytically  !
 ! D7    D(12,1,2,3)           -57.2764         calculate D2E/DX2 analytically  !
 ! D8    D(12,1,2,4)            78.831          calculate D2E/DX2 analytically  !
 ! D9    D(12,1,2,5)           143.4973         calculate D2E/DX2 analytically  !
 ! D10   D(1,2,3,13)            57.4018         calculate D2E/DX2 analytically  !
 ! D11   D(1,2,3,14)           177.608          calculate D2E/DX2 analytically  !
 ! D12   D(1,2,3,15)           -61.8662         calculate D2E/DX2 analytically  !
 ! D13   D(4,2,3,13)           -78.7083         calculate D2E/DX2 analytically  !
 ! D14   D(4,2,3,14)            41.4979         calculate D2E/DX2 analytically  !
 ! D15   D(4,2,3,15)           162.0237         calculate D2E/DX2 analytically  !
 ! D16   D(5,2,3,13)          -143.3731         calculate D2E/DX2 analytically  !
 ! D17   D(5,2,3,14)           -23.1669         calculate D2E/DX2 analytically  !
 ! D18   D(5,2,3,15)            97.3589         calculate D2E/DX2 analytically  !
 ! D19   D(1,2,5,6)             18.7932         calculate D2E/DX2 analytically  !
 ! D20   D(1,2,5,8)            139.5762         calculate D2E/DX2 analytically  !
 ! D21   D(3,2,5,6)           -139.5886         calculate D2E/DX2 analytically  !
 ! D22   D(3,2,5,8)            -18.8056         calculate D2E/DX2 analytically  !
 ! D23   D(2,5,6,7)           -172.6908         calculate D2E/DX2 analytically  !
 ! D24   D(2,5,6,9)             98.422          calculate D2E/DX2 analytically  !
 ! D25   D(2,5,6,16)           -26.5783         calculate D2E/DX2 analytically  !
 ! D26   D(4,5,6,7)            -82.299          calculate D2E/DX2 analytically  !
 ! D27   D(4,5,6,9)           -171.1861         calculate D2E/DX2 analytically  !
 ! D28   D(4,5,6,16)            63.8135         calculate D2E/DX2 analytically  !
 ! D29   D(2,5,8,7)            172.6909         calculate D2E/DX2 analytically  !
 ! D30   D(2,5,8,9)            -98.4219         calculate D2E/DX2 analytically  !
 ! D31   D(2,5,8,19)            26.579          calculate D2E/DX2 analytically  !
 ! D32   D(4,5,8,7)             82.298          calculate D2E/DX2 analytically  !
 ! D33   D(4,5,8,9)            171.1853         calculate D2E/DX2 analytically  !
 ! D34   D(4,5,8,19)           -63.8138         calculate D2E/DX2 analytically  !
 ! D35   D(5,6,7,17)            67.7826         calculate D2E/DX2 analytically  !
 ! D36   D(5,6,7,18)          -154.0937         calculate D2E/DX2 analytically  !
 ! D37   D(9,6,7,17)           154.8221         calculate D2E/DX2 analytically  !
 ! D38   D(9,6,7,18)           -67.0542         calculate D2E/DX2 analytically  !
 ! D39   D(16,6,7,17)          -79.0041         calculate D2E/DX2 analytically  !
 ! D40   D(16,6,7,18)           59.1197         calculate D2E/DX2 analytically  !
 ! D41   D(17,7,8,5)           -67.7823         calculate D2E/DX2 analytically  !
 ! D42   D(17,7,8,9)          -154.8221         calculate D2E/DX2 analytically  !
 ! D43   D(17,7,8,19)           79.004          calculate D2E/DX2 analytically  !
 ! D44   D(18,7,8,5)           154.094          calculate D2E/DX2 analytically  !
 ! D45   D(18,7,8,9)            67.0542         calculate D2E/DX2 analytically  !
 ! D46   D(18,7,8,19)          -59.1197         calculate D2E/DX2 analytically  !
 --------------------------------------------------------------------------------
 Trust Radius=3.00D-01 FncErr=1.00D-07 GrdErr=1.00D-07
 Number of steps in this run=      2 maximum allowed number of steps=      2.
 GradGradGradGradGradGradGradGradGradGradGradGradGradGradGradGradGradGrad

                          Input orientation:                          
 ---------------------------------------------------------------------
 Center     Atomic      Atomic             Coordinates (Angstroms)
 Number     Number       Type             X           Y           Z
 ---------------------------------------------------------------------
      1          6           0       -0.052929   -0.441510   -0.091954
      2          6           0        1.411640   -0.121173    0.096764
      3          6           0        2.027850   -0.565634    1.402870
      4          8           0        2.246289   -0.391985   -1.087390
      5          6           0        2.036627    0.931024   -0.685952
      6          6           0        1.582567    2.150244   -1.511575
      7          6           0        3.049680    2.329296   -1.980123
      8          6           0        3.056252    2.062529   -0.452767
      9          8           0        1.895000    2.976129   -0.319405
[...]
 .00818778,0.00830052,0.03757687,-0.04227819,-0.05123877,-0.00682035,0.
 00986831,0.01095290,-0.05956397,0.28850431,0.00783575,0.00152628,-0.00
 489932,0.04865078,-0.01170063,-0.12389905,0.02126586,-0.01911525,-0.03
 208076,-0.07782893,0.09924393,0.20781528,-0.01019138,-0.03048478,0.007
 38227,-0.08865457,-0.08845894,0.04026544,0.00210300,0.01772945,0.00450
 830,-0.06418935,0.02502147,-0.00040306,0.36893989,-0.00135308,-0.00822
 179,-0.00230916,-0.11728277,-0.16158130,0.15435614,0.00149003,-0.01130
 366,0.00042253,0.04820047,-0.21847649,-0.07972974,0.11625737,0.6767049
 4,0.00703362,-0.00959295,-0.00312982,0.03787825,0.11423694,-0.09770979
 ,0.00591269,0.02562908,-0.01234428,0.00151693,-0.04746403,-0.07201357,
 -0.04096136,-0.13329411,0.37854488,0.00125765,0.00046465,0.00073880,0.
 00839083,-0.00881759,0.01072932,-0.00110724,-0.00272251,-0.00071896,-0
 .00309881,0.00778098,-0.00129245,-0.06572373,0.02007868,-0.01494582,0.
 63569454,-0.00003727,0.00042880,0.00008765,0.00354843,-0.00483695,-0.0
 0113700,0.00035497,0.00129105,0.00012514,-0.00038823,-0.01655227,0.001
 77030,0.03341816,-0.09117529,0.06351805,-0.06109438,0.31171775,-0.0004
 2584,-0.00098481,0.00122685,-0.00939679,0.00384348,-0.01131778,0.00003
 227,0.00298595,0.00106400,0.00799275,-0.01205864,0.01400244,-0.0157843
 2,0.05577528,-0.09324359,0.18652111,-0.06001431,0.40690151,0.00004487,
 -0.00047034,0.00002433,-0.00124317,-0.00080395,0.00015297,-0.00029111,
 0.00024136,-0.00012544,-0.00064843,0.00182594,-0.00067926,-0.01006123,
 -0.02132258,0.02628989,-0.14709735,-0.00865508,0.02738392,0.37676793,0
 .00102311,-0.00133492,0.00006108,-0.00261710,-0.00194216,0.00357310,-0
 .00047231,-0.00128734,-0.00102029,0.00323429,0.00330780,-0.00412450,-0
 .04612018,-0.03218997,0.06068789,-0.01665631,-0.06647775,0.01339179,0.
 00833348,0.64988804,-0.00017238,-0.00017603,-0.00026499,0.00000251,0.0
 0104721,-0.00100210,0.00013556,0.00030292,0.00002246,-0.00056258,-0.00
 216426,-0.00064133,0.02423585,0.02617477,-0.02146754,0.02737563,0.0057
 0389,-0.04734478,-0.15496454,0.02029508,0.48229975,0.00047223,-0.00186
 956,-0.00067673,-0.00898248,-0.00030687,-0.00390947,0.00137462,0.00073
 829,-0.00040017,0.01468798,0.00637883,0.00260921,-0.10982590,-0.057409
 54,-0.00856922,-0.10318203,0.00829997,-0.09120486,-0.04184997,-0.00893
 049,-0.00781310,0.55254605,-0.00010868,0.00126370,-0.00014268,-0.00069
 430,-0.00503061,-0.00405533,-0.00018351,0.00042014,0.00005560,-0.00355
 463,-0.01634244,0.00002431,-0.06905330,-0.08030967,-0.01236887,0.00551
 639,0.02277721,0.00528272,-0.00422684,-0.06757350,0.01548099,0.0448416
 7,0.29940334,-0.00102855,0.00372850,-0.00048970,0.01720749,0.00763713,
 0.00624408,0.00065000,-0.00084704,0.00111903,-0.00817616,-0.01134348,-
 0.00399350,-0.00759214,-0.00227023,-0.06000718,-0.09623414,0.00758140,
 -0.03995196,-0.00676792,0.02547779,-0.15149662,0.22308290,0.01036484,0
 .50236734,-0.00026538,0.00010998,-0.00000661,-0.00132461,0.00309041,-0
 .00211884,-0.00005726,0.00006189,-0.00006829,0.01062777,-0.00301646,0.
 00300892,-0.00775753,0.00819813,-0.00899374,-0.05847209,-0.01031510,-0
 .01324926,-0.03040782,0.04435371,0.04075753,-0.09998609,0.04195012,0.0
 1761333,0.19435697,-0.00044737,0.00053652,0.00099679,0.00322994,0.0017
 3887,-0.00410020,-0.00075172,0.00055652,0.00079266,-0.00605059,-0.0136
 1282,0.00621976,0.03112818,-0.10097847,-0.05047321,0.00686185,-0.08686
 893,-0.03818765,0.01493223,-0.00487163,-0.02087516,0.03488574,-0.09150
 194,-0.02166802,-0.08068325,0.28050099,-0.00004027,-0.00005008,0.00004
 686,-0.00210701,-0.00390581,-0.00042066,-0.00014866,-0.00006953,-0.000
 18180,0.00275755,0.00199652,0.00929652,-0.00709408,-0.01855705,-0.0063
 7045,0.00083167,-0.04067241,-0.10718914,0.03831965,-0.06182502,-0.0622
 2186,0.00437063,-0.00510956,-0.06104559,-0.03386526,0.12104986,0.23198
 753,-0.12485164,0.06648163,0.09784468,-0.01408586,0.01593016,0.0232521
 2,0.00115722,0.00002306,-0.00001868,-0.00771419,-0.00292522,0.00000184
 ,0.00074826,0.00200735,0.00149453,-0.00025650,0.00004245,-0.00007479,0
 .00001009,0.00004591,0.00005755,0.00022634,0.00006491,-0.00000534,0.00
 022665,-0.00062771,-0.00032970,0.13607217,0.06695176,-0.10248335,-0.08
 598847,-0.00348462,0.00282108,0.00592936,0.00019055,-0.00007774,-0.000
 22483,-0.00366902,-0.00003481,0.00079595,0.00112200,0.00110610,0.00063
 696,-0.00003902,0.00000868,0.00006347,0.00000734,0.00004894,0.00003237
 ,-0.00000207,0.00010639,-0.00013320,0.00010235,-0.00016035,-0.00012433
 ,-0.07256184,0.10816378,0.09876768,-0.08557842,-0.17461033,-0.00149587
 ,0.00310835,0.00149645,0.00015837,-0.00001947,-0.00040217,-0.00094261,
 0.00038259,0.00228681,0.00056912,-0.00047478,-0.00032206,0.00019506,-0
 .00013421,-0.00000636,-0.00002528,0.00004947,-0.00003583,-0.00003645,-
 0.00010754,-0.00009309,-0.00015916,0.00023104,0.00016139,-0.11000105,0
 .09458977,0.18740307,-0.07149457,0.02303502,-0.07232754,-0.01132598,0.
 00988020,-0.03110643,-0.00618154,-0.00195741,0.00117605,0.00303544,0.0
 0115940,0.00110669,0.00078589,-0.00000671,-0.00240888,-0.00024338,-0.0
 0061819,0.00037941,-0.00001902,-0.00010699,0.00010723,0.00014518,0.000
 16664,0.00008456,0.00032703,0.00022857,0.00024009,0.00595508,-0.006596
 08,0.01601152,0.07845930,0.02396397,-0.07029963,0.07351665,-0.00185767
 ,0.00080718,-0.00798658,-0.00132109,0.00007341,0.00006775,0.00050012,-
 0.00052974,-0.00014689,-0.00055580,0.00109775,-0.00063524,-0.00021026,
 -0.00031812,-0.00025967,-0.00005062,0.00012687,0.00010040,0.00009352,0
 .00003335,0.00002935,0.00020537,-0.00015280,0.00007395,-0.00582215,0.0
 0433872,-0.01421373,-0.02447248,0.07233566,-0.07692430,0.07225308,-0.2
 6735769,0.00054627,0.00067304,-0.00519836,-0.00083319,-0.00063421,0.00
 110596,0.00021815,-0.00015200,0.00173593,0.00023613,0.00055719,-0.0001
 6693,-0.00029720,-0.00008067,0.00007950,0.00002737,-0.00009501,0.00013
 292,0.00008044,0.00008909,0.00008209,0.00025558,-0.00001363,0.00009086
 ,-0.00710349,0.00715490,-0.01817008,0.08334892,-0.07977001,0.28861123,
 -0.05116230,-0.03576731,0.00214579,-0.00854316,-0.03685882,0.00447693,
 0.00141053,-0.00040842,0.00117978,0.00297190,0.00302256,0.00051708,-0.
 00451625,-0.00147528,-0.00482352,-0.00028134,0.00035076,-0.00032542,-0
 .00019413,-0.00072686,0.00007384,-0.00042068,0.00057930,0.00161739,0.0
 0017916,0.00007631,-0.00007735,0.00254850,0.01784278,-0.00268847,0.000
 78447,0.00994731,0.00003805,0.05716606,-0.03655185,-0.30032949,0.02297
 740,-0.00252115,-0.00788059,0.00153841,0.00039525,0.00035465,0.0001629
 5,-0.00096961,0.00138749,0.00125866,0.00043459,0.00097181,-0.00236005,
 0.00008675,0.00028981,-0.00022201,-0.00009351,-0.00025671,-0.00003748,
 -0.00001033,0.00030403,0.00040151,-0.00015984,-0.00003626,-0.00001069,
 -0.00204456,-0.01406530,0.00201995,-0.00082602,-0.00815500,-0.00016432
 ,0.04267278,0.32677690,0.00161425,0.02302879,-0.04909039,0.00045051,-0
 .00441723,-0.00066793,0.00030267,-0.00077909,0.00014604,-0.00047248,0.
 00018503,0.00076746,-0.00018227,0.00118542,-0.00038545,-0.00029361,-0.
 00023996,0.00004483,0.00000129,-0.00007721,0.00011741,0.00026296,-0.00
 000851,0.00022011,0.00016403,-0.00003055,0.00007191,-0.00408007,-0.022
 87299,0.00202345,0.00465784,0.02914402,-0.00147604,-0.00222394,-0.0251
 2959,0.04799658,0.00076234,0.00080950,0.00055278,0.00114012,0.01526164
 ,-0.00130235,-0.05123192,-0.02983879,0.00210731,0.00084756,-0.00110655
 ,0.00022523,-0.00217275,-0.00035586,-0.00102339,0.00067482,-0.00019879
 ,-0.00011755,0.00013547,0.00027748,-0.00007794,-0.00014724,0.00016984,
 -0.00033194,0.00011289,-0.00001773,0.00019789,-0.00002405,0.00006318,-
 0.00005476,0.00012103,-0.00024991,0.00013517,-0.00019843,-0.00031577,-
 0.00031716,0.05079589,-0.00039171,0.00032848,-0.00038858,-0.00159534,-
 0.01108752,0.00295603,-0.02957644,-0.30121298,0.02739723,-0.00089769,0
 .00164190,0.00123398,0.00265147,0.00076152,-0.00089626,-0.00047338,0.0
 0037441,0.00022009,0.00003304,-0.00032549,0.00007652,0.00023920,0.0002
 9130,-0.00010647,0.00005252,-0.00004259,0.00012273,-0.00002842,-0.0000
 1690,-0.00000641,-0.00000911,0.00035601,0.00001921,0.00068077,0.000419
 09,0.00017206,0.03165279,0.32823942,0.00139842,-0.00000030,0.00081159,
 0.00410514,0.03323890,-0.00716422,0.00260277,0.02663039,-0.04812284,0.
 00090296,-0.00296231,0.00265825,-0.00526844,0.00240207,-0.00252059,0.0
 0116452,-0.00057322,-0.00094702,0.00002664,0.00065734,-0.00014353,-0.0
 0037886,-0.00035881,-0.00009018,-0.00005696,-0.00008921,0.00014516,-0.
 00003630,-0.00015523,0.00002439,0.00027398,-0.00025949,0.00004228,-0.0
 0058398,-0.00052548,0.00008295,-0.00091783,-0.03274630,0.05289664,0.00
 059947,0.00134102,-0.00288066,-0.01455586,-0.00266920,0.00155466,-0.30
 294021,-0.05767531,-0.00645114,0.00222409,-0.00045887,0.00040276,-0.00
 069253,-0.00043205,0.00074249,0.00012228,-0.00014874,0.00006912,0.0001
 6194,0.00012255,-0.00001838,0.00011606,0.00026062,-0.00037933,0.000245
 60,-0.00010473,0.00025771,0.00035549,-0.00000762,0.00014140,-0.0007775
 0,-0.00028163,-0.00020063,0.00019940,-0.00000983,0.00012990,-0.0022119
 0,-0.00005303,0.00022743,0.32891139,0.00036538,-0.00025016,0.00181873,
 0.01109051,0.00081509,-0.00076120,-0.05943285,-0.05994933,-0.00001671,
 -0.00030296,-0.00038435,-0.00072069,0.00102342,0.00103674,0.00025173,-
 0.00006784,0.00006150,-0.00008655,-0.00008420,0.00011548,0.00009129,0.
 00025996,-0.00039907,0.00013649,-0.00017941,-0.00010984,-0.00020728,-0
 .00035817,-0.00002388,0.00005921,0.00052675,0.00064672,0.00025129,0.00
 032224,0.00032197,0.00016170,-0.03148201,-0.00577696,-0.00051321,0.063
 39237,0.06125209,-0.00089657,0.00202921,-0.00534885,-0.02990835,-0.006
 70288,-0.00196528,-0.00192770,0.00011102,-0.04626414,0.00125523,-0.001
 41017,0.00238901,-0.00182949,0.00031075,0.00137566,0.00007263,-0.00013
 785,0.00007697,0.00004901,0.00007600,-0.00003550,0.00033171,0.00052958
 ,-0.00019725,0.00023413,-0.00025555,0.00012929,-0.00000473,0.00018002,
 0.00017816,-0.00182764,-0.00023087,-0.00010018,0.00027662,0.00001351,-
 0.00000144,0.00309892,0.00007256,-0.00086005,0.00705526,-0.00162073,0.
 04924052,-0.00018960,-0.00001155,0.00059150,0.00548948,-0.00772585,-0.
 00838594,-0.10134717,0.05495134,0.09010015,0.00107020,0.00068264,-0.00
 352742,0.00031946,-0.00016222,0.00060199,-0.00005612,0.00009050,0.0000
 6595,-0.00002825,-0.00005471,-0.00001765,0.00000899,0.00010794,0.00011
 810,0.00002571,-0.00002868,-0.00010229,-0.00036868,0.00004519,-0.00045
 153,0.00022829,0.00002553,0.00018711,0.00000281,0.00001569,-0.00006608
 ,0.00109086,-0.00221647,-0.00383274,-0.01216538,0.01524298,0.02386767,
 0.10596506,0.00013530,-0.00006404,-0.00035442,-0.00559578,0.00426968,0
 .00714912,0.05523366,-0.10079496,-0.09257606,0.00047577,-0.00052744,0.
 00434804,-0.00097937,0.00135684,-0.00083309,0.00013432,0.00009801,-0.0
 0005138,-0.00003081,0.00005684,0.00000774,-0.00003770,0.00000417,0.000
 06451,0.00008301,-0.00019392,-0.00016059,-0.00002194,0.00030471,0.0000
 4159,-0.00019108,-0.00003680,0.00003091,0.00012777,-0.00002533,-0.0001
 0690,0.01503444,-0.01382943,-0.02501194,-0.00338636,0.00296385,0.00690
 459,-0.06097758,0.10646412,0.00044163,-0.00012323,0.00094119,0.0149669
 4,-0.01400434,-0.01952037,0.08923262,-0.09193092,-0.19981761,-0.002650
 40,0.00345247,-0.00600203,0.00138928,-0.00209663,-0.00016017,0.0000949
 4,-0.00010857,0.00019796,0.00006378,-0.00002975,-0.00000563,-0.0001717
 1,-0.00005515,-0.00026657,-0.00020340,0.00065523,0.00039566,-0.0010059
 8,0.00012544,0.00012647,0.00005397,0.00033548,0.00031910,-0.00003377,0
 .00002501,0.00000280,-0.00217513,0.00176038,0.00324774,-0.00086879,0.0
 0120002,0.00132444,-0.09917563,0.10058790,0.21921903,-0.00020283,0.000
 15348,-0.00025947,0.00018420,0.00034107,0.00008304,0.00000716,-0.00003
 796,0.00000514,0.00029408,0.00059251,-0.00002326,0.00000432,-0.0027727
 3,0.00197263,-0.25528587,0.04478546,-0.11215695,-0.00385360,0.00600313
 ,-0.01116530,-0.00692422,0.00042908,-0.00315096,0.00159912,-0.00055978
 ,0.00090338,0.00003352,0.00000435,0.00001270,0.00011410,-0.00002950,0.
 00021395,0.00012222,-0.00000430,0.00005201,0.00000182,0.00001892,0.000
 00030,0.00004616,-0.00003929,0.00003637,-0.00000483,-0.00000592,-0.000
 01518,0.26346667,0.00025938,-0.00006373,0.00043684,0.00068668,0.000824
 82,-0.00036494,-0.00020014,-0.00020833,-0.00017942,-0.00023937,-0.0027
 4294,-0.00091709,0.01430951,0.01135507,0.00277655,0.05108316,-0.065603
 03,0.03008437,-0.00336050,0.00047575,-0.00090238,0.00371329,-0.0043758
 6,0.00214507,-0.01668590,0.00447361,-0.00752165,-0.00010466,-0.0000211
 5,0.00000042,-0.00031373,-0.00034497,-0.00012427,-0.00020252,0.0000067
 6,-0.00021655,0.00002554,-0.00009342,0.00012490,-0.00004799,0.00003419
 ,-0.00007558,-0.00000216,-0.00000515,0.00007902,-0.04884889,0.05242732
 ,-0.00018608,-0.00000989,-0.00029774,-0.00066700,-0.00060048,0.0005254
 5,0.00013089,0.00007844,-0.00000062,-0.00016883,0.00217180,-0.00001532
 ,-0.00487275,-0.00435828,-0.00137869,-0.10624783,0.02492393,-0.1121116
 9,0.00660323,-0.00343893,0.00966597,-0.00118486,-0.00055100,-0.0055027
 1,-0.01627113,0.00647591,-0.00773886,0.00009406,0.00003890,-0.00006573
 ,0.00015104,0.00023635,0.00023211,0.00015346,-0.00003186,0.00012246,-0
 .00000331,0.00005632,-0.00004423,0.00005894,-0.00003268,0.00005909,-0.
 00001378,-0.00000259,-0.00004748,0.12517722,-0.02523563,0.11418483,0.0
 0000180,-0.00002818,-0.00004086,-0.00011166,0.00039745,0.00002415,0.00
 008937,-0.00008852,-0.00010783,0.00050207,-0.00136432,-0.00080788,-0.0
 0111871,0.00202371,0.00000430,-0.00051464,0.01753399,0.01113775,-0.088
 87802,0.06932726,0.06037098,-0.00172637,-0.00510024,-0.00327357,0.0009
 5542,0.00142056,0.01081885,0.00003746,0.00001497,-0.00001819,-0.000000
 60,0.00002029,0.00003667,0.00000133,-0.00001230,0.00001874,-0.00000001
 ,-0.00000418,0.00000509,-0.00000203,0.00001481,0.00000804,-0.00000674,
 0.00002705,-0.00006919,-0.00058823,-0.00047022,-0.00000752,0.08795658,
 -0.00003695,0.00002042,-0.00001554,-0.00023150,0.00004339,0.00033557,0
 .00002475,0.00002018,0.00003665,-0.00017290,0.00032595,0.00026735,0.00
 029499,0.00033345,-0.00028062,-0.00059330,0.00109179,0.00306070,0.0717
 9415,-0.18744599,-0.11134324,-0.00305359,0.00258976,0.00209894,-0.0010
 9040,0.00375689,0.00111286,0.00000513,-0.00001065,0.00000603,0.0000067
 7,-0.00001083,0.00000382,0.00002432,0.00002330,0.00000816,-0.00001473,
 0.00002513,-0.00001914,-0.00000844,-0.00000967,-0.00000550,-0.00000737
 ,-0.00001048,-0.00000180,0.00013126,0.00003032,-0.00019903,-0.07831352
 ,0.19365781,-0.00007423,0.00010328,0.00014342,-0.00002793,-0.00053981,
 -0.00012377,-0.00006599,0.00006309,0.00005641,-0.00070919,0.00192564,0
 .00114944,-0.00013880,-0.00268657,-0.00126519,-0.00330526,-0.00006270,
 -0.00378123,0.06057525,-0.10790984,-0.14288045,0.00983720,-0.01715897,
 -0.00406760,0.01061086,-0.00238211,-0.00632201,-0.00008584,-0.00002969
 ,0.00002175,0.00000697,-0.00002356,-0.00001753,0.00000690,0.00001014,-
 0.00000704,0.00001907,0.00001525,-0.00000762,0.00003485,-0.00002927,-0
 .00001728,-0.00000519,-0.00002762,0.00006562,-0.00009133,0.00002675,0.
 00022456,-0.07228750,0.12167316,0.15137359,0.00020341,0.00015656,-0.00
 004248,0.00140649,0.00000582,0.00133184,-0.00014526,-0.00059062,-0.000
 17458,0.00054254,-0.00010835,-0.00086230,-0.00579914,-0.00204098,0.003
 07457,-0.00366694,-0.02765158,0.01051273,-0.05970070,-0.05768722,0.018
 41788,0.00129635,0.00889789,-0.00208955,0.00043335,0.00065214,-0.00385
 093,-0.00001294,0.00000758,0.00001312,-0.00000950,0.00005912,-0.000014
 15,-0.00001461,-0.00002294,-0.00002708,0.00009682,-0.00009090,0.000225
 29,0.00003725,-0.00001932,0.00002442,-0.00001083,0.00001974,0.00000812
 ,0.00037595,0.00040573,-0.00034496,0.00326919,0.01109090,-0.00410240,0
 .06155823,0.00004978,-0.00015250,0.00007866,0.00005937,0.00087403,-0.0
 0020592,-0.00009411,-0.00009821,-0.00003200,0.00006259,0.00087676,-0.0
 0000858,-0.00148725,-0.00253047,0.00214777,0.00147672,-0.00230498,-0.0
 0018538,-0.06032461,-0.29073543,0.06344068,-0.00120078,-0.00433873,-0.
 00114654,0.00062723,0.00401963,-0.00034343,-0.00003586,-0.00000256,0.0
 0001936,0.00001397,0.00001035,-0.00001659,-0.00007743,-0.00002802,-0.0
 0001673,0.00003399,-0.00003096,0.00005306,0.00001118,0.00001508,-0.000
 01895,-0.00000700,-0.00000503,0.00004052,-0.00034547,0.00013252,0.0001
 3405,-0.00553312,-0.01442140,0.00653441,0.06677210,0.30859150,-0.00023
 783,0.00057910,-0.00003079,0.00133634,-0.00013092,0.00049194,0.0000536
 1,0.00001013,0.00026438,-0.00084813,0.00022925,0.00112896,0.00312016,0
 .00291848,-0.00756967,-0.00104566,-0.00029922,-0.00205346,0.01819944,0
 .05976965,-0.06341280,0.01104526,0.02545332,-0.00498335,-0.00385301,-0
 .00037804,0.00295905,0.00000422,-0.00002312,-0.00001756,0.00004276,-0.
 00000312,0.00003352,0.00026358,0.00007952,0.00003365,-0.00005973,0.000
 05474,-0.00007497,-0.00003392,-0.00005328,-0.00001781,0.00001139,-0.00
 001455,-0.00001711,0.00001051,-0.00029589,0.00021417,-0.00547964,-0.01
 660333,0.00591275,-0.02222935,-0.07081739,0.06668521,0.00005283,-0.000
 09004,0.00012498,0.00036477,0.00054046,-0.00073955,-0.00046272,-0.0000
 0218,-0.00012139,-0.00016009,-0.00244330,-0.00019957,-0.00219774,0.006
 35805,-0.00479595,-0.00715406,0.00068268,-0.00135925,0.00715251,0.0006
 5127,0.00325733,-0.19782882,-0.02006287,-0.13134417,-0.01081888,-0.004
 14397,-0.01108187,-0.00005693,0.00000822,0.00000438,0.00009631,0.00003
 585,0.00004916,-0.00005548,-0.00006306,0.00000847,0.00020667,0.0000079
 7,0.00014257,0.00032630,-0.00027237,0.00008447,-0.00002327,-0.00004452
 ,0.00011790,0.00061028,-0.00000721,-0.00240081,0.00013382,0.00015041,-
 0.00019744,0.00014033,-0.00000130,-0.00030000,0.20967417,0.00021281,-0
 .00022981,0.00011210,0.00016427,0.00084338,-0.00068354,-0.00045385,-0.
 00001204,-0.00009525,0.00073600,-0.00261882,-0.00022520,-0.00625098,0.
 01204288,-0.01168656,-0.00280891,-0.00400169,-0.00265746,0.00225549,0.
 00042116,0.00274469,-0.02662954,-0.05732157,-0.02215054,0.01329563,0.0
 0294651,0.01420151,-0.00007005,-0.00000172,0.00002675,0.00008048,0.000
 02185,0.00001816,-0.00013026,-0.00007911,0.00001013,0.00025173,-0.0000
 2102,0.00010798,0.00015607,-0.00035947,0.00023085,0.00003177,-0.000025
 63,0.00008890,0.00018459,0.00369821,0.00034466,0.00013449,-0.00000939,
 0.00049842,0.00014431,0.00012842,-0.00047534,0.01869593,0.04457785,0.0
 0001062,0.00004995,-0.00002463,0.00000816,-0.00048955,0.00032636,-0.00
 022306,-0.00013071,-0.00009194,0.00014056,-0.00004699,0.00031479,0.002
 42016,0.00167390,0.00013442,-0.00334276,-0.00025027,-0.00564706,-0.015
 15434,-0.00551863,-0.00128556,-0.13727488,-0.01736404,-0.17784738,0.00
 620128,0.00203208,0.00620614,-0.00000305,0.00000469,0.00000127,0.00002
 946,0.00002522,0.00002128,0.00000704,-0.00000560,-0.00000136,0.0000447
 0,-0.00001309,0.00006625,0.00015834,0.00007112,0.00003466,0.00003438,0
 .00000474,-0.00000305,-0.00160478,0.00015949,0.00197442,-0.00033239,-0
 .00013505,-0.00045782,0.00012982,0.00034299,0.00045389,0.14875074,0.01
 958973,0.17582532\\0.00000280,0.00000508,-0.00000316,-0.00000962,0.000
 00196,0.00001326,0.00000542,0.00000194,-0.00000691,0.00000202,0.000030
 57,0.00000022,-0.00000370,-0.00005869,0.00000006,0.00004075,0.00001089
 ,0.00002583,-0.00001769,0.00000544,0.00002514,-0.00003793,0.00001615,-
 0.00002924,0.00001250,-0.00001757,-0.00001795,-0.00000123,0.00000227,-
 0.00000061,0.00000197,-0.00000076,0.00000148,-0.00000326,0.00000185,0.
 00000508,-0.00000071,0.00000112,0.00000135,-0.00000300,0.00000282,0.00
 000183,-0.00000129,-0.00000147,0.00000157,-0.00001368,0.00000270,-0.00
 001067,0.00000387,-0.00000356,-0.00000577,0.00000795,-0.00000159,-0.00
 001111,0.00001484,0.00000087,0.00000961\\\@


 WE LEARN WISDOM FROM FAILURE MUCH MORE THAN FROM SUCCESS.
 WE DISCOVER WHAT WILL DO BY FINDING OUT WHAT WILL NOT DO...
 AND HE WHO NEVER MADE A MISTAKE NEVER MADE A DISCOVERY
 Job cpu time:       0 days  0 hours 39 minutes 26.1 seconds.
 File lengths (MBytes):  RWF=    152 Int=      0 D2E=      0 Chk=      8 Scr=      1
 Normal termination of Gaussian 09 at Mon Jan 27 16:51:04 2020.
