 Entering Gaussian System, Link 0=/home/puck/opt/gaussian_09/g09
 Input=dsC7O2H10nsd_1022.com
 Output=dsC7O2H10nsd_1022.log
 Initial command:
 /home/puck/opt/gaussian_09/l1.exe "/scratch/puck/g09_d3b9c172-9940-4e86-be8a-9726e127e24a/Gau-4350.inp" -scrdir="/scratch/puck/g09_d3b9c172-9940-4e86-be8a-9726e127e24a/"
 Entering Link 1 = /home/puck/opt/gaussian_09/l1.exe PID=      4357.
  
 Copyright (c) 1988,1990,1992,1993,1995,1998,2003,2009,2013,
            Gaussian, Inc.  All Rights Reserved.
  
 This is part of the Gaussian(R) 09 program.  It is based on
 the Gaussian(R) 03 system (copyright 2003, Gaussian, Inc.),
 the Gaussian(R) 98 system (copyright 1998, Gaussian, Inc.),
 the Gaussian(R) 94 system (copyright 1995, Gaussian, Inc.),
 the Gaussian 92(TM) system (copyright 1992, Gaussian, Inc.),
 the Gaussian 90(TM) system (copyright 1990, Gaussian, Inc.),
 the Gaussian 88(TM) system (copyright 1988, Gaussian, Inc.),
 the Gaussian 86(TM) system (copyright 1986, Carnegie Mellon
 University), and the Gaussian 82(TM) system (copyright 1983,
 Carnegie Mellon University). Gaussian is a federally registered
 trademark of Gaussian, Inc.
  
 This software contains proprietary and confidential information,
 including trade secrets, belonging to Gaussian, Inc.
  
 This software is provided under written license and may be
 used, copied, transmitted, or stored only in accord with that
 written license.
  
 The following legend is applicable only to US Government
 contracts under FAR:
  
                    RESTRICTED RIGHTS LEGEND
  
 Use, reproduction and disclosure by the US Government is
 subject to restrictions as set forth in subparagraphs (a)
 and (c) of the Commercial Computer Software - Restricted
 Rights clause in FAR 52.227-19.
  
 Gaussian, Inc.
 340 Quinnipiac St., Bldg. 40, Wallingford CT 06492
  
  
 ---------------------------------------------------------------
 Warning -- This program may not be used in any manner that
 competes with the business of Gaussian, Inc. or will provide
 assistance to any competitor of Gaussian, Inc.  The licensee
 of this program is prohibited from giving any competitor of
 Gaussian, Inc. access to this program.  By using this program,
 the user acknowledges that Gaussian, Inc. is engaged in the
 business of creating and licensing software in the field of
 computational chemistry and represents and warrants to the
 licensee that it is not a competitor of Gaussian, Inc. and that
 it will not use this program in any manner prohibited above.
 ---------------------------------------------------------------
  

 Cite this work as:
 Gaussian 09, Revision D.01,
 M. J. Frisch, G. W. Trucks, H. B. Schlegel, G. E. Scuseria, 
 M. A. Robb, J. R. Cheeseman, G. Scalmani, V. Barone, B. Mennucci, 
 G. A. Petersson, H. Nakatsuji, M. Caricato, X. Li, H. P. Hratchian, 
 A. F. Izmaylov, J. Bloino, G. Zheng, J. L. Sonnenberg, M. Hada, 
 M. Ehara, K. Toyota, R. Fukuda, J. Hasegawa, M. Ishida, T. Nakajima, 
 Y. Honda, O. Kitao, H. Nakai, T. Vreven, J. A. Montgomery, Jr., 
 J. E. Peralta, F. Ogliaro, M. Bearpark, J. J. Heyd, E. Brothers, 
 K. N. Kudin, V. N. Staroverov, T. Keith, R. Kobayashi, J. Normand, 
 K. Raghavachari, A. Rendell, J. C. Burant, S. S. Iyengar, J. Tomasi, 
 M. Cossi, N. Rega, J. M. Millam, M. Klene, J. E. Knox, J. B. Cross, 
 V. Bakken, C. Adamo, J. Jaramillo, R. Gomperts, R. E. Stratmann, 
 O. Yazyev, A. J. Austin, R. Cammi, C. Pomelli, J. W. Ochterski, 
 R. L. Martin, K. Morokuma, V. G. Zakrzewski, G. A. Voth, 
 P. Salvador, J. J. Dannenberg, S. Dapprich, A. D. Daniels, 
 O. Farkas, J. B. Foresman, J. V. Ortiz, J. Cioslowski, 
 and D. J. Fox, Gaussian, Inc., Wallingford CT, 2013.
 
 ******************************************
 Gaussian 09:  ES64L-G09RevD.01 24-Apr-2013
                27-Jan-2020 
 ******************************************
 -----------------------------
 # b3lyp 6-31G(2df,p) opt Freq
 -----------------------------
 1/14=-1,18=20,19=15,26=3,38=1/1,3;
 2/9=110,12=2,17=6,18=5,40=1/2;
 3/5=1,6=6,7=104,11=2,16=1,25=1,30=1,71=1,74=-5/1,2,3;
 4//1;
 5/5=2,38=5/2;
 6/7=2,8=2,9=2,10=2,28=1/1;
 7//1,2,3,16;
 1/14=-1,18=20,19=15,26=3/3(2);
 2/9=110/2;
 99//99;
 2/9=110/2;
 3/5=1,6=6,7=104,11=2,16=1,25=1,30=1,71=1,74=-5/1,2,3;
 4/5=5,16=3,69=1/1;
 5/5=2,38=5/2;
 7//1,2,3,16;
 1/14=-1,18=20,19=15,26=3/3(-5);
 2/9=110/2;
 6/7=2,8=2,9=2,10=2,19=2,28=1/1;
 99/9=1/99;
 -----
 titel
 -----
 Symbolic Z-matrix:
 Charge =  0 Multiplicity = 1
 C                     1.5804    0.21386  -0.18914 
 C                     0.13322   0.0989   -0.08029 
 C                    -1.06574   0.01276   0.00183 
 C                    -2.50135  -0.11855   0.12502 
 C                    -3.17904  -1.50065  -0.0923 
 O                    -3.67541  -1.67181  -1.3962 
 C                    -4.17215  -1.16067   1.05369 
 C                    -3.17088  -0.07054   1.5272 
 O                    -3.65899   1.20463   1.86117 
 H                     2.03689   0.44203   0.78067 
 H                     2.0286   -0.71746  -0.55345 
 H                     1.86603   1.01144  -0.8841 
 H                    -3.02808   0.60339  -0.50983 
 H                    -2.49688  -2.3128    0.19042 
 H                    -4.0314   -2.56269  -1.47242 
 H                    -5.068    -0.68841   0.64118 
 H                    -4.45204  -1.95146   1.75342 
 H                    -2.48628  -0.45499   2.29426 
 H                    -4.01006   1.17181   2.75664 
 

 GradGradGradGradGradGradGradGradGradGradGradGradGradGradGradGradGradGrad
 Berny optimization.
 Initialization pass.
                           ----------------------------
                           !    Initial Parameters    !
                           ! (Angstroms and Degrees)  !
 --------------------------                            --------------------------
 ! Name  Definition              Value          Derivative Info.                !
 --------------------------------------------------------------------------------
 ! R1    R(1,2)                  1.4558         estimate D2E/DX2                !
 ! R2    R(1,10)                 1.0959         estimate D2E/DX2                !
 ! R3    R(1,11)                 1.0959         estimate D2E/DX2                !
 ! R4    R(1,12)                 1.0958         estimate D2E/DX2                !
 ! R5    R(2,3)                  1.2048         estimate D2E/DX2                !
 ! R6    R(3,4)                  1.4469         estimate D2E/DX2                !
 ! R7    R(4,5)                  1.5546         estimate D2E/DX2                !
 ! R8    R(4,8)                  1.5546         estimate D2E/DX2                !
 ! R9    R(4,13)                 1.0962         estimate D2E/DX2                !
 ! R10   R(5,6)                  1.4056         estimate D2E/DX2                !
 ! R11   R(5,7)                  1.5541         estimate D2E/DX2                !
 ! R12   R(5,14)                 1.0977         estimate D2E/DX2                !
 ! R13   R(6,15)                 0.9624         estimate D2E/DX2                !
 ! R14   R(7,8)                  1.5541         estimate D2E/DX2                !
 ! R15   R(7,16)                 1.0935         estimate D2E/DX2                !
 ! R16   R(7,17)                 1.0924         estimate D2E/DX2                !
 ! R17   R(8,9)                  1.4056         estimate D2E/DX2                !
 ! R18   R(8,18)                 1.0977         estimate D2E/DX2                !
 ! R19   R(9,19)                 0.9624         estimate D2E/DX2                !
 ! A1    A(2,1,10)             111.3681         estimate D2E/DX2                !
 ! A2    A(2,1,11)             111.3648         estimate D2E/DX2                !
 ! A3    A(2,1,12)             111.3476         estimate D2E/DX2                !
 ! A4    A(10,1,11)            107.5035         estimate D2E/DX2                !
 ! A5    A(10,1,12)            107.5256         estimate D2E/DX2                !
 ! A6    A(11,1,12)            107.525          estimate D2E/DX2                !
 ! A7    A(3,4,5)              120.088          estimate D2E/DX2                !
 ! A8    A(3,4,8)              120.088          estimate D2E/DX2                !
 ! A9    A(3,4,13)             111.5734         estimate D2E/DX2                !
 ! A10   A(5,4,8)               88.0396         estimate D2E/DX2                !
 ! A11   A(5,4,13)             107.1625         estimate D2E/DX2                !
 ! A12   A(8,4,13)             107.1624         estimate D2E/DX2                !
 ! A13   A(4,5,6)              113.0711         estimate D2E/DX2                !
 ! A14   A(4,5,7)               88.9113         estimate D2E/DX2                !
 ! A15   A(4,5,14)             110.5412         estimate D2E/DX2                !
 ! A16   A(6,5,7)              119.0134         estimate D2E/DX2                !
 ! A17   A(6,5,14)             111.6093         estimate D2E/DX2                !
 ! A18   A(7,5,14)             111.6587         estimate D2E/DX2                !
 ! A19   A(5,6,15)             108.4698         estimate D2E/DX2                !
 ! A20   A(5,7,8)               88.0753         estimate D2E/DX2                !
 ! A21   A(5,7,16)             109.8667         estimate D2E/DX2                !
 ! A22   A(5,7,17)             118.5359         estimate D2E/DX2                !
 ! A23   A(8,7,16)             109.8667         estimate D2E/DX2                !
 ! A24   A(8,7,17)             118.5359         estimate D2E/DX2                !
 ! A25   A(16,7,17)            110.1435         estimate D2E/DX2                !
 ! A26   A(4,8,7)               88.9113         estimate D2E/DX2                !
 ! A27   A(4,8,9)              113.071          estimate D2E/DX2                !
 ! A28   A(4,8,18)             110.5414         estimate D2E/DX2                !
 ! A29   A(7,8,9)              119.0133         estimate D2E/DX2                !
 ! A30   A(7,8,18)             111.6587         estimate D2E/DX2                !
 ! A31   A(9,8,18)             111.6092         estimate D2E/DX2                !
 ! A32   A(8,9,19)             108.4698         estimate D2E/DX2                !
 ! A33   L(1,2,3,14,-1)        180.4427         estimate D2E/DX2                !
 ! A34   L(2,3,4,14,-1)        178.8593         estimate D2E/DX2                !
 ! A35   L(1,2,3,14,-2)        180.5929         estimate D2E/DX2                !
 ! A36   L(2,3,4,14,-2)        178.8278         estimate D2E/DX2                !
 ! D1    D(10,1,4,5)          -112.5706         estimate D2E/DX2                !
 ! D2    D(10,1,4,8)            -6.4068         estimate D2E/DX2                !
 ! D3    D(10,1,4,13)          120.5115         estimate D2E/DX2                !
 ! D4    D(11,1,4,5)             7.3176         estimate D2E/DX2                !
 ! D5    D(11,1,4,8)           113.4814         estimate D2E/DX2                !
 ! D6    D(11,1,4,13)         -119.6003         estimate D2E/DX2                !
 ! D7    D(12,1,4,5)           127.3724         estimate D2E/DX2                !
 ! D8    D(12,1,4,8)          -126.4638         estimate D2E/DX2                !
 ! D9    D(12,1,4,13)            0.4545         estimate D2E/DX2                !
 ! D10   D(3,4,5,6)            -96.2016         estimate D2E/DX2                !
 ! D11   D(3,4,5,7)            142.5212         estimate D2E/DX2                !
 ! D12   D(3,4,5,14)            29.7478         estimate D2E/DX2                !
 ! D13   D(8,4,5,6)            139.749          estimate D2E/DX2                !
 ! D14   D(8,4,5,7)             18.4718         estimate D2E/DX2                !
 ! D15   D(8,4,5,14)           -94.3016         estimate D2E/DX2                !
 ! D16   D(13,4,5,6)            32.3849         estimate D2E/DX2                !
 ! D17   D(13,4,5,7)           -88.8923         estimate D2E/DX2                !
 ! D18   D(13,4,5,14)          158.3343         estimate D2E/DX2                !
 ! D19   D(3,4,8,7)           -142.5212         estimate D2E/DX2                !
 ! D20   D(3,4,8,9)             96.2017         estimate D2E/DX2                !
 ! D21   D(3,4,8,18)           -29.7478         estimate D2E/DX2                !
 ! D22   D(5,4,8,7)            -18.4718         estimate D2E/DX2                !
 ! D23   D(5,4,8,9)           -139.7489         estimate D2E/DX2                !
 ! D24   D(5,4,8,18)            94.3016         estimate D2E/DX2                !
 ! D25   D(13,4,8,7)            88.8924         estimate D2E/DX2                !
 ! D26   D(13,4,8,9)           -32.3847         estimate D2E/DX2                !
 ! D27   D(13,4,8,18)         -158.3342         estimate D2E/DX2                !
 ! D28   D(4,5,6,15)           176.6798         estimate D2E/DX2                !
 ! D29   D(7,5,6,15)           -81.0444         estimate D2E/DX2                !
 ! D30   D(14,5,6,15)           51.304          estimate D2E/DX2                !
 ! D31   D(4,5,7,8)            -18.4776         estimate D2E/DX2                !
 ! D32   D(4,5,7,16)            91.973          estimate D2E/DX2                !
 ! D33   D(4,5,7,17)          -140.1998         estimate D2E/DX2                !
 ! D34   D(6,5,7,8)           -134.4316         estimate D2E/DX2                !
 ! D35   D(6,5,7,16)           -23.9811         estimate D2E/DX2                !
 ! D36   D(6,5,7,17)           103.8462         estimate D2E/DX2                !
 ! D37   D(14,5,7,8)            93.2415         estimate D2E/DX2                !
 ! D38   D(14,5,7,16)         -156.3079         estimate D2E/DX2                !
 ! D39   D(14,5,7,17)          -28.4806         estimate D2E/DX2                !
 ! D40   D(5,7,8,4)             18.4776         estimate D2E/DX2                !
 ! D41   D(5,7,8,9)            134.4315         estimate D2E/DX2                !
 ! D42   D(5,7,8,18)           -93.2418         estimate D2E/DX2                !
 ! D43   D(16,7,8,4)           -91.973          estimate D2E/DX2                !
 ! D44   D(16,7,8,9)            23.9809         estimate D2E/DX2                !
 ! D45   D(16,7,8,18)          156.3076         estimate D2E/DX2                !
 ! D46   D(17,7,8,4)           140.1998         estimate D2E/DX2                !
 ! D47   D(17,7,8,9)          -103.8463         estimate D2E/DX2                !
 ! D48   D(17,7,8,18)           28.4804         estimate D2E/DX2                !
 ! D49   D(4,8,9,19)          -176.6788         estimate D2E/DX2                !
 ! D50   D(7,8,9,19)            81.0455         estimate D2E/DX2                !
 ! D51   D(18,8,9,19)          -51.3028         estimate D2E/DX2                !
 --------------------------------------------------------------------------------
 Trust Radius=3.00D-01 FncErr=1.00D-07 GrdErr=1.00D-06
 Number of steps in this run=    114 maximum allowed number of steps=    114.
 GradGradGradGradGradGradGradGradGradGradGradGradGradGradGradGradGradGrad

                          Input orientation:                          
 ---------------------------------------------------------------------
 Center     Atomic      Atomic             Coordinates (Angstroms)
 Number     Number       Type             X           Y           Z
 ---------------------------------------------------------------------
      1          6           0        1.580397    0.213865   -0.189135
      2          6           0        0.133215    0.098904   -0.080290
      3          6           0       -1.065740    0.012756    0.001830
      4          6           0       -2.501347   -0.118547    0.125018
      5          6           0       -3.179042   -1.500646   -0.092296
      6          8           0       -3.675412   -1.671814   -1.396200
      7          6           0       -4.172150   -1.160666    1.053691
      8          6           0       -3.170876   -0.070539    1.527202
      9          8           0       -3.658989    1.204630    1.861172
     10          1           0        2.036892    0.442030    0.780675
     11          1           0        2.028599   -0.717462   -0.553450
     12          1           0        1.866034    1.011444   -0.884098
     13          1           0       -3.028078    0.603389   -0.509834
     14          1           0       -2.496883   -2.312797    0.190417
     15          1           0       -4.031396   -2.562692   -1.472415
     16          1           0       -5.068005   -0.688410    0.641180
     17          1           0       -4.452037   -1.951459    1.753417
     18          1           0       -2.486278   -0.454985    2.294263
     19          1           0       -4.010061    1.171807    2.756643
 ---------------------------------------------------------------------
                    Distance matrix (angstroms):
                    1          2          3          4          5
     1  C    0.000000
     2  C    1.455815   0.000000
     3  C    2.660630   1.204848   0.000000
     4  C    4.107289   2.651482   1.446853   0.000000
     5  C    5.059762   3.678282   2.601018   1.554572   0.000000
     6  O    5.712821   4.401443   3.406267   2.470864   1.405648
     7  C    6.043654   4.626943   3.483262   2.177161   1.554071
     8  C    5.059773   3.678283   2.601018   1.554572   2.160566
     9  O    5.712840   4.401445   3.406267   2.470862   3.371187
    10  H    1.095892   2.117305   3.227569   4.619496   5.634007
    11  H    1.095892   2.117266   3.227459   4.619462   5.286357
    12  H    1.095762   2.116954   3.221420   4.622685   5.691251
    13  H    4.636014   3.229983   2.112207   1.096209   2.150370
    14  H    4.811683   3.578687   2.737140   2.195229   1.097659
    15  H    6.391268   5.134793   4.195409   3.296466   1.938860
    16  H    6.760531   5.309715   4.113214   2.679347   2.183093
    17  H    6.697194   5.347057   4.288731   3.133120   2.287008
    18  H    4.811702   3.578693   2.737144   2.195231   2.696107
    19  H    6.391282   5.134788   4.195404   3.296465   3.993626
                    6          7          8          9         10
     6  O    0.000000
     7  C    2.551468   0.000000
     8  C    3.371189   1.554071   0.000000
     9  O    4.345649   2.551467   1.405648   0.000000
    10  H    6.468194   6.418363   5.285914   5.847400   0.000000
    11  H    5.844378   6.420952   5.637568   6.470973   1.767591
    12  H    6.178167   6.703190   5.688192   6.172496   1.767736
    13  H    2.526110   2.620191   2.150368   2.526105   5.229280
    14  H    2.077773   2.208884   2.696105   4.063767   5.337846
    15  H    0.962391   2.892525   3.993623   5.044225   7.136449
    16  H    2.656561   1.093502   2.183093   2.656559   7.195618
    17  H    3.255984   1.092386   2.287008   3.255985   6.984356
    18  H    4.063770   2.208884   1.097659   2.077773   4.853314
    19  H    5.044232   2.892533   1.938861   0.962391   6.403332
                   11         12         13         14         15
    11  H    0.000000
    12  H    1.767730   0.000000
    13  H    5.226522   4.925334   0.000000
    14  H    4.855762   5.589294   3.045761   0.000000
    15  H    6.401009   6.921001   3.457930   2.276443   0.000000
    16  H    7.196511   7.300471   2.674860   3.074490   3.009116
    17  H    6.988779   7.460115   3.698271   2.529064   3.310066
    18  H    5.344388   5.585250   3.045761   2.806732   4.584505
    19  H    7.140831   6.914420   3.457927   4.584505   5.641974
                   16         17         18         19
    16  H    0.000000
    17  H    1.792144   0.000000
    18  H    3.074489   2.529063   0.000000
    19  H    3.009125   3.310075   2.276436   0.000000
 Stoichiometry    C7H10O2
 Framework group  C1[X(C7H10O2)]
 Deg. of freedom    51
 Full point group                 C1      NOp   1
 Largest Abelian subgroup         C1      NOp   1
 Largest concise Abelian subgroup C1      NOp   1
                         Standard orientation:                         
 ---------------------------------------------------------------------
 Center     Atomic      Atomic             Coordinates (Angstroms)
 Number     Number       Type             X           Y           Z
 ---------------------------------------------------------------------
      1          6           0       -3.898327   -0.000005    0.168883
      2          6           0       -2.455668   -0.000019   -0.026390
      3          6           0       -1.263387   -0.000013   -0.199959
      4          6           0        0.173280   -0.000004   -0.371338
      5          6           0        1.042068    1.080285    0.332136
      6          8           0        1.342685    2.172829   -0.499624
      7          6           0        2.131284    0.000010    0.580633
      8          6           0        1.042083   -1.080281    0.332138
      9          8           0        1.342714   -2.172820   -0.499622
     10          1           0       -4.224628   -0.879699    0.735137
     11          1           0       -4.226438    0.887837    0.721205
     12          1           0       -4.430496   -0.008093   -0.788941
     13          1           0        0.452761   -0.000005   -1.431321
     14          1           0        0.570671    1.403365    1.269291
     15          1           0        1.834594    2.820991    0.014292
     16          1           0        2.849593    0.000014   -0.243855
     17          1           0        2.657436    0.000014    1.537958
     18          1           0        0.570693   -1.403367    1.269294
     19          1           0        1.834619   -2.820983    0.014296
 ---------------------------------------------------------------------
 Rotational constants (GHZ):      2.2247836      0.9761772      0.7305297
 Standard basis: 6-31G(2df,p) (6D, 7F)
 There are   329 symmetry adapted cartesian basis functions of A   symmetry.
 There are   302 symmetry adapted basis functions of A   symmetry.
   302 basis functions,   466 primitive gaussians,   329 cartesian basis functions
    34 alpha electrons       34 beta electrons
       nuclear repulsion energy       426.8030174025 Hartrees.
 NAtoms=   19 NActive=   19 NUniq=   19 SFac= 1.00D+00 NAtFMM=   60 NAOKFM=F Big=F
 Integral buffers will be    131072 words long.
 Raffenetti 2 integral format.
 Two-electron integral symmetry is turned on.
 One-electron integrals computed using PRISM.
 NBasis=   302 RedAO= T EigKep=  5.89D-05  NBF=   302
 NBsUse=   302 1.00D-06 EigRej= -1.00D+00 NBFU=   302
 ExpMin= 1.61D-01 ExpMax= 5.48D+03 ExpMxC= 8.25D+02 IAcc=1 IRadAn=         1 AccDes= 0.00D+00
 Harris functional with IExCor=  402 and IRadAn=       1 diagonalized for initial guess.
 HarFok:  IExCor=  402 AccDes= 0.00D+00 IRadAn=         1 IDoV= 1 UseB2=F ITyADJ=14
 ICtDFT=  3500011 ScaDFX=  1.000000  1.000000  1.000000  1.000000
 FoFCou: FMM=F IPFlag=           0 FMFlag=      100000 FMFlg1=           0
         NFxFlg=           0 DoJE=T BraDBF=F KetDBF=T FulRan=T
         wScrn=  0.000000 ICntrl=     500 IOpCl=  0 I1Cent=   200000004 NGrid=           0
         NMat0=    1 NMatS0=      1 NMatT0=    0 NMatD0=    1 NMtDS0=    0 NMtDT0=    0
 Petite list used in FoFCou.
 Requested convergence on RMS density matrix=1.00D-08 within 128 cycles.
 Requested convergence on MAX density matrix=1.00D-06.
 Requested convergence on             energy=1.00D-06.
 No special actions if energy rises.
 Integral accuracy reduced to 1.0D-05 until final iterations.
 Initial convergence to 1.0D-05 achieved.  Increase integral accuracy.
 SCF Done:  E(RB3LYP) =  -423.141866889     A.U. after   14 cycles
            NFock= 14  Conv=0.35D-08     -V/T= 2.0074

 **********************************************************************

            Population analysis using the SCF density.

 **********************************************************************

 Orbital symmetries:
       Occupied  (A) (A) (A) (A) (A) (A) (A) (A) (A) (A) (A) (A)
                 (A) (A) (A) (A) (A) (A) (A) (A) (A) (A) (A) (A)
                 (A) (A) (A) (A) (A) (A) (A) (A) (A) (A)
       Virtual   (A) (A) (A) (A) (A) (A) (A) (A) (A) (A) (A) (A)
                 (A) (A) (A) (A) (A) (A) (A) (A) (A) (A) (A) (A)
                 (A) (A) (A) (A) (A) (A) (A) (A) (A) (A) (A) (A)
                 (A) (A) (A) (A) (A) (A) (A) (A) (A) (A) (A) (A)
                 (A) (A) (A) (A) (A) (A) (A) (A) (A) (A) (A) (A)
                 (A) (A) (A) (A) (A) (A) (A) (A) (A) (A) (A) (A)
                 (A) (A) (A) (A) (A) (A) (A) (A) (A) (A) (A) (A)
                 (A) (A) (A) (A) (A) (A) (A) (A) (A) (A) (A) (A)
                 (A) (A) (A) (A) (A) (A) (A) (A) (A) (A) (A) (A)
                 (A) (A) (A) (A) (A) (A) (A) (A) (A) (A) (A) (A)
                 (A) (A) (A) (A) (A) (A) (A) (A) (A) (A) (A) (A)
                 (A) (A) (A) (A) (A) (A) (A) (A) (A) (A) (A) (A)
                 (A) (A) (A) (A) (A) (A) (A) (A) (A) (A) (A) (A)
                 (A) (A) (A) (A) (A) (A) (A) (A) (A) (A) (A) (A)
                 (A) (A) (A) (A) (A) (A) (A) (A) (A) (A) (A) (A)
                 (A) (A) (A) (A) (A) (A) (A) (A) (A) (A) (A) (A)
                 (A) (A) (A) (A) (A) (A) (A) (A) (A) (A) (A) (A)
                 (A) (A) (A) (A) (A) (A) (A) (A) (A) (A) (A) (A)
                 (A) (A) (A) (A) (A) (A) (A) (A) (A) (A) (A) (A)
                 (A) (A) (A) (A) (A) (A) (A) (A) (A) (A) (A) (A)
                 (A) (A) (A) (A) (A) (A) (A) (A) (A) (A) (A) (A)
                 (A) (A) (A) (A) (A) (A) (A) (A) (A) (A) (A) (A)
                 (A) (A) (A) (A)
 The electronic state is 1-A.
 Alpha  occ. eigenvalues --  -19.13757 -19.13757 -10.23523 -10.23523 -10.19728
 Alpha  occ. eigenvalues --  -10.19699 -10.17598 -10.16469 -10.15881  -1.02404
 Alpha  occ. eigenvalues --   -1.01873  -0.83935  -0.76600  -0.71115  -0.65250
 Alpha  occ. eigenvalues --   -0.64162  -0.56461  -0.54000  -0.50423  -0.49776
 Alpha  occ. eigenvalues --   -0.44966  -0.42270  -0.42023  -0.41610  -0.40472
 Alpha  occ. eigenvalues --   -0.40180  -0.37143  -0.36152  -0.32345  -0.32052
 Alpha  occ. eigenvalues --   -0.28372  -0.25261  -0.23696  -0.23638
 Alpha virt. eigenvalues --    0.05663   0.06674   0.07262   0.08386   0.11432
 Alpha virt. eigenvalues --    0.11623   0.12458   0.15545   0.17320   0.17914
 Alpha virt. eigenvalues --    0.18156   0.18726   0.20522   0.21708   0.22718
 Alpha virt. eigenvalues --    0.23820   0.24537   0.29651   0.31234   0.33916
 Alpha virt. eigenvalues --    0.37283   0.41552   0.45103   0.46052   0.49166
 Alpha virt. eigenvalues --    0.49388   0.50610   0.51588   0.52522   0.54438
 Alpha virt. eigenvalues --    0.57005   0.57319   0.59692   0.61281   0.63947
 Alpha virt. eigenvalues --    0.65898   0.66835   0.67562   0.70075   0.70326
 Alpha virt. eigenvalues --    0.71291   0.71365   0.73258   0.74429   0.76291
 Alpha virt. eigenvalues --    0.77352   0.77958   0.79140   0.79548   0.79814
 Alpha virt. eigenvalues --    0.81311   0.82874   0.83406   0.84169   0.88690
 Alpha virt. eigenvalues --    0.88831   0.90190   0.90201   0.92289   0.95026
 Alpha virt. eigenvalues --    0.95493   0.97331   0.99918   1.00436   1.01596
 Alpha virt. eigenvalues --    1.06508   1.09893   1.10585   1.12159   1.14496
 Alpha virt. eigenvalues --    1.14864   1.22621   1.22958   1.23322   1.25762
 Alpha virt. eigenvalues --    1.27654   1.29961   1.32938   1.37610   1.39478
 Alpha virt. eigenvalues --    1.42366   1.43981   1.47474   1.49465   1.50374
 Alpha virt. eigenvalues --    1.50689   1.53082   1.54823   1.56443   1.58638
 Alpha virt. eigenvalues --    1.61143   1.61382   1.67878   1.69029   1.71962
 Alpha virt. eigenvalues --    1.72347   1.74490   1.77165   1.79425   1.80129
 Alpha virt. eigenvalues --    1.81193   1.83969   1.85856   1.91539   1.92217
 Alpha virt. eigenvalues --    1.94397   2.01173   2.02276   2.05672   2.11654
 Alpha virt. eigenvalues --    2.15835   2.20695   2.27573   2.29800   2.32882
 Alpha virt. eigenvalues --    2.35914   2.37652   2.37925   2.38927   2.43594
 Alpha virt. eigenvalues --    2.49197   2.55558   2.56503   2.59154   2.60519
 Alpha virt. eigenvalues --    2.62363   2.63927   2.64849   2.66047   2.68090
 Alpha virt. eigenvalues --    2.68637   2.70511   2.72126   2.76373   2.78582
 Alpha virt. eigenvalues --    2.80809   2.80819   2.85298   2.88856   2.89670
 Alpha virt. eigenvalues --    2.93231   2.93722   2.94853   2.95899   2.99720
 Alpha virt. eigenvalues --    3.00235   3.02947   3.02989   3.03352   3.06483
 Alpha virt. eigenvalues --    3.07238   3.11135   3.12220   3.15699   3.15940
 Alpha virt. eigenvalues --    3.19655   3.21274   3.21382   3.28566   3.32051
 Alpha virt. eigenvalues --    3.33321   3.35757   3.44399   3.45460   3.48105
 Alpha virt. eigenvalues --    3.51282   3.51753   3.54489   3.57095   3.59667
 Alpha virt. eigenvalues --    3.60742   3.65203   3.66198   3.67003   3.69601
 Alpha virt. eigenvalues --    3.71859   3.73750   3.76570   3.84240   3.86445
 Alpha virt. eigenvalues --    3.89612   3.91529   3.92165   3.98192   4.04956
 Alpha virt. eigenvalues --    4.11629   4.12475   4.13911   4.15086   4.17501
 Alpha virt. eigenvalues --    4.23356   4.24347   4.25868   4.28668   4.29619
 Alpha virt. eigenvalues --    4.31659   4.35284   4.35608   4.38979   4.40761
 Alpha virt. eigenvalues --    4.43360   4.45859   4.49252   4.49303   4.53086
 Alpha virt. eigenvalues --    4.53569   4.57593   4.58522   4.59981   4.66169
 Alpha virt. eigenvalues --    4.67285   4.67840   4.71633   4.72491   4.73284
 Alpha virt. eigenvalues --    4.74510   4.75655   4.79636   4.80196   4.82476
 Alpha virt. eigenvalues --    4.82731   4.88971   4.89185   4.90252   4.93157
 Alpha virt. eigenvalues --    4.94600   4.99967   5.06117   5.07646   5.10816
 Alpha virt. eigenvalues --    5.17915   5.22033   5.25539   5.26853   5.31638
 Alpha virt. eigenvalues --    5.39939   5.40129   5.43754   5.45385   5.48452
 Alpha virt. eigenvalues --    5.52077   5.53428   5.57025   5.60212   5.62788
 Alpha virt. eigenvalues --    5.63012   5.75102   5.94909   5.97313   5.98453
 Alpha virt. eigenvalues --    6.03343   6.04414   6.12044   6.13136   6.23130
 Alpha virt. eigenvalues --    6.58262   7.15617   7.32892   8.09988   9.86009
 Alpha virt. eigenvalues --   10.82012  11.29095  11.86792  11.99083  12.33972
 Alpha virt. eigenvalues --   13.07294  13.31713  13.69326
          Condensed to atoms (all electrons):
               1          2          3          4          5          6
     1  C    4.988303   0.435933  -0.039469  -0.001037   0.000053   0.000000
     2  C    0.435933   4.669537   0.900158  -0.025979  -0.001524  -0.000190
     3  C   -0.039469   0.900158   4.731342   0.462871  -0.021946   0.000291
     4  C   -0.001037  -0.025979   0.462871   4.982182   0.325360  -0.019681
     5  C    0.000053  -0.001524  -0.021946   0.325360   4.710385   0.386415
     6  O    0.000000  -0.000190   0.000291  -0.019681   0.386415   7.827956
     7  C   -0.000004  -0.001346  -0.008437  -0.097990   0.285433  -0.041070
     8  C    0.000053  -0.001524  -0.021945   0.325361  -0.079187   0.001557
     9  O    0.000000  -0.000190   0.000291  -0.019681   0.001557   0.000002
    10  H    0.371631  -0.023113  -0.001401   0.000054  -0.000004   0.000000
    11  H    0.371623  -0.023090  -0.001406   0.000053   0.000017   0.000000
    12  H    0.371495  -0.021620  -0.002018  -0.000091  -0.000004   0.000000
    13  H   -0.000046  -0.001754  -0.031495   0.326679  -0.024558   0.000725
    14  H    0.000005   0.002848  -0.001536  -0.049012   0.360019  -0.039441
    15  H    0.000000  -0.000009  -0.000060   0.007348  -0.059490   0.309936
    16  H    0.000000   0.000050   0.000907  -0.012986   0.005359  -0.000342
    17  H    0.000000  -0.000005  -0.000101   0.010668  -0.016322   0.001935
    18  H    0.000005   0.002847  -0.001538  -0.049009   0.007223  -0.000205
    19  H    0.000000  -0.000009  -0.000060   0.007348  -0.000793   0.000001
               7          8          9         10         11         12
     1  C   -0.000004   0.000053   0.000000   0.371631   0.371623   0.371495
     2  C   -0.001346  -0.001524  -0.000190  -0.023113  -0.023090  -0.021620
     3  C   -0.008437  -0.021945   0.000291  -0.001401  -0.001406  -0.002018
     4  C   -0.097990   0.325361  -0.019681   0.000054   0.000053  -0.000091
     5  C    0.285433  -0.079187   0.001557  -0.000004   0.000017  -0.000004
     6  O   -0.041070   0.001557   0.000002   0.000000   0.000000   0.000000
     7  C    5.412070   0.285430  -0.041070   0.000000   0.000000   0.000000
     8  C    0.285430   4.710383   0.386416   0.000017  -0.000004  -0.000004
     9  O   -0.041070   0.386416   7.827954   0.000000   0.000000   0.000000
    10  H    0.000000   0.000017   0.000000   0.572743  -0.032432  -0.032303
    11  H    0.000000  -0.000004   0.000000  -0.032432   0.572676  -0.032293
    12  H    0.000000  -0.000004   0.000000  -0.032303  -0.032293   0.569151
    13  H   -0.003746  -0.024559   0.000725  -0.000003  -0.000003   0.000025
    14  H   -0.060865   0.007224  -0.000205   0.000000  -0.000008   0.000001
    15  H    0.000585  -0.000793   0.000001   0.000000   0.000000   0.000000
    16  H    0.305155   0.005359  -0.000342   0.000000   0.000000   0.000000
    17  H    0.349257  -0.016323   0.001935   0.000000   0.000000   0.000000
    18  H   -0.060866   0.360021  -0.039442  -0.000008   0.000000   0.000001
    19  H    0.000585  -0.059490   0.309936   0.000000   0.000000   0.000000
              13         14         15         16         17         18
     1  C   -0.000046   0.000005   0.000000   0.000000   0.000000   0.000005
     2  C   -0.001754   0.002848  -0.000009   0.000050  -0.000005   0.002847
     3  C   -0.031495  -0.001536  -0.000060   0.000907  -0.000101  -0.001538
     4  C    0.326679  -0.049012   0.007348  -0.012986   0.010668  -0.049009
     5  C   -0.024558   0.360019  -0.059490   0.005359  -0.016322   0.007223
     6  O    0.000725  -0.039441   0.309936  -0.000342   0.001935  -0.000205
     7  C   -0.003746  -0.060865   0.000585   0.305155   0.349257  -0.060866
     8  C   -0.024559   0.007224  -0.000793   0.005359  -0.016323   0.360021
     9  O    0.000725  -0.000205   0.000001  -0.000342   0.001935  -0.039442
    10  H   -0.000003   0.000000   0.000000   0.000000   0.000000  -0.000008
    11  H   -0.000003  -0.000008   0.000000   0.000000   0.000000   0.000000
    12  H    0.000025   0.000001   0.000000   0.000000   0.000000   0.000001
    13  H    0.622250   0.006649  -0.000181   0.003687  -0.000514   0.006649
    14  H    0.006649   0.706121  -0.007565   0.005818  -0.006449   0.001391
    15  H   -0.000181  -0.007565   0.465488   0.000303   0.000317   0.000035
    16  H    0.003687   0.005818   0.000303   0.605581  -0.039518   0.005818
    17  H   -0.000514  -0.006449   0.000317  -0.039518   0.629858  -0.006449
    18  H    0.006649   0.001391   0.000035   0.005818  -0.006449   0.706123
    19  H   -0.000181   0.000035  -0.000001   0.000303   0.000317  -0.007566
              19
     1  C    0.000000
     2  C   -0.000009
     3  C   -0.000060
     4  C    0.007348
     5  C   -0.000793
     6  O    0.000001
     7  C    0.000585
     8  C   -0.059490
     9  O    0.309936
    10  H    0.000000
    11  H    0.000000
    12  H    0.000000
    13  H   -0.000181
    14  H    0.000035
    15  H   -0.000001
    16  H    0.000303
    17  H    0.000317
    18  H   -0.007566
    19  H    0.465488
 Mulliken charges:
               1
     1  C   -0.498545
     2  C    0.088982
     3  C    0.035553
     4  C   -0.172458
     5  C    0.122006
     6  O   -0.427888
     7  C   -0.323119
     8  C    0.122007
     9  O   -0.427888
    10  H    0.144818
    11  H    0.144868
    12  H    0.147660
    13  H    0.119654
    14  H    0.074970
    15  H    0.284086
    16  H    0.114845
    17  H    0.091393
    18  H    0.074969
    19  H    0.284086
 Sum of Mulliken charges =   0.00000
 Mulliken charges with hydrogens summed into heavy atoms:
               1
     1  C   -0.061200
     2  C    0.088982
     3  C    0.035553
     4  C   -0.052804
     5  C    0.196977
     6  O   -0.143802
     7  C   -0.116881
     8  C    0.196976
     9  O   -0.143801
 Electronic spatial extent (au):  <R**2>=           1584.6155
 Charge=              0.0000 electrons
 Dipole moment (field-independent basis, Debye):
    X=              0.8042    Y=              0.0001    Z=              2.6321  Tot=              2.7522
 Quadrupole moment (field-independent basis, Debye-Ang):
   XX=            -43.3407   YY=            -49.0836   ZZ=            -53.8553
   XY=             -0.0003   XZ=              2.8016   YZ=              0.0001
 Traceless Quadrupole moment (field-independent basis, Debye-Ang):
   XX=              5.4192   YY=             -0.3237   ZZ=             -5.0954
   XY=             -0.0003   XZ=              2.8016   YZ=              0.0001
 Octapole moment (field-independent basis, Debye-Ang**2):
  XXX=             -9.9173  YYY=              0.0145  ZZZ=             -2.9168  XYY=             24.2689
  XXY=              0.0009  XXZ=              5.3873  XZZ=              3.2707  YZZ=             -0.0139
  YYZ=             14.6347  XYZ=             -0.0026
 Hexadecapole moment (field-independent basis, Debye-Ang**3):
 XXXX=          -1249.5027 YYYY=           -395.4543 ZZZZ=           -130.0428 XXXY=             -0.0015
 XXXZ=             -3.5985 YYYX=             -0.0644 YYYZ=              0.0037 ZZZX=             -2.3577
 ZZZY=             -0.0098 XXYY=           -264.5835 XXZZ=           -253.5881 YYZZ=           -111.8386
 XXYZ=              0.0187 YYXZ=             14.4901 ZZXY=              0.0606
 N-N= 4.268030174025D+02 E-N=-1.841061094732D+03  KE= 4.200484930683D+02
 Calling FoFJK, ICntrl=      2127 FMM=F ISym2X=0 I1Cent= 0 IOpClX= 0 NMat=1 NMatS=1 NMatT=0.
 ***** Axes restored to original set *****
 -------------------------------------------------------------------
 Center     Atomic                   Forces (Hartrees/Bohr)
 Number     Number              X              Y              Z
 -------------------------------------------------------------------
      1        6          -0.000004036   -0.000005296    0.000005411
      2        6          -0.000002151    0.000010827   -0.000010200
      3        6           0.000007555    0.000000042   -0.000000058
      4        6           0.000062787    0.000016426   -0.000014804
      5        6          -0.000012082   -0.000026414    0.000002449
      6        8           0.000010615    0.000003941   -0.000002277
      7        6          -0.000060319   -0.000000204    0.000000497
      8        6          -0.000011946   -0.000005682    0.000025948
      9        8           0.000010610    0.000002698   -0.000003692
     10        1          -0.000000013   -0.000001076    0.000000543
     11        1          -0.000000090   -0.000000001    0.000000215
     12        1           0.000003519    0.000000740   -0.000000563
     13        1          -0.000037509   -0.000018461    0.000016494
     14        1           0.000001742    0.000019523    0.000016770
     15        1          -0.000002142   -0.000007857    0.000001231
     16        1           0.000031463    0.000023449   -0.000020861
     17        1           0.000002572    0.000003772   -0.000003350
     18        1           0.000001539   -0.000014238   -0.000021439
     19        1          -0.000002114   -0.000002189    0.000007685
 -------------------------------------------------------------------
 Cartesian Forces:  Max     0.000062787 RMS     0.000016701

 GradGradGradGradGradGradGradGradGradGradGradGradGradGradGradGradGradGrad
 Berny optimization.
 FormGI is forming the generalized inverse of G from B-inverse, IUseBI=4.
 Internal  Forces:  Max     0.000024243 RMS     0.000008628
 Search for a local minimum.
 Step number   1 out of a maximum of  114
 All quantities printed in internal units (Hartrees-Bohrs-Radians)
 Mixed Optimization -- En-DIIS/RFO-DIIS
 Second derivative matrix not updated -- first step.
 ITU=  0
     Eigenvalues ---    0.00230   0.00316   0.00957   0.01082   0.01617
     Eigenvalues ---    0.01617   0.02417   0.02584   0.03019   0.03294
     Eigenvalues ---    0.03800   0.03974   0.04360   0.04641   0.04711
     Eigenvalues ---    0.05296   0.06062   0.06442   0.06611   0.06726
     Eigenvalues ---    0.07084   0.07330   0.07585   0.08968   0.10104
     Eigenvalues ---    0.11803   0.16000   0.16000   0.16000   0.16000
     Eigenvalues ---    0.16000   0.20259   0.24963   0.25109   0.26531
     Eigenvalues ---    0.27287   0.33942   0.33942   0.34105   0.34141
     Eigenvalues ---    0.34141   0.34155   0.34411   0.34538   0.37493
     Eigenvalues ---    0.38660   0.44697   0.44697   0.54962   0.54962
     Eigenvalues ---    1.02424
 RFO step:  Lambda=-1.24865802D-06 EMin= 2.30000000D-03
 Linear search not attempted -- first point.
 Iteration  1 RMS(Cart)=  0.00343433 RMS(Int)=  0.00000562
 Iteration  2 RMS(Cart)=  0.00000808 RMS(Int)=  0.00000065
 Iteration  3 RMS(Cart)=  0.00000000 RMS(Int)=  0.00000065
 Variable       Old X    -DE/DX   Delta X   Delta X   Delta X     New X
                                 (Linear)    (Quad)   (Total)
    R1        2.75109   0.00000   0.00000  -0.00001  -0.00001   2.75109
    R2        2.07094   0.00000   0.00000   0.00000   0.00000   2.07093
    R3        2.07094   0.00000   0.00000   0.00000   0.00000   2.07093
    R4        2.07069   0.00000   0.00000   0.00001   0.00001   2.07070
    R5        2.27683   0.00000   0.00000   0.00000   0.00000   2.27683
    R6        2.73416   0.00000   0.00000   0.00001   0.00001   2.73417
    R7        2.93772   0.00001   0.00000   0.00002   0.00002   2.93774
    R8        2.93771   0.00001   0.00000   0.00002   0.00002   2.93774
    R9        2.07153   0.00000   0.00000  -0.00001  -0.00001   2.07152
   R10        2.65629   0.00000   0.00000  -0.00001  -0.00001   2.65628
   R11        2.93677   0.00000   0.00000   0.00001   0.00001   2.93678
   R12        2.07428  -0.00001   0.00000  -0.00002  -0.00002   2.07425
   R13        1.81866   0.00001   0.00000   0.00002   0.00002   1.81867
   R14        2.93677   0.00000   0.00000   0.00001   0.00001   2.93678
   R15        2.06642  -0.00001   0.00000  -0.00003  -0.00003   2.06639
   R16        2.06431   0.00000   0.00000  -0.00001  -0.00001   2.06430
   R17        2.65629   0.00000   0.00000  -0.00001  -0.00001   2.65628
   R18        2.07428  -0.00001   0.00000  -0.00002  -0.00002   2.07425
   R19        1.81866   0.00001   0.00000   0.00002   0.00002   1.81867
    A1        1.94374   0.00000   0.00000   0.00000   0.00000   1.94374
    A2        1.94368   0.00000   0.00000   0.00000   0.00000   1.94368
    A3        1.94338   0.00000   0.00000   0.00001   0.00001   1.94339
    A4        1.87629   0.00000   0.00000   0.00000   0.00000   1.87629
    A5        1.87668   0.00000   0.00000   0.00000   0.00000   1.87667
    A6        1.87667   0.00000   0.00000  -0.00001  -0.00001   1.87666
    A7        2.09593   0.00001   0.00000   0.00025   0.00025   2.09618
    A8        2.09593   0.00001   0.00000   0.00025   0.00025   2.09619
    A9        1.94732   0.00000   0.00000   0.00017   0.00017   1.94749
   A10        1.53658  -0.00001   0.00000  -0.00055  -0.00055   1.53603
   A11        1.87034  -0.00001   0.00000  -0.00015  -0.00015   1.87019
   A12        1.87034  -0.00001   0.00000  -0.00014  -0.00014   1.87019
   A13        1.97346  -0.00001   0.00000   0.00004   0.00004   1.97351
   A14        1.55180   0.00001   0.00000  -0.00048  -0.00048   1.55131
   A15        1.92931   0.00000   0.00000   0.00001   0.00001   1.92932
   A16        2.07718  -0.00001   0.00000   0.00008   0.00008   2.07726
   A17        1.94795   0.00000   0.00000   0.00015   0.00015   1.94810
   A18        1.94881   0.00000   0.00000   0.00008   0.00008   1.94890
   A19        1.89315  -0.00001   0.00000  -0.00003  -0.00003   1.89312
   A20        1.53720   0.00000   0.00000  -0.00054  -0.00054   1.53666
   A21        1.91754   0.00000   0.00000  -0.00001  -0.00001   1.91752
   A22        2.06884   0.00000   0.00000   0.00005   0.00005   2.06889
   A23        1.91754   0.00000   0.00000  -0.00001  -0.00001   1.91752
   A24        2.06884   0.00000   0.00000   0.00005   0.00005   2.06889
   A25        1.92237   0.00001   0.00000   0.00031   0.00031   1.92268
   A26        1.55180   0.00001   0.00000  -0.00048  -0.00048   1.55131
   A27        1.97346  -0.00001   0.00000   0.00004   0.00004   1.97350
   A28        1.92931   0.00000   0.00000   0.00001   0.00001   1.92932
   A29        2.07717  -0.00001   0.00000   0.00008   0.00008   2.07725
   A30        1.94881   0.00000   0.00000   0.00009   0.00009   1.94890
   A31        1.94795   0.00000   0.00000   0.00015   0.00015   1.94810
   A32        1.89316  -0.00001   0.00000  -0.00003  -0.00003   1.89312
   A33        3.14932   0.00000   0.00000   0.00002   0.00002   3.14934
   A34        3.12168   0.00002   0.00000   0.00213   0.00213   3.12381
   A35        3.15194   0.00000   0.00000   0.00000   0.00000   3.15194
   A36        3.12113   0.00002   0.00000   0.00141   0.00141   3.12254
    D1       -1.96473  -0.00001   0.00000  -0.00066  -0.00066  -1.96539
    D2       -0.11182   0.00001   0.00000   0.00036   0.00036  -0.11146
    D3        2.10332   0.00000   0.00000  -0.00039  -0.00039   2.10293
    D4        0.12772   0.00000   0.00000  -0.00009  -0.00009   0.12763
    D5        1.98062   0.00001   0.00000   0.00093   0.00093   1.98156
    D6       -2.08742   0.00000   0.00000   0.00018   0.00018  -2.08724
    D7        2.22307  -0.00001   0.00000  -0.00028  -0.00028   2.22279
    D8       -2.20721   0.00001   0.00000   0.00075   0.00075  -2.20646
    D9        0.00793   0.00000   0.00000  -0.00001  -0.00001   0.00793
   D10       -1.67903   0.00001   0.00000   0.00295   0.00295  -1.67608
   D11        2.48746   0.00002   0.00000   0.00309   0.00309   2.49055
   D12        0.51920   0.00001   0.00000   0.00319   0.00319   0.52239
   D13        2.43908   0.00000   0.00000   0.00293   0.00293   2.44201
   D14        0.32239   0.00001   0.00000   0.00307   0.00307   0.32546
   D15       -1.64587   0.00000   0.00000   0.00317   0.00317  -1.64271
   D16        0.56522   0.00002   0.00000   0.00326   0.00326   0.56849
   D17       -1.55146   0.00002   0.00000   0.00340   0.00340  -1.54806
   D18        2.76346   0.00002   0.00000   0.00350   0.00350   2.76696
   D19       -2.48746  -0.00002   0.00000  -0.00309  -0.00309  -2.49055
   D20        1.67904  -0.00001   0.00000  -0.00295  -0.00295   1.67609
   D21       -0.51920  -0.00001   0.00000  -0.00318  -0.00318  -0.52238
   D22       -0.32239  -0.00001   0.00000  -0.00307  -0.00307  -0.32546
   D23       -2.43908   0.00000   0.00000  -0.00293  -0.00293  -2.44201
   D24        1.64587   0.00000   0.00000  -0.00317  -0.00317   1.64271
   D25        1.55147  -0.00002   0.00000  -0.00340  -0.00340   1.54806
   D26       -0.56522  -0.00002   0.00000  -0.00327  -0.00327  -0.56849
   D27       -2.76345  -0.00002   0.00000  -0.00350  -0.00350  -2.76696
   D28        3.08364   0.00000   0.00000   0.00021   0.00021   3.08386
   D29       -1.41449   0.00000   0.00000  -0.00032  -0.00033  -1.41482
   D30        0.89542   0.00000   0.00000   0.00005   0.00005   0.89547
   D31       -0.32249  -0.00001   0.00000  -0.00307  -0.00307  -0.32556
   D32        1.60523  -0.00002   0.00000  -0.00329  -0.00329   1.60195
   D33       -2.44695   0.00000   0.00000  -0.00281  -0.00281  -2.44975
   D34       -2.34627  -0.00001   0.00000  -0.00285  -0.00285  -2.34912
   D35       -0.41855  -0.00001   0.00000  -0.00306  -0.00306  -0.42161
   D36        1.81246   0.00000   0.00000  -0.00259  -0.00259   1.80987
   D37        1.62737  -0.00001   0.00000  -0.00325  -0.00325   1.62412
   D38       -2.72809  -0.00002   0.00000  -0.00347  -0.00347  -2.73156
   D39       -0.49708   0.00000   0.00000  -0.00299  -0.00299  -0.50007
   D40        0.32249   0.00001   0.00000   0.00307   0.00307   0.32556
   D41        2.34627   0.00001   0.00000   0.00285   0.00285   2.34912
   D42       -1.62738   0.00001   0.00000   0.00325   0.00325  -1.62412
   D43       -1.60523   0.00002   0.00000   0.00329   0.00329  -1.60195
   D44        0.41855   0.00001   0.00000   0.00306   0.00306   0.42161
   D45        2.72808   0.00002   0.00000   0.00347   0.00347   2.73155
   D46        2.44695   0.00000   0.00000   0.00281   0.00281   2.44975
   D47       -1.81246   0.00000   0.00000   0.00258   0.00258  -1.80988
   D48        0.49708   0.00000   0.00000   0.00299   0.00299   0.50007
   D49       -3.08363   0.00000   0.00000  -0.00021  -0.00021  -3.08384
   D50        1.41451   0.00000   0.00000   0.00033   0.00033   1.41484
   D51       -0.89540   0.00000   0.00000  -0.00005  -0.00005  -0.89546
         Item               Value     Threshold  Converged?
 Maximum Force            0.000024     0.000450     YES
 RMS     Force            0.000009     0.000300     YES
 Maximum Displacement     0.015434     0.001800     NO 
 RMS     Displacement     0.003434     0.001200     NO 
 Predicted change in Energy=-6.228688D-07
 GradGradGradGradGradGradGradGradGradGradGradGradGradGradGradGradGradGrad

                          Input orientation:                          
 ---------------------------------------------------------------------
 Center     Atomic      Atomic             Coordinates (Angstroms)
 Number     Number       Type             X           Y           Z
 ---------------------------------------------------------------------
      1          6           0        1.580569    0.215758   -0.190404
      2          6           0        0.133687    0.098459   -0.080130
      3          6           0       -1.065045    0.010394    0.003185
      4          6           0       -2.500749   -0.120177    0.126082
      5          6           0       -3.179432   -1.501840   -0.091012
      6          8           0       -3.672371   -1.674495   -1.396017
      7          6           0       -4.175144   -1.158211    1.051627
      8          6           0       -3.170878   -0.072082    1.527989
      9          8           0       -3.655149    1.204117    1.863601
     10          1           0        2.037662    0.444568    0.778971
     11          1           0        2.029905   -0.714812   -0.555250
     12          1           0        1.864246    1.013857   -0.885581
     13          1           0       -3.027142    0.601933   -0.508843
     14          1           0       -2.499103   -2.314327    0.195072
     15          1           0       -4.029328   -2.565035   -1.471735
     16          1           0       -5.067705   -0.682380    0.636132
     17          1           0       -4.460205   -1.947892    1.750510
     18          1           0       -2.488012   -0.460019    2.294817
     19          1           0       -4.006964    1.170990    2.758778
 ---------------------------------------------------------------------
                    Distance matrix (angstroms):
                    1          2          3          4          5
     1  C    0.000000
     2  C    1.455812   0.000000
     3  C    2.660625   1.204846   0.000000
     4  C    4.107332   2.651524   1.446859   0.000000
     5  C    5.061386   3.679379   2.601222   1.554584   0.000000
     6  O    5.711387   4.400114   3.405109   2.470908   1.405645
     7  C    6.046376   4.628836   3.483904   2.176637   1.554075
     8  C    5.060828   3.679033   2.601224   1.554584   2.159964
     9  O    5.710389   4.399528   3.405109   2.470904   3.371798
    10  H    1.095890   2.117302   3.227559   4.619781   5.635906
    11  H    1.095890   2.117260   3.227458   4.620025   5.288867
    12  H    1.095768   2.116965   3.221426   4.621978   5.691990
    13  H    4.634818   3.229260   2.112325   1.096203   2.150264
    14  H    4.815978   3.581739   2.738187   2.195235   1.097646
    15  H    6.391054   5.134341   4.194663   3.296498   1.938841
    16  H    6.759391   5.308222   4.111186   2.676843   2.183078
    17  H    6.703691   5.351881   4.291286   3.133492   2.287038
    18  H    4.815221   3.581281   2.738193   2.195238   2.693628
    19  H    6.389888   5.133684   4.194660   3.296496   3.993761
                    6          7          8          9         10
     6  O    0.000000
     7  C    2.551528   0.000000
     8  C    3.371800   1.554075   0.000000
     9  O    4.348772   2.551527   1.405645   0.000000
    10  H    6.467262   6.422009   5.287423   5.844778   0.000000
    11  H    5.843272   6.425051   5.639249   6.469387   1.767588
    12  H    6.175913   6.704095   5.688326   6.169110   1.767739
    13  H    2.526959   2.617458   2.150266   2.526957   5.228333
    14  H    2.077861   2.208938   2.693625   4.062005   5.341786
    15  H    0.962400   2.892710   3.993757   5.046879   7.136649
    16  H    2.657232   1.093489   2.183077   2.657229   7.195600
    17  H    3.255159   1.092379   2.287038   3.255160   6.992140
    18  H    4.062009   2.208939   1.097646   2.077861   4.857755
    19  H    5.046886   2.892719   1.938842   0.962400   6.401939
                   11         12         13         14         15
    11  H    0.000000
    12  H    1.767727   0.000000
    13  H    5.225867   4.923138   0.000000
    14  H    4.861413   5.593160   3.046128   0.000000
    15  H    6.401372   6.919990   3.458501   2.276552   0.000000
    16  H    7.196979   7.296902   2.669144   3.074980   3.010934
    17  H    6.997038   7.464557   3.695937   2.529740   3.308985
    18  H    5.347838   5.588326   3.046131   2.801341   4.581884
    19  H    7.140225   6.912102   3.458500   4.581885   5.644079
                   16         17         18         19
    16  H    0.000000
    17  H    1.792321   0.000000
    18  H    3.074980   2.529739   0.000000
    19  H    3.010943   3.308996   2.276547   0.000000
 Stoichiometry    C7H10O2
 Framework group  C1[X(C7H10O2)]
 Deg. of freedom    51
 Full point group                 C1      NOp   1
 Largest Abelian subgroup         C1      NOp   1
 Largest concise Abelian subgroup C1      NOp   1
                         Standard orientation:                         
 ---------------------------------------------------------------------
 Center     Atomic      Atomic             Coordinates (Angstroms)
 Number     Number       Type             X           Y           Z
 ---------------------------------------------------------------------
      1          6           0       -3.898536    0.000221    0.167667
      2          6           0       -2.455602    0.000462   -0.025545
      3          6           0       -1.263078    0.000661   -0.197419
      4          6           0        0.173430    0.000183   -0.370171
      5          6           0        1.043612    1.079859    0.332547
      6          8           0        1.340794    2.174184   -0.498100
      7          6           0        2.134098   -0.000492    0.575095
      8          6           0        1.042892   -1.080105    0.332499
      9          8           0        1.339342   -2.174587   -0.498200
     10          1           0       -4.225493   -0.879545    0.733429
     11          1           0       -4.227586    0.887987    0.719548
     12          1           0       -4.429350   -0.007925   -0.790913
     13          1           0        0.452075    0.000115   -1.430369
     14          1           0        0.575060    1.400682    1.271886
     15          1           0        1.833994    2.821657    0.015463
     16          1           0        2.847726   -0.000712   -0.253429
     17          1           0        2.665354   -0.000691    1.529589
     18          1           0        0.574128   -1.400659    1.271825
     19          1           0        1.832097   -2.822422    0.015333
 ---------------------------------------------------------------------
 Rotational constants (GHZ):      2.2243828      0.9764364      0.7302995
 Standard basis: 6-31G(2df,p) (6D, 7F)
 There are   329 symmetry adapted cartesian basis functions of A   symmetry.
 There are   302 symmetry adapted basis functions of A   symmetry.
   302 basis functions,   466 primitive gaussians,   329 cartesian basis functions
    34 alpha electrons       34 beta electrons
       nuclear repulsion energy       426.8000542313 Hartrees.
 NAtoms=   19 NActive=   19 NUniq=   19 SFac= 1.00D+00 NAtFMM=   60 NAOKFM=F Big=F
 Integral buffers will be    131072 words long.
 Raffenetti 2 integral format.
 Two-electron integral symmetry is turned on.
 One-electron integrals computed using PRISM.
 NBasis=   302 RedAO= T EigKep=  5.87D-05  NBF=   302
 NBsUse=   302 1.00D-06 EigRej= -1.00D+00 NBFU=   302
 Initial guess from the checkpoint file:  "/scratch/puck/g09_d3b9c172-9940-4e86-be8a-9726e127e24a/Gau-4357.chk"
 B after Tr=     0.000000    0.000000    0.000000
         Rot=    1.000000   -0.000020   -0.000184    0.000094 Ang=  -0.02 deg.
 Requested convergence on RMS density matrix=1.00D-08 within 128 cycles.
 Requested convergence on MAX density matrix=1.00D-06.
 Requested convergence on             energy=1.00D-06.
 No special actions if energy rises.
 SCF Done:  E(RB3LYP) =  -423.141867239     A.U. after    8 cycles
            NFock=  8  Conv=0.39D-08     -V/T= 2.0074
 Calling FoFJK, ICntrl=      2127 FMM=F ISym2X=0 I1Cent= 0 IOpClX= 0 NMat=1 NMatS=1 NMatT=0.
 ***** Axes restored to original set *****
 -------------------------------------------------------------------
 Center     Atomic                   Forces (Hartrees/Bohr)
 Number     Number              X              Y              Z
 -------------------------------------------------------------------
      1        6           0.000001834   -0.000033147    0.000020130
      2        6          -0.000008993   -0.000000231   -0.000004179
      3        6          -0.000005010    0.000117006   -0.000066392
      4        6           0.000191262   -0.000172904    0.000125842
      5        6          -0.000150603    0.000149776   -0.000115169
      6        8           0.000018852   -0.000042566    0.000000136
      7        6           0.000091980   -0.000146674    0.000129127
      8        6          -0.000147380    0.000133506   -0.000128897
      9        8           0.000019492   -0.000005842    0.000041088
     10        1           0.000002346   -0.000000950    0.000001213
     11        1           0.000004935   -0.000000812    0.000000016
     12        1          -0.000006603   -0.000001340    0.000001762
     13        1          -0.000008479   -0.000012427    0.000010669
     14        1          -0.000000987    0.000019084    0.000029571
     15        1          -0.000001874   -0.000000151   -0.000005674
     16        1           0.000032814    0.000018194   -0.000016773
     17        1          -0.000030624    0.000001193   -0.000000384
     18        1          -0.000001261   -0.000026873   -0.000022927
     19        1          -0.000001701    0.000005157    0.000000840
 -------------------------------------------------------------------
 Cartesian Forces:  Max     0.000191262 RMS     0.000069219

 GradGradGradGradGradGradGradGradGradGradGradGradGradGradGradGradGradGrad
 Berny optimization.
 Using GEDIIS/GDIIS optimizer.
 FormGI is forming the generalized inverse of G from B-inverse, IUseBI=4.
 Internal  Forces:  Max     0.000101681 RMS     0.000023479
 Search for a local minimum.
 Step number   2 out of a maximum of  114
 All quantities printed in internal units (Hartrees-Bohrs-Radians)
 Mixed Optimization -- En-DIIS/RFO-DIIS
 Swapping is turned off.
 Update second derivatives using D2CorX and points    1    2
 DE= -3.50D-07 DEPred=-6.23D-07 R= 5.62D-01
 Trust test= 5.62D-01 RLast= 1.90D-02 DXMaxT set to 3.00D-01
 ITU=  0  0
     Eigenvalues ---    0.00213   0.00230   0.01057   0.01548   0.01617
     Eigenvalues ---    0.01617   0.02415   0.02588   0.03021   0.03291
     Eigenvalues ---    0.03800   0.03975   0.04381   0.04637   0.04947
     Eigenvalues ---    0.05293   0.06222   0.06524   0.06653   0.06731
     Eigenvalues ---    0.07280   0.07411   0.08949   0.09481   0.10103
     Eigenvalues ---    0.11801   0.15999   0.16000   0.16000   0.16000
     Eigenvalues ---    0.16052   0.20228   0.24960   0.25074   0.26517
     Eigenvalues ---    0.27309   0.33931   0.33942   0.34106   0.34141
     Eigenvalues ---    0.34141   0.34156   0.34406   0.34546   0.37493
     Eigenvalues ---    0.38661   0.44697   0.44700   0.54955   0.54962
     Eigenvalues ---    1.02427
 En-DIIS/RFO-DIIS IScMMF=        0 using points:     2    1
 RFO step:  Lambda=-2.06018303D-07.
 DidBck=T Rises=F RFO-DIIS coefs:    0.65229    0.34771
 Iteration  1 RMS(Cart)=  0.00205008 RMS(Int)=  0.00000197
 Iteration  2 RMS(Cart)=  0.00000622 RMS(Int)=  0.00000023
 Iteration  3 RMS(Cart)=  0.00000000 RMS(Int)=  0.00000023
 Variable       Old X    -DE/DX   Delta X   Delta X   Delta X     New X
                                 (Linear)    (Quad)   (Total)
    R1        2.75109   0.00000   0.00000  -0.00001  -0.00001   2.75108
    R2        2.07093   0.00000   0.00000   0.00000   0.00000   2.07093
    R3        2.07093   0.00000   0.00000   0.00000   0.00000   2.07093
    R4        2.07070   0.00000   0.00000   0.00001   0.00000   2.07070
    R5        2.27683  -0.00001   0.00000  -0.00001  -0.00001   2.27682
    R6        2.73417   0.00000   0.00000   0.00001   0.00000   2.73417
    R7        2.93774   0.00000  -0.00001   0.00000  -0.00001   2.93773
    R8        2.93774   0.00000  -0.00001   0.00000  -0.00001   2.93773
    R9        2.07152  -0.00001   0.00000  -0.00003  -0.00003   2.07150
   R10        2.65628   0.00000   0.00000   0.00000   0.00000   2.65629
   R11        2.93678  -0.00001   0.00000   0.00000   0.00000   2.93677
   R12        2.07425  -0.00001   0.00001  -0.00003  -0.00003   2.07423
   R13        1.81867   0.00000  -0.00001   0.00002   0.00001   1.81868
   R14        2.93678  -0.00001   0.00000   0.00000  -0.00001   2.93677
   R15        2.06639  -0.00001   0.00001  -0.00005  -0.00004   2.06635
   R16        2.06430   0.00001   0.00000   0.00000   0.00001   2.06430
   R17        2.65628   0.00000   0.00000   0.00000   0.00000   2.65628
   R18        2.07425  -0.00001   0.00001  -0.00003  -0.00003   2.07422
   R19        1.81867   0.00000  -0.00001   0.00002   0.00001   1.81868
    A1        1.94374   0.00001   0.00000   0.00002   0.00002   1.94376
    A2        1.94368   0.00002   0.00000   0.00005   0.00005   1.94373
    A3        1.94339  -0.00002   0.00000  -0.00007  -0.00007   1.94332
    A4        1.87629   0.00001   0.00000   0.00003   0.00003   1.87632
    A5        1.87667  -0.00001   0.00000  -0.00003  -0.00003   1.87665
    A6        1.87666   0.00000   0.00000  -0.00001  -0.00001   1.87665
    A7        2.09618   0.00004  -0.00009   0.00052   0.00043   2.09661
    A8        2.09619   0.00003  -0.00009   0.00047   0.00038   2.09656
    A9        1.94749  -0.00001  -0.00006  -0.00002  -0.00008   1.94741
   A10        1.53603   0.00000   0.00019  -0.00035  -0.00016   1.53587
   A11        1.87019  -0.00002   0.00005  -0.00036  -0.00031   1.86988
   A12        1.87019  -0.00003   0.00005  -0.00040  -0.00035   1.86984
   A13        1.97351   0.00002  -0.00002   0.00027   0.00026   1.97377
   A14        1.55131   0.00002   0.00017  -0.00019  -0.00002   1.55129
   A15        1.92932  -0.00003   0.00000  -0.00027  -0.00027   1.92904
   A16        2.07726   0.00002  -0.00003   0.00028   0.00025   2.07751
   A17        1.94810   0.00000  -0.00005   0.00007   0.00002   1.94811
   A18        1.94890  -0.00003  -0.00003  -0.00024  -0.00027   1.94863
   A19        1.89312   0.00001   0.00001   0.00001   0.00002   1.89314
   A20        1.53666   0.00000   0.00019  -0.00035  -0.00017   1.53650
   A21        1.91752  -0.00003   0.00000  -0.00029  -0.00029   1.91724
   A22        2.06889   0.00002  -0.00002   0.00026   0.00024   2.06913
   A23        1.91752  -0.00003   0.00000  -0.00029  -0.00028   1.91724
   A24        2.06889   0.00002  -0.00002   0.00025   0.00024   2.06913
   A25        1.92268   0.00001  -0.00011   0.00026   0.00015   1.92283
   A26        1.55131   0.00002   0.00017  -0.00019  -0.00002   1.55129
   A27        1.97350   0.00002  -0.00001   0.00027   0.00025   1.97376
   A28        1.92932  -0.00003   0.00000  -0.00027  -0.00027   1.92905
   A29        2.07725   0.00002  -0.00003   0.00028   0.00025   2.07751
   A30        1.94890  -0.00003  -0.00003  -0.00024  -0.00027   1.94863
   A31        1.94810   0.00000  -0.00005   0.00007   0.00002   1.94812
   A32        1.89312   0.00001   0.00001   0.00000   0.00002   1.89314
   A33        3.14934  -0.00004  -0.00001  -0.00074  -0.00075   3.14859
   A34        3.12381  -0.00010  -0.00074  -0.00337  -0.00411   3.11970
   A35        3.15194  -0.00002   0.00000  -0.00027  -0.00027   3.15168
   A36        3.12254  -0.00004  -0.00049  -0.00071  -0.00120   3.12134
    D1       -1.96539   0.00001   0.00023   0.00131   0.00154  -1.96385
    D2       -0.11146  -0.00001  -0.00013  -0.00040  -0.00052  -0.11198
    D3        2.10293   0.00001   0.00013   0.00132   0.00145   2.10439
    D4        0.12763   0.00000   0.00003   0.00040   0.00043   0.12806
    D5        1.98156  -0.00002  -0.00032  -0.00131  -0.00163   1.97993
    D6       -2.08724   0.00000  -0.00006   0.00041   0.00034  -2.08690
    D7        2.22279   0.00001   0.00010   0.00039   0.00049   2.22328
    D8       -2.20646  -0.00002  -0.00026  -0.00131  -0.00157  -2.20804
    D9        0.00793   0.00001   0.00000   0.00040   0.00040   0.00833
   D10       -1.67608   0.00003  -0.00103   0.00240   0.00138  -1.67470
   D11        2.49055  -0.00001  -0.00107   0.00212   0.00105   2.49160
   D12        0.52239   0.00003  -0.00111   0.00249   0.00139   0.52377
   D13        2.44201  -0.00001  -0.00102   0.00190   0.00088   2.44289
   D14        0.32546  -0.00005  -0.00107   0.00161   0.00055   0.32601
   D15       -1.64271  -0.00002  -0.00110   0.00199   0.00089  -1.64182
   D16        0.56849   0.00002  -0.00113   0.00246   0.00132   0.56981
   D17       -1.54806  -0.00002  -0.00118   0.00217   0.00099  -1.54707
   D18        2.76696   0.00002  -0.00122   0.00254   0.00133   2.76828
   D19       -2.49055   0.00000   0.00107  -0.00216  -0.00109  -2.49164
   D20        1.67609  -0.00004   0.00103  -0.00245  -0.00142   1.67467
   D21       -0.52238  -0.00004   0.00111  -0.00253  -0.00143  -0.52381
   D22       -0.32546   0.00005   0.00107  -0.00161  -0.00055  -0.32601
   D23       -2.44201   0.00001   0.00102  -0.00190  -0.00088  -2.44289
   D24        1.64271   0.00002   0.00110  -0.00198  -0.00088   1.64182
   D25        1.54806   0.00003   0.00118  -0.00213  -0.00095   1.54711
   D26       -0.56849  -0.00001   0.00114  -0.00241  -0.00128  -0.56977
   D27       -2.76696  -0.00001   0.00122  -0.00250  -0.00128  -2.76824
   D28        3.08386  -0.00003  -0.00007  -0.00009  -0.00016   3.08370
   D29       -1.41482   0.00003   0.00011   0.00001   0.00012  -1.41469
   D30        0.89547   0.00000  -0.00002   0.00000  -0.00001   0.89546
   D31       -0.32556   0.00005   0.00107  -0.00162  -0.00055  -0.32611
   D32        1.60195   0.00002   0.00114  -0.00208  -0.00094   1.60100
   D33       -2.44975   0.00002   0.00098  -0.00177  -0.00079  -2.45055
   D34       -2.34912   0.00001   0.00099  -0.00189  -0.00090  -2.35002
   D35       -0.42161  -0.00003   0.00107  -0.00236  -0.00129  -0.42291
   D36        1.80987  -0.00003   0.00090  -0.00204  -0.00115   1.80873
   D37        1.62412   0.00002   0.00113  -0.00202  -0.00089   1.62323
   D38       -2.73156  -0.00001   0.00121  -0.00249  -0.00128  -2.73284
   D39       -0.50007  -0.00001   0.00104  -0.00217  -0.00114  -0.50121
   D40        0.32556  -0.00005  -0.00107   0.00162   0.00055   0.32611
   D41        2.34912  -0.00001  -0.00099   0.00188   0.00089   2.35001
   D42       -1.62412  -0.00002  -0.00113   0.00202   0.00089  -1.62324
   D43       -1.60195  -0.00002  -0.00114   0.00209   0.00094  -1.60100
   D44        0.42161   0.00003  -0.00106   0.00235   0.00129   0.42290
   D45        2.73155   0.00001  -0.00121   0.00249   0.00129   2.73284
   D46        2.44975  -0.00002  -0.00098   0.00177   0.00080   2.45055
   D47       -1.80988   0.00003  -0.00090   0.00204   0.00114  -1.80873
   D48        0.50007   0.00001  -0.00104   0.00218   0.00114   0.50120
   D49       -3.08384   0.00003   0.00007   0.00008   0.00016  -3.08368
   D50        1.41484  -0.00003  -0.00011  -0.00001  -0.00012   1.41472
   D51       -0.89546   0.00000   0.00002  -0.00001   0.00001  -0.89545
         Item               Value     Threshold  Converged?
 Maximum Force            0.000102     0.000450     YES
 RMS     Force            0.000023     0.000300     YES
 Maximum Displacement     0.009141     0.001800     NO 
 RMS     Displacement     0.002050     0.001200     NO 
 Predicted change in Energy=-4.505717D-07
 GradGradGradGradGradGradGradGradGradGradGradGradGradGradGradGradGradGrad

                          Input orientation:                          
 ---------------------------------------------------------------------
 Center     Atomic      Atomic             Coordinates (Angstroms)
 Number     Number       Type             X           Y           Z
 ---------------------------------------------------------------------
      1          6           0        1.579910    0.214154   -0.190586
      2          6           0        0.132656    0.100873   -0.081045
      3          6           0       -1.066275    0.015231    0.001849
      4          6           0       -2.501615   -0.118279    0.125861
      5          6           0       -3.178271   -1.500969   -0.090975
      6          8           0       -3.670648   -1.675108   -1.395997
      7          6           0       -4.174512   -1.158529    1.051557
      8          6           0       -3.171292   -0.071483    1.528023
      9          8           0       -3.656590    1.204018    1.864805
     10          1           0        2.037169    0.441675    0.779013
     11          1           0        2.026885   -0.717601   -0.555309
     12          1           0        1.866079    1.011535   -0.885568
     13          1           0       -3.029893    0.602875   -0.508561
     14          1           0       -2.496694   -2.312184    0.195697
     15          1           0       -4.026140   -2.566271   -1.471344
     16          1           0       -5.067193   -0.683242    0.635750
     17          1           0       -4.459193   -1.948491    1.750283
     18          1           0       -2.487650   -0.459334    2.294183
     19          1           0       -4.007887    1.169938    2.760156
 ---------------------------------------------------------------------
                    Distance matrix (angstroms):
                    1          2          3          4          5
     1  C    0.000000
     2  C    1.455807   0.000000
     3  C    2.660619   1.204841   0.000000
     4  C    4.107249   2.651457   1.446860   0.000000
     5  C    5.058839   3.678076   2.601539   1.554578   0.000000
     6  O    5.708825   4.398674   3.404993   2.471115   1.405646
     7  C    6.044878   4.628238   3.484356   2.176607   1.554072
     8  C    5.060546   3.678979   2.601504   1.554579   2.159776
     9  O    5.711864   4.400187   3.404930   2.471105   3.372064
    10  H    1.095890   2.117313   3.227569   4.619601   5.633078
    11  H    1.095891   2.117293   3.227245   4.618495   5.284215
    12  H    1.095769   2.116911   3.221619   4.623442   5.691179
    13  H    4.637078   3.230556   2.112259   1.096189   2.150012
    14  H    4.811475   3.579513   2.738710   2.195022   1.097633
    15  H    6.387402   5.132464   4.194670   3.296651   1.938858
    16  H    6.758115   5.307266   4.110601   2.676072   2.182849
    17  H    6.701848   5.351517   4.292449   3.133773   2.287196
    18  H    4.813804   3.580719   2.738671   2.195025   2.692757
    19  H    6.390921   5.134142   4.194602   3.296644   3.993864
                    6          7          8          9         10
     6  O    0.000000
     7  C    2.551715   0.000000
     8  C    3.372070   1.554072   0.000000
     9  O    4.349987   2.551714   1.405645   0.000000
    10  H    6.464566   6.420274   5.287004   5.846281   0.000000
    11  H    5.838276   6.421353   5.637268   6.469270   1.767610
    12  H    6.175267   6.704504   5.689767   6.172639   1.767723
    13  H    2.527314   2.616613   2.149983   2.527249   5.230578
    14  H    2.077865   2.208730   2.692752   4.061397   5.336657
    15  H    0.962405   2.892885   3.993862   5.047924   7.132711
    16  H    2.657467   1.093468   2.182851   2.657466   7.194298
    17  H    3.255090   1.092383   2.287192   3.255088   6.989920
    18  H    4.061406   2.208732   1.097632   2.077865   4.856083
    19  H    5.047932   2.892893   1.938857   0.962405   6.402967
                   11         12         13         14         15
    11  H    0.000000
    12  H    1.767722   0.000000
    13  H    5.226552   4.927441   0.000000
    14  H    4.854840   5.590172   3.045955   0.000000
    15  H    6.394984   6.918242   3.458749   2.276574   0.000000
    16  H    7.193452   7.297735   2.667234   3.074827   3.011550
    17  H    6.992857   7.464484   3.695232   2.529903   3.308786
    18  H    5.344842   5.588312   3.045930   2.799424   4.580975
    19  H    7.139578   6.915191   3.458691   4.580973   5.644925
                   16         17         18         19
    16  H    0.000000
    17  H    1.792401   0.000000
    18  H    3.074829   2.529900   0.000000
    19  H    3.011562   3.308794   2.276571   0.000000
 Stoichiometry    C7H10O2
 Framework group  C1[X(C7H10O2)]
 Deg. of freedom    51
 Full point group                 C1      NOp   1
 Largest Abelian subgroup         C1      NOp   1
 Largest concise Abelian subgroup C1      NOp   1
                         Standard orientation:                         
 ---------------------------------------------------------------------
 Center     Atomic      Atomic             Coordinates (Angstroms)
 Number     Number       Type             X           Y           Z
 ---------------------------------------------------------------------
      1          6           0       -3.897645   -0.000581    0.169635
      2          6           0       -2.455217   -0.001613   -0.027278
      3          6           0       -1.263026   -0.002013   -0.201413
      4          6           0        0.173809   -0.000545   -0.371437
      5          6           0        1.041702    1.080264    0.332357
      6          8           0        1.337815    2.175609   -0.497327
      7          6           0        2.133585    0.001486    0.575606
      8          6           0        1.043864   -1.079511    0.332517
      9          8           0        1.342163   -2.174376   -0.497017
     10          1           0       -4.223880   -0.879758    0.736727
     11          1           0       -4.224628    0.887788    0.721775
     12          1           0       -4.430856   -0.008903   -0.787614
     13          1           0        0.454377   -0.000372   -1.431113
     14          1           0        0.571755    1.399684    1.271461
     15          1           0        1.829450    2.823602    0.017089
     16          1           0        2.847251    0.002141   -0.252857
     17          1           0        2.664640    0.002083    1.530217
     18          1           0        0.574558   -1.399739    1.271667
     19          1           0        1.835081   -2.821320    0.017490
 ---------------------------------------------------------------------
 Rotational constants (GHZ):      2.2234241      0.9767814      0.7304289
 Standard basis: 6-31G(2df,p) (6D, 7F)
 There are   329 symmetry adapted cartesian basis functions of A   symmetry.
 There are   302 symmetry adapted basis functions of A   symmetry.
   302 basis functions,   466 primitive gaussians,   329 cartesian basis functions
    34 alpha electrons       34 beta electrons
       nuclear repulsion energy       426.8054993639 Hartrees.
 NAtoms=   19 NActive=   19 NUniq=   19 SFac= 1.00D+00 NAtFMM=   60 NAOKFM=F Big=F
 Integral buffers will be    131072 words long.
 Raffenetti 2 integral format.
 Two-electron integral symmetry is turned on.
 One-electron integrals computed using PRISM.
 NBasis=   302 RedAO= T EigKep=  5.89D-05  NBF=   302
 NBsUse=   302 1.00D-06 EigRej= -1.00D+00 NBFU=   302
 Initial guess from the checkpoint file:  "/scratch/puck/g09_d3b9c172-9940-4e86-be8a-9726e127e24a/Gau-4357.chk"
 B after Tr=     0.000000    0.000000    0.000000
         Rot=    1.000000    0.000087    0.000022   -0.000366 Ang=   0.04 deg.
 Requested convergence on RMS density matrix=1.00D-08 within 128 cycles.
 Requested convergence on MAX density matrix=1.00D-06.
 Requested convergence on             energy=1.00D-06.
 No special actions if energy rises.
 SCF Done:  E(RB3LYP) =  -423.141867242     A.U. after    7 cycles
            NFock=  7  Conv=0.91D-08     -V/T= 2.0074
 Calling FoFJK, ICntrl=      2127 FMM=F ISym2X=0 I1Cent= 0 IOpClX= 0 NMat=1 NMatS=1 NMatT=0.
 ***** Axes restored to original set *****
 -------------------------------------------------------------------
 Center     Atomic                   Forces (Hartrees/Bohr)
 Number     Number              X              Y              Z
 -------------------------------------------------------------------
      1        6          -0.000004675    0.000059616   -0.000008046
      2        6           0.000013077   -0.000021412    0.000001132
      3        6          -0.000015992   -0.000132702    0.000017807
      4        6           0.000090509    0.000011400    0.000070581
      5        6          -0.000090497    0.000097331   -0.000109052
      6        8           0.000016426   -0.000023695    0.000024095
      7        6           0.000104752   -0.000088406    0.000077575
      8        6          -0.000102109    0.000121759   -0.000097107
      9        8           0.000014799   -0.000025933    0.000024264
     10        1           0.000000016   -0.000001652    0.000001713
     11        1          -0.000013356   -0.000003581    0.000001638
     12        1           0.000015006   -0.000001454    0.000001859
     13        1          -0.000029979    0.000002258   -0.000002724
     14        1           0.000007086   -0.000000376    0.000019283
     15        1           0.000003430    0.000005907   -0.000000608
     16        1           0.000000424    0.000010816   -0.000007670
     17        1          -0.000018372    0.000007097   -0.000008522
     18        1           0.000006523   -0.000019571   -0.000001070
     19        1           0.000002930    0.000002598   -0.000005146
 -------------------------------------------------------------------
 Cartesian Forces:  Max     0.000132702 RMS     0.000047868

 GradGradGradGradGradGradGradGradGradGradGradGradGradGradGradGradGradGrad
 Berny optimization.
 Using GEDIIS/GDIIS optimizer.
 FormGI is forming the generalized inverse of G from B-inverse, IUseBI=4.
 Internal  Forces:  Max     0.000137555 RMS     0.000022878
 Search for a local minimum.
 Step number   3 out of a maximum of  114
 All quantities printed in internal units (Hartrees-Bohrs-Radians)
 Mixed Optimization -- En-DIIS/RFO-DIIS
 Swapping is turned off.
 Update second derivatives using D2CorX and points    1    2    3
 DE= -3.17D-09 DEPred=-4.51D-07 R= 7.03D-03
 Trust test= 7.03D-03 RLast= 8.50D-03 DXMaxT set to 1.50D-01
 ITU= -1  0  0
     Eigenvalues ---    0.00177   0.00231   0.01105   0.01617   0.01617
     Eigenvalues ---    0.02225   0.02540   0.02868   0.03233   0.03433
     Eigenvalues ---    0.03804   0.04049   0.04588   0.04640   0.05026
     Eigenvalues ---    0.05319   0.06147   0.06537   0.06644   0.06730
     Eigenvalues ---    0.07330   0.08398   0.08844   0.09535   0.10396
     Eigenvalues ---    0.11876   0.16000   0.16000   0.16000   0.16022
[...]
 020254,0.00752296,0.00029150,-0.00045496,0.00171849,0.00060670,-0.0127
 9806,-0.06566561,-0.00355698,-0.01789287,0.44936577,0.00021669,0.00025
 307,0.00758758,0.00050594,0.00064625,0.00187591,0.01224639,-0.00355369
 ,-0.06671066,0.01464966,-0.09502783,0.42549278,-0.00061673,0.00125041,
 0.00033478,0.00277383,-0.00004455,-0.00023983,-0.02218794,-0.02552149,
 -0.00453608,-0.07501613,-0.02988754,-0.01019396,0.45866897,-0.00084705
 ,-0.00032723,-0.00022937,0.00647560,-0.00083641,-0.00083129,-0.0119805
 3,0.00485104,0.00698486,-0.01754217,-0.13805764,0.00456662,-0.08293199
 ,0.54983478,-0.00034007,-0.00024327,-0.00007634,0.00188643,-0.00048227
 ,0.00057127,0.00004292,0.00414029,-0.00237621,-0.00937781,0.00022676,-
 0.05503963,0.05916131,0.01722713,0.48877979,0.00020782,0.00014174,0.00
 003460,-0.00010564,-0.00018976,0.00015924,0.00065905,-0.00076349,-0.00
 048374,-0.00607316,-0.00055897,-0.01712703,-0.08919593,-0.00518210,-0.
 06644041,0.15291403,0.00021949,0.00013384,0.00000580,-0.00092285,0.000
 10648,0.00037843,0.00120232,-0.00119907,-0.00179729,-0.01307127,-0.003
 32084,-0.03155766,-0.02151783,-0.09229545,-0.02773848,0.18894465,0.531
 79516,0.00033680,0.00009900,-0.00005741,-0.00097116,0.00013956,0.00036
 631,0.00124010,-0.00067459,0.00025234,-0.00572535,-0.00916730,-0.00812
 242,-0.05150383,0.01525547,-0.22074541,0.11025239,0.04623333,0.3284033
 6,0.00009726,0.00009749,-0.00008788,-0.00007105,0.00006333,-0.00005514
 ,-0.00126171,-0.00302043,0.00267388,-0.04320401,-0.02509548,0.02237031
 ,-0.11449232,0.02231285,0.04035619,0.01598789,0.00067644,-0.01289341,0
 .55256143,0.00002966,0.00030291,-0.00010686,-0.00104775,0.00013569,-0.
 00024200,-0.00288888,-0.00322038,0.00284196,-0.04382982,-0.01241039,0.
 01258175,0.02618387,-0.06808932,-0.00542856,0.00007895,0.00189395,-0.0
 0425033,-0.00412351,0.49331316,-0.00002528,-0.00011158,0.00027670,0.00
 092475,-0.00024591,0.00006903,0.00255575,0.00284357,-0.00254010,0.0389
 1678,0.01249681,-0.00960908,0.03770897,0.00059383,-0.10333967,0.012218
 39,-0.00854147,-0.03238370,0.00255469,-0.14995285,0.45588092,-0.000620
 25,-0.00016009,-0.00127859,0.00272618,0.00021222,0.00004697,-0.0219797
 2,0.00146259,0.02605829,-0.07470572,0.00657669,0.03064063,0.01037129,0
 .00267660,0.00292246,-0.00200556,-0.00073668,0.00325565,-0.11513113,-0
 .03413959,-0.03044883,0.45883615,0.00023265,-0.00002120,-0.00021524,-0
 .00108054,0.00071719,-0.00027349,-0.00142200,-0.00363271,0.00296889,0.
 00726676,-0.05696990,0.01016665,-0.00303293,-0.02942474,-0.05278752,-0
 .00083263,-0.00465355,0.00053079,-0.03727628,-0.10187287,-0.00934433,-
 0.06878814,0.48613810,0.00088237,-0.00019745,-0.00037970,-0.00668525,-
 0.00060975,-0.00093829,0.01206501,0.00586296,0.00590749,0.01831435,0.0
 1456481,-0.13646023,-0.00345925,-0.03630335,-0.04053276,0.00260414,-0.
 00156336,-0.00304463,-0.02690756,-0.00335157,-0.06892006,0.07551011,0.
 00921547,0.55233356,0.00020376,-0.00001542,-0.00014605,-0.00009636,-0.
 00017931,0.00017048,0.00065309,0.00037700,0.00080495,-0.00588853,0.016
 77212,0.00261706,-0.00202952,-0.00269848,0.00049289,0.00098698,0.00054
 222,-0.00082098,0.01598595,-0.01239735,-0.00171466,-0.08844957,0.06445
 498,0.01332495,0.14998828,-0.00030765,-0.00006668,0.00007861,0.0008527
 9,0.00029660,0.00015750,-0.00108442,0.00053635,-0.00045711,0.00402793,
 -0.00314520,-0.00916570,-0.00332227,-0.00291475,0.00075959,0.00085697,
 -0.00034437,-0.00351609,0.01261734,-0.03029159,-0.00832289,0.04784221,
 -0.21777699,-0.00064674,-0.08512600,0.32096907,-0.00025978,-0.00002002
 ,0.00014384,0.00104062,0.00040100,0.00016950,-0.00136544,-0.00157788,-
 0.00147898,0.01351759,-0.03167652,-0.00847927,0.00030777,-0.00133752,-
 0.00476008,-0.00045594,-0.00189263,-0.00101217,0.00077975,-0.01249395,
 -0.00019804,0.02748481,-0.04379283,-0.09601414,-0.19896920,0.02123811,
 0.54216279,-0.08527378,-0.02186153,-0.09399711,-0.02275728,-0.00767371
 ,-0.02918302,0.00060554,0.00005817,0.00037793,0.00014492,0.00037234,0.
 00218453,0.00013653,0.00028538,0.00001528,-0.00010982,-0.00014961,-0.0
 0016083,-0.00008424,-0.00007580,0.00017650,-0.00028817,-0.00023085,-0.
 00079101,-0.00010844,0.00027929,0.00031099,0.09928197,-0.02156574,-0.0
 5533135,-0.04844956,-0.00239065,-0.00167611,-0.00111692,0.00030037,0.0
 0091093,-0.00020301,0.00003347,-0.00006718,0.00016584,-0.00007893,0.00
 002410,-0.00003974,-0.00002437,-0.00003646,-0.00000667,0.00000808,-0.0
 0003085,0.00001663,-0.00004861,0.00010328,-0.00010888,-0.00000877,-0.0
 0002627,0.00003996,0.02491860,0.05654931,-0.09197782,-0.04825462,-0.25
 180694,-0.00251931,0.00143492,0.00753331,0.00243610,-0.00004286,-0.000
 36486,-0.00023722,-0.00006487,-0.00012828,0.00002196,0.00004870,-0.000
 00367,-0.00003032,-0.00001199,-0.00000061,-0.00001491,0.00001024,0.000
 00102,0.00014607,-0.00004892,-0.00011437,-0.00002355,0.00004857,0.0000
 2576,0.10292393,0.05331578,0.27268568,-0.08353996,0.08841208,0.0344024
 8,-0.02242993,0.02802224,0.01186292,0.00056890,-0.00037000,-0.00011723
 ,0.00013185,-0.00212007,-0.00064900,-0.00028518,0.00075661,0.00032432,
 -0.00011127,-0.00027449,-0.00031630,-0.00008289,-0.00018321,0.00005349
 ,0.00013801,0.00002189,-0.00028580,-0.00010877,0.00014191,0.00016915,0
 .00542170,-0.01150962,-0.00334683,0.09734947,0.08645418,-0.23575657,-0
 .07452136,0.00238225,0.00710236,0.00260665,-0.00237936,-0.00028878,-0.
 00019708,0.00023765,-0.00012574,-0.00007341,-0.00014938,-0.00009319,-0
 .00007569,0.00002355,0.00001487,0.00005552,0.00001633,-0.00000177,0.00
 001385,-0.00003433,-0.00000481,0.00004782,0.00002732,0.00000029,-0.000
 00797,0.00161587,-0.00570110,-0.00137174,-0.09672451,0.25499598,0.0338
 2196,-0.07472377,-0.07313041,0.00288635,-0.00008250,-0.00156187,-0.000
 64201,-0.00036045,0.00085752,0.00000173,0.00016211,-0.00005554,0.00002
 696,-0.00014243,0.00007821,0.00001210,0.00004762,-0.00001136,-0.000005
 45,0.00002068,-0.00002747,0.00007346,-0.00004160,0.00002657,0.00002965
 ,-0.00000371,-0.00003928,0.01157379,-0.02537377,-0.00954992,-0.0387089
 7,0.08222320,0.07617983,-0.05873904,-0.04659925,0.04057077,-0.01691116
 ,-0.02581099,0.02252309,0.00067150,0.00017770,-0.00014309,-0.00032116,
 0.00129814,-0.00114139,0.00024904,0.00035184,0.00028504,-0.00010876,-0
 .00010994,-0.00022697,-0.00010305,-0.00000118,0.00000058,0.00024311,-0
 .00023707,-0.00038523,-0.00010613,0.00021189,0.00013823,0.00314953,0.0
 1023931,-0.00734349,0.00306486,0.00847819,-0.00895339,0.06972866,-0.04
 510704,-0.18415455,0.12181132,-0.00530173,0.00020910,-0.00108176,0.001
 94510,0.00046766,0.00039149,-0.00016952,-0.00002917,-0.00010790,0.0000
 3489,0.00003907,0.00015084,-0.00004557,-0.00002559,-0.00009713,-0.0000
 2653,-0.00002229,-0.00000746,0.00008855,-0.00002235,-0.00009258,-0.000
 02816,0.00003634,0.00002764,0.00264507,0.00528197,-0.00503563,-0.00622
 660,-0.02010418,0.01824441,0.05221409,0.19833207,0.03926912,0.12181477
 ,-0.15032459,0.00471847,-0.00094035,-0.00029160,-0.00169241,0.00040916
 ,0.00058902,0.00015172,-0.00012090,-0.00004425,-0.00009004,-0.00008749
 ,-0.00001596,0.00002292,0.00001961,0.00002762,0.00002391,-0.00000827,-
 0.00002401,-0.00002377,0.00014593,0.00004727,0.00004157,-0.00009113,-0
 .00003509,0.00664623,0.02172728,-0.01824150,-0.00357714,-0.00866638,0.
 00723339,-0.04552040,-0.13428505,0.16106883,0.00016150,-0.00147678,0.0
 0128473,0.00030747,-0.00006368,0.00006511,-0.02395108,0.02031504,-0.01
 782326,-0.10345300,0.08108157,-0.07128527,0.00453787,-0.00562772,0.006
 14149,0.00065213,0.00055337,0.00010299,-0.00016168,0.00057204,-0.00051
 091,0.00445558,-0.00667525,0.00464883,0.00063890,-0.00003638,-0.000537
 75,0.00000995,0.00011596,-0.00004370,0.00001003,0.00005918,-0.00010575
 ,-0.00076810,-0.00000067,0.00000976,0.11892726,0.00017947,-0.00022001,
 0.00020109,-0.00161531,0.00002432,0.00052130,0.00004486,0.00478182,-0.
 00385869,0.07982884,-0.15427350,0.10271190,0.01255146,-0.02599383,0.01
 886364,0.00140875,0.00453340,-0.00002854,0.00037254,0.00002778,-0.0012
 3134,-0.00181889,0.00379922,-0.00479722,-0.00060333,0.00057453,0.00067
 799,-0.00004693,-0.00000544,-0.00002385,0.00005214,-0.00001803,0.00000
 385,-0.00016459,-0.00002674,0.00004462,-0.08656340,0.16942853,-0.00015
 925,0.00021216,-0.00017476,0.00142829,0.00050894,0.00014319,0.00007632
 ,-0.00395365,0.00390515,-0.07018188,0.10270534,-0.12788422,0.00336965,
 -0.00849487,0.00551535,0.00078734,0.00116660,0.00065160,-0.00033480,-0
 .00123234,-0.00027472,-0.01291856,0.02267041,-0.02419552,-0.00147695,-
 0.00051534,0.00462500,-0.00005894,0.00000501,-0.00001988,0.00005189,-0
 .00002550,-0.00000754,0.00015108,0.00004436,-0.00001703,0.07607796,-0.
 11147449,0.14079646,-0.00003430,-0.00004764,-0.00004092,-0.00025524,0.
 00018018,0.00000333,0.00232478,0.00052389,0.00047014,0.00900638,-0.014
 08059,0.00483597,-0.14274814,0.11614946,-0.03389098,-0.00716947,0.0059
 1328,-0.01344617,-0.01348065,0.01834933,-0.00409359,-0.00205886,-0.000
 27919,0.00063619,0.00084624,0.00077335,0.00019497,0.00000142,0.0000132
 5,0.00000067,0.00005403,-0.00001235,-0.00000799,0.00002017,0.00000321,
 0.00000904,-0.00073872,-0.00340825,-0.00083444,0.15362246,0.00000236,-
 0.00010358,-0.00008348,-0.00115252,0.00045713,0.00002389,0.00226256,0.
 00215212,0.00026481,0.01547930,-0.02105227,0.00681526,0.11479763,-0.19
 308317,0.04229055,-0.00411894,0.00941092,-0.00187641,0.00051696,0.0001
 3324,0.00113698,-0.00027343,-0.00018000,0.00139265,-0.00013382,0.00002
 814,-0.00050643,-0.00004680,-0.00001123,0.00000604,-0.00003469,-0.0000
 1736,0.00003238,0.00001059,0.00001328,0.00001092,-0.00152610,-0.003749
 31,-0.00210830,-0.12505199,0.20306407,0.00002138,0.00002908,-0.0000336
 3,0.00001111,-0.00011376,-0.00007836,-0.00034445,-0.00021634,0.0004963
 4,-0.00000882,0.00097128,0.00168329,-0.03273730,0.03742466,-0.06036715
 ,-0.02896416,0.02217726,-0.02618515,0.01502992,-0.01428051,0.00621367,
 0.00039710,0.00152688,0.00033540,-0.00044851,-0.00034051,0.00007671,-0
 .00002104,-0.00000799,-0.00000110,0.00001075,0.00000753,0.00000125,-0.
 00000426,-0.00000848,0.00000053,-0.00004360,-0.00031044,-0.00042932,0.
 04413520,-0.04629423,0.07899979,0.00001592,0.00001934,-0.00000474,-0.0
 0026645,0.00010011,0.00007324,0.00030438,-0.00029315,0.00009975,-0.000
 27687,0.00112212,-0.00376096,-0.00872122,-0.01650127,-0.00038899,-0.07
 058713,-0.16061010,-0.02852978,0.00081342,-0.00039823,0.00007556,-0.00
 011760,-0.00054905,-0.00040244,0.00012309,-0.00001259,-0.00032116,-0.0
 0000547,-0.00000042,0.00000886,-0.00007850,0.00000134,0.00000138,-0.00
 000821,-0.00000194,-0.00000736,0.00016550,0.00032543,0.00015935,0.0006
 1528,-0.00025097,0.00149126,0.07786900,-0.00003264,-0.00000740,0.00001
 013,0.00005826,-0.00001272,-0.00000853,-0.00028365,-0.00006510,-0.0002
 8552,0.00057859,0.00206976,-0.00111611,0.00000854,-0.00599332,0.005513
 89,-0.17802267,-0.44682356,-0.04264452,0.00064814,-0.00019069,0.000684
 06,-0.00058793,-0.00072710,-0.00041661,0.00011503,0.00040456,-0.000035
 29,0.00000903,0.00000325,0.00000045,0.00003304,-0.00000735,-0.00000142
 ,0.00001331,0.00000703,0.00000202,-0.00009181,0.00091001,0.00004338,0.
 00059485,0.00199093,0.00148242,0.17679455,0.44869274,-0.00004217,0.000
 06949,0.00002531,-0.00003647,-0.00001999,0.00002609,-0.00006210,-0.000
 46834,-0.00043229,-0.00165776,0.00118458,-0.00505714,-0.01947213,-0.04
 216946,-0.00961046,-0.01123096,0.00441244,-0.03877053,0.00119360,-0.00
 025798,-0.00000865,-0.00066261,-0.00177109,0.00012364,0.00023110,0.000
 61929,-0.00033165,0.00001267,-0.00001318,-0.00000002,-0.00000413,-0.00
 001411,0.00001294,0.00002979,0.00001066,-0.00000754,0.00011536,0.00034
 868,0.00021939,-0.00034843,0.00086219,0.00132449,0.03153516,0.03719343
 ,0.05296328,0.00003811,0.00002704,-0.00002460,0.00004832,0.00001070,-0
 .00000898,0.00033999,-0.00048139,0.00042333,0.00042111,0.00013645,-0.0
 0012928,-0.01542667,0.00770253,-0.00849835,0.00333107,-0.00084092,-0.0
 0107963,-0.22321004,0.09414625,-0.08226537,-0.01559674,0.00954285,-0.0
 0659684,0.00336781,0.00097494,0.00096423,-0.00002091,0.00000126,-0.000
 00554,-0.00002061,0.00000573,-0.00000027,-0.00002690,-0.00000858,0.000
 00775,-0.00044389,-0.00061598,0.00054903,-0.00168777,-0.00076701,0.002
 08389,-0.00000772,0.00012305,0.00026623,0.24216582,0.00001200,-0.00003
 853,-0.00001619,0.00002160,0.00009106,0.00004148,0.00027956,-0.0000435
 9,-0.00003860,0.00034840,-0.00096516,-0.00040290,0.01193524,-0.0075244
 2,0.00463293,-0.00256945,0.00135946,0.00111747,0.09479594,-0.09671045,
 0.05002995,-0.02156553,0.01019177,-0.00934193,0.00249928,0.00342922,0.
 00118064,-0.00001379,0.00000657,-0.00000471,0.00000635,-0.00000209,0.0
 0000598,-0.00001600,0.00000836,0.00001194,-0.00065888,0.00008943,0.000
 38777,0.00148743,0.00027296,-0.00241100,0.00042418,-0.00018451,0.00001
 127,-0.10290802,0.10190830,-0.00001136,-0.00001411,-0.00004342,-0.0000
 1838,0.00004046,0.00010188,-0.00024856,-0.00003510,-0.00005353,-0.0003
 1614,-0.00040206,-0.00106340,0.02329070,-0.01168915,0.00952978,-0.0028
 3228,0.00093864,0.00373416,-0.08283707,0.05003268,-0.08333865,-0.01465
 674,0.00685357,-0.00801863,0.00289773,0.00135882,0.00162787,-0.0000080
 4,0.00000661,-0.00000162,0.00001426,-0.00000611,0.00000701,0.00001507,
 0.00001172,0.00001120,0.00058692,0.00038724,0.00017923,0.00325049,-0.0
 0043576,-0.00344023,-0.00000262,-0.00038927,-0.00015984,0.08992848,-0.
 05163241,0.08805965,0.00007754,0.00007468,-0.00006752,-0.00049345,0.00
 010560,-0.00009029,-0.00021759,-0.00136509,0.00121493,-0.00644342,-0.0
 0157492,0.00141559,-0.00384928,-0.01308269,0.00650809,-0.00023995,-0.0
 0002872,0.00122795,-0.06134192,-0.04659422,0.04119302,-0.00380493,-0.0
 0814427,0.01232779,-0.00025709,-0.00124445,-0.00013542,-0.00007936,-0.
 00000936,-0.00000670,-0.00007807,0.00000584,0.00001074,-0.00004554,-0.
 00001317,0.00001181,0.00019820,-0.00020898,0.00018245,0.00114952,0.000
 27430,-0.00057169,0.00022545,-0.00009067,-0.00002070,0.00846006,0.0189
 2116,-0.01674791,0.06535305,0.00005851,-0.00006773,-0.00010914,-0.0001
 6712,-0.00000914,-0.00000091,-0.00005174,0.00052243,0.00112493,-0.0022
 1885,-0.00001248,-0.00077556,-0.00044336,0.00953553,-0.00691787,0.0006
 4437,-0.00033510,-0.00137025,-0.04665291,-0.19068237,0.12335164,0.0028
 7797,-0.00789459,0.01580557,-0.00136717,-0.00306394,-0.00198746,-0.000
 07796,-0.00000498,-0.00000332,-0.00000696,0.00000657,0.00000965,-0.000
 03336,-0.00000206,0.00001412,0.00029029,0.00011932,-0.00031832,-0.0011
 2052,0.00062990,0.00080589,-0.00005415,-0.00002211,0.00006439,-0.00461
 599,-0.00876635,0.00775345,0.05236022,0.19882684,-0.00005331,-0.000107
 68,-0.00009567,0.00014936,-0.00000304,-0.00000892,0.00005594,0.0011304
 9,0.00079693,0.00198476,-0.00077823,-0.00022380,-0.00289017,0.01805402
 ,-0.00680236,0.00143406,-0.00165350,-0.00349547,0.04124464,0.12335161,
 -0.16036196,0.00083200,-0.00905481,0.01058401,-0.00082757,-0.00170176,
 -0.00074967,-0.00000224,0.00000774,0.00000753,0.00007773,-0.00000242,-
 0.00000453,0.00003017,0.00001406,0.00000131,-0.00025844,-0.00031588,0.
 00004057,-0.00081236,-0.00059729,0.00149793,0.00008071,0.00027740,-0.0
 0019371,0.00403607,0.00764256,-0.00677801,-0.04633823,-0.13720138,0.16
 510585,-0.00003379,0.00003241,0.00005305,-0.00025053,0.00002097,-0.000
 17571,0.00230970,-0.00040970,-0.00058299,0.00897526,-0.00653149,0.0132
 3907,-0.00206174,-0.00064911,0.00021774,0.00084461,-0.00010341,-0.0007
 9798,-0.01362663,0.00644379,-0.01769934,-0.14347252,0.04863804,-0.1110
 1515,-0.00695287,0.01394052,-0.00402507,0.00005458,0.00000645,0.000012
 93,0.00000190,0.00000140,-0.00001340,0.00001936,-0.00000848,-0.0000045
 4,-0.00071098,0.00040015,0.00346881,0.00065881,-0.00014108,-0.00010092
 ,-0.00012564,0.00019617,0.00009060,-0.00171949,-0.00305211,-0.00188309
 ,0.00116093,0.00066630,0.00121405,0.15432137,-0.00002054,-0.00002888,0
 .00003857,-0.00015387,-0.00005828,-0.00017626,0.00061076,0.00051476,-0
 .00042084,0.00190358,0.00040071,0.00357087,-0.00041023,-0.00002605,0.0
 0154669,0.00042371,0.00017844,-0.00032011,-0.01482069,0.00777386,-0.01
 317121,0.04729982,-0.07263256,0.05277185,0.02822525,-0.02833060,0.0173
 6529,-0.00001513,-0.00000343,0.00000907,0.00001506,-0.00000102,-0.0000
 0698,0.00000527,0.00000066,-0.00000990,-0.00014233,-0.00018442,0.00011
 866,0.00007630,0.00001171,-0.00060079,-0.00004291,0.00006432,0.0001629
 3,-0.00218378,-0.00300936,-0.00280306,0.00060738,0.00145311,0.00090030
 ,-0.05987623,0.09282531,-0.00000618,-0.00007312,-0.00011303,0.00114520
 ,-0.00004694,0.00043298,-0.00220132,0.00007365,0.00214773,-0.01546784,
 0.00959598,-0.01973607,0.00024094,0.00141317,0.00018461,0.00018125,-0.
 00048769,-0.00007195,-0.00229799,0.00206181,-0.00128168,-0.10979522,0.
 05762346,-0.18009030,0.00773786,-0.00666803,0.01133965,0.00003258,0.00
 003318,-0.00001186,0.00004895,0.00000695,-0.00001062,-0.00000923,0.000
 00943,0.00001383,0.00149477,-0.00167257,-0.00402194,0.00014481,-0.0007
 0622,-0.00015144,-0.00016062,-0.00022374,0.00002491,0.00050769,-0.0008
 3438,-0.00012622,-0.00020651,-0.00049647,0.00066349,0.11853399,-0.0603
 5033,0.18853675,0.00001613,0.00000755,-0.00001899,-0.00026753,-0.00005
 949,-0.00010656,0.00030670,-0.00014008,0.00027379,-0.00025590,0.003838
 04,-0.00063495,-0.00010673,0.00033224,0.00058245,0.00012310,0.00031404
 ,0.00005650,0.00080536,-0.00012433,0.00037951,-0.00853955,-0.00160897,
 0.01621478,-0.06879684,0.00861460,0.16116166,-0.00007868,-0.00000028,-
 0.00000113,-0.00000557,-0.00000890,-0.00000091,-0.00000818,0.00000706,
 0.00000338,0.00016305,-0.00011799,-0.00033737,-0.00012594,0.00015363,0
 .00006415,0.00006277,-0.00006319,0.00006296,-0.00001155,0.00005263,-0.
 00042147,0.00022583,-0.00008756,0.00004284,0.00060766,-0.00150143,0.00
 007689,0.07588587,0.00003826,0.00001304,0.00007122,0.00004499,0.000029
 89,-0.00001390,0.00002064,-0.00033349,-0.00050382,0.00169631,-0.004982
 60,0.00030255,0.00057844,0.00037498,-0.00163892,-0.00021475,-0.0003925
 6,0.00052081,-0.00110962,-0.00005763,-0.00023826,0.01911657,-0.0051362
 1,-0.04223169,-0.01045539,-0.04031469,0.05439788,0.00000836,0.00001499
 ,-0.00001128,-0.00001117,0.00000192,-0.00001324,-0.00002795,-0.0000086
 1,0.00000909,-0.00012445,0.00018292,0.00026016,-0.00006401,0.00003253,
 0.00015905,-0.00007229,-0.00010875,-0.00022517,-0.00024913,-0.00011267
 ,0.00002385,0.00000735,-0.00023285,0.00003780,0.00042541,0.00105170,0.
 00074186,-0.00960757,0.04997810,0.00003747,0.00001301,0.00000187,-0.00
 005163,-0.00000320,-0.00001429,0.00028504,-0.00031968,-0.00016633,-0.0
 0036647,-0.00201120,0.00197443,0.00065955,-0.00028352,-0.00098931,-0.0
 0014159,-0.00013565,0.00046543,-0.00079268,0.00070450,-0.00013353,0.00
 241676,0.00562778,-0.01064930,0.17607924,0.00716851,-0.44707274,-0.000
 03219,0.00000169,-0.00000866,-0.00001054,0.00000026,0.00000182,-0.0000
 1638,0.00000007,0.00000857,0.00008075,-0.00004730,0.00094902,-0.000205
 93,-0.00022754,0.00005698,0.00005339,-0.00008617,-0.00014821,-0.000157
 82,-0.00037988,-0.00022720,0.00009260,0.00025105,0.00001648,-0.0005320
 4,0.00137526,0.00227116,-0.17739753,-0.01164798,0.45366382\\-0.0000025
 4,-0.00000066,-0.00001415,0.00000167,-0.00000137,-0.00000308,0.0000078
 5,0.00001119,0.00004436,0.00001742,-0.00001002,-0.00003040,-0.00001019
 ,0.00001189,0.00000458,-0.00000232,-0.00000523,-0.00001558,-0.00000362
 ,-0.00001391,0.00001235,-0.00000416,-0.00000413,-0.00000385,-0.0000013
 4,0.00001416,0.00000457,-0.00000396,0.00000217,-0.00000174,0.00000111,
 0.00000185,-0.00000144,0.00000206,0.00000227,-0.00000213,-0.00000922,-
 0.00000959,0.00000885,-0.00000336,0.00000711,0.00000031,-0.00000118,-0
 .00000280,0.00000128,0.00001350,0.00000089,-0.00000194,0.00000212,-0.0
 0000233,0.00000342,-0.00000307,0.00000092,-0.00000756,-0.00000076,-0.0
 0000240,0.00000215\\\@


 THE MORE ACCURATE THE CALCULATIONS BECOME, THE MORE THE CONCEPTS
 TEND TO VANISH INTO THIN AIR.
     -- R.S. MULLIKEN, J.C.P. 43,S2(1965)
 Job cpu time:       0 days  1 hours 31 minutes 38.8 seconds.
 File lengths (MBytes):  RWF=    152 Int=      0 D2E=      0 Chk=      8 Scr=      1
 Normal termination of Gaussian 09 at Mon Jan 27 16:19:24 2020.
