 Entering Gaussian System, Link 0=/home/puck/opt/gaussian_09/g09
 Input=dsC7O2H10nsd_2053.com
 Output=dsC7O2H10nsd_2053.log
 Initial command:
 /home/puck/opt/gaussian_09/l1.exe "/scratch/puck/g09_a985cf5e-19ca-4461-a866-673c334d93a1/Gau-169739.inp" -scrdir="/scratch/puck/g09_a985cf5e-19ca-4461-a866-673c334d93a1/"
 Entering Link 1 = /home/puck/opt/gaussian_09/l1.exe PID=    169740.
  
 Copyright (c) 1988,1990,1992,1993,1995,1998,2003,2009,2013,
            Gaussian, Inc.  All Rights Reserved.
  
 This is part of the Gaussian(R) 09 program.  It is based on
 the Gaussian(R) 03 system (copyright 2003, Gaussian, Inc.),
 the Gaussian(R) 98 system (copyright 1998, Gaussian, Inc.),
 the Gaussian(R) 94 system (copyright 1995, Gaussian, Inc.),
 the Gaussian 92(TM) system (copyright 1992, Gaussian, Inc.),
 the Gaussian 90(TM) system (copyright 1990, Gaussian, Inc.),
 the Gaussian 88(TM) system (copyright 1988, Gaussian, Inc.),
 the Gaussian 86(TM) system (copyright 1986, Carnegie Mellon
 University), and the Gaussian 82(TM) system (copyright 1983,
 Carnegie Mellon University). Gaussian is a federally registered
 trademark of Gaussian, Inc.
  
 This software contains proprietary and confidential information,
 including trade secrets, belonging to Gaussian, Inc.
  
 This software is provided under written license and may be
 used, copied, transmitted, or stored only in accord with that
 written license.
  
 The following legend is applicable only to US Government
 contracts under FAR:
  
                    RESTRICTED RIGHTS LEGEND
  
 Use, reproduction and disclosure by the US Government is
 subject to restrictions as set forth in subparagraphs (a)
 and (c) of the Commercial Computer Software - Restricted
 Rights clause in FAR 52.227-19.
  
 Gaussian, Inc.
 340 Quinnipiac St., Bldg. 40, Wallingford CT 06492
  
  
 ---------------------------------------------------------------
 Warning -- This program may not be used in any manner that
 competes with the business of Gaussian, Inc. or will provide
 assistance to any competitor of Gaussian, Inc.  The licensee
 of this program is prohibited from giving any competitor of
 Gaussian, Inc. access to this program.  By using this program,
 the user acknowledges that Gaussian, Inc. is engaged in the
 business of creating and licensing software in the field of
 computational chemistry and represents and warrants to the
 licensee that it is not a competitor of Gaussian, Inc. and that
 it will not use this program in any manner prohibited above.
 ---------------------------------------------------------------
  

 Cite this work as:
 Gaussian 09, Revision D.01,
 M. J. Frisch, G. W. Trucks, H. B. Schlegel, G. E. Scuseria, 
 M. A. Robb, J. R. Cheeseman, G. Scalmani, V. Barone, B. Mennucci, 
 G. A. Petersson, H. Nakatsuji, M. Caricato, X. Li, H. P. Hratchian, 
 A. F. Izmaylov, J. Bloino, G. Zheng, J. L. Sonnenberg, M. Hada, 
 M. Ehara, K. Toyota, R. Fukuda, J. Hasegawa, M. Ishida, T. Nakajima, 
 Y. Honda, O. Kitao, H. Nakai, T. Vreven, J. A. Montgomery, Jr., 
 J. E. Peralta, F. Ogliaro, M. Bearpark, J. J. Heyd, E. Brothers, 
 K. N. Kudin, V. N. Staroverov, T. Keith, R. Kobayashi, J. Normand, 
 K. Raghavachari, A. Rendell, J. C. Burant, S. S. Iyengar, J. Tomasi, 
 M. Cossi, N. Rega, J. M. Millam, M. Klene, J. E. Knox, J. B. Cross, 
 V. Bakken, C. Adamo, J. Jaramillo, R. Gomperts, R. E. Stratmann, 
 O. Yazyev, A. J. Austin, R. Cammi, C. Pomelli, J. W. Ochterski, 
 R. L. Martin, K. Morokuma, V. G. Zakrzewski, G. A. Voth, 
 P. Salvador, J. J. Dannenberg, S. Dapprich, A. D. Daniels, 
 O. Farkas, J. B. Foresman, J. V. Ortiz, J. Cioslowski, 
 and D. J. Fox, Gaussian, Inc., Wallingford CT, 2013.
 
 ******************************************
 Gaussian 09:  ES64L-G09RevD.01 24-Apr-2013
                27-Jan-2020 
 ******************************************
 -----------------------------
 # b3lyp 6-31G(2df,p) opt Freq
 -----------------------------
 1/14=-1,18=20,19=15,26=3,38=1/1,3;
 2/9=110,12=2,17=6,18=5,40=1/2;
 3/5=1,6=6,7=104,11=2,16=1,25=1,30=1,71=1,74=-5/1,2,3;
 4//1;
 5/5=2,38=5/2;
 6/7=2,8=2,9=2,10=2,28=1/1;
 7//1,2,3,16;
 1/14=-1,18=20,19=15,26=3/3(2);
 2/9=110/2;
 99//99;
 2/9=110/2;
 3/5=1,6=6,7=104,11=2,16=1,25=1,30=1,71=1,74=-5/1,2,3;
 4/5=5,16=3,69=1/1;
 5/5=2,38=5/2;
 7//1,2,3,16;
 1/14=-1,18=20,19=15,26=3/3(-5);
 2/9=110/2;
 6/7=2,8=2,9=2,10=2,19=2,28=1/1;
 99/9=1/99;
 -----
 titel
 -----
 Symbolic Z-matrix:
 Charge =  0 Multiplicity = 1
 O                     0.28145   0.06942   0.71437 
 C                    -0.74245   0.9816    0.5905 
 C                    -2.175     0.54501   0.67648 
 C                    -1.68791   1.66987   1.55689 
 O                    -1.64684   2.89363   0.81588 
 C                    -0.65172   2.34576  -0.10623 
 C                     0.66669   3.04909   0.02511 
 C                     1.70072   2.89796  -1.06989 
 C                     0.99591   4.21297  -0.87471 
 H                     1.06895   0.5397    1.01167 
 H                    -2.88439   0.74431  -0.12331 
 H                    -2.2988   -0.40552   1.18761 
 H                    -1.78946   1.72292   2.63412 
 H                    -1.00559   2.38017  -1.1458 
 H                     1.03357   3.11229   1.04684 
 H                     2.74318   2.82047  -0.78226 
 H                     1.43502   2.30024  -1.93547 
 H                     1.55365   5.03959  -0.44995 
 H                     0.25244   4.50742  -1.60773 
 

 GradGradGradGradGradGradGradGradGradGradGradGradGradGradGradGradGradGrad
 Berny optimization.
 Initialization pass.
                           ----------------------------
                           !    Initial Parameters    !
                           ! (Angstroms and Degrees)  !
 --------------------------                            --------------------------
 ! Name  Definition              Value          Derivative Info.                !
 --------------------------------------------------------------------------------
 ! R1    R(1,2)                  1.3769         estimate D2E/DX2                !
 ! R2    R(1,10)                 0.9642         estimate D2E/DX2                !
 ! R3    R(2,3)                  1.5001         estimate D2E/DX2                !
 ! R4    R(2,4)                  1.5171         estimate D2E/DX2                !
 ! R5    R(2,6)                  1.5345         estimate D2E/DX2                !
 ! R6    R(3,4)                  1.5092         estimate D2E/DX2                !
 ! R7    R(3,11)                 1.0875         estimate D2E/DX2                !
 ! R8    R(3,12)                 1.0863         estimate D2E/DX2                !
 ! R9    R(4,5)                  1.4312         estimate D2E/DX2                !
 ! R10   R(4,13)                 1.0833         estimate D2E/DX2                !
 ! R11   R(5,6)                  1.4631         estimate D2E/DX2                !
 ! R12   R(6,7)                  1.5            estimate D2E/DX2                !
 ! R13   R(6,14)                 1.0987         estimate D2E/DX2                !
 ! R14   R(7,8)                  1.5136         estimate D2E/DX2                !
 ! R15   R(7,9)                  1.5075         estimate D2E/DX2                !
 ! R16   R(7,15)                 1.0874         estimate D2E/DX2                !
 ! R17   R(8,9)                  1.5047         estimate D2E/DX2                !
 ! R18   R(8,16)                 1.0842         estimate D2E/DX2                !
 ! R19   R(8,17)                 1.0849         estimate D2E/DX2                !
 ! R20   R(9,18)                 1.0839         estimate D2E/DX2                !
 ! R21   R(9,19)                 1.0848         estimate D2E/DX2                !
 ! A1    A(2,1,10)             108.1776         estimate D2E/DX2                !
 ! A2    A(1,2,3)              120.8101         estimate D2E/DX2                !
 ! A3    A(1,2,4)              134.9671         estimate D2E/DX2                !
 ! A4    A(1,2,6)              125.8629         estimate D2E/DX2                !
 ! A5    A(3,2,6)              109.9522         estimate D2E/DX2                !
 ! A6    A(4,2,6)               85.5698         estimate D2E/DX2                !
 ! A7    A(2,3,11)             121.8347         estimate D2E/DX2                !
 ! A8    A(2,3,12)             112.9835         estimate D2E/DX2                !
 ! A9    A(4,3,11)             120.197          estimate D2E/DX2                !
 ! A10   A(4,3,12)             114.4857         estimate D2E/DX2                !
 ! A11   A(11,3,12)            115.5985         estimate D2E/DX2                !
 ! A12   A(2,4,5)               92.3053         estimate D2E/DX2                !
 ! A13   A(2,4,13)             135.5676         estimate D2E/DX2                !
 ! A14   A(3,4,5)              110.1526         estimate D2E/DX2                !
 ! A15   A(3,4,13)             125.8974         estimate D2E/DX2                !
 ! A16   A(5,4,13)             118.4027         estimate D2E/DX2                !
 ! A17   A(4,5,6)               91.4697         estimate D2E/DX2                !
 ! A18   A(2,6,5)               90.3734         estimate D2E/DX2                !
 ! A19   A(2,6,7)              115.4069         estimate D2E/DX2                !
 ! A20   A(2,6,14)             116.0029         estimate D2E/DX2                !
 ! A21   A(5,6,7)              111.5325         estimate D2E/DX2                !
 ! A22   A(5,6,14)             111.4406         estimate D2E/DX2                !
 ! A23   A(7,6,14)             110.564          estimate D2E/DX2                !
 ! A24   A(6,7,8)              119.3583         estimate D2E/DX2                !
 ! A25   A(6,7,9)              120.1105         estimate D2E/DX2                !
 ! A26   A(6,7,15)             113.9569         estimate D2E/DX2                !
 ! A27   A(8,7,15)             117.0668         estimate D2E/DX2                !
 ! A28   A(9,7,15)             116.2481         estimate D2E/DX2                !
 ! A29   A(7,8,16)             118.1688         estimate D2E/DX2                !
 ! A30   A(7,8,17)             117.7017         estimate D2E/DX2                !
 ! A31   A(9,8,16)             118.5824         estimate D2E/DX2                !
 ! A32   A(9,8,17)             118.0506         estimate D2E/DX2                !
 ! A33   A(16,8,17)            114.0639         estimate D2E/DX2                !
 ! A34   A(7,9,18)             117.8569         estimate D2E/DX2                !
 ! A35   A(7,9,19)             117.5943         estimate D2E/DX2                !
 ! A36   A(8,9,18)             118.4449         estimate D2E/DX2                !
 ! A37   A(8,9,19)             118.0724         estimate D2E/DX2                !
 ! A38   A(18,9,19)            114.2346         estimate D2E/DX2                !
 ! D1    D(10,1,2,3)          -155.8281         estimate D2E/DX2                !
 ! D2    D(10,1,2,4)           -78.9215         estimate D2E/DX2                !
 ! D3    D(10,1,2,6)            47.0474         estimate D2E/DX2                !
 ! D4    D(1,2,3,11)          -123.4786         estimate D2E/DX2                !
 ! D5    D(1,2,3,12)            21.1826         estimate D2E/DX2                !
 ! D6    D(6,2,3,11)            36.9397         estimate D2E/DX2                !
 ! D7    D(6,2,3,12)          -178.3992         estimate D2E/DX2                !
 ! D8    D(1,2,4,5)            142.8247         estimate D2E/DX2                !
 ! D9    D(1,2,4,13)             6.6818         estimate D2E/DX2                !
 ! D10   D(6,2,4,5)              3.9621         estimate D2E/DX2                !
 ! D11   D(6,2,4,13)          -132.1807         estimate D2E/DX2                !
 ! D12   D(1,2,6,5)           -148.8198         estimate D2E/DX2                !
 ! D13   D(1,2,6,7)            -34.6507         estimate D2E/DX2                !
 ! D14   D(1,2,6,14)            96.9821         estimate D2E/DX2                !
 ! D15   D(3,2,6,5)             51.9852         estimate D2E/DX2                !
 ! D16   D(3,2,6,7)            166.1543         estimate D2E/DX2                !
 ! D17   D(3,2,6,14)           -62.2129         estimate D2E/DX2                !
 ! D18   D(4,2,6,5)             -3.8726         estimate D2E/DX2                !
 ! D19   D(4,2,6,7)            110.2965         estimate D2E/DX2                !
 ! D20   D(4,2,6,14)          -118.0707         estimate D2E/DX2                !
 ! D21   D(11,3,4,5)           -31.4691         estimate D2E/DX2                !
 ! D22   D(11,3,4,13)          121.5444         estimate D2E/DX2                !
 ! D23   D(12,3,4,5)          -175.9903         estimate D2E/DX2                !
 ! D24   D(12,3,4,13)          -22.9767         estimate D2E/DX2                !
 ! D25   D(2,4,5,6)             -4.1446         estimate D2E/DX2                !
 ! D26   D(3,4,5,6)            -62.3115         estimate D2E/DX2                !
 ! D27   D(13,4,5,6)           142.3903         estimate D2E/DX2                !
 ! D28   D(4,5,6,2)              4.0943         estimate D2E/DX2                !
 ! D29   D(4,5,6,7)           -113.5391         estimate D2E/DX2                !
 ! D30   D(4,5,6,14)           122.3613         estimate D2E/DX2                !
 ! D31   D(2,6,7,8)             95.0831         estimate D2E/DX2                !
 ! D32   D(2,6,7,9)            165.077          estimate D2E/DX2                !
 ! D33   D(2,6,7,15)           -50.1257         estimate D2E/DX2                !
 ! D34   D(5,6,7,8)           -163.6625         estimate D2E/DX2                !
 ! D35   D(5,6,7,9)            -93.6686         estimate D2E/DX2                !
 ! D36   D(5,6,7,15)            51.1288         estimate D2E/DX2                !
 ! D37   D(14,6,7,8)           -39.0704         estimate D2E/DX2                !
 ! D38   D(14,6,7,9)            30.9235         estimate D2E/DX2                !
 ! D39   D(14,6,7,15)          175.7208         estimate D2E/DX2                !
 ! D40   D(6,7,8,16)          -141.7472         estimate D2E/DX2                !
 ! D41   D(6,7,8,17)             1.726          estimate D2E/DX2                !
 ! D42   D(15,7,8,16)            2.4098         estimate D2E/DX2                !
 ! D43   D(15,7,8,17)          145.883          estimate D2E/DX2                !
 ! D44   D(6,7,9,18)           142.8694         estimate D2E/DX2                !
 ! D45   D(6,7,9,19)            -0.2699         estimate D2E/DX2                !
 ! D46   D(15,7,9,18)           -1.1598         estimate D2E/DX2                !
 ! D47   D(15,7,9,19)         -144.2991         estimate D2E/DX2                !
 ! D48   D(16,8,9,18)           -0.1647         estimate D2E/DX2                !
 ! D49   D(16,8,9,19)          144.7191         estimate D2E/DX2                !
 ! D50   D(17,8,9,18)         -144.8959         estimate D2E/DX2                !
 ! D51   D(17,8,9,19)           -0.0121         estimate D2E/DX2                !
 --------------------------------------------------------------------------------
 Trust Radius=3.00D-01 FncErr=1.00D-07 GrdErr=1.00D-06
 Number of steps in this run=    114 maximum allowed number of steps=    114.
 GradGradGradGradGradGradGradGradGradGradGradGradGradGradGradGradGradGrad

                          Input orientation:                          
 ---------------------------------------------------------------------
 Center     Atomic      Atomic             Coordinates (Angstroms)
 Number     Number       Type             X           Y           Z
 ---------------------------------------------------------------------
      1          8           0        0.281453    0.069418    0.714369
      2          6           0       -0.742450    0.981601    0.590500
      3          6           0       -2.174998    0.545010    0.676480
      4          6           0       -1.687905    1.669872    1.556892
      5          8           0       -1.646836    2.893630    0.815876
      6          6           0       -0.651721    2.345764   -0.106233
      7          6           0        0.666685    3.049089    0.025110
      8          6           0        1.700719    2.897956   -1.069887
      9          6           0        0.995913    4.212973   -0.874707
     10          1           0        1.068953    0.539702    1.011673
     11          1           0       -2.884389    0.744309   -0.123307
     12          1           0       -2.298795   -0.405516    1.187611
     13          1           0       -1.789457    1.722924    2.634117
     14          1           0       -1.005593    2.380168   -1.145796
     15          1           0        1.033568    3.112289    1.046838
     16          1           0        2.743177    2.820474   -0.782257
     17          1           0        1.435024    2.300241   -1.935468
     18          1           0        1.553653    5.039589   -0.449952
     19          1           0        0.252444    4.507416   -1.607729
 ---------------------------------------------------------------------
                    Distance matrix (angstroms):
                    1          2          3          4          5
     1  O    0.000000
     2  C    1.376880   0.000000
     3  C    2.502355   1.500066   0.000000
     4  C    2.673887   1.517075   1.509205   0.000000
     5  O    3.421225   2.127103   2.411307   1.431214   0.000000
     6  C    2.593444   1.534474   2.485101   2.072798   1.463112
     7  C    3.082519   2.565119   3.843157   3.129327   2.449869
     8  C    3.632976   3.521133   4.858738   4.459925   3.842167
     9  C    4.494960   3.951013   5.090659   4.425259   3.403360
    10  H    0.964216   1.911503   3.261228   3.028996   3.599282
    11  H    3.343612   2.270183   1.087481   2.260821   2.652015
    12  H    2.665934   2.168604   1.086316   2.194719   3.383431
    13  H    3.272337   2.412915   2.316995   1.083301   2.167232
    14  H    3.233616   2.244985   2.838310   2.876559   2.126733
    15  H    3.152028   2.811107   4.125892   3.122041   2.699208
    16  H    3.983501   4.173190   5.611960   5.141011   4.672430
    17  H    3.650881   3.586185   4.789088   4.727222   4.173712
    18  H    5.260868   4.777227   5.947514   5.088233   4.055933
    19  H    5.008873   4.272400   5.177909   4.672412   3.476411
                    6          7          8          9         10
     6  C    0.000000
     7  C    1.500037   0.000000
     8  C    2.601445   1.513633   0.000000
     9  C    2.606093   1.507544   1.504697   0.000000
    10  H    2.733549   2.726197   3.208330   4.129974   0.000000
    11  H    2.747682   4.236056   5.153389   5.258610   4.118126
    12  H    3.457807   4.698913   5.657326   6.036448   3.502303
    13  H    3.031813   3.820768   5.223187   5.125474   3.493258
    14  H    1.098681   2.148253   2.756445   2.727396   3.513649
    15  H    2.181131   1.087439   2.229698   2.214781   2.573071
    16  H    3.493951   2.239626   1.084183   2.236187   3.350094
    17  H    2.775370   2.234947   1.084937   2.230824   3.452412
    18  H    3.498358   2.230355   2.234399   1.083875   4.756076
    19  H    2.782938   2.228111   2.230950   1.084788   4.823973
                   11         12         13         14         15
    11  H    0.000000
    12  H    1.839436   0.000000
    13  H    3.124092   2.623369   0.000000
    14  H    2.692841   3.857097   3.915885   0.000000
    15  H    4.725141   4.847620   3.524098   3.082502   0.000000
    16  H    6.034416   6.301498   5.781090   3.792005   2.520616
    17  H    4.935806   5.569214   5.622427   2.566433   3.116847
    18  H    6.184848   6.868198   5.629221   3.755856   2.495065
    19  H    5.119004   6.201585   5.469554   2.514204   3.098912
                   16         17         18         19
    16  H    0.000000
    17  H    1.819836   0.000000
    18  H    2.539659   3.118471   0.000000
    19  H    3.119444   2.525378   1.821209   0.000000
 Stoichiometry    C7H10O2
 Framework group  C1[X(C7H10O2)]
 Deg. of freedom    51
 Full point group                 C1      NOp   1
 Largest Abelian subgroup         C1      NOp   1
 Largest concise Abelian subgroup C1      NOp   1
                         Standard orientation:                         
 ---------------------------------------------------------------------
 Center     Atomic      Atomic             Coordinates (Angstroms)
 Number     Number       Type             X           Y           Z
 ---------------------------------------------------------------------
      1          8           0       -1.052394    1.851060   -0.224203
      2          6           0       -1.098851    0.508821    0.079172
      3          6           0       -2.347261   -0.110720    0.634005
      4          6           0       -1.693874   -0.719905   -0.582415
      5          8           0       -0.587213   -1.538219   -0.189937
      6          6           0        0.109723   -0.386469    0.383168
      7          6           0        1.359036   -0.062638   -0.381334
      8          6           0        2.403130    0.834066    0.248646
      9          6           0        2.683839   -0.631940    0.058528
     10          1           0       -0.366941    1.985676   -0.888842
     11          1           0       -2.349856   -0.647230    1.579925
     12          1           0       -3.239872    0.470937    0.421866
     13          1           0       -2.181169   -0.930580   -1.526714
     14          1           0        0.337665   -0.543300    1.446439
     15          1           0        1.208342    0.031303   -1.454176
     16          1           0        2.916163    1.547099   -0.386834
     17          1           0        2.219094    1.191816    1.256235
     18          1           0        3.388527   -0.927197   -0.710253
     19          1           0        2.690445   -1.268541    0.936856
 ---------------------------------------------------------------------
 Rotational constants (GHZ):      3.2178302      1.2664756      1.0098415
 Standard basis: 6-31G(2df,p) (6D, 7F)
 There are   329 symmetry adapted cartesian basis functions of A   symmetry.
 There are   302 symmetry adapted basis functions of A   symmetry.
   302 basis functions,   466 primitive gaussians,   329 cartesian basis functions
    34 alpha electrons       34 beta electrons
       nuclear repulsion energy       463.2118756757 Hartrees.
 NAtoms=   19 NActive=   19 NUniq=   19 SFac= 1.00D+00 NAtFMM=   60 NAOKFM=F Big=F
 Integral buffers will be    131072 words long.
 Raffenetti 2 integral format.
 Two-electron integral symmetry is turned on.
 One-electron integrals computed using PRISM.
 NBasis=   302 RedAO= T EigKep=  5.15D-04  NBF=   302
 NBsUse=   302 1.00D-06 EigRej= -1.00D+00 NBFU=   302
 ExpMin= 1.61D-01 ExpMax= 5.48D+03 ExpMxC= 8.25D+02 IAcc=1 IRadAn=         1 AccDes= 0.00D+00
 Harris functional with IExCor=  402 and IRadAn=       1 diagonalized for initial guess.
 HarFok:  IExCor=  402 AccDes= 0.00D+00 IRadAn=         1 IDoV= 1 UseB2=F ITyADJ=14
 ICtDFT=  3500011 ScaDFX=  1.000000  1.000000  1.000000  1.000000
 FoFCou: FMM=F IPFlag=           0 FMFlag=      100000 FMFlg1=           0
         NFxFlg=           0 DoJE=T BraDBF=F KetDBF=T FulRan=T
         wScrn=  0.000000 ICntrl=     500 IOpCl=  0 I1Cent=   200000004 NGrid=           0
         NMat0=    1 NMatS0=      1 NMatT0=    0 NMatD0=    1 NMtDS0=    0 NMtDT0=    0
 Petite list used in FoFCou.
 Requested convergence on RMS density matrix=1.00D-08 within 128 cycles.
 Requested convergence on MAX density matrix=1.00D-06.
 Requested convergence on             energy=1.00D-06.
 No special actions if energy rises.
 Integral accuracy reduced to 1.0D-05 until final iterations.
 Initial convergence to 1.0D-05 achieved.  Increase integral accuracy.
 SCF Done:  E(RB3LYP) =  -423.118183159     A.U. after   13 cycles
            NFock= 13  Conv=0.36D-08     -V/T= 2.0075

 **********************************************************************

            Population analysis using the SCF density.

 **********************************************************************

 Orbital symmetries:
       Occupied  (A) (A) (A) (A) (A) (A) (A) (A) (A) (A) (A) (A)
                 (A) (A) (A) (A) (A) (A) (A) (A) (A) (A) (A) (A)
                 (A) (A) (A) (A) (A) (A) (A) (A) (A) (A)
       Virtual   (A) (A) (A) (A) (A) (A) (A) (A) (A) (A) (A) (A)
                 (A) (A) (A) (A) (A) (A) (A) (A) (A) (A) (A) (A)
                 (A) (A) (A) (A) (A) (A) (A) (A) (A) (A) (A) (A)
                 (A) (A) (A) (A) (A) (A) (A) (A) (A) (A) (A) (A)
                 (A) (A) (A) (A) (A) (A) (A) (A) (A) (A) (A) (A)
                 (A) (A) (A) (A) (A) (A) (A) (A) (A) (A) (A) (A)
                 (A) (A) (A) (A) (A) (A) (A) (A) (A) (A) (A) (A)
                 (A) (A) (A) (A) (A) (A) (A) (A) (A) (A) (A) (A)
                 (A) (A) (A) (A) (A) (A) (A) (A) (A) (A) (A) (A)
                 (A) (A) (A) (A) (A) (A) (A) (A) (A) (A) (A) (A)
                 (A) (A) (A) (A) (A) (A) (A) (A) (A) (A) (A) (A)
                 (A) (A) (A) (A) (A) (A) (A) (A) (A) (A) (A) (A)
                 (A) (A) (A) (A) (A) (A) (A) (A) (A) (A) (A) (A)
                 (A) (A) (A) (A) (A) (A) (A) (A) (A) (A) (A) (A)
                 (A) (A) (A) (A) (A) (A) (A) (A) (A) (A) (A) (A)
                 (A) (A) (A) (A) (A) (A) (A) (A) (A) (A) (A) (A)
                 (A) (A) (A) (A) (A) (A) (A) (A) (A) (A) (A) (A)
                 (A) (A) (A) (A) (A) (A) (A) (A) (A) (A) (A) (A)
                 (A) (A) (A) (A) (A) (A) (A) (A) (A) (A) (A) (A)
                 (A) (A) (A) (A) (A) (A) (A) (A) (A) (A) (A) (A)
                 (A) (A) (A) (A) (A) (A) (A) (A) (A) (A) (A) (A)
                 (A) (A) (A) (A) (A) (A) (A) (A) (A) (A) (A) (A)
                 (A) (A) (A) (A)
 The electronic state is 1-A.
 Alpha  occ. eigenvalues --  -19.15597 -19.13468 -10.24156 -10.23687 -10.23131
 Alpha  occ. eigenvalues --  -10.19805 -10.19411 -10.19159 -10.18504  -1.05676
 Alpha  occ. eigenvalues --   -1.02934  -0.86472  -0.82146  -0.71043  -0.60825
 Alpha  occ. eigenvalues --   -0.60119  -0.59607  -0.56722  -0.53773  -0.49231
 Alpha  occ. eigenvalues --   -0.48702  -0.46879  -0.43707  -0.40609  -0.39242
 Alpha  occ. eigenvalues --   -0.37415  -0.36977  -0.36414  -0.35115  -0.31691
 Alpha  occ. eigenvalues --   -0.30368  -0.27808  -0.26180  -0.22181
 Alpha virt. eigenvalues --    0.06386   0.08786   0.09506   0.10117   0.12674
 Alpha virt. eigenvalues --    0.13128   0.13716   0.14750   0.16129   0.16410
 Alpha virt. eigenvalues --    0.17519   0.19282   0.20950   0.22016   0.23723
 Alpha virt. eigenvalues --    0.24328   0.24999   0.25369   0.27402   0.31648
 Alpha virt. eigenvalues --    0.34776   0.41631   0.43178   0.45139   0.46658
 Alpha virt. eigenvalues --    0.47588   0.48909   0.49583   0.50135   0.52525
 Alpha virt. eigenvalues --    0.54529   0.54859   0.57424   0.57831   0.58119
 Alpha virt. eigenvalues --    0.60864   0.61109   0.63170   0.64950   0.65713
 Alpha virt. eigenvalues --    0.67917   0.70790   0.71970   0.73291   0.73509
 Alpha virt. eigenvalues --    0.76429   0.77844   0.78027   0.78453   0.79494
 Alpha virt. eigenvalues --    0.80854   0.83452   0.85723   0.87701   0.87951
 Alpha virt. eigenvalues --    0.92538   0.94051   0.95129   0.95969   0.99324
 Alpha virt. eigenvalues --    1.00286   1.02724   1.08045   1.09968   1.11228
 Alpha virt. eigenvalues --    1.13495   1.15265   1.16598   1.16785   1.19756
 Alpha virt. eigenvalues --    1.22199   1.24047   1.27790   1.29030   1.30762
 Alpha virt. eigenvalues --    1.30978   1.34678   1.35115   1.37959   1.40673
 Alpha virt. eigenvalues --    1.45117   1.46816   1.47438   1.48173   1.50779
 Alpha virt. eigenvalues --    1.51438   1.52034   1.53026   1.53485   1.56682
 Alpha virt. eigenvalues --    1.59321   1.61341   1.65465   1.66858   1.67543
 Alpha virt. eigenvalues --    1.71357   1.71857   1.74401   1.75332   1.79307
 Alpha virt. eigenvalues --    1.83727   1.85039   1.88437   1.90557   1.92481
 Alpha virt. eigenvalues --    1.97542   2.04715   2.06174   2.10250   2.14939
 Alpha virt. eigenvalues --    2.16829   2.21379   2.25048   2.25530   2.28895
 Alpha virt. eigenvalues --    2.30301   2.31853   2.32380   2.38592   2.40412
 Alpha virt. eigenvalues --    2.48558   2.50516   2.53189   2.57663   2.60409
 Alpha virt. eigenvalues --    2.62599   2.66112   2.68927   2.71174   2.73250
 Alpha virt. eigenvalues --    2.79345   2.80939   2.83696   2.84124   2.85273
 Alpha virt. eigenvalues --    2.86954   2.88906   2.90199   2.92569   2.94018
 Alpha virt. eigenvalues --    2.98422   2.98860   3.00707   3.04762   3.05185
 Alpha virt. eigenvalues --    3.05950   3.08275   3.09236   3.12791   3.13426
 Alpha virt. eigenvalues --    3.14169   3.16285   3.18608   3.19928   3.20317
 Alpha virt. eigenvalues --    3.23469   3.25740   3.28316   3.30494   3.32969
 Alpha virt. eigenvalues --    3.36355   3.39131   3.39911   3.42022   3.44185
 Alpha virt. eigenvalues --    3.48185   3.50209   3.52298   3.56048   3.59291
 Alpha virt. eigenvalues --    3.60677   3.64150   3.67016   3.69975   3.74155
 Alpha virt. eigenvalues --    3.79203   3.85458   3.89165   3.95545   3.96571
 Alpha virt. eigenvalues --    4.00420   4.03683   4.07559   4.10552   4.10975
 Alpha virt. eigenvalues --    4.13140   4.17233   4.20675   4.21434   4.28615
 Alpha virt. eigenvalues --    4.28763   4.32487   4.34804   4.36543   4.38524
 Alpha virt. eigenvalues --    4.39138   4.41016   4.43043   4.45061   4.46606
 Alpha virt. eigenvalues --    4.47878   4.49028   4.50481   4.54010   4.58458
 Alpha virt. eigenvalues --    4.59052   4.60532   4.62709   4.66980   4.68291
 Alpha virt. eigenvalues --    4.69272   4.71382   4.72443   4.73843   4.75585
 Alpha virt. eigenvalues --    4.76762   4.78910   4.81117   4.81749   4.82831
 Alpha virt. eigenvalues --    4.84230   4.86269   4.86485   4.90950   4.92831
 Alpha virt. eigenvalues --    4.95532   4.97511   5.02697   5.03594   5.13510
 Alpha virt. eigenvalues --    5.18114   5.23316   5.27528   5.30012   5.33915
 Alpha virt. eigenvalues --    5.36393   5.41012   5.43842   5.46178   5.51823
 Alpha virt. eigenvalues --    5.52280   5.59240   5.63849   5.69072   5.74655
 Alpha virt. eigenvalues --    5.75510   5.82683   5.82805   5.92898   5.94358
 Alpha virt. eigenvalues --    5.98710   6.02034   6.11086   6.13657   6.23479
 Alpha virt. eigenvalues --    6.48558   6.77292   7.17124   7.22500  10.77646
 Alpha virt. eigenvalues --   10.91525  11.80180  11.92162  12.00819  12.24133
 Alpha virt. eigenvalues --   12.37110  13.48293  13.57261
          Condensed to atoms (all electrons):
               1          2          3          4          5          6
     1  O    7.790620   0.442188  -0.008604  -0.046115   0.002884  -0.060272
     2  C    0.442188   4.541635   0.327651   0.243226  -0.052527   0.367789
     3  C   -0.008604   0.327651   5.160282   0.251148  -0.017664  -0.029096
     4  C   -0.046115   0.243226   0.251148   5.056390   0.317200  -0.205549
     5  O    0.002884  -0.052527  -0.017664   0.317200   7.837975   0.279069
     6  C   -0.060272   0.367789  -0.029096  -0.205549   0.279069   4.921883
     7  C    0.003519  -0.015636   0.002075   0.003716  -0.016054   0.406683
     8  C    0.000908  -0.001750   0.000057  -0.000198   0.003376  -0.010533
     9  C    0.000344   0.003144  -0.000186   0.000170  -0.001240  -0.006194
    10  H    0.320773  -0.078898   0.008698  -0.002651   0.000280  -0.005928
    11  H    0.000147  -0.029956   0.359282   0.000431  -0.002429  -0.006620
    12  H   -0.001246  -0.004236   0.343434  -0.012588   0.001930   0.004002
    13  H   -0.001156  -0.026272  -0.053189   0.376134  -0.027927   0.009029
    14  H    0.001224  -0.028567  -0.005385   0.008169  -0.021310   0.331946
    15  H   -0.000275  -0.003197   0.000141   0.003711  -0.001822  -0.038197
    16  H   -0.000028   0.000217  -0.000001   0.000004  -0.000041   0.001495
    17  H    0.000084   0.000243  -0.000046   0.000029   0.000031  -0.005902
    18  H    0.000000  -0.000104   0.000001   0.000025   0.000023   0.001479
    19  H    0.000000   0.000209  -0.000002  -0.000014   0.000179  -0.005832
               7          8          9         10         11         12
     1  O    0.003519   0.000908   0.000344   0.320773   0.000147  -0.001246
     2  C   -0.015636  -0.001750   0.003144  -0.078898  -0.029956  -0.004236
     3  C    0.002075   0.000057  -0.000186   0.008698   0.359282   0.343434
     4  C    0.003716  -0.000198   0.000170  -0.002651   0.000431  -0.012588
     5  O   -0.016054   0.003376  -0.001240   0.000280  -0.002429   0.001930
     6  C    0.406683  -0.010533  -0.006194  -0.005928  -0.006620   0.004002
     7  C    4.760479   0.267834   0.326646   0.007685   0.000419  -0.000116
     8  C    0.267834   5.009626   0.316580   0.002002  -0.000004  -0.000004
     9  C    0.326646   0.316580   4.960052  -0.000267  -0.000005   0.000002
    10  H    0.007685   0.002002  -0.000267   0.456222  -0.000128  -0.000236
    11  H    0.000419  -0.000004  -0.000005  -0.000128   0.595459  -0.034182
    12  H   -0.000116  -0.000004   0.000002  -0.000236  -0.034182   0.583038
    13  H    0.000594  -0.000014  -0.000002   0.000684   0.001566  -0.000972
    14  H   -0.050702  -0.000895  -0.006314  -0.000136   0.003771  -0.000072
    15  H    0.369448  -0.035307  -0.035024   0.001160   0.000019  -0.000001
    16  H   -0.011180   0.376708  -0.020091  -0.000053   0.000000   0.000000
    17  H   -0.021444   0.385665  -0.021423  -0.000181  -0.000001   0.000000
    18  H   -0.012269  -0.020654   0.378170   0.000008   0.000000   0.000000
    19  H   -0.020715  -0.019386   0.382491   0.000010   0.000002   0.000000
              13         14         15         16         17         18
     1  O   -0.001156   0.001224  -0.000275  -0.000028   0.000084   0.000000
     2  C   -0.026272  -0.028567  -0.003197   0.000217   0.000243  -0.000104
     3  C   -0.053189  -0.005385   0.000141  -0.000001  -0.000046   0.000001
     4  C    0.376134   0.008169   0.003711   0.000004   0.000029   0.000025
     5  O   -0.027927  -0.021310  -0.001822  -0.000041   0.000031   0.000023
     6  C    0.009029   0.331946  -0.038197   0.001495  -0.005902   0.001479
     7  C    0.000594  -0.050702   0.369448  -0.011180  -0.021444  -0.012269
     8  C   -0.000014  -0.000895  -0.035307   0.376708   0.385665  -0.020654
     9  C   -0.000002  -0.006314  -0.035024  -0.020091  -0.021423   0.378170
    10  H    0.000684  -0.000136   0.001160  -0.000053  -0.000181   0.000008
    11  H    0.001566   0.003771   0.000019   0.000000  -0.000001   0.000000
    12  H   -0.000972  -0.000072  -0.000001   0.000000   0.000000   0.000000
    13  H    0.616097  -0.000687  -0.000250   0.000000   0.000000   0.000000
    14  H   -0.000687   0.677884   0.007059  -0.000153   0.003768  -0.000065
    15  H   -0.000250   0.007059   0.653967  -0.005859   0.003165  -0.005956
    16  H    0.000000  -0.000153  -0.005859   0.588213  -0.039701  -0.006590
    17  H    0.000000   0.003768   0.003165  -0.039701   0.577800   0.002532
    18  H    0.000000  -0.000065  -0.005956  -0.006590   0.002532   0.584202
    19  H   -0.000001   0.004824   0.003104   0.002549  -0.005939  -0.038481
              19
     1  O    0.000000
     2  C    0.000209
     3  C   -0.000002
     4  C   -0.000014
     5  O    0.000179
     6  C   -0.005832
     7  C   -0.020715
     8  C   -0.019386
     9  C    0.382491
    10  H    0.000010
    11  H    0.000002
    12  H    0.000000
    13  H   -0.000001
    14  H    0.004824
    15  H    0.003104
    16  H    0.002549
    17  H   -0.005939
    18  H   -0.038481
    19  H    0.576044
 Mulliken charges:
               1
     1  O   -0.444995
     2  C    0.314841
     3  C   -0.338596
     4  C    0.006762
     5  O   -0.301933
     6  C    0.050748
     7  C   -0.000984
     8  C   -0.274011
     9  C   -0.276854
    10  H    0.290955
    11  H    0.112229
    12  H    0.121246
    13  H    0.106366
    14  H    0.075640
    15  H    0.084116
    16  H    0.114511
    17  H    0.121320
    18  H    0.117681
    19  H    0.120958
 Sum of Mulliken charges =   0.00000
 Mulliken charges with hydrogens summed into heavy atoms:
               1
     1  O   -0.154040
     2  C    0.314841
     3  C   -0.105121
     4  C    0.113128
     5  O   -0.301933
     6  C    0.126388
     7  C    0.083132
     8  C   -0.038179
     9  C   -0.038215
 Electronic spatial extent (au):  <R**2>=           1203.0305
 Charge=              0.0000 electrons
 Dipole moment (field-independent basis, Debye):
    X=              1.0062    Y=              0.9349    Z=             -0.7303  Tot=              1.5556
 Quadrupole moment (field-independent basis, Debye-Ang):
   XX=            -50.6540   YY=            -58.7024   ZZ=            -49.4510
   XY=              1.8269   XZ=              0.0368   YZ=             -2.5762
 Traceless Quadrupole moment (field-independent basis, Debye-Ang):
   XX=              2.2818   YY=             -5.7666   ZZ=              3.4848
   XY=              1.8269   XZ=              0.0368   YZ=             -2.5762
 Octapole moment (field-independent basis, Debye-Ang**2):
  XXX=            -12.5432  YYY=              7.5210  ZZZ=             -3.6585  XYY=              7.7985
  XXY=             -2.9441  XXZ=             -5.7515  XZZ=             -2.1679  YZZ=              1.1896
  YYZ=             -4.2342  XYZ=             -1.9174
 Hexadecapole moment (field-independent basis, Debye-Ang**3):
 XXXX=          -1073.2412 YYYY=           -364.4036 ZZZZ=           -134.6621 XXXY=            -12.7046
 XXXZ=            -13.1767 YYYX=              6.6982 YYYZ=            -13.1250 ZZZX=              4.5441
 ZZZY=             -4.2570 XXYY=           -240.6006 XXZZ=           -193.3368 YYZZ=            -73.8285
 XXYZ=              1.1998 YYXZ=              2.7272 ZZXY=              2.6408
 N-N= 4.632118756757D+02 E-N=-1.912985071312D+03  KE= 4.199884350892D+02
 Calling FoFJK, ICntrl=      2127 FMM=F ISym2X=0 I1Cent= 0 IOpClX= 0 NMat=1 NMatS=1 NMatT=0.
 ***** Axes restored to original set *****
 -------------------------------------------------------------------
 Center     Atomic                   Forces (Hartrees/Bohr)
 Number     Number              X              Y              Z
 -------------------------------------------------------------------
      1        8           0.000002191    0.000030430   -0.000016365
      2        6           0.000009092   -0.000050513    0.000033156
      3        6           0.000014818    0.000039910   -0.000011829
      4        6          -0.000000383    0.000009600   -0.000024987
      5        8          -0.000006004   -0.000010771    0.000016805
      6        6           0.000000756   -0.000001071   -0.000015580
      7        6          -0.000005287    0.000000371   -0.000008017
      8        6           0.000006017    0.000027271    0.000025999
      9        6           0.000001712   -0.000027025   -0.000002407
     10        1          -0.000003845   -0.000000396    0.000008832
     11        1          -0.000005563   -0.000024705   -0.000002754
     12        1           0.000000509   -0.000003387    0.000006748
     13        1          -0.000008140   -0.000000327    0.000003303
     14        1           0.000002651   -0.000003705    0.000000565
     15        1          -0.000004939    0.000005009   -0.000001472
     16        1           0.000003456   -0.000003128   -0.000007125
     17        1          -0.000000495   -0.000000998    0.000001660
     18        1          -0.000007293    0.000007648   -0.000002346
     19        1           0.000000747    0.000005787   -0.000004188
 -------------------------------------------------------------------
 Cartesian Forces:  Max     0.000050513 RMS     0.000014365

 GradGradGradGradGradGradGradGradGradGradGradGradGradGradGradGradGradGrad
 Berny optimization.
 FormGI is forming the generalized inverse of G from B-inverse, IUseBI=4.
 Internal  Forces:  Max     0.000022358 RMS     0.000004952
 Search for a local minimum.
 Step number   1 out of a maximum of  114
 All quantities printed in internal units (Hartrees-Bohrs-Radians)
 Mixed Optimization -- En-DIIS/RFO-DIIS
 Second derivative matrix not updated -- first step.
 ITU=  0
     Eigenvalues ---    0.00765   0.01009   0.01883   0.01998   0.02282
     Eigenvalues ---    0.02341   0.02584   0.03028   0.03095   0.03119
     Eigenvalues ---    0.03302   0.03555   0.03586   0.03861   0.05296
     Eigenvalues ---    0.06174   0.08305   0.08784   0.10072   0.10463
     Eigenvalues ---    0.10480   0.10961   0.11025   0.11949   0.15248
     Eigenvalues ---    0.16000   0.16000   0.16687   0.17290   0.20300
     Eigenvalues ---    0.22130   0.24512   0.26132   0.27449   0.27631
     Eigenvalues ---    0.30952   0.31511   0.32373   0.33828   0.34398
     Eigenvalues ---    0.35105   0.35110   0.35242   0.35404   0.35422
     Eigenvalues ---    0.35494   0.35530   0.35598   0.37926   0.49677
     Eigenvalues ---    0.54576
 RFO step:  Lambda=-2.25737917D-08 EMin= 7.65453339D-03
 Linear search not attempted -- first point.
 Iteration  1 RMS(Cart)=  0.00005524 RMS(Int)=  0.00000000
 Iteration  2 RMS(Cart)=  0.00000000 RMS(Int)=  0.00000000
 Variable       Old X    -DE/DX   Delta X   Delta X   Delta X     New X
                                 (Linear)    (Quad)   (Total)
    R1        2.60193  -0.00002   0.00000  -0.00005  -0.00005   2.60188
    R2        1.82210  -0.00001   0.00000  -0.00001  -0.00001   1.82209
    R3        2.83471   0.00000   0.00000  -0.00002  -0.00002   2.83470
    R4        2.86686   0.00000   0.00000   0.00002   0.00002   2.86687
    R5        2.89973   0.00000   0.00000   0.00003   0.00003   2.89976
    R6        2.85198  -0.00001   0.00000  -0.00003  -0.00003   2.85195
    R7        2.05504   0.00000   0.00000   0.00001   0.00001   2.05505
    R8        2.05284   0.00000   0.00000   0.00001   0.00001   2.05285
    R9        2.70460  -0.00001   0.00000  -0.00004  -0.00004   2.70456
   R10        2.04714   0.00001   0.00000   0.00002   0.00002   2.04716
   R11        2.76488   0.00001   0.00000   0.00002   0.00002   2.76490
   R12        2.83466   0.00000   0.00000   0.00001   0.00001   2.83467
   R13        2.07621   0.00000   0.00000  -0.00001  -0.00001   2.07620
   R14        2.86035   0.00000   0.00000   0.00000   0.00000   2.86035
   R15        2.84884   0.00000   0.00000  -0.00001  -0.00001   2.84884
   R16        2.05496   0.00000   0.00000  -0.00001  -0.00001   2.05495
   R17        2.84347  -0.00001   0.00000  -0.00005  -0.00005   2.84342
   R18        2.04881   0.00000   0.00000   0.00000   0.00000   2.04881
   R19        2.05023   0.00000   0.00000   0.00001   0.00001   2.05024
   R20        2.04823   0.00000   0.00000   0.00001   0.00001   2.04823
   R21        2.04995   0.00000   0.00000   0.00000   0.00000   2.04996
    A1        1.88806   0.00000   0.00000   0.00001   0.00001   1.88806
    A2        2.10853   0.00001   0.00000   0.00006   0.00006   2.10859
    A3        2.35562   0.00001   0.00000   0.00009   0.00009   2.35571
    A4        2.19672  -0.00001   0.00000  -0.00006  -0.00006   2.19666
    A5        1.91903  -0.00001   0.00000  -0.00002  -0.00002   1.91900
    A6        1.49348   0.00000   0.00000  -0.00001  -0.00001   1.49346
    A7        2.12642   0.00001   0.00000   0.00008   0.00008   2.12650
    A8        1.97193  -0.00001   0.00000   0.00000   0.00000   1.97193
    A9        2.09783   0.00001   0.00000   0.00013   0.00013   2.09796
   A10        1.99815   0.00000   0.00000  -0.00010  -0.00010   1.99805
   A11        2.01757  -0.00001   0.00000  -0.00008  -0.00008   2.01750
   A12        1.61103   0.00001   0.00000   0.00002   0.00002   1.61105
   A13        2.36610   0.00000   0.00000   0.00002   0.00002   2.36612
   A14        1.92253   0.00000   0.00000   0.00004   0.00004   1.92256
   A15        2.19732   0.00000   0.00000  -0.00004  -0.00004   2.19728
   A16        2.06652   0.00000   0.00000  -0.00001  -0.00001   2.06651
   A17        1.59645   0.00000   0.00000   0.00001   0.00001   1.59646
   A18        1.57731   0.00000   0.00000  -0.00001  -0.00001   1.57731
   A19        2.01423   0.00000   0.00000  -0.00002  -0.00002   2.01421
   A20        2.02463   0.00000   0.00000   0.00001   0.00001   2.02464
   A21        1.94661   0.00000   0.00000  -0.00002  -0.00002   1.94659
   A22        1.94501   0.00000   0.00000   0.00001   0.00001   1.94502
   A23        1.92971   0.00000   0.00000   0.00001   0.00001   1.92972
   A24        2.08320   0.00001   0.00000   0.00003   0.00003   2.08322
   A25        2.09632   0.00000   0.00000   0.00003   0.00003   2.09635
   A26        1.98892   0.00000   0.00000  -0.00002  -0.00002   1.98891
   A27        2.04320   0.00000   0.00000   0.00000   0.00000   2.04320
   A28        2.02891   0.00000   0.00000  -0.00002  -0.00002   2.02889
   A29        2.06243   0.00001   0.00000   0.00009   0.00009   2.06253
   A30        2.05428  -0.00001   0.00000  -0.00005  -0.00005   2.05423
   A31        2.06965   0.00001   0.00000   0.00006   0.00006   2.06972
   A32        2.06037   0.00000   0.00000  -0.00004  -0.00004   2.06033
   A33        1.99079   0.00000   0.00000  -0.00004  -0.00004   1.99075
   A34        2.05699   0.00000   0.00000   0.00000   0.00000   2.05699
   A35        2.05241   0.00000   0.00000   0.00004   0.00004   2.05245
   A36        2.06725   0.00000   0.00000   0.00002   0.00002   2.06727
   A37        2.06075   0.00000   0.00000   0.00002   0.00002   2.06077
   A38        1.99377   0.00000   0.00000  -0.00005  -0.00005   1.99372
    D1       -2.71971   0.00000   0.00000   0.00012   0.00012  -2.71959
    D2       -1.37744   0.00001   0.00000   0.00019   0.00019  -1.37725
    D3        0.82113   0.00000   0.00000   0.00020   0.00020   0.82133
    D4       -2.15511   0.00001   0.00000   0.00022   0.00022  -2.15489
    D5        0.36971   0.00001   0.00000   0.00020   0.00020   0.36990
    D6        0.64472   0.00001   0.00000   0.00014   0.00014   0.64486
    D7       -3.11365   0.00000   0.00000   0.00012   0.00012  -3.11353
    D8        2.49276  -0.00001   0.00000  -0.00008  -0.00008   2.49268
    D9        0.11662  -0.00001   0.00000  -0.00011  -0.00011   0.11651
   D10        0.06915   0.00000   0.00000  -0.00005  -0.00005   0.06911
   D11       -2.30699   0.00000   0.00000  -0.00008  -0.00008  -2.30707
   D12       -2.59739   0.00000   0.00000  -0.00002  -0.00002  -2.59741
   D13       -0.60477   0.00000   0.00000  -0.00004  -0.00004  -0.60481
   D14        1.69266   0.00000   0.00000  -0.00003  -0.00003   1.69263
   D15        0.90731   0.00000   0.00000   0.00004   0.00004   0.90735
   D16        2.89994   0.00000   0.00000   0.00001   0.00001   2.89995
   D17       -1.08582   0.00000   0.00000   0.00002   0.00002  -1.08580
   D18       -0.06759   0.00000   0.00000   0.00005   0.00005  -0.06754
   D19        1.92504   0.00000   0.00000   0.00002   0.00002   1.92506
   D20       -2.06072   0.00000   0.00000   0.00004   0.00004  -2.06069
   D21       -0.54924   0.00000   0.00000  -0.00006  -0.00006  -0.54930
   D22        2.12135  -0.00001   0.00000  -0.00009  -0.00009   2.12126
   D23       -3.07161   0.00000   0.00000   0.00005   0.00005  -3.07156
   D24       -0.40102   0.00000   0.00000   0.00002   0.00002  -0.40100
   D25       -0.07234   0.00000   0.00000   0.00005   0.00005  -0.07229
   D26       -1.08754   0.00000   0.00000   0.00005   0.00005  -1.08749
   D27        2.48518   0.00000   0.00000   0.00009   0.00009   2.48527
   D28        0.07146   0.00000   0.00000  -0.00005  -0.00005   0.07141
   D29       -1.98163   0.00000   0.00000  -0.00002  -0.00002  -1.98165
   D30        2.13561   0.00000   0.00000  -0.00004  -0.00004   2.13557
   D31        1.65951   0.00000   0.00000   0.00001   0.00001   1.65952
   D32        2.88114   0.00000   0.00000   0.00001   0.00001   2.88115
   D33       -0.87486   0.00000   0.00000   0.00000   0.00000  -0.87486
   D34       -2.85645   0.00000   0.00000  -0.00001  -0.00001  -2.85646
   D35       -1.63483   0.00000   0.00000  -0.00001  -0.00001  -1.63484
   D36        0.89237   0.00000   0.00000  -0.00003  -0.00003   0.89233
   D37       -0.68191   0.00000   0.00000   0.00000   0.00000  -0.68191
   D38        0.53972   0.00000   0.00000   0.00000   0.00000   0.53971
   D39        3.06691   0.00000   0.00000  -0.00002  -0.00002   3.06689
   D40       -2.47396   0.00000   0.00000   0.00006   0.00006  -2.47390
   D41        0.03012   0.00000   0.00000   0.00004   0.00004   0.03016
   D42        0.04206   0.00000   0.00000   0.00007   0.00007   0.04213
   D43        2.54614   0.00000   0.00000   0.00005   0.00005   2.54619
   D44        2.49354   0.00000   0.00000  -0.00004  -0.00004   2.49350
   D45       -0.00471   0.00000   0.00000  -0.00001  -0.00001  -0.00472
   D46       -0.02024   0.00000   0.00000  -0.00003  -0.00003  -0.02027
   D47       -2.51849   0.00000   0.00000   0.00001   0.00001  -2.51848
   D48       -0.00287   0.00000   0.00000  -0.00009  -0.00009  -0.00297
   D49        2.52583  -0.00001   0.00000  -0.00013  -0.00013   2.52569
   D50       -2.52891   0.00000   0.00000  -0.00005  -0.00005  -2.52896
   D51       -0.00021   0.00000   0.00000  -0.00009  -0.00009  -0.00030
         Item               Value     Threshold  Converged?
 Maximum Force            0.000022     0.000450     YES
 RMS     Force            0.000005     0.000300     YES
 Maximum Displacement     0.000291     0.001800     YES
 RMS     Displacement     0.000055     0.001200     YES
 Predicted change in Energy=-1.128727D-08
 Optimization completed.
    -- Stationary point found.
                           ----------------------------
                           !   Optimized Parameters   !
                           ! (Angstroms and Degrees)  !
 --------------------------                            --------------------------
 ! Name  Definition              Value          Derivative Info.                !
 --------------------------------------------------------------------------------
 ! R1    R(1,2)                  1.3769         -DE/DX =    0.0                 !
 ! R2    R(1,10)                 0.9642         -DE/DX =    0.0                 !
 ! R3    R(2,3)                  1.5001         -DE/DX =    0.0                 !
 ! R4    R(2,4)                  1.5171         -DE/DX =    0.0                 !
 ! R5    R(2,6)                  1.5345         -DE/DX =    0.0                 !
 ! R6    R(3,4)                  1.5092         -DE/DX =    0.0                 !
 ! R7    R(3,11)                 1.0875         -DE/DX =    0.0                 !
 ! R8    R(3,12)                 1.0863         -DE/DX =    0.0                 !
 ! R9    R(4,5)                  1.4312         -DE/DX =    0.0                 !
 ! R10   R(4,13)                 1.0833         -DE/DX =    0.0                 !
 ! R11   R(5,6)                  1.4631         -DE/DX =    0.0                 !
 ! R12   R(6,7)                  1.5            -DE/DX =    0.0                 !
 ! R13   R(6,14)                 1.0987         -DE/DX =    0.0                 !
 ! R14   R(7,8)                  1.5136         -DE/DX =    0.0                 !
 ! R15   R(7,9)                  1.5075         -DE/DX =    0.0                 !
 ! R16   R(7,15)                 1.0874         -DE/DX =    0.0                 !
 ! R17   R(8,9)                  1.5047         -DE/DX =    0.0                 !
 ! R18   R(8,16)                 1.0842         -DE/DX =    0.0                 !
 ! R19   R(8,17)                 1.0849         -DE/DX =    0.0                 !
 ! R20   R(9,18)                 1.0839         -DE/DX =    0.0                 !
 ! R21   R(9,19)                 1.0848         -DE/DX =    0.0                 !
 ! A1    A(2,1,10)             108.1776         -DE/DX =    0.0                 !
 ! A2    A(1,2,3)              120.8101         -DE/DX =    0.0                 !
 ! A3    A(1,2,4)              134.9671         -DE/DX =    0.0                 !
 ! A4    A(1,2,6)              125.8629         -DE/DX =    0.0                 !
 ! A5    A(3,2,6)              109.9522         -DE/DX =    0.0                 !
 ! A6    A(4,2,6)               85.5698         -DE/DX =    0.0                 !
 ! A7    A(2,3,11)             121.8347         -DE/DX =    0.0                 !
 ! A8    A(2,3,12)             112.9835         -DE/DX =    0.0                 !
 ! A9    A(4,3,11)             120.197          -DE/DX =    0.0                 !
 ! A10   A(4,3,12)             114.4857         -DE/DX =    0.0                 !
 ! A11   A(11,3,12)            115.5985         -DE/DX =    0.0                 !
 ! A12   A(2,4,5)               92.3053         -DE/DX =    0.0                 !
 ! A13   A(2,4,13)             135.5676         -DE/DX =    0.0                 !
 ! A14   A(3,4,5)              110.1526         -DE/DX =    0.0                 !
 ! A15   A(3,4,13)             125.8974         -DE/DX =    0.0                 !
 ! A16   A(5,4,13)             118.4027         -DE/DX =    0.0                 !
 ! A17   A(4,5,6)               91.4697         -DE/DX =    0.0                 !
 ! A18   A(2,6,5)               90.3734         -DE/DX =    0.0                 !
 ! A19   A(2,6,7)              115.4069         -DE/DX =    0.0                 !
 ! A20   A(2,6,14)             116.0029         -DE/DX =    0.0                 !
 ! A21   A(5,6,7)              111.5325         -DE/DX =    0.0                 !
 ! A22   A(5,6,14)             111.4406         -DE/DX =    0.0                 !
 ! A23   A(7,6,14)             110.564          -DE/DX =    0.0                 !
 ! A24   A(6,7,8)              119.3583         -DE/DX =    0.0                 !
 ! A25   A(6,7,9)              120.1105         -DE/DX =    0.0                 !
 ! A26   A(6,7,15)             113.9569         -DE/DX =    0.0                 !
 ! A27   A(8,7,15)             117.0668         -DE/DX =    0.0                 !
 ! A28   A(9,7,15)             116.2481         -DE/DX =    0.0                 !
 ! A29   A(7,8,16)             118.1688         -DE/DX =    0.0                 !
 ! A30   A(7,8,17)             117.7017         -DE/DX =    0.0                 !
 ! A31   A(9,8,16)             118.5824         -DE/DX =    0.0                 !
 ! A32   A(9,8,17)             118.0506         -DE/DX =    0.0                 !
 ! A33   A(16,8,17)            114.0639         -DE/DX =    0.0                 !
 ! A34   A(7,9,18)             117.8569         -DE/DX =    0.0                 !
 ! A35   A(7,9,19)             117.5943         -DE/DX =    0.0                 !
 ! A36   A(8,9,18)             118.4449         -DE/DX =    0.0                 !
 ! A37   A(8,9,19)             118.0724         -DE/DX =    0.0                 !
 ! A38   A(18,9,19)            114.2346         -DE/DX =    0.0                 !
 ! D1    D(10,1,2,3)          -155.8281         -DE/DX =    0.0                 !
 ! D2    D(10,1,2,4)           -78.9215         -DE/DX =    0.0                 !
 ! D3    D(10,1,2,6)            47.0474         -DE/DX =    0.0                 !
 ! D4    D(1,2,3,11)          -123.4786         -DE/DX =    0.0                 !
 ! D5    D(1,2,3,12)            21.1826         -DE/DX =    0.0                 !
 ! D6    D(6,2,3,11)            36.9397         -DE/DX =    0.0                 !
 ! D7    D(6,2,3,12)          -178.3992         -DE/DX =    0.0                 !
 ! D8    D(1,2,4,5)            142.8247         -DE/DX =    0.0                 !
 ! D9    D(1,2,4,13)             6.6818         -DE/DX =    0.0                 !
 ! D10   D(6,2,4,5)              3.9621         -DE/DX =    0.0                 !
 ! D11   D(6,2,4,13)          -132.1807         -DE/DX =    0.0                 !
 ! D12   D(1,2,6,5)           -148.8198         -DE/DX =    0.0                 !
 ! D13   D(1,2,6,7)            -34.6507         -DE/DX =    0.0                 !
 ! D14   D(1,2,6,14)            96.9821         -DE/DX =    0.0                 !
 ! D15   D(3,2,6,5)             51.9852         -DE/DX =    0.0                 !
 ! D16   D(3,2,6,7)            166.1543         -DE/DX =    0.0                 !
 ! D17   D(3,2,6,14)           -62.2129         -DE/DX =    0.0                 !
 ! D18   D(4,2,6,5)             -3.8726         -DE/DX =    0.0                 !
 ! D19   D(4,2,6,7)            110.2965         -DE/DX =    0.0                 !
 ! D20   D(4,2,6,14)          -118.0707         -DE/DX =    0.0                 !
 ! D21   D(11,3,4,5)           -31.4691         -DE/DX =    0.0                 !
 ! D22   D(11,3,4,13)          121.5444         -DE/DX =    0.0                 !
 ! D23   D(12,3,4,5)          -175.9903         -DE/DX =    0.0                 !
 ! D24   D(12,3,4,13)          -22.9767         -DE/DX =    0.0                 !
 ! D25   D(2,4,5,6)             -4.1446         -DE/DX =    0.0                 !
 ! D26   D(3,4,5,6)            -62.3115         -DE/DX =    0.0                 !
 ! D27   D(13,4,5,6)           142.3903         -DE/DX =    0.0                 !
 ! D28   D(4,5,6,2)              4.0943         -DE/DX =    0.0                 !
 ! D29   D(4,5,6,7)           -113.5391         -DE/DX =    0.0                 !
 ! D30   D(4,5,6,14)           122.3613         -DE/DX =    0.0                 !
 ! D31   D(2,6,7,8)             95.0831         -DE/DX =    0.0                 !
 ! D32   D(2,6,7,9)            165.077          -DE/DX =    0.0                 !
 ! D33   D(2,6,7,15)           -50.1257         -DE/DX =    0.0                 !
 ! D34   D(5,6,7,8)           -163.6625         -DE/DX =    0.0                 !
 ! D35   D(5,6,7,9)            -93.6686         -DE/DX =    0.0                 !
 ! D36   D(5,6,7,15)            51.1288         -DE/DX =    0.0                 !
 ! D37   D(14,6,7,8)           -39.0704         -DE/DX =    0.0                 !
 ! D38   D(14,6,7,9)            30.9235         -DE/DX =    0.0                 !
 ! D39   D(14,6,7,15)          175.7208         -DE/DX =    0.0                 !
 ! D40   D(6,7,8,16)          -141.7472         -DE/DX =    0.0                 !
 ! D41   D(6,7,8,17)             1.726          -DE/DX =    0.0                 !
 ! D42   D(15,7,8,16)            2.4098         -DE/DX =    0.0                 !
 ! D43   D(15,7,8,17)          145.883          -DE/DX =    0.0                 !
 ! D44   D(6,7,9,18)           142.8694         -DE/DX =    0.0                 !
 ! D45   D(6,7,9,19)            -0.2699         -DE/DX =    0.0                 !
 ! D46   D(15,7,9,18)           -1.1598         -DE/DX =    0.0                 !
 ! D47   D(15,7,9,19)         -144.2991         -DE/DX =    0.0                 !
 ! D48   D(16,8,9,18)           -0.1647         -DE/DX =    0.0                 !
 ! D49   D(16,8,9,19)          144.7191         -DE/DX =    0.0                 !
 ! D50   D(17,8,9,18)         -144.8959         -DE/DX =    0.0                 !
 ! D51   D(17,8,9,19)           -0.0121         -DE/DX =    0.0                 !
 --------------------------------------------------------------------------------
 GradGradGradGradGradGradGradGradGradGradGradGradGradGradGradGradGradGrad

                          Input orientation:                          
 ---------------------------------------------------------------------
 Center     Atomic      Atomic             Coordinates (Angstroms)
 Number     Number       Type             X           Y           Z
 ---------------------------------------------------------------------
      1          8           0        0.281453    0.069418    0.714369
      2          6           0       -0.742450    0.981601    0.590500
      3          6           0       -2.174998    0.545010    0.676480
      4          6           0       -1.687905    1.669872    1.556892
      5          8           0       -1.646836    2.893630    0.815876
      6          6           0       -0.651721    2.345764   -0.106233
      7          6           0        0.666685    3.049089    0.025110
      8          6           0        1.700719    2.897956   -1.069887
      9          6           0        0.995913    4.212973   -0.874707
     10          1           0        1.068953    0.539702    1.011673
     11          1           0       -2.884389    0.744309   -0.123307
     12          1           0       -2.298795   -0.405516    1.187611
     13          1           0       -1.789457    1.722924    2.634117
     14          1           0       -1.005593    2.380168   -1.145796
     15          1           0        1.033568    3.112289    1.046838
     16          1           0        2.743177    2.820474   -0.782257
     17          1           0        1.435024    2.300241   -1.935468
     18          1           0        1.553653    5.039589   -0.449952
     19          1           0        0.252444    4.507416   -1.607729
 ---------------------------------------------------------------------
                    Distance matrix (angstroms):
                    1          2          3          4          5
     1  O    0.000000
     2  C    1.376880   0.000000
     3  C    2.502355   1.500066   0.000000
     4  C    2.673887   1.517075   1.509205   0.000000
     5  O    3.421225   2.127103   2.411307   1.431214   0.000000
     6  C    2.593444   1.534474   2.485101   2.072798   1.463112
     7  C    3.082519   2.565119   3.843157   3.129327   2.449869
     8  C    3.632976   3.521133   4.858738   4.459925   3.842167
     9  C    4.494960   3.951013   5.090659   4.425259   3.403360
    10  H    0.964216   1.911503   3.261228   3.028996   3.599282
    11  H    3.343612   2.270183   1.087481   2.260821   2.652015
    12  H    2.665934   2.168604   1.086316   2.194719   3.383431
    13  H    3.272337   2.412915   2.316995   1.083301   2.167232
    14  H    3.233616   2.244985   2.838310   2.876559   2.126733
    15  H    3.152028   2.811107   4.125892   3.122041   2.699208
    16  H    3.983501   4.173190   5.611960   5.141011   4.672430
    17  H    3.650881   3.586185   4.789088   4.727222   4.173712
    18  H    5.260868   4.777227   5.947514   5.088233   4.055933
    19  H    5.008873   4.272400   5.177909   4.672412   3.476411
                    6          7          8          9         10
     6  C    0.000000
     7  C    1.500037   0.000000
     8  C    2.601445   1.513633   0.000000
     9  C    2.606093   1.507544   1.504697   0.000000
    10  H    2.733549   2.726197   3.208330   4.129974   0.000000
    11  H    2.747682   4.236056   5.153389   5.258610   4.118126
    12  H    3.457807   4.698913   5.657326   6.036448   3.502303
    13  H    3.031813   3.820768   5.223187   5.125474   3.493258
    14  H    1.098681   2.148253   2.756445   2.727396   3.513649
    15  H    2.181131   1.087439   2.229698   2.214781   2.573071
    16  H    3.493951   2.239626   1.084183   2.236187   3.350094
    17  H    2.775370   2.234947   1.084937   2.230824   3.452412
    18  H    3.498358   2.230355   2.234399   1.083875   4.756076
    19  H    2.782938   2.228111   2.230950   1.084788   4.823973
                   11         12         13         14         15
    11  H    0.000000
    12  H    1.839436   0.000000
    13  H    3.124092   2.623369   0.000000
    14  H    2.692841   3.857097   3.915885   0.000000
    15  H    4.725141   4.847620   3.524098   3.082502   0.000000
    16  H    6.034416   6.301498   5.781090   3.792005   2.520616
    17  H    4.935806   5.569214   5.622427   2.566433   3.116847
    18  H    6.184848   6.868198   5.629221   3.755856   2.495065
    19  H    5.119004   6.201585   5.469554   2.514204   3.098912
                   16         17         18         19
    16  H    0.000000
    17  H    1.819836   0.000000
    18  H    2.539659   3.118471   0.000000
    19  H    3.119444   2.525378   1.821209   0.000000
 Stoichiometry    C7H10O2
 Framework group  C1[X(C7H10O2)]
 Deg. of freedom    51
 Full point group                 C1      NOp   1
 Largest Abelian subgroup         C1      NOp   1
 Largest concise Abelian subgroup C1      NOp   1
                         Standard orientation:                         
 ---------------------------------------------------------------------
 Center     Atomic      Atomic             Coordinates (Angstroms)
 Number     Number       Type             X           Y           Z
 ---------------------------------------------------------------------
      1          8           0       -1.052394    1.851060   -0.224203
      2          6           0       -1.098851    0.508821    0.079172
      3          6           0       -2.347261   -0.110720    0.634005
      4          6           0       -1.693874   -0.719905   -0.582415
      5          8           0       -0.587213   -1.538219   -0.189937
      6          6           0        0.109723   -0.386469    0.383168
      7          6           0        1.359036   -0.062638   -0.381334
      8          6           0        2.403130    0.834066    0.248646
      9          6           0        2.683839   -0.631940    0.058528
     10          1           0       -0.366941    1.985676   -0.888842
     11          1           0       -2.349856   -0.647230    1.579925
     12          1           0       -3.239872    0.470937    0.421866
     13          1           0       -2.181169   -0.930580   -1.526714
     14          1           0        0.337665   -0.543300    1.446439
     15          1           0        1.208342    0.031303   -1.454176
     16          1           0        2.916163    1.547099   -0.386834
     17          1           0        2.219094    1.191816    1.256235
     18          1           0        3.388527   -0.927197   -0.710253
     19          1           0        2.690445   -1.268541    0.936856
 ---------------------------------------------------------------------
 Rotational constants (GHZ):      3.2178302      1.2664756      1.0098415
 1\1\GINC-ALCHEMY-BE\FOpt\RB3LYP\6-31G(2df,p)\C7H10O2\PUCK\27-Jan-2020\
 0\\# b3lyp 6-31G(2df,p) opt Freq\\titel\\0,1\O,0.2814534371,0.06941797
 08,0.7143693444\C,-0.7424504699,0.9816005393,0.5904998265\C,-2.1749984
 29,0.5450103362,0.6764798324\C,-1.6879053578,1.669872321,1.5568918343\
 O,-1.6468362635,2.8936303191,0.8158761974\C,-0.6517207561,2.3457637474
 ,-0.1062326085\C,0.6666853451,3.0490890078,0.0251104105\C,1.7007189142
 ,2.8979560281,-1.0698868306\C,0.9959133966,4.2129726089,-0.8747071509\
 H,1.068953435,0.5397021428,1.0116732269\H,-2.8843891447,0.7443092809,-
 0.1233072973\H,-2.2987952013,-0.405516362,1.1876108048\H,-1.7894574915
 ,1.7229241972,2.6341172987\H,-1.0055928572,2.3801684909,-1.1457955573\
 H,1.0335680846,3.112289379,1.0468375294\H,2.7431771006,2.8204737776,-0
 .7822572252\H,1.4350236232,2.3002407895,-1.9354683487\H,1.5536526344,5
 .0395890544,-0.4499518847\H,0.2524435003,4.5074164312,-1.607728972\\Ve
 rsion=ES64L-G09RevD.01\State=1-A\HF=-423.1181832\RMSD=3.636e-09\RMSF=1
 .436e-05\Dipole=0.6084656,0.0336953,0.0565478\Quadrupole=1.3529725,-3.
 5173546,2.164382,2.6159291,1.2718837,-1.2632321\PG=C01 [X(C7H10O2)]\\@


 THERE'S SMALL CHOICE IN A BOWL OF ROTTEN APPLES.
                     SHAKESPEARE
 Job cpu time:       0 days  0 hours  6 minutes  5.6 seconds.
 File lengths (MBytes):  RWF=     52 Int=      0 D2E=      0 Chk=      7 Scr=      1
 Normal termination of Gaussian 09 at Mon Jan 27 17:54:48 2020.
 Link1:  Proceeding to internal job step number  2.
 ----------------------------------------------------------------------
 #N Geom=AllCheck Guess=TCheck SCRF=Check GenChk RB3LYP/6-31G(2df,p) Fr
 eq
 ----------------------------------------------------------------------
 1/10=4,29=7,30=1,38=1,40=1/1,3;
 2/12=2,40=1/2;
 3/5=1,6=6,7=104,11=2,14=-4,16=1,25=1,30=1,70=2,71=2,74=-5,116=1,140=1/1,2,3;
 4/5=101/1;
 5/5=2,98=1/2;
 8/6=4,10=90,11=11/1;
 11/6=1,8=1,9=11,15=111,16=1/1,2,10;
 10/6=1/2;
 6/7=2,8=2,9=2,10=2,18=1,28=1/1;
 7/8=1,10=1,25=1/1,2,3,16;
 1/10=4,30=1/3;
 99//99;
 Structure from the checkpoint file:  "/scratch/puck/g09_a985cf5e-19ca-4461-a866-673c334d93a1/Gau-169740.chk"
 -----
 titel
 -----
 Charge =  0 Multiplicity = 1
 Redundant internal coordinates found in file.
 O,0,0.2814534371,0.0694179708,0.7143693444
 C,0,-0.7424504699,0.9816005393,0.5904998265
 C,0,-2.174998429,0.5450103362,0.6764798324
 C,0,-1.6879053578,1.669872321,1.5568918343
 O,0,-1.6468362635,2.8936303191,0.8158761974
 C,0,-0.6517207561,2.3457637474,-0.1062326085
 C,0,0.6666853451,3.0490890078,0.0251104105
 C,0,1.7007189142,2.8979560281,-1.0698868306
 C,0,0.9959133966,4.2129726089,-0.8747071509
 H,0,1.068953435,0.5397021428,1.0116732269
 H,0,-2.8843891447,0.7443092809,-0.1233072973
 H,0,-2.2987952013,-0.405516362,1.1876108048
 H,0,-1.7894574915,1.7229241972,2.6341172987
 H,0,-1.0055928572,2.3801684909,-1.1457955573
 H,0,1.0335680846,3.112289379,1.0468375294
 H,0,2.7431771006,2.8204737776,-0.7822572252
 H,0,1.4350236232,2.3002407895,-1.9354683487
 H,0,1.5536526344,5.0395890544,-0.4499518847
 H,0,0.2524435003,4.5074164312,-1.607728972
 Recover connectivity data from disk.

 GradGradGradGradGradGradGradGradGradGradGradGradGradGradGradGradGradGrad
 Berny optimization.
 Initialization pass.
                           ----------------------------
                           !    Initial Parameters    !
                           ! (Angstroms and Degrees)  !
 --------------------------                            --------------------------
 ! Name  Definition              Value          Derivative Info.                !
 --------------------------------------------------------------------------------
 ! R1    R(1,2)                  1.3769         calculate D2E/DX2 analytically  !
 ! R2    R(1,10)                 0.9642         calculate D2E/DX2 analytically  !
 ! R3    R(2,3)                  1.5001         calculate D2E/DX2 analytically  !
 ! R4    R(2,4)                  1.5171         calculate D2E/DX2 analytically  !
 ! R5    R(2,6)                  1.5345         calculate D2E/DX2 analytically  !
 ! R6    R(3,4)                  1.5092         calculate D2E/DX2 analytically  !
 ! R7    R(3,11)                 1.0875         calculate D2E/DX2 analytically  !
 ! R8    R(3,12)                 1.0863         calculate D2E/DX2 analytically  !
 ! R9    R(4,5)                  1.4312         calculate D2E/DX2 analytically  !
 ! R10   R(4,13)                 1.0833         calculate D2E/DX2 analytically  !
 ! R11   R(5,6)                  1.4631         calculate D2E/DX2 analytically  !
 ! R12   R(6,7)                  1.5            calculate D2E/DX2 analytically  !
 ! R13   R(6,14)                 1.0987         calculate D2E/DX2 analytically  !
 ! R14   R(7,8)                  1.5136         calculate D2E/DX2 analytically  !
 ! R15   R(7,9)                  1.5075         calculate D2E/DX2 analytically  !
 ! R16   R(7,15)                 1.0874         calculate D2E/DX2 analytically  !
 ! R17   R(8,9)                  1.5047         calculate D2E/DX2 analytically  !
 ! R18   R(8,16)                 1.0842         calculate D2E/DX2 analytically  !
 ! R19   R(8,17)                 1.0849         calculate D2E/DX2 analytically  !
 ! R20   R(9,18)                 1.0839         calculate D2E/DX2 analytically  !
 ! R21   R(9,19)                 1.0848         calculate D2E/DX2 analytically  !
 ! A1    A(2,1,10)             108.1776         calculate D2E/DX2 analytically  !
 ! A2    A(1,2,3)              120.8101         calculate D2E/DX2 analytically  !
 ! A3    A(1,2,4)              134.9671         calculate D2E/DX2 analytically  !
 ! A4    A(1,2,6)              125.8629         calculate D2E/DX2 analytically  !
 ! A5    A(3,2,6)              109.9522         calculate D2E/DX2 analytically  !
 ! A6    A(4,2,6)               85.5698         calculate D2E/DX2 analytically  !
 ! A7    A(2,3,11)             121.8347         calculate D2E/DX2 analytically  !
 ! A8    A(2,3,12)             112.9835         calculate D2E/DX2 analytically  !
 ! A9    A(4,3,11)             120.197          calculate D2E/DX2 analytically  !
 ! A10   A(4,3,12)             114.4857         calculate D2E/DX2 analytically  !
 ! A11   A(11,3,12)            115.5985         calculate D2E/DX2 analytically  !
 ! A12   A(2,4,5)               92.3053         calculate D2E/DX2 analytically  !
 ! A13   A(2,4,13)             135.5676         calculate D2E/DX2 analytically  !
 ! A14   A(3,4,5)              110.1526         calculate D2E/DX2 analytically  !
 ! A15   A(3,4,13)             125.8974         calculate D2E/DX2 analytically  !
 ! A16   A(5,4,13)             118.4027         calculate D2E/DX2 analytically  !
 ! A17   A(4,5,6)               91.4697         calculate D2E/DX2 analytically  !
 ! A18   A(2,6,5)               90.3734         calculate D2E/DX2 analytically  !
 ! A19   A(2,6,7)              115.4069         calculate D2E/DX2 analytically  !
 ! A20   A(2,6,14)             116.0029         calculate D2E/DX2 analytically  !
 ! A21   A(5,6,7)              111.5325         calculate D2E/DX2 analytically  !
 ! A22   A(5,6,14)             111.4406         calculate D2E/DX2 analytically  !
 ! A23   A(7,6,14)             110.564          calculate D2E/DX2 analytically  !
 ! A24   A(6,7,8)              119.3583         calculate D2E/DX2 analytically  !
 ! A25   A(6,7,9)              120.1105         calculate D2E/DX2 analytically  !
 ! A26   A(6,7,15)             113.9569         calculate D2E/DX2 analytically  !
 ! A27   A(8,7,15)             117.0668         calculate D2E/DX2 analytically  !
 ! A28   A(9,7,15)             116.2481         calculate D2E/DX2 analytically  !
 ! A29   A(7,8,16)             118.1688         calculate D2E/DX2 analytically  !
 ! A30   A(7,8,17)             117.7017         calculate D2E/DX2 analytically  !
 ! A31   A(9,8,16)             118.5824         calculate D2E/DX2 analytically  !
 ! A32   A(9,8,17)             118.0506         calculate D2E/DX2 analytically  !
 ! A33   A(16,8,17)            114.0639         calculate D2E/DX2 analytically  !
 ! A34   A(7,9,18)             117.8569         calculate D2E/DX2 analytically  !
 ! A35   A(7,9,19)             117.5943         calculate D2E/DX2 analytically  !
 ! A36   A(8,9,18)             118.4449         calculate D2E/DX2 analytically  !
 ! A37   A(8,9,19)             118.0724         calculate D2E/DX2 analytically  !
 ! A38   A(18,9,19)            114.2346         calculate D2E/DX2 analytically  !
 ! D1    D(10,1,2,3)          -155.8281         calculate D2E/DX2 analytically  !
 ! D2    D(10,1,2,4)           -78.9215         calculate D2E/DX2 analytically  !
 ! D3    D(10,1,2,6)            47.0474         calculate D2E/DX2 analytically  !
 ! D4    D(1,2,3,11)          -123.4786         calculate D2E/DX2 analytically  !
 ! D5    D(1,2,3,12)            21.1826         calculate D2E/DX2 analytically  !
 ! D6    D(6,2,3,11)            36.9397         calculate D2E/DX2 analytically  !
 ! D7    D(6,2,3,12)          -178.3992         calculate D2E/DX2 analytically  !
 ! D8    D(1,2,4,5)            142.8247         calculate D2E/DX2 analytically  !
 ! D9    D(1,2,4,13)             6.6818         calculate D2E/DX2 analytically  !
 ! D10   D(6,2,4,5)              3.9621         calculate D2E/DX2 analytically  !
 ! D11   D(6,2,4,13)          -132.1807         calculate D2E/DX2 analytically  !
 ! D12   D(1,2,6,5)           -148.8198         calculate D2E/DX2 analytically  !
 ! D13   D(1,2,6,7)            -34.6507         calculate D2E/DX2 analytically  !
 ! D14   D(1,2,6,14)            96.9821         calculate D2E/DX2 analytically  !
 ! D15   D(3,2,6,5)             51.9852         calculate D2E/DX2 analytically  !
 ! D16   D(3,2,6,7)            166.1543         calculate D2E/DX2 analytically  !
 ! D17   D(3,2,6,14)           -62.2129         calculate D2E/DX2 analytically  !
 ! D18   D(4,2,6,5)             -3.8726         calculate D2E/DX2 analytically  !
 ! D19   D(4,2,6,7)            110.2965         calculate D2E/DX2 analytically  !
 ! D20   D(4,2,6,14)          -118.0707         calculate D2E/DX2 analytically  !
 ! D21   D(11,3,4,5)           -31.4691         calculate D2E/DX2 analytically  !
 ! D22   D(11,3,4,13)          121.5444         calculate D2E/DX2 analytically  !
 ! D23   D(12,3,4,5)          -175.9903         calculate D2E/DX2 analytically  !
 ! D24   D(12,3,4,13)          -22.9767         calculate D2E/DX2 analytically  !
 ! D25   D(2,4,5,6)             -4.1446         calculate D2E/DX2 analytically  !
 ! D26   D(3,4,5,6)            -62.3115         calculate D2E/DX2 analytically  !
 ! D27   D(13,4,5,6)           142.3903         calculate D2E/DX2 analytically  !
 ! D28   D(4,5,6,2)              4.0943         calculate D2E/DX2 analytically  !
 ! D29   D(4,5,6,7)           -113.5391         calculate D2E/DX2 analytically  !
 ! D30   D(4,5,6,14)           122.3613         calculate D2E/DX2 analytically  !
 ! D31   D(2,6,7,8)             95.0831         calculate D2E/DX2 analytically  !
 ! D32   D(2,6,7,9)            165.077          calculate D2E/DX2 analytically  !
 ! D33   D(2,6,7,15)           -50.1257         calculate D2E/DX2 analytically  !
 ! D34   D(5,6,7,8)           -163.6625         calculate D2E/DX2 analytically  !
 ! D35   D(5,6,7,9)            -93.6686         calculate D2E/DX2 analytically  !
 ! D36   D(5,6,7,15)            51.1288         calculate D2E/DX2 analytically  !
 ! D37   D(14,6,7,8)           -39.0704         calculate D2E/DX2 analytically  !
 ! D38   D(14,6,7,9)            30.9235         calculate D2E/DX2 analytically  !
 ! D39   D(14,6,7,15)          175.7208         calculate D2E/DX2 analytically  !
 ! D40   D(6,7,8,16)          -141.7472         calculate D2E/DX2 analytically  !
 ! D41   D(6,7,8,17)             1.726          calculate D2E/DX2 analytically  !
 ! D42   D(15,7,8,16)            2.4098         calculate D2E/DX2 analytically  !
 ! D43   D(15,7,8,17)          145.883          calculate D2E/DX2 analytically  !
 ! D44   D(6,7,9,18)           142.8694         calculate D2E/DX2 analytically  !
 ! D45   D(6,7,9,19)            -0.2699         calculate D2E/DX2 analytically  !
 ! D46   D(15,7,9,18)           -1.1598         calculate D2E/DX2 analytically  !
 ! D47   D(15,7,9,19)         -144.2991         calculate D2E/DX2 analytically  !
 ! D48   D(16,8,9,18)           -0.1647         calculate D2E/DX2 analytically  !
 ! D49   D(16,8,9,19)          144.7191         calculate D2E/DX2 analytically  !
 ! D50   D(17,8,9,18)         -144.8959         calculate D2E/DX2 analytically  !
 ! D51   D(17,8,9,19)           -0.0121         calculate D2E/DX2 analytically  !
 --------------------------------------------------------------------------------
 Trust Radius=3.00D-01 FncErr=1.00D-07 GrdErr=1.00D-07
 Number of steps in this run=      2 maximum allowed number of steps=      2.
 GradGradGradGradGradGradGradGradGradGradGradGradGradGradGradGradGradGrad

                          Input orientation:                          
 ---------------------------------------------------------------------
 Center     Atomic      Atomic             Coordinates (Angstroms)
 Number     Number       Type             X           Y           Z
 ---------------------------------------------------------------------
      1          8           0        0.281453    0.069418    0.714369
      2          6           0       -0.742450    0.981601    0.590500
      3          6           0       -2.174998    0.545010    0.676480
      4          6           0       -1.687905    1.669872    1.556892
      5          8           0       -1.646836    2.893630    0.815876
      6          6           0       -0.651721    2.345764   -0.106233
      7          6           0        0.666685    3.049089    0.025110
      8          6           0        1.700719    2.897956   -1.069887
[...]
 01050764,-0.00110017,0.07039277,-0.04404881,-0.06018795,-0.05416900,-0
 .12190245,-0.06996254,-0.00733613,0.42292411,0.00813376,0.00224988,0.0
 1397635,0.06419511,-0.03151873,-0.11466854,-0.06294982,-0.06146308,-0.
 13326925,-0.07878693,0.05332502,0.73741541,0.00237234,0.00824711,-0.00
 040978,-0.02706382,0.05083670,0.01435601,0.00494728,-0.02333882,0.0168
 0346,-0.04870279,-0.00887034,0.00500809,0.19578120,0.00127176,-0.01187
 217,-0.00540207,0.04831544,-0.07390893,0.00037850,-0.00503146,-0.03544
 298,0.01545705,0.01471316,-0.17937076,0.04150526,-0.07052736,0.3652251
 0,-0.00564108,0.00126089,0.01141597,0.01667329,0.00269558,-0.02358707,
 0.00623944,-0.00125195,0.00586909,-0.01100233,0.07644220,-0.09229109,-
 0.08804833,-0.05054081,0.21891920,-0.00477202,0.02372892,-0.01036859,-
 0.06852660,-0.01430355,-0.01639376,-0.00372062,-0.02146512,0.01745399,
 -0.01078175,-0.01224215,0.03083337,-0.10211766,0.01893416,0.03903542,0
 .46550987,0.00612503,-0.00967700,-0.00088293,-0.02276554,-0.13682795,0
 .06490395,-0.00709372,-0.01269890,0.01731594,-0.01826572,-0.00071111,0
 .02063219,0.03896017,-0.08236047,-0.04331020,0.07060513,0.41708838,-0.
 00217874,-0.00269137,-0.00137012,-0.00480655,0.04469979,-0.07376207,-0
 .00295325,-0.01128508,0.00432958,0.05597219,0.02956734,-0.07654822,0.0
 2009542,-0.00654660,-0.09420505,0.04614036,-0.05815147,0.59587054,-0.0
 0137598,0.00119912,-0.00046151,0.00113852,-0.00839253,0.00499991,0.000
 74592,0.00155680,-0.00072967,-0.00306838,0.00274417,-0.00121168,-0.032
 91087,-0.00595414,0.01540283,-0.16622292,-0.05914891,-0.03290367,0.481
 38350,-0.00078020,0.00248497,-0.00138713,-0.03221949,-0.01722219,-0.00
 104680,0.00068296,-0.00439301,0.00297893,0.00387171,-0.00408199,-0.001
 70197,0.01492422,0.01378027,-0.00263162,-0.06498725,-0.10475624,-0.007
 00843,0.12777027,0.32979724,0.00073958,0.00022406,-0.00059534,0.012399
 51,0.00612726,0.00306845,-0.00120434,0.00286690,-0.00205715,0.00214272
 ,-0.00344346,0.00180601,0.02934320,0.00865529,-0.00732071,-0.03268751,
 -0.00689526,-0.08343800,0.02814846,-0.04053873,0.64806146,0.00184794,-
 0.00067559,-0.00071391,0.00066746,0.00126706,0.00036970,-0.00001457,-0
 .00014890,0.00010957,-0.00084629,0.00207620,-0.00108210,-0.00508286,-0
 .00495093,0.00209565,-0.01792512,0.01779779,0.01563062,-0.13291614,-0.
 01546069,0.07441632,0.62049224,-0.00011226,0.00009136,0.00042710,0.001
 76737,-0.00001342,-0.00029049,0.00003997,0.00044047,-0.00038955,-0.000
 21498,0.00047302,0.00006938,-0.00147859,-0.00018045,-0.00020053,-0.010
 32986,0.00296627,0.00880392,0.01634712,-0.01854458,-0.04228677,-0.0605
 3991,0.38548031,-0.00086669,-0.00048332,0.00029486,0.00047767,-0.00009
 454,-0.00010772,0.00005750,-0.00032053,0.00029009,-0.00055900,0.000430
 82,-0.00008454,-0.00444152,0.00014582,0.00402219,0.00662827,0.00757233
 ,-0.00208166,0.05786696,-0.01018010,-0.13970799,0.07380561,0.18944902,
 0.48298476,0.00076596,0.00029104,0.00045694,-0.00457835,0.00035159,-0.
 00246990,0.00053535,-0.00086545,0.00051188,0.00070691,-0.00016952,0.00
 012131,0.00234523,0.00276595,-0.00142827,-0.00101624,-0.03145909,0.011
 43475,-0.05159284,-0.02504749,-0.00760782,-0.09067736,0.05685101,-0.00
 704034,0.45551664,-0.00050696,0.00016268,0.00047689,-0.00228460,0.0004
 5267,-0.00136401,0.00032487,-0.00044260,0.00030884,0.00049066,-0.00037
 906,0.00061857,0.00039626,0.00261052,-0.00033923,0.00052902,-0.0197119
 2,0.00511263,-0.05861438,-0.13762700,0.10004142,0.08908998,-0.17914273
 ,-0.05188303,0.03448948,0.62294502,0.00057969,-0.00025392,-0.00014485,
 -0.00384020,-0.00060213,0.00035595,0.00012556,-0.00104974,0.00083971,0
 .00000998,0.00027463,-0.00063733,-0.00049440,0.00023358,0.00103102,0.0
 0909358,-0.00332488,-0.00164467,0.00465113,0.06282738,-0.11000644,-0.0
 2188918,-0.01544356,-0.04204553,0.21596275,-0.01658279,0.42320421,-0.3
 3348461,-0.16486813,-0.11917453,-0.03650888,-0.01433480,-0.01104633,-0
 .00104247,0.00505356,-0.00178671,-0.00157401,-0.00142544,0.00156712,0.
 00138948,-0.00231402,0.00058455,0.00181743,0.00015181,-0.00125910,0.00
 063626,0.00067713,-0.00048339,-0.00008614,0.00018548,0.00009968,0.0000
 3283,0.00001044,-0.00022187,0.36866723,-0.21283172,-0.16340610,-0.0868
 5059,0.03276681,0.01049814,0.01049537,0.00227837,-0.00196615,0.0015515
 3,-0.00010030,0.00078568,-0.00120222,-0.00086596,-0.00005184,0.0006956
 4,0.00249226,-0.00008861,0.00049708,0.00096707,0.00079173,-0.00014884,
 -0.00075240,-0.00052312,0.00101728,-0.00111598,0.00027067,-0.00004840,
 0.17643419,0.15483186,-0.12787168,-0.07426782,-0.05311918,-0.00583383,
 -0.00223823,-0.00207007,0.00283839,0.00052326,-0.00036822,0.00129939,0
 .00043198,0.00356981,0.00103421,0.00011781,-0.00165831,-0.00184694,-0.
 00030705,0.00065363,-0.00042832,0.00088028,0.00170794,0.00114791,-0.00
 046153,-0.00099306,-0.00005771,-0.00062861,0.00004815,0.13035272,0.076
 11333,0.05290229,-0.00366501,-0.00103305,-0.00173758,-0.01033903,0.003
 28626,-0.02081516,-0.15922419,0.03576060,-0.13542596,-0.00473479,-0.00
 562180,0.00333899,0.00105603,-0.00189252,0.00066566,0.00117800,0.00244
 688,-0.00102619,-0.00005233,0.00034604,0.00047490,-0.00001096,-0.00005
 983,-0.00007871,0.00006581,-0.00002858,0.00005716,-0.00063811,0.000741
 87,-0.00028894,0.17066300,0.00120290,0.00132649,0.00051166,-0.00611291
 ,-0.00642256,-0.00226461,0.03608474,-0.05743654,0.04717502,-0.01652261
 ,0.00401643,-0.01745800,0.00400220,0.00381429,0.00173679,-0.00151904,0
 .00126917,-0.00076967,-0.00004164,-0.00007736,-0.00022768,0.00007577,0
 .00001217,0.00004185,-0.00001595,-0.00001097,0.00003849,0.00058442,-0.
 00002240,-0.00023104,-0.03339660,0.05532830,0.00265017,0.00152203,0.00
 105084,0.00366279,-0.00847428,0.00696797,-0.13559019,0.04631196,-0.197
 88123,-0.01196454,0.00957363,-0.01375039,0.00302987,0.00135184,0.00354
 768,-0.00046965,-0.00127559,0.00188079,0.00021048,-0.00030971,0.000006
 23,0.00002783,0.00007018,-0.00002691,-0.00005656,-0.00005015,-0.000116
 79,0.00101741,-0.00046480,-0.00009279,0.14769653,-0.04630218,0.2059854
 4,0.00347931,0.00243319,0.00094390,-0.00325940,-0.03062877,0.01340391,
 -0.04668334,-0.02837074,0.00514238,-0.00235433,0.00364082,-0.00154882,
 0.00132229,0.00331665,0.00063287,-0.00577987,-0.00070260,-0.00206054,0
 .00066722,-0.00194671,0.00075375,0.00017161,0.00021232,-0.00008703,-0.
 00040495,-0.00029425,-0.00042361,0.00079897,-0.00006532,-0.00008746,0.
 00418093,0.01712004,-0.00675252,0.04813239,-0.00067982,0.00093429,-0.0
 0038236,0.00241932,-0.00091175,-0.00164939,-0.03355486,-0.26193478,0.1
 2161929,-0.00258250,-0.01474356,0.01411016,-0.00422159,-0.00482726,-0.
 00074730,0.00237789,0.00002883,-0.00219905,-0.00013041,0.00032817,0.00
 011932,-0.00016762,0.00009838,-0.00004338,0.00016479,0.00012166,-0.000
 12991,-0.00007672,0.00007551,-0.00003345,-0.00087682,-0.00113597,-0.00
 054411,0.03622863,0.28085866,-0.00249530,-0.00103527,0.00025753,0.0029
 0751,0.01179613,-0.00789877,0.00596117,0.12384984,-0.10913054,-0.00229
 900,-0.01634682,0.01281276,-0.00418909,-0.00669902,0.00044013,0.003759
 44,-0.00038319,-0.00076722,-0.00052556,0.00085621,0.00007410,-0.000177
 90,-0.00003787,-0.00005706,0.00029728,0.00016983,0.00012869,-0.0004453
 4,-0.00002540,0.00023699,0.00550767,0.01724644,-0.00738575,-0.01000762
 ,-0.13012087,0.11049049,-0.00085527,0.00104291,-0.00276864,0.00893205,
 -0.00883973,0.01478949,-0.00004463,0.00235515,-0.01482171,-0.03922439,
 0.00434009,0.03027706,-0.00025905,0.00082159,-0.00127802,-0.00038451,0
 .00141628,0.00468204,0.00025366,-0.00011463,0.00029120,0.00002065,0.00
 002722,-0.00006287,-0.00008985,-0.00012427,-0.00012421,0.00016038,0.00
 024881,-0.00034783,0.00108242,-0.00175959,-0.00278036,0.00008524,0.001
 02962,0.00157747,0.03117026,0.00124542,0.00102731,0.00146353,-0.009203
 20,-0.00166415,-0.00733618,0.00429740,0.00011634,-0.01709291,0.0081351
 6,-0.04962308,-0.02340470,-0.00753722,0.00217260,0.02865474,0.00284397
 ,-0.00458568,0.00139481,-0.00017390,0.00039082,0.00042612,-0.00033713,
 0.00002101,-0.00014262,0.00014083,0.00010841,-0.00000944,0.00042942,-0
 .00021850,0.00045035,0.00124975,-0.00084452,-0.00101313,-0.00114564,0.
 00125401,0.00100608,0.00133888,0.05073080,0.00118468,-0.00015127,0.001
 12870,-0.00554371,-0.00066379,-0.00165064,0.00475787,0.00009927,-0.006
 21847,0.02738036,-0.01679431,-0.33698907,0.00361896,0.00189541,-0.0078
 7383,-0.00212554,0.00132594,-0.00203296,-0.00022540,-0.00006376,-0.000
 35429,0.00011898,-0.00001206,0.00008631,0.00000415,0.00002590,0.000082
 63,0.00019543,-0.00022372,-0.00015153,0.00046463,0.00008120,0.00012178
 ,-0.00024931,-0.00019201,0.00044383,-0.03078861,0.01457058,0.35380685,
 0.00044892,0.00003959,0.00005042,0.00034672,-0.00233348,0.00005690,0.0
 0117968,-0.00048082,0.00130304,-0.00018550,0.00253769,0.00187018,0.004
 44251,-0.00008358,0.02548182,-0.08047449,0.00366954,-0.08374021,-0.010
 84927,-0.00101936,-0.02779277,0.00111379,0.00008169,-0.00137533,0.0009
 8809,0.00097498,-0.00060203,0.00003521,-0.00033058,0.00008863,0.000263
 34,0.00022921,-0.00063310,-0.00014418,0.00010130,-0.00002766,-0.000513
 29,-0.00122000,0.00106445,0.08754562,0.00097599,-0.00237262,0.00082833
 ,0.00677601,0.00225829,0.02429388,0.00303128,0.00182383,-0.00135218,-0
 .00202996,-0.00404092,0.00430917,0.00081938,0.00113198,-0.01476703,0.0
 0398674,-0.05115820,0.01195546,-0.00959121,0.00004943,-0.01443836,0.00
 030436,0.00042856,-0.00028381,0.00031445,0.00108807,-0.00192043,-0.000
 26380,-0.00006185,-0.00006959,-0.00105963,0.00021654,-0.00042007,0.000
 23045,-0.00009881,-0.00033231,-0.00174105,0.00130173,-0.00000679,0.000
 59042,0.05028660,-0.00129881,0.00139216,-0.00059892,-0.00062658,0.0005
 7277,-0.00765981,-0.00062320,0.00063722,0.00126476,-0.00101895,-0.0017
 1949,-0.00250076,0.00183185,-0.00064726,-0.01897907,-0.08195544,0.0053
 3118,-0.26197838,-0.00190944,0.00139101,-0.00448647,0.00002699,0.00022
 398,0.00021186,0.00104826,0.00019789,0.00038867,0.00018782,0.00005416,
 -0.00019359,0.00108980,0.00031290,-0.00030355,0.00012323,0.00013492,0.
 00037913,0.00151139,0.00103769,-0.00055265,0.08245843,-0.00850213,0.29
 247490,0.00038976,-0.00044036,0.00045357,0.00068187,0.00100963,-0.0008
 4158,0.00023154,-0.00004502,0.00017787,-0.00041108,-0.00028190,0.00061
 747,0.00309740,0.00121943,0.00066262,-0.01014283,-0.00144546,-0.027862
 51,-0.07916733,-0.01076451,-0.09188848,0.00736632,0.00137061,0.0217983
 5,-0.00372340,-0.00147211,0.00000872,0.00016984,-0.00018588,-0.0002657
 9,0.00018757,0.00008011,0.00000765,-0.00004885,0.00001685,0.00011164,-
 0.00029357,-0.00001294,0.00010049,-0.00454658,-0.00292229,-0.00024613,
 0.08509942,0.00080881,-0.00042679,0.00026402,0.00001883,0.00143698,-0.
 00086640,0.00006665,-0.00005212,0.00006237,-0.00031073,0.00076791,0.00
 013836,0.00072848,-0.00021643,0.00132125,-0.00353407,-0.00089387,-0.01
 600606,-0.01271352,-0.04092343,-0.01719948,-0.00758735,-0.00434554,-0.
 01197547,0.01101316,0.00116488,0.02773734,-0.00007050,-0.00128129,-0.0
 0016137,0.00014967,-0.00001669,0.00003666,0.00001019,-0.00003194,0.000
 05726,-0.00006482,-0.00010741,0.00007798,-0.00278017,-0.00053505,0.000
 18024,0.01444023,0.04436046,0.00062513,-0.00003443,0.00038965,-0.00100
 773,0.00067083,-0.00025697,0.00022582,-0.00020451,0.00020882,-0.000321
 55,0.00003796,0.00017791,-0.00014528,0.00020946,0.00167504,0.00058660,
 -0.00030350,-0.00306308,-0.09087958,-0.01491514,-0.29023023,-0.0046673
 0,0.00100486,-0.01277036,-0.00100838,-0.00116384,-0.00915254,0.0001668
 2,-0.00095638,-0.00005688,0.00006569,0.00008662,-0.00005988,-0.0000545
 3,0.00000733,0.00004195,-0.00008007,-0.00002513,0.00013237,-0.00006461
 ,-0.00024635,0.00080934,0.09494791,0.01498752,0.31129050,0.00042646,-0
 .00041520,-0.00003168,-0.00038326,0.00054085,-0.00011641,0.00002170,-0
 .00021505,0.00012655,-0.00009867,0.00042706,-0.00029835,-0.00092032,-0
 .00078108,0.00067665,0.00066714,0.00278317,0.00104899,-0.01333349,0.00
 158558,-0.00536403,-0.31326649,0.01812367,-0.07998756,-0.00382464,-0.0
 0007409,0.00127632,-0.00028182,0.00003938,0.00019742,0.00000957,0.0000
 0541,-0.00001931,-0.00003992,-0.00004199,-0.00000320,-0.00002869,-0.00
 008000,0.00004146,0.00020278,-0.00000888,-0.00009036,0.00156104,-0.000
 90227,-0.00012872,0.33218511,0.00039516,-0.00025508,-0.00002151,-0.000
 13741,0.00050891,-0.00022372,0.00005000,-0.00009074,0.00005039,-0.0001
 3375,0.00042078,-0.00005985,-0.00123984,-0.00048332,0.00086009,-0.0007
 9977,0.00119322,0.00127172,-0.00835303,-0.00427886,-0.00590527,0.01601
 999,-0.04101938,-0.00223265,0.02923712,-0.00084938,0.00962518,-0.00023
 132,-0.00007531,0.00019271,0.00002016,-0.00000151,-0.00001021,-0.00001
 168,-0.00001189,0.00000733,-0.00001587,-0.00007560,0.00003966,0.000283
 02,0.00013040,0.00011404,0.00158706,0.00049864,-0.00086702,-0.02171219
 ,0.04352404,-0.00036688,0.00030072,0.00007642,0.00021304,-0.00044765,0
 .00005159,-0.00002080,0.00021777,-0.00015086,0.00020931,-0.00054058,0.
 00039025,0.00203690,0.00084001,-0.00104020,-0.00033742,-0.00418168,-0.
 00203036,0.02540623,-0.00072219,0.00738225,-0.08246910,-0.00159312,-0.
 06679632,-0.00355753,-0.00167612,-0.00554683,0.00019737,0.00006060,-0.
 00011897,0.00000947,-0.00001185,0.00001269,0.00003025,0.00004942,0.000
 02314,-0.00000067,0.00007690,-0.00002976,0.00022916,0.00018311,0.00035
 744,-0.00130074,0.00190524,0.00139699,0.08192865,0.00146163,0.06854581
 ,-0.00001935,0.00002474,-0.00004174,-0.00035774,-0.00019285,0.00006524
 ,-0.00003723,-0.00004771,0.00009676,0.00007843,-0.00014370,-0.00013382
 ,0.00021411,-0.00015613,-0.00077237,0.00152272,-0.00095940,0.00197780,
 0.00428025,0.01165793,0.01388509,-0.06973951,-0.04067880,-0.06436283,-
 0.00150496,0.00465433,0.00745788,-0.00001538,0.00003660,-0.00001639,-0
 .00001995,-0.00000535,-0.00000130,-0.00002981,-0.00001110,0.00000118,0
 .00003756,0.00003210,-0.00002673,-0.00033598,0.00022976,-0.00038127,-0
 .00172671,0.00188475,0.00090653,-0.00389364,-0.01632588,-0.02250745,0.
 07062546,0.00020020,-0.00006585,-0.00013887,0.00008530,0.00012713,0.00
 026878,-0.00002972,0.00009844,-0.00007575,0.00002689,-0.00007871,0.000
 09230,0.00028322,-0.00013388,-0.00020814,-0.00004017,0.00027065,-0.001
 24169,0.00667655,0.00301733,0.00987852,-0.03864382,-0.12426386,-0.1301
 0440,-0.00909115,-0.01501185,-0.02327362,0.00001278,0.00004953,0.00017
 477,0.00000357,-0.00000461,0.00000590,0.00002728,-0.00000358,-0.000002
 22,0.00000619,0.00000236,-0.00000798,0.00028638,0.00000417,0.00007353,
 -0.00213740,0.00088862,0.00172291,0.00096188,0.00164188,0.00358762,0.0
 3922546,0.13348901,-0.00046359,0.00008531,0.00051507,0.00099408,-0.000
 16123,-0.00015493,0.00003579,0.00018644,-0.00009537,-0.00017998,0.0000
 7004,0.00025615,-0.00019522,-0.00012348,0.00044477,-0.00297726,0.00058
 306,0.00058256,-0.00689915,-0.01115749,-0.01794099,-0.06217099,-0.1307
 3094,-0.22571930,0.00526136,0.00552026,0.00624819,-0.00001978,-0.00019
 523,-0.00036955,-0.00000652,0.00001428,0.00001581,0.00006695,0.0000033
 9,-0.00003194,-0.00005033,-0.00002589,0.00004450,0.00076307,0.00028137
 ,0.00057555,0.00308559,-0.00251864,-0.00105463,-0.00000072,-0.00280915
 ,-0.00434835,0.06320618,0.14003776,0.23997855,0.00034462,-0.00020731,0
 .00001479,-0.00125298,0.00036461,-0.00023687,0.00009550,-0.00027473,0.
 00021026,0.00009484,-0.00001800,-0.00003304,0.00003052,0.00040098,0.00
 021825,0.00090428,-0.00350869,0.00115316,-0.00885685,-0.00660832,-0.00
 775454,0.01207608,0.01657032,0.01055495,-0.12342997,-0.11643119,-0.069
 24103,-0.00004729,0.00001243,0.00002520,0.00000722,0.00000859,-0.00003
 945,-0.00012369,-0.00000082,0.00006746,-0.00007595,-0.00000299,0.00004
 239,0.00041516,0.00016845,0.00022262,0.00105847,0.00177065,-0.00041266
 ,0.00079832,-0.00219890,0.00109102,-0.00046463,0.00414228,-0.00125463,
 0.12695614,-0.00017818,-0.00002453,0.00015513,-0.00041825,0.00015241,-
 0.00040284,0.00003372,-0.00018376,0.00012535,0.00002589,0.00008635,-0.
 00007703,-0.00029898,0.00032996,0.00028691,0.00247883,-0.00150191,0.00
 020523,-0.00407588,-0.01145679,-0.00513634,-0.00951940,-0.01427489,-0.
 00497607,-0.11400928,-0.20985192,-0.08586452,-0.00001298,0.00013730,-0
 .00024816,-0.00000534,-0.00000272,-0.00001990,-0.00007343,0.00000408,0
 .00002733,-0.00002493,-0.00000291,0.00001903,-0.00008214,-0.00006023,-
 0.00012267,-0.00080902,0.00127849,0.00026308,0.00024318,0.00186417,-0.
 00103978,-0.00004781,-0.00212618,0.00185907,0.12127483,0.22701201,-0.0
 0010886,0.00007201,-0.00003316,0.00164705,0.00012312,0.00050608,-0.000
 10146,0.00044890,-0.00032328,-0.00018356,-0.00004490,0.00023415,0.0001
 0675,-0.00067513,-0.00022261,-0.00273921,0.00462859,-0.00155466,0.0145
 4162,0.01853234,0.01018326,-0.00783903,-0.00652321,-0.00800456,-0.0701
 6229,-0.08883258,-0.08950967,0.00003295,-0.00006228,0.00008818,-0.0000
 0786,-0.00000277,0.00003512,0.00018965,-0.00000085,-0.00008029,0.00003
 217,-0.00000850,-0.00002555,0.00013467,0.00014333,0.00018771,0.0009247
 2,-0.00224251,0.00108495,-0.00014387,0.00197750,0.00096062,0.00100899,
 -0.00269541,0.00101212,0.07079579,0.09101896,0.09180306,-0.00020360,-0
 .00001030,-0.00009151,0.00039204,-0.00002643,0.00016807,-0.00010953,0.
 00012401,-0.00007636,0.00005081,-0.00023825,0.00008210,0.00005899,-0.0
 0006789,-0.00019865,0.00026519,0.00139333,0.00065546,0.01124106,-0.002
 56720,0.01218815,-0.01319064,0.00183745,-0.01242710,-0.18011428,0.0488
 7041,-0.14238624,-0.00002892,0.00023035,0.00006101,-0.00000950,-0.0000
 1972,0.00000423,0.00003040,0.00000584,-0.00002016,0.00002698,0.0000001
 1,-0.00001455,0.00006747,0.00018953,-0.00035019,0.00021712,-0.00292799
 ,0.00124590,0.00019883,0.00356712,-0.00079081,0.00138636,-0.00199570,0
 .00080514,-0.00852977,0.00549917,-0.00812821,0.18825099,-0.00038195,0.
 00002765,0.00008162,0.00045115,-0.00028085,-0.00023841,-0.00009171,0.0
 0002368,0.00005888,-0.00009049,0.00001381,-0.00016470,-0.00081905,-0.0
 0021623,0.00004272,0.00124406,0.00215533,0.00239144,0.00992844,-0.0072
 7852,0.00788129,0.01215260,-0.00770359,0.01406280,0.04615450,-0.065897
 13,0.04776673,0.00005848,0.00025476,-0.00023765,-0.00003062,-0.0000075
 4,0.00001190,0.00001955,-0.00000405,-0.00003347,0.00005815,-0.00000354
 ,-0.00001928,-0.00046369,-0.00039192,-0.00066214,0.00079295,-0.0015654
 2,-0.00027426,-0.00047942,-0.00264097,0.00152994,0.00082308,0.00209941
 ,-0.00091892,-0.01546220,0.00862107,-0.01585661,-0.05386386,0.07279404
 ,0.00035925,-0.00015496,0.00007800,-0.00056644,0.00028207,0.00004533,0
 .00007409,-0.00002535,0.00006659,0.00000843,-0.00001341,0.00010040,0.0
 0065891,-0.00015565,-0.00018714,-0.00162970,-0.00327743,0.00115937,-0.
 01505363,0.00419693,-0.01615209,0.01326034,-0.00207882,0.01050494,-0.1
 4170988,0.05004814,-0.17352257,0.00003517,-0.00030712,-0.00001484,0.00
 001642,0.00002253,-0.00000706,-0.00001546,-0.00000114,0.00002282,-0.00
 005750,-0.00002229,0.00003178,0.00073493,0.00034439,0.00060383,-0.0004
 9139,0.00420168,-0.00056295,0.00088818,-0.00347088,0.00086445,-0.00036
 174,0.00190597,0.00004180,-0.00542368,0.00392721,-0.00634146,0.1492737
 1,-0.05542187,0.18326880\\-0.00000226,-0.00003029,0.00001636,-0.000009
 03,0.00005039,-0.00003312,-0.00001477,-0.00003996,0.00001181,0.0000004
 2,-0.00000963,0.00002497,0.00000598,0.00001084,-0.00001683,-0.00000076
 ,0.00000104,0.00001563,0.00000535,-0.00000035,0.00000801,-0.00000604,-
 0.00002725,-0.00002595,-0.00000168,0.00002698,0.00000243,0.00000381,0.
 00000037,-0.00000884,0.00000554,0.00002472,0.00000275,-0.00000051,0.00
 000340,-0.00000675,0.00000813,0.00000033,-0.00000328,-0.00000266,0.000
 00371,-0.00000059,0.00000492,-0.00000501,0.00000144,-0.00000348,0.0000
 0313,0.00000712,0.00000049,0.00000100,-0.00000166,0.00000729,-0.000007
 65,0.00000234,-0.00000076,-0.00000578,0.00000417\\\@


 NOTHING PUZZLES ME MORE THAN TIME AND SPACE; AND YET NOTHING TROUBLES ME LESS
                                                          -- CHARLES LAMB (1810)
 Job cpu time:       0 days  0 hours 40 minutes 37.1 seconds.
 File lengths (MBytes):  RWF=    152 Int=      0 D2E=      0 Chk=      8 Scr=      1
 Normal termination of Gaussian 09 at Mon Jan 27 18:35:23 2020.
