19
gdb 5001	4.4982017	0.9578628	0.9229992	2.4308	78.07	-0.25099	-0.02826	0.22272999999999998	1313.9607	0.155565	-422.510901	-422.502003	-422.501059	-422.54502	32.377	
C	 1.4738206505	-0.132029258	-0.1249166625	-0.266662
O	 0.0663481455	-0.1034156836	 0.0332943473	-0.285524
C	-0.3659948851	 0.5962915813	 1.1312514503	 0.445174
C	-0.1402280371	 2.1070835371	 1.4813637467	-0.32998
C	-1.06197557	 1.5290496942	 2.5848862953	 0.246117
C	-1.8625529651	 0.7856081526	 1.4598854193	-0.32492
C	-0.1326149031	 0.2687370908	 2.64610262	-0.336698
C	-1.6379610175	 2.2389014959	 3.7556927616	 0.036838
O	-1.4296041433	 3.3954982396	 4.0262041724	-0.247957
H	 1.9673532433	-0.6167819217	 0.7288885549	 0.115079
H	 1.6795559851	-0.709272657	-1.0282680618	 0.133484
H	 1.8880286705	 0.8785790642	-0.2431087013	 0.118323
H	 0.8598119523	 2.4069532993	 1.8010278523	 0.102142
H	-0.5914879971	 2.8393811718	 0.8086941529	 0.105441
H	-2.4150616592	-0.1082516	 1.758630646	 0.103021
H	-2.4381728724	 1.4210919501	 0.7829686293	 0.107986
H	 0.8664363163	 0.4386719257	 3.0542449358	 0.104226
H	-0.580924241	-0.6542501476	 3.0216504929	 0.102648
H	-2.2990776228	 1.6081425452	 4.3944750387	 0.071261
69.5167	78.9543	140.2671	171.8051	210.7267	280.5976	378.7144	421.4255	484.2283	547.439	549.2729	630.7819	710.4868	767.7781	832.696	930.5329	952.0381	980.7865	986.8366	1034.4232	1063.6411	1071.85	1115.3051	1126.4067	1139.3778	1150.9588	1161.5055	1170.7819	1181.2291	1185.4902	1236.3724	1295.8961	1346.8788	1423.9222	1485.1365	1488.6259	1491.0237	1496.1079	1506.0721	1559.9411	1817.1417	2861.2633	2996.1458	3050.0443	3057.0741	3061.0574	3070.0029	3128.1507	3128.9159	3133.7437	3137.6067
COC12CC(C1)(C2)C=O	CO[C@@]12C[C@@](C1)(C2)C=O	
InChI=1S/C7H10O2/c1-9-7-2-6(3-7,4-7)5-8/h5H,2-4H2,1H3	InChI=1S/C7H10O2/c1-9-7-2-6(3-7,4-7)5-8/h5H,2-4H2,1H3/t6-,7+
