19
gdb 1458	2.1139544	1.8365207	1.4247062	1.8274	74.94	-0.25176	0.05952	0.31128	1018.6671	0.154467	-422.503373	-422.494552	-422.493608	-422.536215	33.989	
C	-0.0916545734	 0.0342105344	 0.0093221347	-0.45854
C	 1.4263717372	-0.0031336602	 0.0169249101	 0.265602
O	 1.9376186851	-1.185631577	 0.6012073614	-0.47164
C	 2.1393891725	 0.1836341334	-1.3448707873	 0.017834
O	 1.7701345546	 1.4653054474	-1.8527762577	-0.252454
C	 2.8313707355	 1.3927075248	-0.8792358607	-0.091797
C	 2.1784923452	 1.2961207718	 0.4814949114	 0.33892
C	 2.8495885748	 1.4782679549	 1.8051244629	-0.324938
C	 1.7300670763	 2.404647826	 1.3836075593	-0.33169
H	-0.4861571397	 0.1178251797	 1.0302131411	 0.103301
H	-0.4446904026	 0.8962000556	-0.5610653119	 0.142689
H	-0.4920142564	-0.8821040405	-0.4352646541	 0.122355
H	 1.5598527362	-1.2739469895	 1.4825932188	 0.278641
H	 2.4344465534	-0.591357709	-2.0426754017	 0.107295
H	 3.7913664845	 1.8119570565	-1.158294753	 0.105343
H	 2.6522298013	 0.7450382726	 2.5813928695	 0.101993
H	 3.8638418142	 1.8647593653	 1.817621569	 0.116892
H	 0.7699144613	 2.2994471455	 1.8795850419	 0.1125
H	 1.9760632102	 3.4252486285	 1.1085071664	 0.117695
103.1186	194.26	206.8727	216.8655	249.4864	261.1584	307.1384	367.8745	410.6987	533.03	567.96	597.6076	659.02	768.5972	836.2904	856.1891	870.0512	884.8118	927.0237	957.5071	976.1937	986.0438	995.2909	1049.5405	1052.9243	1073.6492	1098.8305	1152.1373	1178.7785	1194.8104	1210.942	1218.8567	1250.1727	1368.9799	1381.2148	1394.5858	1404.1693	1467.1576	1487.59	1494.9559	1508.3844	3024.3308	3092.3334	3120.3262	3125.4255	3133.7077	3178.9507	3195.4291	3195.7985	3211.5148	3808.9649
CC1(O)C2OC2C11CC1	C[C@@]1(O)[C@H]2O[C@H]2C21CC2	
InChI=1S/C7H10O2/c1-6(8)4-5(9-4)7(6)2-3-7/h4-5,8H,2-3H2,1H3	InChI=1S/C7H10O2/c1-6(8)4-5(9-4)7(6)2-3-7/h4-5,8H,2-3H2,1H3/t4-,5+,6+/m0/s1
