19
gdb 5003	3.0969635	1.3438052	1.1514018	4.3936	75.26	-0.26016	0.01617	0.27633	1132.0011	0.157703	-422.58801	-422.579968	-422.579023	-422.620583	31.027	
C	 2.2403788183	 1.5353622411	-0.1159533024	-0.386501
C	 2.9125910923	 1.8412907037	-1.4592723038	-0.292595
C	 2.9421858111	 0.6632912046	-2.3949001548	 0.455684
C	 3.4718052794	 0.6851475192	-3.8519772803	-0.284421
C	 2.8019331874	-0.7308762011	-3.8615529623	-0.196301
C	 1.7051692986	-0.1054053301	-2.9344157933	-0.275427
C	 3.6565213671	-1.4011526223	-2.7944690225	 0.456926
O	 4.1720918063	-2.4754087888	-2.7279995952	-0.352853
O	 3.7351894124	-0.4381307807	-1.8177324419	-0.286285
H	 2.7532613507	 0.7171363115	 0.3957223995	 0.144393
H	 2.2602061588	 2.4136338736	 0.5350953516	 0.117426
H	 1.1935521088	 1.2447021367	-0.25276859	 0.118259
H	 2.3917475905	 2.660985104	-1.9686797063	 0.10337
H	 3.9439306391	 2.1767138395	-1.2967765607	 0.116663
H	 2.948394794	 1.4011704255	-4.4887969111	 0.111534
H	 4.553213077	 0.749468684	-3.991600795	 0.118899
H	 2.5921446416	-1.3051973462	-4.7592044097	 0.09935
H	 1.0077856779	 0.5324605673	-3.4812852976	 0.111841
H	 1.1770863989	-0.7637565913	-2.2416511542	 0.120039
90.8365	146.2394	190.9847	217.0631	301.1423	372.5753	483.0003	498.8772	510.1694	581.4436	673.2786	763.955	780.5912	795.2422	850.8766	887.5111	908.5576	936.1283	937.428	986.4815	1016.5407	1043.7316	1056.8693	1067.724	1110.5507	1125.7488	1171.9334	1209.0121	1232.6732	1235.5692	1273.2821	1308.8727	1327.055	1396.5445	1411.7658	1474.9522	1476.9135	1498.3774	1509.2934	1512.6925	1911.3661	3032.5969	3043.2274	3067.2754	3068.6655	3073.236	3110.2787	3128.0398	3134.8208	3139.068	3168.3167
CCC12CC(C1)C(=O)O2	CC[C@]12C[C@H](C1)C(=O)O2	
InChI=1S/C7H10O2/c1-2-7-3-5(4-7)6(8)9-7/h5H,2-4H2,1H3	InChI=1S/C7H10O2/c1-2-7-3-5(4-7)6(8)9-7/h5H,2-4H2,1H3/t5-,7+
