 Entering Gaussian System, Link 0=/home/puck/opt/gaussian_09/g09
 Input=dsC7O2H10nsd_5513.com
 Output=dsC7O2H10nsd_5513.log
 Initial command:
 /home/puck/opt/gaussian_09/l1.exe "/scratch/puck/g09_fa481d4f-97d4-4ff7-a947-3490dfb959a3/Gau-175116.inp" -scrdir="/scratch/puck/g09_fa481d4f-97d4-4ff7-a947-3490dfb959a3/"
 Entering Link 1 = /home/puck/opt/gaussian_09/l1.exe PID=    175119.
  
 Copyright (c) 1988,1990,1992,1993,1995,1998,2003,2009,2013,
            Gaussian, Inc.  All Rights Reserved.
  
 This is part of the Gaussian(R) 09 program.  It is based on
 the Gaussian(R) 03 system (copyright 2003, Gaussian, Inc.),
 the Gaussian(R) 98 system (copyright 1998, Gaussian, Inc.),
 the Gaussian(R) 94 system (copyright 1995, Gaussian, Inc.),
 the Gaussian 92(TM) system (copyright 1992, Gaussian, Inc.),
 the Gaussian 90(TM) system (copyright 1990, Gaussian, Inc.),
 the Gaussian 88(TM) system (copyright 1988, Gaussian, Inc.),
 the Gaussian 86(TM) system (copyright 1986, Carnegie Mellon
 University), and the Gaussian 82(TM) system (copyright 1983,
 Carnegie Mellon University). Gaussian is a federally registered
 trademark of Gaussian, Inc.
  
 This software contains proprietary and confidential information,
 including trade secrets, belonging to Gaussian, Inc.
  
 This software is provided under written license and may be
 used, copied, transmitted, or stored only in accord with that
 written license.
  
 The following legend is applicable only to US Government
 contracts under FAR:
  
                    RESTRICTED RIGHTS LEGEND
  
 Use, reproduction and disclosure by the US Government is
 subject to restrictions as set forth in subparagraphs (a)
 and (c) of the Commercial Computer Software - Restricted
 Rights clause in FAR 52.227-19.
  
 Gaussian, Inc.
 340 Quinnipiac St., Bldg. 40, Wallingford CT 06492
  
  
 ---------------------------------------------------------------
 Warning -- This program may not be used in any manner that
 competes with the business of Gaussian, Inc. or will provide
 assistance to any competitor of Gaussian, Inc.  The licensee
 of this program is prohibited from giving any competitor of
 Gaussian, Inc. access to this program.  By using this program,
 the user acknowledges that Gaussian, Inc. is engaged in the
 business of creating and licensing software in the field of
 computational chemistry and represents and warrants to the
 licensee that it is not a competitor of Gaussian, Inc. and that
 it will not use this program in any manner prohibited above.
 ---------------------------------------------------------------
  

 Cite this work as:
 Gaussian 09, Revision D.01,
 M. J. Frisch, G. W. Trucks, H. B. Schlegel, G. E. Scuseria, 
 M. A. Robb, J. R. Cheeseman, G. Scalmani, V. Barone, B. Mennucci, 
 G. A. Petersson, H. Nakatsuji, M. Caricato, X. Li, H. P. Hratchian, 
 A. F. Izmaylov, J. Bloino, G. Zheng, J. L. Sonnenberg, M. Hada, 
 M. Ehara, K. Toyota, R. Fukuda, J. Hasegawa, M. Ishida, T. Nakajima, 
 Y. Honda, O. Kitao, H. Nakai, T. Vreven, J. A. Montgomery, Jr., 
 J. E. Peralta, F. Ogliaro, M. Bearpark, J. J. Heyd, E. Brothers, 
 K. N. Kudin, V. N. Staroverov, T. Keith, R. Kobayashi, J. Normand, 
 K. Raghavachari, A. Rendell, J. C. Burant, S. S. Iyengar, J. Tomasi, 
 M. Cossi, N. Rega, J. M. Millam, M. Klene, J. E. Knox, J. B. Cross, 
 V. Bakken, C. Adamo, J. Jaramillo, R. Gomperts, R. E. Stratmann, 
 O. Yazyev, A. J. Austin, R. Cammi, C. Pomelli, J. W. Ochterski, 
 R. L. Martin, K. Morokuma, V. G. Zakrzewski, G. A. Voth, 
 P. Salvador, J. J. Dannenberg, S. Dapprich, A. D. Daniels, 
 O. Farkas, J. B. Foresman, J. V. Ortiz, J. Cioslowski, 
 and D. J. Fox, Gaussian, Inc., Wallingford CT, 2013.
 
 ******************************************
 Gaussian 09:  ES64L-G09RevD.01 24-Apr-2013
                31-Jan-2020 
 ******************************************
 -----------------------------
 # b3lyp 6-31G(2df,p) opt Freq
 -----------------------------
 1/14=-1,18=20,19=15,26=3,38=1/1,3;
 2/9=110,12=2,17=6,18=5,40=1/2;
 3/5=1,6=6,7=104,11=2,16=1,25=1,30=1,71=1,74=-5/1,2,3;
 4//1;
 5/5=2,38=5/2;
 6/7=2,8=2,9=2,10=2,28=1/1;
 7//1,2,3,16;
 1/14=-1,18=20,19=15,26=3/3(2);
 2/9=110/2;
 99//99;
 2/9=110/2;
 3/5=1,6=6,7=104,11=2,16=1,25=1,30=1,71=1,74=-5/1,2,3;
 4/5=5,16=3,69=1/1;
 5/5=2,38=5/2;
 7//1,2,3,16;
 1/14=-1,18=20,19=15,26=3/3(-5);
 2/9=110/2;
 6/7=2,8=2,9=2,10=2,19=2,28=1/1;
 99/9=1/99;
 -----
 titel
 -----
 Symbolic Z-matrix:
 Charge =  0 Multiplicity = 1
 C                     1.53897  -0.26963  -0.13024 
 O                     0.14517  -0.03815  -0.0797 
 C                    -0.28965   0.56109   1.0996 
 C                    -1.81093   0.84804   1.16883 
 C                    -1.44305   1.87795   2.28947 
 C                    -0.32815   2.14106   1.21308 
 C                     0.79606   3.1359    1.25742 
 C                    -1.49708   2.01608   0.21291 
 O                    -1.93931   2.57033  -0.74351 
 H                     1.87345  -0.89233   0.71341 
 H                     1.74162  -0.8      -1.06294 
 H                     2.11498   0.66581  -0.12136 
 H                     0.12502   0.06777   1.99078 
 H                    -2.62233   0.12546   1.15928 
 H                    -2.15276   2.68433   2.47458 
 H                    -1.08383   1.43102   3.22005 
 H                     1.47972   2.93511   2.08906 
 H                     1.37301   3.11327   0.32757 
 H                     0.40832   4.15279   1.37831 
 

 GradGradGradGradGradGradGradGradGradGradGradGradGradGradGradGradGradGrad
 Berny optimization.
 Initialization pass.
                           ----------------------------
                           !    Initial Parameters    !
                           ! (Angstroms and Degrees)  !
 --------------------------                            --------------------------
 ! Name  Definition              Value          Derivative Info.                !
 --------------------------------------------------------------------------------
 ! R1    R(1,2)                  1.4138         estimate D2E/DX2                !
 ! R2    R(1,10)                 1.1006         estimate D2E/DX2                !
 ! R3    R(1,11)                 1.0919         estimate D2E/DX2                !
 ! R4    R(1,12)                 1.0986         estimate D2E/DX2                !
 ! R5    R(2,3)                  1.3924         estimate D2E/DX2                !
 ! R6    R(3,4)                  1.5497         estimate D2E/DX2                !
 ! R7    R(3,6)                  1.5845         estimate D2E/DX2                !
 ! R8    R(3,13)                 1.0998         estimate D2E/DX2                !
 ! R9    R(4,5)                  1.5658         estimate D2E/DX2                !
 ! R10   R(4,8)                  1.5416         estimate D2E/DX2                !
 ! R11   R(4,14)                 1.0865         estimate D2E/DX2                !
 ! R12   R(5,6)                  1.5719         estimate D2E/DX2                !
 ! R13   R(5,15)                 1.09           estimate D2E/DX2                !
 ! R14   R(5,16)                 1.0931         estimate D2E/DX2                !
 ! R15   R(6,7)                  1.5018         estimate D2E/DX2                !
 ! R16   R(6,8)                  1.5435         estimate D2E/DX2                !
 ! R17   R(7,17)                 1.0951         estimate D2E/DX2                !
 ! R18   R(7,18)                 1.0945         estimate D2E/DX2                !
 ! R19   R(7,19)                 1.095          estimate D2E/DX2                !
 ! R20   R(8,9)                  1.1906         estimate D2E/DX2                !
 ! A1    A(2,1,10)             111.3976         estimate D2E/DX2                !
 ! A2    A(2,1,11)             107.0395         estimate D2E/DX2                !
 ! A3    A(2,1,12)             112.16           estimate D2E/DX2                !
 ! A4    A(10,1,11)            108.8775         estimate D2E/DX2                !
 ! A5    A(10,1,12)            108.4339         estimate D2E/DX2                !
 ! A6    A(11,1,12)            108.8549         estimate D2E/DX2                !
 ! A7    A(1,2,3)              114.1164         estimate D2E/DX2                !
 ! A8    A(2,3,4)              115.0922         estimate D2E/DX2                !
 ! A9    A(2,3,6)              119.8253         estimate D2E/DX2                !
 ! A10   A(2,3,13)             112.0561         estimate D2E/DX2                !
 ! A11   A(4,3,6)               77.778          estimate D2E/DX2                !
 ! A12   A(4,3,13)             114.6456         estimate D2E/DX2                !
 ! A13   A(6,3,13)             113.4784         estimate D2E/DX2                !
 ! A14   A(3,4,5)               85.5913         estimate D2E/DX2                !
 ! A15   A(3,4,8)               84.9941         estimate D2E/DX2                !
 ! A16   A(3,4,14)             127.5574         estimate D2E/DX2                !
 ! A17   A(5,4,8)               84.1226         estimate D2E/DX2                !
 ! A18   A(5,4,14)             128.2535         estimate D2E/DX2                !
 ! A19   A(8,4,14)             130.5757         estimate D2E/DX2                !
 ! A20   A(4,5,6)               77.6815         estimate D2E/DX2                !
 ! A21   A(4,5,15)             117.0744         estimate D2E/DX2                !
 ! A22   A(4,5,16)             114.6812         estimate D2E/DX2                !
 ! A23   A(6,5,15)             117.0174         estimate D2E/DX2                !
 ! A24   A(6,5,16)             114.7289         estimate D2E/DX2                !
 ! A25   A(15,5,16)            111.831          estimate D2E/DX2                !
 ! A26   A(3,6,5)               84.2247         estimate D2E/DX2                !
 ! A27   A(3,6,7)              130.1238         estimate D2E/DX2                !
 ! A28   A(3,6,8)               83.757          estimate D2E/DX2                !
 ! A29   A(5,6,7)              128.4322         estimate D2E/DX2                !
 ! A30   A(5,6,8)               83.8589         estimate D2E/DX2                !
 ! A31   A(7,6,8)              129.7675         estimate D2E/DX2                !
 ! A32   A(6,7,17)             111.6089         estimate D2E/DX2                !
 ! A33   A(6,7,18)             110.8418         estimate D2E/DX2                !
 ! A34   A(6,7,19)             110.6924         estimate D2E/DX2                !
 ! A35   A(17,7,18)            108.1968         estimate D2E/DX2                !
 ! A36   A(17,7,19)            107.9082         estimate D2E/DX2                !
 ! A37   A(18,7,19)            107.4366         estimate D2E/DX2                !
 ! A38   A(4,8,6)               79.2646         estimate D2E/DX2                !
 ! A39   A(4,8,9)              140.824          estimate D2E/DX2                !
 ! A40   A(6,8,9)              139.8317         estimate D2E/DX2                !
 ! D1    D(10,1,2,3)            57.2375         estimate D2E/DX2                !
 ! D2    D(11,1,2,3)           176.1549         estimate D2E/DX2                !
 ! D3    D(12,1,2,3)           -64.5181         estimate D2E/DX2                !
 ! D4    D(1,2,3,4)            178.9706         estimate D2E/DX2                !
 ! D5    D(1,2,3,6)             89.0276         estimate D2E/DX2                !
 ! D6    D(1,2,3,13)           -47.6721         estimate D2E/DX2                !
 ! D7    D(2,3,4,5)           -159.9855         estimate D2E/DX2                !
 ! D8    D(2,3,4,8)            -75.5141         estimate D2E/DX2                !
 ! D9    D(2,3,4,14)            63.6248         estimate D2E/DX2                !
 ! D10   D(6,3,4,5)            -42.5667         estimate D2E/DX2                !
 ! D11   D(6,3,4,8)             41.9046         estimate D2E/DX2                !
 ! D12   D(6,3,4,14)          -178.9564         estimate D2E/DX2                !
 ! D13   D(13,3,4,5)            67.8667         estimate D2E/DX2                !
 ! D14   D(13,3,4,8)           152.338          estimate D2E/DX2                !
 ! D15   D(13,3,4,14)          -68.523          estimate D2E/DX2                !
 ! D16   D(2,3,6,5)            154.5608         estimate D2E/DX2                !
 ! D17   D(2,3,6,7)            -68.4009         estimate D2E/DX2                !
 ! D18   D(2,3,6,8)             70.133          estimate D2E/DX2                !
 ! D19   D(4,3,6,5)             42.476          estimate D2E/DX2                !
 ! D20   D(4,3,6,7)            179.5142         estimate D2E/DX2                !
 ! D21   D(4,3,6,8)            -41.9518         estimate D2E/DX2                !
 ! D22   D(13,3,6,5)           -69.3076         estimate D2E/DX2                !
 ! D23   D(13,3,6,7)            67.7307         estimate D2E/DX2                !
 ! D24   D(13,3,6,8)          -153.7353         estimate D2E/DX2                !
 ! D25   D(3,4,5,6)             43.0103         estimate D2E/DX2                !
 ! D26   D(3,4,5,15)           157.2506         estimate D2E/DX2                !
 ! D27   D(3,4,5,16)           -68.7596         estimate D2E/DX2                !
 ! D28   D(8,4,5,6)            -42.3987         estimate D2E/DX2                !
 ! D29   D(8,4,5,15)            71.8416         estimate D2E/DX2                !
 ! D30   D(8,4,5,16)          -154.1686         estimate D2E/DX2                !
 ! D31   D(14,4,5,6)           178.8788         estimate D2E/DX2                !
 ! D32   D(14,4,5,15)          -66.8808         estimate D2E/DX2                !
 ! D33   D(14,4,5,16)           67.1089         estimate D2E/DX2                !
 ! D34   D(3,4,8,6)            -43.0034         estimate D2E/DX2                !
 ! D35   D(3,4,8,9)            140.0761         estimate D2E/DX2                !
 ! D36   D(5,4,8,6)             43.0656         estimate D2E/DX2                !
 ! D37   D(5,4,8,9)           -133.855          estimate D2E/DX2                !
 ! D38   D(14,4,8,6)          -179.939          estimate D2E/DX2                !
 ! D39   D(14,4,8,9)             3.1405         estimate D2E/DX2                !
 ! D40   D(4,5,6,3)            -41.9548         estimate D2E/DX2                !
 ! D41   D(4,5,6,7)            179.7466         estimate D2E/DX2                !
 ! D42   D(4,5,6,8)             42.3608         estimate D2E/DX2                !
 ! D43   D(15,5,6,3)          -156.2597         estimate D2E/DX2                !
 ! D44   D(15,5,6,7)            65.4417         estimate D2E/DX2                !
 ! D45   D(15,5,6,8)           -71.9441         estimate D2E/DX2                !
 ! D46   D(16,5,6,3)            69.76           estimate D2E/DX2                !
 ! D47   D(16,5,6,7)           -68.5386         estimate D2E/DX2                !
 ! D48   D(16,5,6,8)           154.0755         estimate D2E/DX2                !
 ! D49   D(3,6,7,17)           -57.5988         estimate D2E/DX2                !
 ! D50   D(3,6,7,18)            63.0786         estimate D2E/DX2                !
 ! D51   D(3,6,7,19)          -177.8081         estimate D2E/DX2                !
 ! D52   D(5,6,7,17)            62.4517         estimate D2E/DX2                !
 ! D53   D(5,6,7,18)          -176.8709         estimate D2E/DX2                !
 ! D54   D(5,6,7,19)           -57.7576         estimate D2E/DX2                !
 ! D55   D(8,6,7,17)          -178.6869         estimate D2E/DX2                !
 ! D56   D(8,6,7,18)           -58.0095         estimate D2E/DX2                !
 ! D57   D(8,6,7,19)            61.1038         estimate D2E/DX2                !
 ! D58   D(3,6,8,4)             41.9482         estimate D2E/DX2                !
 ! D59   D(3,6,8,9)           -141.0675         estimate D2E/DX2                !
 ! D60   D(5,6,8,4)            -42.8858         estimate D2E/DX2                !
 ! D61   D(5,6,8,9)            134.0985         estimate D2E/DX2                !
 ! D62   D(7,6,8,4)           -179.2553         estimate D2E/DX2                !
 ! D63   D(7,6,8,9)             -2.2711         estimate D2E/DX2                !
 --------------------------------------------------------------------------------
 Trust Radius=3.00D-01 FncErr=1.00D-07 GrdErr=1.00D-06
 Number of steps in this run=    114 maximum allowed number of steps=    114.
 GradGradGradGradGradGradGradGradGradGradGradGradGradGradGradGradGradGrad

                          Input orientation:                          
 ---------------------------------------------------------------------
 Center     Atomic      Atomic             Coordinates (Angstroms)
 Number     Number       Type             X           Y           Z
 ---------------------------------------------------------------------
      1          6           0        1.538967   -0.269633   -0.130239
      2          8           0        0.145168   -0.038150   -0.079697
      3          6           0       -0.289651    0.561086    1.099603
      4          6           0       -1.810933    0.848045    1.168829
      5          6           0       -1.443054    1.877954    2.289466
      6          6           0       -0.328154    2.141059    1.213078
      7          6           0        0.796064    3.135904    1.257423
      8          6           0       -1.497079    2.016077    0.212907
      9          8           0       -1.939315    2.570327   -0.743507
     10          1           0        1.873452   -0.892332    0.713412
     11          1           0        1.741618   -0.799995   -1.062943
     12          1           0        2.114980    0.665815   -0.121364
     13          1           0        0.125015    0.067773    1.990785
     14          1           0       -2.622332    0.125461    1.159284
     15          1           0       -2.152756    2.684332    2.474583
     16          1           0       -1.083827    1.431020    3.220046
     17          1           0        1.479722    2.935111    2.089055
     18          1           0        1.373005    3.113267    0.327569
     19          1           0        0.408316    4.152794    1.378312
 ---------------------------------------------------------------------
                    Distance matrix (angstroms):
                    1          2          3          4          5
     1  C    0.000000
     2  O    1.413795   0.000000
     3  C    2.355090   1.392444   0.000000
     4  C    3.762793   2.484047   1.549657   0.000000
     5  C    4.399949   3.436108   2.116661   1.565846   0.000000
     6  C    3.331978   2.577645   1.584510   1.967861   1.571889
     7  C    3.751692   3.505164   2.798816   3.469666   2.767887
     8  C    3.815730   2.646212   2.088327   1.541619   2.081848
     9  O    4.532098   3.404389   3.186769   2.576775   3.150330
    10  H    1.100627   2.084614   2.634498   4.100123   4.599744
    11  H    1.091919   2.023817   3.264231   4.507489   5.343425
    12  H    1.098604   2.092239   2.698885   4.136496   4.465533
    13  H    2.571351   2.073287   1.099777   2.243285   2.413464
    14  H    4.374401   3.036594   2.373760   1.086549   2.395671
    15  H    5.398131   4.383686   3.141640   2.278988   1.090041
    16  H    4.582105   3.815390   2.425651   2.253006   1.093057
    17  H    3.898610   3.914691   3.121809   4.003882   3.114541
    18  H    3.417769   3.406594   3.142307   3.997050   3.647633
    19  H    4.807490   4.445115   3.669496   3.986265   3.071265
                    6          7          8          9         10
     6  C    0.000000
     7  C    1.501849   0.000000
     8  C    1.543486   2.757450   0.000000
     9  O    2.570669   3.435971   1.190586   0.000000
    10  H    3.781295   4.205163   4.479936   5.352552   0.000000
    11  H    4.256058   4.665777   4.477411   5.001037   1.783632
    12  H    3.150553   3.121207   3.870648   4.522337   1.784098
    13  H    2.260244   3.225144   3.096438   4.242710   2.368652
    14  H    3.054306   4.556076   2.395047   3.172459   4.631067
    15  H    2.283793   3.221945   2.447785   3.227175   5.666092
    16  H    2.259008   3.208194   3.091271   4.211845   4.519589
    17  H    2.160155   1.095134   3.636743   4.454918   4.086164
    18  H    2.150176   1.094533   3.074794   3.523273   4.055138
    19  H    2.148666   1.095001   3.090996   3.538035   5.295470
                   11         12         13         14         15
    11  H    0.000000
    12  H    1.781732   0.000000
    13  H    3.562538   2.962901   0.000000
    14  H    4.983856   4.937020   2.871000   0.000000
    15  H    6.310370   5.387663   3.502668   2.915190   0.000000
    16  H    5.595049   4.688596   2.197915   2.884133   1.808069
    17  H    4.894354   3.230977   3.172777   5.058207   3.661477
    18  H    4.169295   2.596554   3.687655   5.057812   4.150258
    19  H    5.680452   4.161821   4.140384   5.045018   3.149171
                   16         17         18         19
    16  H    0.000000
    17  H    3.180128   0.000000
    18  H    4.151193   1.773686   0.000000
    19  H    3.609228   1.770824   1.765022   0.000000
 Stoichiometry    C7H10O2
 Framework group  C1[X(C7H10O2)]
 Deg. of freedom    51
 Full point group                 C1      NOp   1
 Largest Abelian subgroup         C1      NOp   1
 Largest concise Abelian subgroup C1      NOp   1
                         Standard orientation:                         
 ---------------------------------------------------------------------
 Center     Atomic      Atomic             Coordinates (Angstroms)
 Number     Number       Type             X           Y           Z
 ---------------------------------------------------------------------
      1          6           0       -2.708595    0.060322    0.230003
      2          8           0       -1.563813   -0.761858    0.119057
      3          6           0       -0.569961   -0.244792   -0.707866
      4          6           0        0.705937   -1.116326   -0.825969
      5          6           0        1.411147    0.195578   -1.309146
      6          6           0        0.543224    0.706366   -0.102232
      7          6           0        0.432205    2.101155    0.443466
      8          6           0        1.035366   -0.585871    0.583528
      9          8           0        1.483659   -0.949165    1.624944
     10          1           0       -3.154675    0.262705   -0.755610
     11          1           0       -3.433388   -0.481157    0.841365
     12          1           0       -2.483635    1.020892    0.713356
     13          1           0       -0.973997    0.109207   -1.667527
     14          1           0        0.788486   -2.116778   -1.241746
     15          1           0        2.494182    0.246890   -1.196926
     16          1           0        1.086664    0.553684   -2.289577
     17          1           0        0.021005    2.793187   -0.299046
     18          1           0       -0.214200    2.123559    1.326449
     19          1           0        1.414854    2.477406    0.746556
 ---------------------------------------------------------------------
 Rotational constants (GHZ):      2.2283142      1.4325893      1.3221247
 Standard basis: 6-31G(2df,p) (6D, 7F)
 There are   329 symmetry adapted cartesian basis functions of A   symmetry.
 There are   302 symmetry adapted basis functions of A   symmetry.
   302 basis functions,   466 primitive gaussians,   329 cartesian basis functions
    34 alpha electrons       34 beta electrons
       nuclear repulsion energy       464.8746352443 Hartrees.
 NAtoms=   19 NActive=   19 NUniq=   19 SFac= 1.00D+00 NAtFMM=   60 NAOKFM=F Big=F
 Integral buffers will be    131072 words long.
 Raffenetti 2 integral format.
 Two-electron integral symmetry is turned on.
 One-electron integrals computed using PRISM.
 NBasis=   302 RedAO= T EigKep=  3.27D-04  NBF=   302
 NBsUse=   302 1.00D-06 EigRej= -1.00D+00 NBFU=   302
 ExpMin= 1.61D-01 ExpMax= 5.48D+03 ExpMxC= 8.25D+02 IAcc=1 IRadAn=         1 AccDes= 0.00D+00
 Harris functional with IExCor=  402 and IRadAn=       1 diagonalized for initial guess.
 HarFok:  IExCor=  402 AccDes= 0.00D+00 IRadAn=         1 IDoV= 1 UseB2=F ITyADJ=14
 ICtDFT=  3500011 ScaDFX=  1.000000  1.000000  1.000000  1.000000
 FoFCou: FMM=F IPFlag=           0 FMFlag=      100000 FMFlg1=           0
         NFxFlg=           0 DoJE=T BraDBF=F KetDBF=T FulRan=T
         wScrn=  0.000000 ICntrl=     500 IOpCl=  0 I1Cent=   200000004 NGrid=           0
         NMat0=    1 NMatS0=      1 NMatT0=    0 NMatD0=    1 NMtDS0=    0 NMtDT0=    0
 Petite list used in FoFCou.
 Requested convergence on RMS density matrix=1.00D-08 within 128 cycles.
 Requested convergence on MAX density matrix=1.00D-06.
 Requested convergence on             energy=1.00D-06.
 No special actions if energy rises.
 Integral accuracy reduced to 1.0D-05 until final iterations.
 Initial convergence to 1.0D-05 achieved.  Increase integral accuracy.
 SCF Done:  E(RB3LYP) =  -423.147489152     A.U. after   14 cycles
            NFock= 14  Conv=0.48D-08     -V/T= 2.0074

 **********************************************************************

            Population analysis using the SCF density.

 **********************************************************************

 Orbital symmetries:
       Occupied  (A) (A) (A) (A) (A) (A) (A) (A) (A) (A) (A) (A)
                 (A) (A) (A) (A) (A) (A) (A) (A) (A) (A) (A) (A)
                 (A) (A) (A) (A) (A) (A) (A) (A) (A) (A)
       Virtual   (A) (A) (A) (A) (A) (A) (A) (A) (A) (A) (A) (A)
                 (A) (A) (A) (A) (A) (A) (A) (A) (A) (A) (A) (A)
                 (A) (A) (A) (A) (A) (A) (A) (A) (A) (A) (A) (A)
                 (A) (A) (A) (A) (A) (A) (A) (A) (A) (A) (A) (A)
                 (A) (A) (A) (A) (A) (A) (A) (A) (A) (A) (A) (A)
                 (A) (A) (A) (A) (A) (A) (A) (A) (A) (A) (A) (A)
                 (A) (A) (A) (A) (A) (A) (A) (A) (A) (A) (A) (A)
                 (A) (A) (A) (A) (A) (A) (A) (A) (A) (A) (A) (A)
                 (A) (A) (A) (A) (A) (A) (A) (A) (A) (A) (A) (A)
                 (A) (A) (A) (A) (A) (A) (A) (A) (A) (A) (A) (A)
                 (A) (A) (A) (A) (A) (A) (A) (A) (A) (A) (A) (A)
                 (A) (A) (A) (A) (A) (A) (A) (A) (A) (A) (A) (A)
                 (A) (A) (A) (A) (A) (A) (A) (A) (A) (A) (A) (A)
                 (A) (A) (A) (A) (A) (A) (A) (A) (A) (A) (A) (A)
                 (A) (A) (A) (A) (A) (A) (A) (A) (A) (A) (A) (A)
                 (A) (A) (A) (A) (A) (A) (A) (A) (A) (A) (A) (A)
                 (A) (A) (A) (A) (A) (A) (A) (A) (A) (A) (A) (A)
                 (A) (A) (A) (A) (A) (A) (A) (A) (A) (A) (A) (A)
                 (A) (A) (A) (A) (A) (A) (A) (A) (A) (A) (A) (A)
                 (A) (A) (A) (A) (A) (A) (A) (A) (A) (A) (A) (A)
                 (A) (A) (A) (A) (A) (A) (A) (A) (A) (A) (A) (A)
                 (A) (A) (A) (A) (A) (A) (A) (A) (A) (A) (A) (A)
                 (A) (A) (A) (A)
 The electronic state is 1-A.
 Alpha  occ. eigenvalues --  -19.15315 -19.12995 -10.26850 -10.25454 -10.23362
 Alpha  occ. eigenvalues --  -10.21236 -10.20982 -10.20689 -10.18840  -1.05363
 Alpha  occ. eigenvalues --   -1.04039  -0.91789  -0.74314  -0.71534  -0.64839
 Alpha  occ. eigenvalues --   -0.62866  -0.61608  -0.51858  -0.48748  -0.48021
 Alpha  occ. eigenvalues --   -0.46319  -0.45786  -0.43704  -0.42553  -0.41596
 Alpha  occ. eigenvalues --   -0.39871  -0.38883  -0.35990  -0.35264  -0.33697
 Alpha  occ. eigenvalues --   -0.33014  -0.31735  -0.26024  -0.23498
 Alpha virt. eigenvalues --    0.01711   0.07898   0.10915   0.10997   0.12650
 Alpha virt. eigenvalues --    0.13319   0.13389   0.13851   0.14783   0.15739
 Alpha virt. eigenvalues --    0.15990   0.18052   0.18649   0.19755   0.21073
 Alpha virt. eigenvalues --    0.21494   0.23207   0.23640   0.27998   0.28147
 Alpha virt. eigenvalues --    0.33439   0.41215   0.42792   0.43860   0.45715
 Alpha virt. eigenvalues --    0.46934   0.48046   0.50820   0.51234   0.52856
 Alpha virt. eigenvalues --    0.53988   0.55847   0.56198   0.58142   0.60281
 Alpha virt. eigenvalues --    0.62741   0.63988   0.65799   0.67677   0.69412
 Alpha virt. eigenvalues --    0.70274   0.71172   0.71357   0.72810   0.72840
 Alpha virt. eigenvalues --    0.73810   0.76545   0.78291   0.79370   0.79610
 Alpha virt. eigenvalues --    0.79837   0.81764   0.84876   0.85869   0.87174
 Alpha virt. eigenvalues --    0.88899   0.90367   0.91966   0.93067   0.96104
 Alpha virt. eigenvalues --    0.96865   0.98030   1.01028   1.07264   1.08580
 Alpha virt. eigenvalues --    1.10164   1.12496   1.17250   1.19976   1.21729
 Alpha virt. eigenvalues --    1.23726   1.24747   1.26674   1.30367   1.32345
 Alpha virt. eigenvalues --    1.33243   1.35328   1.37405   1.38133   1.39055
 Alpha virt. eigenvalues --    1.43120   1.44257   1.45927   1.46463   1.48652
 Alpha virt. eigenvalues --    1.51432   1.52856   1.53756   1.55715   1.57006
 Alpha virt. eigenvalues --    1.58897   1.60626   1.62884   1.65093   1.68136
 Alpha virt. eigenvalues --    1.69655   1.71788   1.75597   1.79045   1.80829
 Alpha virt. eigenvalues --    1.82010   1.84212   1.86088   1.87872   1.93237
 Alpha virt. eigenvalues --    1.94932   1.96761   2.01247   2.01503   2.11064
 Alpha virt. eigenvalues --    2.11405   2.15109   2.21594   2.26013   2.29283
 Alpha virt. eigenvalues --    2.29850   2.32589   2.36189   2.39173   2.40742
 Alpha virt. eigenvalues --    2.41673   2.44980   2.47838   2.48155   2.55103
 Alpha virt. eigenvalues --    2.60158   2.62983   2.66199   2.70817   2.74930
 Alpha virt. eigenvalues --    2.75345   2.76118   2.79577   2.80131   2.81694
 Alpha virt. eigenvalues --    2.82481   2.85708   2.87333   2.89519   2.91744
 Alpha virt. eigenvalues --    2.92536   2.94563   2.95386   2.97578   3.01497
 Alpha virt. eigenvalues --    3.04548   3.07603   3.09506   3.12732   3.14313
 Alpha virt. eigenvalues --    3.15206   3.17542   3.19413   3.25290   3.25763
 Alpha virt. eigenvalues --    3.27253   3.29431   3.31225   3.32744   3.36979
 Alpha virt. eigenvalues --    3.40455   3.44315   3.48324   3.51723   3.54107
 Alpha virt. eigenvalues --    3.56785   3.58337   3.59392   3.60433   3.64605
 Alpha virt. eigenvalues --    3.66403   3.69413   3.70312   3.73248   3.79807
 Alpha virt. eigenvalues --    3.81466   3.83510   3.85659   3.86859   3.91960
 Alpha virt. eigenvalues --    3.93548   3.97753   3.99198   4.02506   4.04866
 Alpha virt. eigenvalues --    4.08233   4.10658   4.15182   4.20314   4.25072
 Alpha virt. eigenvalues --    4.26458   4.28047   4.32159   4.34693   4.36801
 Alpha virt. eigenvalues --    4.38497   4.40046   4.40550   4.42380   4.45539
 Alpha virt. eigenvalues --    4.46659   4.48926   4.50626   4.54344   4.54674
 Alpha virt. eigenvalues --    4.56700   4.57937   4.62157   4.62864   4.66051
 Alpha virt. eigenvalues --    4.67456   4.68936   4.70520   4.72047   4.74272
 Alpha virt. eigenvalues --    4.75582   4.78149   4.79600   4.81913   4.83704
 Alpha virt. eigenvalues --    4.84428   4.89156   4.91104   4.92692   4.93399
 Alpha virt. eigenvalues --    4.95849   5.01388   5.05285   5.08564   5.09871
 Alpha virt. eigenvalues --    5.10310   5.15135   5.22128   5.25851   5.26601
 Alpha virt. eigenvalues --    5.29880   5.40295   5.41706   5.46915   5.53230
 Alpha virt. eigenvalues --    5.55073   5.58854   5.62411   5.63671   5.65952
 Alpha virt. eigenvalues --    5.77419   5.86038   5.88397   5.98065   6.07412
 Alpha virt. eigenvalues --    6.12740   6.14149   6.24864   6.29536   6.39662
 Alpha virt. eigenvalues --    6.64467   6.82354   6.99508   7.32938  11.12334
 Alpha virt. eigenvalues --   11.27416  11.71608  11.99133  12.08510  12.19660
 Alpha virt. eigenvalues --   12.75471  13.41799  13.68517
          Condensed to atoms (all electrons):
               1          2          3          4          5          6
     1  C    4.839052   0.374934  -0.090710   0.006203  -0.000676  -0.000820
     2  O    0.374934   7.652974   0.394595  -0.016658   0.003094  -0.041834
     3  C   -0.090710   0.394595   4.731903   0.322272  -0.022964   0.296466
     4  C    0.006203  -0.016658   0.322272   5.354856   0.283945  -0.226207
     5  C   -0.000676   0.003094  -0.022964   0.283945   5.123053   0.272700
     6  C   -0.000820  -0.041834   0.296466  -0.226207   0.272700   5.119234
     7  C    0.000630   0.000562  -0.043582   0.016606  -0.049005   0.337409
     8  C    0.000564   0.010351  -0.035662   0.259457  -0.005737   0.268032
     9  O    0.000023  -0.001840  -0.003961  -0.054873  -0.004531  -0.058613
    10  H    0.368359  -0.031340  -0.007937  -0.000171   0.000137  -0.001893
    11  H    0.387229  -0.019632   0.003764  -0.000201   0.000003  -0.000007
    12  H    0.368763  -0.032833   0.001807  -0.000251  -0.000113   0.004536
    13  H   -0.004293  -0.039141   0.350540  -0.042506  -0.005118  -0.053706
    14  H   -0.000051   0.000055  -0.027934   0.358395  -0.032807   0.013830
    15  H    0.000009  -0.000079   0.005007  -0.015784   0.365016  -0.010662
    16  H   -0.000002   0.000067  -0.018805  -0.018742   0.356975  -0.016102
    17  H    0.000003  -0.000039  -0.003057  -0.000504  -0.002807  -0.012661
    18  H   -0.000313   0.000902  -0.002234   0.000278   0.004552  -0.013293
    19  H    0.000016  -0.000059   0.003325   0.000245  -0.004161  -0.012640
               7          8          9         10         11         12
     1  C    0.000630   0.000564   0.000023   0.368359   0.387229   0.368763
     2  O    0.000562   0.010351  -0.001840  -0.031340  -0.019632  -0.032833
     3  C   -0.043582  -0.035662  -0.003961  -0.007937   0.003764   0.001807
     4  C    0.016606   0.259457  -0.054873  -0.000171  -0.000201  -0.000251
     5  C   -0.049005  -0.005737  -0.004531   0.000137   0.000003  -0.000113
     6  C    0.337409   0.268032  -0.058613  -0.001893  -0.000007   0.004536
     7  C    5.194248  -0.031504   0.001852   0.000051  -0.000010   0.000601
     8  C   -0.031504   4.305265   0.831070   0.000109  -0.000039  -0.000014
     9  O    0.001852   0.831070   7.615309  -0.000003   0.000002   0.000010
    10  H    0.000051   0.000109  -0.000003   0.631546  -0.032756  -0.049331
    11  H   -0.000010  -0.000039   0.000002  -0.032756   0.561315  -0.035845
    12  H    0.000601  -0.000014   0.000010  -0.049331  -0.035845   0.627656
    13  H    0.001010   0.004200  -0.000229   0.014004  -0.000066  -0.001660
    14  H   -0.000651  -0.021624   0.000433  -0.000018   0.000003   0.000009
    15  H    0.001066  -0.015577   0.001003   0.000000   0.000000   0.000002
    16  H    0.001704   0.002663  -0.000088   0.000010   0.000000  -0.000006
    17  H    0.364950   0.002813  -0.000033   0.000028   0.000000   0.000241
    18  H    0.363104  -0.001885   0.000527   0.000039   0.000021   0.001080
    19  H    0.364684  -0.001819   0.000538  -0.000003  -0.000001   0.000048
              13         14         15         16         17         18
     1  C   -0.004293  -0.000051   0.000009  -0.000002   0.000003  -0.000313
     2  O   -0.039141   0.000055  -0.000079   0.000067  -0.000039   0.000902
     3  C    0.350540  -0.027934   0.005007  -0.018805  -0.003057  -0.002234
     4  C   -0.042506   0.358395  -0.015784  -0.018742  -0.000504   0.000278
     5  C   -0.005118  -0.032807   0.365016   0.356975  -0.002807   0.004552
     6  C   -0.053706   0.013830  -0.010662  -0.016102  -0.012661  -0.013293
     7  C    0.001010  -0.000651   0.001066   0.001704   0.364950   0.363104
     8  C    0.004200  -0.021624  -0.015577   0.002663   0.002813  -0.001885
     9  O   -0.000229   0.000433   0.001003  -0.000088  -0.000033   0.000527
    10  H    0.014004  -0.000018   0.000000   0.000010   0.000028   0.000039
    11  H   -0.000066   0.000003   0.000000   0.000000   0.000000   0.000021
    12  H   -0.001660   0.000009   0.000002  -0.000006   0.000241   0.001080
    13  H    0.690538  -0.000434  -0.000449   0.014009   0.001489   0.000027
    14  H   -0.000434   0.612127   0.000708   0.000586   0.000011   0.000008
    15  H   -0.000449   0.000708   0.590556  -0.041831  -0.000115  -0.000079
    16  H    0.014009   0.000586  -0.041831   0.612380   0.001183  -0.000060
    17  H    0.001489   0.000011  -0.000115   0.001183   0.591396  -0.032499
    18  H    0.000027   0.000008  -0.000079  -0.000060  -0.032499   0.572588
    19  H   -0.000115   0.000012   0.001317  -0.000159  -0.032052  -0.029636
              19
     1  C    0.000016
     2  O   -0.000059
     3  C    0.003325
     4  C    0.000245
     5  C   -0.004161
     6  C   -0.012640
     7  C    0.364684
     8  C   -0.001819
     9  O    0.000538
    10  H   -0.000003
    11  H   -0.000001
    12  H    0.000048
    13  H   -0.000115
    14  H    0.000012
    15  H    0.001317
    16  H   -0.000159
    17  H   -0.032052
    18  H   -0.029636
    19  H    0.576527
 Mulliken charges:
               1
     1  C   -0.248922
     2  O   -0.254080
     3  C    0.147167
     4  C   -0.226360
     5  C   -0.281554
     6  C    0.136231
     7  C   -0.523726
     8  C    0.429338
     9  O   -0.326594
    10  H    0.109166
    11  H    0.136220
    12  H    0.115300
    13  H    0.071900
    14  H    0.097343
    15  H    0.119893
    16  H    0.106217
    17  H    0.121654
    18  H    0.136873
    19  H    0.133932
 Sum of Mulliken charges =   0.00000
 Mulliken charges with hydrogens summed into heavy atoms:
               1
     1  C    0.111765
     2  O   -0.254080
     3  C    0.219067
     4  C   -0.129017
     5  C   -0.055444
     6  C    0.136231
     7  C   -0.131266
     8  C    0.429338
     9  O   -0.326594
 Electronic spatial extent (au):  <R**2>=           1119.0223
 Charge=              0.0000 electrons
 Dipole moment (field-independent basis, Debye):
    X=             -1.4549    Y=              2.1812    Z=             -2.7340  Tot=              3.7880
 Quadrupole moment (field-independent basis, Debye-Ang):
   XX=            -50.7453   YY=            -53.8739   ZZ=            -56.1851
   XY=              0.3567   XZ=             -4.1500   YZ=              3.1505
 Traceless Quadrupole moment (field-independent basis, Debye-Ang):
   XX=              2.8561   YY=             -0.2724   ZZ=             -2.5837
   XY=              0.3567   XZ=             -4.1500   YZ=              3.1505
 Octapole moment (field-independent basis, Debye-Ang**2):
  XXX=            -15.8179  YYY=             -5.3708  ZZZ=             -2.0686  XYY=              0.2062
  XXY=              3.3547  XXZ=             -1.5170  XZZ=             -9.2339  YZZ=              2.9789
  YYZ=             -1.0303  XYZ=              4.6402
 Hexadecapole moment (field-independent basis, Debye-Ang**3):
 XXXX=           -672.3949 YYYY=           -406.0169 ZZZZ=           -320.2316 XXXY=              9.8946
 XXXZ=            -10.5272 YYYX=             -1.1303 YYYZ=              0.9529 ZZZX=             -4.2970
 ZZZY=             -0.6164 XXYY=           -194.0515 XXZZ=           -179.3208 YYZZ=           -121.6067
 XXYZ=              2.6722 YYXZ=             -2.2246 ZZXY=              6.7958
 N-N= 4.648746352443D+02 E-N=-1.916061056373D+03  KE= 4.200545628169D+02
 Calling FoFJK, ICntrl=      2127 FMM=F ISym2X=0 I1Cent= 0 IOpClX= 0 NMat=1 NMatS=1 NMatT=0.
 ***** Axes restored to original set *****
 -------------------------------------------------------------------
 Center     Atomic                   Forces (Hartrees/Bohr)
 Number     Number              X              Y              Z
 -------------------------------------------------------------------
      1        6           0.000008486   -0.000004278   -0.000000884
      2        8          -0.000012110    0.000009762    0.000024607
      3        6           0.000008717   -0.000023138   -0.000029424
      4        6          -0.000006336    0.000002458    0.000009960
      5        6           0.000013351   -0.000006275   -0.000012996
      6        6          -0.000004555    0.000006662    0.000020705
      7        6          -0.000009048   -0.000000992   -0.000011893
      8        6           0.000005464    0.000002553   -0.000003347
      9        8          -0.000003983   -0.000006437    0.000001439
     10        1           0.000000891    0.000001356    0.000000384
     11        1          -0.000001493   -0.000000032    0.000001939
     12        1          -0.000001785    0.000000503   -0.000001350
     13        1           0.000002675    0.000007452    0.000007582
     14        1          -0.000000318   -0.000007618    0.000009412
     15        1           0.000000307    0.000001712    0.000001744
     16        1           0.000002882    0.000004558    0.000004727
     17        1           0.000002401    0.000007701   -0.000007354
     18        1          -0.000003048    0.000001043   -0.000007806
     19        1          -0.000002500    0.000003008   -0.000007444
 -------------------------------------------------------------------
 Cartesian Forces:  Max     0.000029424 RMS     0.000008758

 GradGradGradGradGradGradGradGradGradGradGradGradGradGradGradGradGradGrad
 Berny optimization.
 FormGI is forming the generalized inverse of G from B-inverse, IUseBI=4.
 Internal  Forces:  Max     0.000023711 RMS     0.000003060
 Search for a local minimum.
 Step number   1 out of a maximum of  114
 All quantities printed in internal units (Hartrees-Bohrs-Radians)
 Mixed Optimization -- En-DIIS/RFO-DIIS
 Second derivative matrix not updated -- first step.
 ITU=  0
     Eigenvalues ---    0.00235   0.00741   0.01509   0.01792   0.02120
     Eigenvalues ---    0.02466   0.02624   0.02825   0.02937   0.03216
     Eigenvalues ---    0.03437   0.03625   0.04704   0.05702   0.05829
     Eigenvalues ---    0.06041   0.06957   0.07339   0.07886   0.09480
     Eigenvalues ---    0.10023   0.10536   0.16000   0.16000   0.16000
     Eigenvalues ---    0.16000   0.16000   0.16000   0.17579   0.19197
     Eigenvalues ---    0.20981   0.21424   0.22890   0.23724   0.24781
     Eigenvalues ---    0.25000   0.27116   0.32184   0.33613   0.33707
     Eigenvalues ---    0.33837   0.34226   0.34241   0.34294   0.34462
     Eigenvalues ---    0.34592   0.34808   0.35215   0.43409   0.46896
     Eigenvalues ---    1.09699
 RFO step:  Lambda= 0.00000000D+00 EMin= 2.35087703D-03
 Linear search not attempted -- first point.
 Iteration  1 RMS(Cart)=  0.00010524 RMS(Int)=  0.00000001
 Iteration  2 RMS(Cart)=  0.00000001 RMS(Int)=  0.00000000
 Variable       Old X    -DE/DX   Delta X   Delta X   Delta X     New X
                                 (Linear)    (Quad)   (Total)
    R1        2.67168   0.00001   0.00000   0.00001   0.00001   2.67170
    R2        2.07988   0.00000   0.00000   0.00000   0.00000   2.07988
    R3        2.06343   0.00000   0.00000   0.00000   0.00000   2.06342
    R4        2.07606   0.00000   0.00000   0.00000   0.00000   2.07606
    R5        2.63134  -0.00002   0.00000  -0.00005  -0.00005   2.63129
    R6        2.92843   0.00000   0.00000   0.00001   0.00001   2.92844
    R7        2.99429   0.00001   0.00000   0.00004   0.00004   2.99433
    R8        2.07828   0.00000   0.00000   0.00000   0.00000   2.07828
    R9        2.95902   0.00000   0.00000  -0.00001  -0.00001   2.95901
   R10        2.91324   0.00001   0.00000   0.00001   0.00001   2.91325
   R11        2.05328   0.00000   0.00000   0.00001   0.00001   2.05329
   R12        2.97044  -0.00001   0.00000  -0.00004  -0.00004   2.97040
   R13        2.05988   0.00000   0.00000   0.00000   0.00000   2.05988
   R14        2.06558   0.00000   0.00000   0.00000   0.00000   2.06558
   R15        2.83808   0.00000   0.00000  -0.00001  -0.00001   2.83808
   R16        2.91677   0.00000   0.00000  -0.00001  -0.00001   2.91676
   R17        2.06950   0.00000   0.00000   0.00000   0.00000   2.06950
   R18        2.06837   0.00000   0.00000   0.00000   0.00000   2.06837
   R19        2.06925   0.00000   0.00000   0.00000   0.00000   2.06926
   R20        2.24988   0.00000   0.00000   0.00000   0.00000   2.24988
    A1        1.94425   0.00000   0.00000  -0.00001  -0.00001   1.94425
    A2        1.86819   0.00000   0.00000   0.00000   0.00000   1.86819
    A3        1.95756   0.00000   0.00000   0.00000   0.00000   1.95756
    A4        1.90027   0.00000   0.00000   0.00001   0.00001   1.90028
    A5        1.89253   0.00000   0.00000   0.00001   0.00001   1.89253
    A6        1.89988   0.00000   0.00000   0.00000   0.00000   1.89988
    A7        1.99171   0.00000   0.00000   0.00001   0.00001   1.99172
    A8        2.00874   0.00000   0.00000   0.00002   0.00002   2.00876
    A9        2.09135   0.00000   0.00000   0.00000   0.00000   2.09134
   A10        1.95575   0.00000   0.00000   0.00004   0.00004   1.95578
   A11        1.35748   0.00000   0.00000  -0.00001  -0.00001   1.35748
   A12        2.00094   0.00000   0.00000  -0.00002  -0.00002   2.00092
   A13        1.98057   0.00000   0.00000  -0.00004  -0.00004   1.98053
   A14        1.49385   0.00000   0.00000  -0.00001  -0.00001   1.49384
   A15        1.48343   0.00000   0.00000  -0.00001  -0.00001   1.48341
   A16        2.22630   0.00000   0.00000  -0.00001  -0.00001   2.22629
   A17        1.46822   0.00000   0.00000   0.00000   0.00000   1.46822
   A18        2.23845   0.00000   0.00000   0.00000   0.00000   2.23845
   A19        2.27898   0.00000   0.00000   0.00002   0.00002   2.27900
   A20        1.35580   0.00000   0.00000   0.00002   0.00002   1.35582
   A21        2.04333   0.00000   0.00000  -0.00001  -0.00001   2.04332
   A22        2.00156   0.00000   0.00000   0.00001   0.00001   2.00157
   A23        2.04234   0.00000   0.00000  -0.00001  -0.00001   2.04233
   A24        2.00240   0.00000   0.00000   0.00002   0.00002   2.00242
   A25        1.95182   0.00000   0.00000  -0.00002  -0.00002   1.95180
   A26        1.47000   0.00000   0.00000  -0.00001  -0.00001   1.46999
   A27        2.27109   0.00000   0.00000   0.00004   0.00004   2.27113
   A28        1.46184   0.00000   0.00000  -0.00001  -0.00001   1.46182
   A29        2.24156   0.00000   0.00000   0.00004   0.00004   2.24161
   A30        1.46361   0.00000   0.00000   0.00002   0.00002   1.46363
   A31        2.26487   0.00000   0.00000  -0.00008  -0.00008   2.26479
   A32        1.94794   0.00001   0.00000   0.00004   0.00004   1.94798
   A33        1.93455   0.00000   0.00000  -0.00001  -0.00001   1.93455
   A34        1.93195   0.00000   0.00000   0.00000   0.00000   1.93195
   A35        1.88839   0.00000   0.00000  -0.00001  -0.00001   1.88838
   A36        1.88335   0.00000   0.00000  -0.00001  -0.00001   1.88334
   A37        1.87512   0.00000   0.00000  -0.00001  -0.00001   1.87511
   A38        1.38343   0.00000   0.00000   0.00001   0.00001   1.38343
   A39        2.45784   0.00000   0.00000   0.00000   0.00000   2.45784
   A40        2.44052   0.00000   0.00000  -0.00001  -0.00001   2.44052
    D1        0.99898   0.00000   0.00000   0.00019   0.00019   0.99917
    D2        3.07448   0.00000   0.00000   0.00019   0.00019   3.07467
    D3       -1.12605   0.00000   0.00000   0.00019   0.00019  -1.12587
    D4        3.12363   0.00000   0.00000   0.00011   0.00011   3.12373
    D5        1.55383   0.00000   0.00000   0.00011   0.00011   1.55393
    D6       -0.83204   0.00000   0.00000   0.00013   0.00013  -0.83190
    D7       -2.79227   0.00000   0.00000   0.00001   0.00001  -2.79226
    D8       -1.31797   0.00000   0.00000   0.00002   0.00002  -1.31795
    D9        1.11046   0.00000   0.00000   0.00003   0.00003   1.11049
   D10       -0.74293   0.00000   0.00000   0.00000   0.00000  -0.74293
   D11        0.73137   0.00000   0.00000   0.00001   0.00001   0.73138
   D12       -3.12338   0.00000   0.00000   0.00002   0.00002  -3.12335
   D13        1.18450   0.00000   0.00000  -0.00004  -0.00004   1.18445
   D14        2.65880   0.00000   0.00000  -0.00004  -0.00004   2.65876
   D15       -1.19595   0.00000   0.00000  -0.00002  -0.00002  -1.19597
   D16        2.69760   0.00000   0.00000   0.00003   0.00003   2.69762
   D17       -1.19382   0.00000   0.00000   0.00011   0.00011  -1.19371
   D18        1.22405   0.00000   0.00000   0.00000   0.00000   1.22406
   D19        0.74135   0.00000   0.00000   0.00001   0.00001   0.74135
   D20        3.13311   0.00000   0.00000   0.00009   0.00009   3.13320
   D21       -0.73220   0.00000   0.00000  -0.00002  -0.00002  -0.73221
   D22       -1.20965   0.00000   0.00000   0.00003   0.00003  -1.20962
   D23        1.18212   0.00000   0.00000   0.00011   0.00011   1.18224
   D24       -2.68319   0.00000   0.00000   0.00001   0.00001  -2.68318
   D25        0.75067   0.00000   0.00000   0.00001   0.00001   0.75069
   D26        2.74454   0.00000   0.00000   0.00001   0.00001   2.74456
   D27       -1.20008   0.00000   0.00000  -0.00001  -0.00001  -1.20009
   D28       -0.74000   0.00000   0.00000   0.00003   0.00003  -0.73997
   D29        1.25387   0.00000   0.00000   0.00003   0.00003   1.25390
   D30       -2.69075   0.00000   0.00000   0.00000   0.00000  -2.69075
   D31        3.12202   0.00000   0.00000  -0.00001  -0.00001   3.12201
   D32       -1.16729   0.00000   0.00000  -0.00001  -0.00001  -1.16730
   D33        1.17127   0.00000   0.00000  -0.00004  -0.00004   1.17123
   D34       -0.75055   0.00000   0.00000  -0.00002  -0.00002  -0.75057
   D35        2.44479   0.00000   0.00000  -0.00002  -0.00002   2.44477
   D36        0.75164   0.00000   0.00000  -0.00003  -0.00003   0.75160
   D37       -2.33621   0.00000   0.00000  -0.00004  -0.00004  -2.33625
   D38       -3.14053   0.00000   0.00000  -0.00001  -0.00001  -3.14054
   D39        0.05481   0.00000   0.00000  -0.00001  -0.00001   0.05480
   D40       -0.73225   0.00000   0.00000  -0.00001  -0.00001  -0.73226
   D41        3.13717   0.00000   0.00000  -0.00008  -0.00008   3.13709
   D42        0.73933   0.00000   0.00000  -0.00002  -0.00002   0.73931
   D43       -2.72725   0.00000   0.00000  -0.00001  -0.00001  -2.72725
   D44        1.14217   0.00000   0.00000  -0.00008  -0.00008   1.14209
   D45       -1.25566   0.00000   0.00000  -0.00002  -0.00002  -1.25568
   D46        1.21754   0.00000   0.00000   0.00001   0.00001   1.21755
   D47       -1.19622   0.00000   0.00000  -0.00007  -0.00007  -1.19629
   D48        2.68913   0.00000   0.00000  -0.00001  -0.00001   2.68912
   D49       -1.00529   0.00000   0.00000  -0.00006  -0.00006  -1.00534
   D50        1.10093   0.00000   0.00000  -0.00004  -0.00004   1.10089
   D51       -3.10334   0.00000   0.00000  -0.00007  -0.00007  -3.10340
   D52        1.08999   0.00000   0.00000   0.00004   0.00004   1.09003
   D53       -3.08698   0.00000   0.00000   0.00005   0.00005  -3.08693
   D54       -1.00806   0.00000   0.00000   0.00003   0.00003  -1.00803
   D55       -3.11868   0.00000   0.00000   0.00003   0.00003  -3.11864
   D56       -1.01246   0.00000   0.00000   0.00004   0.00004  -1.01241
   D57        1.06646   0.00000   0.00000   0.00002   0.00002   1.06648
   D58        0.73214   0.00000   0.00000   0.00002   0.00002   0.73215
   D59       -2.46209   0.00000   0.00000   0.00002   0.00002  -2.46208
   D60       -0.74850   0.00000   0.00000   0.00003   0.00003  -0.74847
   D61        2.34046   0.00000   0.00000   0.00003   0.00003   2.34049
   D62       -3.12860   0.00000   0.00000  -0.00001  -0.00001  -3.12860
   D63       -0.03964   0.00000   0.00000   0.00000   0.00000  -0.03964
         Item               Value     Threshold  Converged?
 Maximum Force            0.000024     0.000450     YES
 RMS     Force            0.000003     0.000300     YES
 Maximum Displacement     0.000615     0.001800     YES
 RMS     Displacement     0.000105     0.001200     YES
 Predicted change in Energy=-4.425849D-09
 Optimization completed.
    -- Stationary point found.
                           ----------------------------
                           !   Optimized Parameters   !
                           ! (Angstroms and Degrees)  !
 --------------------------                            --------------------------
 ! Name  Definition              Value          Derivative Info.                !
 --------------------------------------------------------------------------------
 ! R1    R(1,2)                  1.4138         -DE/DX =    0.0                 !
 ! R2    R(1,10)                 1.1006         -DE/DX =    0.0                 !
 ! R3    R(1,11)                 1.0919         -DE/DX =    0.0                 !
 ! R4    R(1,12)                 1.0986         -DE/DX =    0.0                 !
 ! R5    R(2,3)                  1.3924         -DE/DX =    0.0                 !
 ! R6    R(3,4)                  1.5497         -DE/DX =    0.0                 !
 ! R7    R(3,6)                  1.5845         -DE/DX =    0.0                 !
 ! R8    R(3,13)                 1.0998         -DE/DX =    0.0                 !
 ! R9    R(4,5)                  1.5658         -DE/DX =    0.0                 !
 ! R10   R(4,8)                  1.5416         -DE/DX =    0.0                 !
 ! R11   R(4,14)                 1.0865         -DE/DX =    0.0                 !
 ! R12   R(5,6)                  1.5719         -DE/DX =    0.0                 !
 ! R13   R(5,15)                 1.09           -DE/DX =    0.0                 !
 ! R14   R(5,16)                 1.0931         -DE/DX =    0.0                 !
 ! R15   R(6,7)                  1.5018         -DE/DX =    0.0                 !
 ! R16   R(6,8)                  1.5435         -DE/DX =    0.0                 !
 ! R17   R(7,17)                 1.0951         -DE/DX =    0.0                 !
 ! R18   R(7,18)                 1.0945         -DE/DX =    0.0                 !
 ! R19   R(7,19)                 1.095          -DE/DX =    0.0                 !
 ! R20   R(8,9)                  1.1906         -DE/DX =    0.0                 !
 ! A1    A(2,1,10)             111.3976         -DE/DX =    0.0                 !
 ! A2    A(2,1,11)             107.0395         -DE/DX =    0.0                 !
 ! A3    A(2,1,12)             112.16           -DE/DX =    0.0                 !
 ! A4    A(10,1,11)            108.8775         -DE/DX =    0.0                 !
 ! A5    A(10,1,12)            108.4339         -DE/DX =    0.0                 !
 ! A6    A(11,1,12)            108.8549         -DE/DX =    0.0                 !
 ! A7    A(1,2,3)              114.1164         -DE/DX =    0.0                 !
 ! A8    A(2,3,4)              115.0922         -DE/DX =    0.0                 !
 ! A9    A(2,3,6)              119.8253         -DE/DX =    0.0                 !
 ! A10   A(2,3,13)             112.0561         -DE/DX =    0.0                 !
 ! A11   A(4,3,6)               77.778          -DE/DX =    0.0                 !
 ! A12   A(4,3,13)             114.6456         -DE/DX =    0.0                 !
 ! A13   A(6,3,13)             113.4784         -DE/DX =    0.0                 !
 ! A14   A(3,4,5)               85.5913         -DE/DX =    0.0                 !
 ! A15   A(3,4,8)               84.9941         -DE/DX =    0.0                 !
 ! A16   A(3,4,14)             127.5574         -DE/DX =    0.0                 !
 ! A17   A(5,4,8)               84.1226         -DE/DX =    0.0                 !
 ! A18   A(5,4,14)             128.2535         -DE/DX =    0.0                 !
 ! A19   A(8,4,14)             130.5757         -DE/DX =    0.0                 !
 ! A20   A(4,5,6)               77.6815         -DE/DX =    0.0                 !
 ! A21   A(4,5,15)             117.0744         -DE/DX =    0.0                 !
 ! A22   A(4,5,16)             114.6812         -DE/DX =    0.0                 !
 ! A23   A(6,5,15)             117.0174         -DE/DX =    0.0                 !
 ! A24   A(6,5,16)             114.7289         -DE/DX =    0.0                 !
 ! A25   A(15,5,16)            111.831          -DE/DX =    0.0                 !
 ! A26   A(3,6,5)               84.2247         -DE/DX =    0.0                 !
 ! A27   A(3,6,7)              130.1238         -DE/DX =    0.0                 !
 ! A28   A(3,6,8)               83.757          -DE/DX =    0.0                 !
 ! A29   A(5,6,7)              128.4322         -DE/DX =    0.0                 !
 ! A30   A(5,6,8)               83.8589         -DE/DX =    0.0                 !
 ! A31   A(7,6,8)              129.7675         -DE/DX =    0.0                 !
 ! A32   A(6,7,17)             111.6089         -DE/DX =    0.0                 !
 ! A33   A(6,7,18)             110.8418         -DE/DX =    0.0                 !
 ! A34   A(6,7,19)             110.6924         -DE/DX =    0.0                 !
 ! A35   A(17,7,18)            108.1968         -DE/DX =    0.0                 !
 ! A36   A(17,7,19)            107.9082         -DE/DX =    0.0                 !
 ! A37   A(18,7,19)            107.4366         -DE/DX =    0.0                 !
 ! A38   A(4,8,6)               79.2646         -DE/DX =    0.0                 !
 ! A39   A(4,8,9)              140.824          -DE/DX =    0.0                 !
 ! A40   A(6,8,9)              139.8317         -DE/DX =    0.0                 !
 ! D1    D(10,1,2,3)            57.2375         -DE/DX =    0.0                 !
 ! D2    D(11,1,2,3)           176.1549         -DE/DX =    0.0                 !
 ! D3    D(12,1,2,3)           -64.5181         -DE/DX =    0.0                 !
 ! D4    D(1,2,3,4)            178.9706         -DE/DX =    0.0                 !
 ! D5    D(1,2,3,6)             89.0276         -DE/DX =    0.0                 !
 ! D6    D(1,2,3,13)           -47.6721         -DE/DX =    0.0                 !
 ! D7    D(2,3,4,5)           -159.9855         -DE/DX =    0.0                 !
 ! D8    D(2,3,4,8)            -75.5141         -DE/DX =    0.0                 !
 ! D9    D(2,3,4,14)            63.6248         -DE/DX =    0.0                 !
 ! D10   D(6,3,4,5)            -42.5667         -DE/DX =    0.0                 !
 ! D11   D(6,3,4,8)             41.9046         -DE/DX =    0.0                 !
 ! D12   D(6,3,4,14)          -178.9564         -DE/DX =    0.0                 !
 ! D13   D(13,3,4,5)            67.8667         -DE/DX =    0.0                 !
 ! D14   D(13,3,4,8)           152.338          -DE/DX =    0.0                 !
 ! D15   D(13,3,4,14)          -68.523          -DE/DX =    0.0                 !
 ! D16   D(2,3,6,5)            154.5608         -DE/DX =    0.0                 !
 ! D17   D(2,3,6,7)            -68.4009         -DE/DX =    0.0                 !
 ! D18   D(2,3,6,8)             70.133          -DE/DX =    0.0                 !
 ! D19   D(4,3,6,5)             42.476          -DE/DX =    0.0                 !
 ! D20   D(4,3,6,7)            179.5142         -DE/DX =    0.0                 !
 ! D21   D(4,3,6,8)            -41.9518         -DE/DX =    0.0                 !
 ! D22   D(13,3,6,5)           -69.3076         -DE/DX =    0.0                 !
 ! D23   D(13,3,6,7)            67.7307         -DE/DX =    0.0                 !
 ! D24   D(13,3,6,8)          -153.7353         -DE/DX =    0.0                 !
 ! D25   D(3,4,5,6)             43.0103         -DE/DX =    0.0                 !
 ! D26   D(3,4,5,15)           157.2506         -DE/DX =    0.0                 !
 ! D27   D(3,4,5,16)           -68.7596         -DE/DX =    0.0                 !
 ! D28   D(8,4,5,6)            -42.3987         -DE/DX =    0.0                 !
 ! D29   D(8,4,5,15)            71.8416         -DE/DX =    0.0                 !
 ! D30   D(8,4,5,16)          -154.1686         -DE/DX =    0.0                 !
 ! D31   D(14,4,5,6)           178.8788         -DE/DX =    0.0                 !
 ! D32   D(14,4,5,15)          -66.8808         -DE/DX =    0.0                 !
 ! D33   D(14,4,5,16)           67.1089         -DE/DX =    0.0                 !
 ! D34   D(3,4,8,6)            -43.0034         -DE/DX =    0.0                 !
 ! D35   D(3,4,8,9)            140.0761         -DE/DX =    0.0                 !
 ! D36   D(5,4,8,6)             43.0656         -DE/DX =    0.0                 !
 ! D37   D(5,4,8,9)           -133.855          -DE/DX =    0.0                 !
 ! D38   D(14,4,8,6)          -179.939          -DE/DX =    0.0                 !
 ! D39   D(14,4,8,9)             3.1405         -DE/DX =    0.0                 !
 ! D40   D(4,5,6,3)            -41.9548         -DE/DX =    0.0                 !
 ! D41   D(4,5,6,7)            179.7466         -DE/DX =    0.0                 !
 ! D42   D(4,5,6,8)             42.3608         -DE/DX =    0.0                 !
 ! D43   D(15,5,6,3)          -156.2597         -DE/DX =    0.0                 !
 ! D44   D(15,5,6,7)            65.4417         -DE/DX =    0.0                 !
 ! D45   D(15,5,6,8)           -71.9441         -DE/DX =    0.0                 !
 ! D46   D(16,5,6,3)            69.76           -DE/DX =    0.0                 !
 ! D47   D(16,5,6,7)           -68.5386         -DE/DX =    0.0                 !
 ! D48   D(16,5,6,8)           154.0755         -DE/DX =    0.0                 !
 ! D49   D(3,6,7,17)           -57.5988         -DE/DX =    0.0                 !
 ! D50   D(3,6,7,18)            63.0786         -DE/DX =    0.0                 !
 ! D51   D(3,6,7,19)          -177.8081         -DE/DX =    0.0                 !
 ! D52   D(5,6,7,17)            62.4517         -DE/DX =    0.0                 !
 ! D53   D(5,6,7,18)          -176.8709         -DE/DX =    0.0                 !
 ! D54   D(5,6,7,19)           -57.7576         -DE/DX =    0.0                 !
 ! D55   D(8,6,7,17)          -178.6869         -DE/DX =    0.0                 !
 ! D56   D(8,6,7,18)           -58.0095         -DE/DX =    0.0                 !
 ! D57   D(8,6,7,19)            61.1038         -DE/DX =    0.0                 !
 ! D58   D(3,6,8,4)             41.9482         -DE/DX =    0.0                 !
 ! D59   D(3,6,8,9)           -141.0675         -DE/DX =    0.0                 !
 ! D60   D(5,6,8,4)            -42.8858         -DE/DX =    0.0                 !
 ! D61   D(5,6,8,9)            134.0985         -DE/DX =    0.0                 !
 ! D62   D(7,6,8,4)           -179.2553         -DE/DX =    0.0                 !
 ! D63   D(7,6,8,9)             -2.2711         -DE/DX =    0.0                 !
 --------------------------------------------------------------------------------
 GradGradGradGradGradGradGradGradGradGradGradGradGradGradGradGradGradGrad

                          Input orientation:                          
 ---------------------------------------------------------------------
 Center     Atomic      Atomic             Coordinates (Angstroms)
 Number     Number       Type             X           Y           Z
 ---------------------------------------------------------------------
      1          6           0        1.538967   -0.269633   -0.130239
      2          8           0        0.145168   -0.038150   -0.079697
      3          6           0       -0.289651    0.561086    1.099603
      4          6           0       -1.810933    0.848045    1.168829
      5          6           0       -1.443054    1.877954    2.289466
      6          6           0       -0.328154    2.141059    1.213078
      7          6           0        0.796064    3.135904    1.257423
      8          6           0       -1.497079    2.016077    0.212907
      9          8           0       -1.939315    2.570327   -0.743507
     10          1           0        1.873452   -0.892332    0.713412
     11          1           0        1.741618   -0.799995   -1.062943
     12          1           0        2.114980    0.665815   -0.121364
     13          1           0        0.125015    0.067773    1.990785
     14          1           0       -2.622332    0.125461    1.159284
     15          1           0       -2.152756    2.684332    2.474583
     16          1           0       -1.083827    1.431020    3.220046
     17          1           0        1.479722    2.935111    2.089055
     18          1           0        1.373005    3.113267    0.327569
     19          1           0        0.408316    4.152794    1.378312
 ---------------------------------------------------------------------
                    Distance matrix (angstroms):
                    1          2          3          4          5
     1  C    0.000000
     2  O    1.413795   0.000000
     3  C    2.355090   1.392444   0.000000
     4  C    3.762793   2.484047   1.549657   0.000000
     5  C    4.399949   3.436108   2.116661   1.565846   0.000000
     6  C    3.331978   2.577645   1.584510   1.967861   1.571889
     7  C    3.751692   3.505164   2.798816   3.469666   2.767887
     8  C    3.815730   2.646212   2.088327   1.541619   2.081848
     9  O    4.532098   3.404389   3.186769   2.576775   3.150330
    10  H    1.100627   2.084614   2.634498   4.100123   4.599744
    11  H    1.091919   2.023817   3.264231   4.507489   5.343425
    12  H    1.098604   2.092239   2.698885   4.136496   4.465533
    13  H    2.571351   2.073287   1.099777   2.243285   2.413464
    14  H    4.374401   3.036594   2.373760   1.086549   2.395671
    15  H    5.398131   4.383686   3.141640   2.278988   1.090041
    16  H    4.582105   3.815390   2.425651   2.253006   1.093057
    17  H    3.898610   3.914691   3.121809   4.003882   3.114541
    18  H    3.417769   3.406594   3.142307   3.997050   3.647633
    19  H    4.807490   4.445115   3.669496   3.986265   3.071265
                    6          7          8          9         10
     6  C    0.000000
     7  C    1.501849   0.000000
     8  C    1.543486   2.757450   0.000000
     9  O    2.570669   3.435971   1.190586   0.000000
    10  H    3.781295   4.205163   4.479936   5.352552   0.000000
    11  H    4.256058   4.665777   4.477411   5.001037   1.783632
    12  H    3.150553   3.121207   3.870648   4.522337   1.784098
    13  H    2.260244   3.225144   3.096438   4.242710   2.368652
    14  H    3.054306   4.556076   2.395047   3.172459   4.631067
    15  H    2.283793   3.221945   2.447785   3.227175   5.666092
    16  H    2.259008   3.208194   3.091271   4.211845   4.519589
    17  H    2.160155   1.095134   3.636743   4.454918   4.086164
    18  H    2.150176   1.094533   3.074794   3.523273   4.055138
    19  H    2.148666   1.095001   3.090996   3.538035   5.295470
                   11         12         13         14         15
    11  H    0.000000
    12  H    1.781732   0.000000
    13  H    3.562538   2.962901   0.000000
    14  H    4.983856   4.937020   2.871000   0.000000
    15  H    6.310370   5.387663   3.502668   2.915190   0.000000
    16  H    5.595049   4.688596   2.197915   2.884133   1.808069
    17  H    4.894354   3.230977   3.172777   5.058207   3.661477
    18  H    4.169295   2.596554   3.687655   5.057812   4.150258
    19  H    5.680452   4.161821   4.140384   5.045018   3.149171
                   16         17         18         19
    16  H    0.000000
    17  H    3.180128   0.000000
    18  H    4.151193   1.773686   0.000000
    19  H    3.609228   1.770824   1.765022   0.000000
 Stoichiometry    C7H10O2
 Framework group  C1[X(C7H10O2)]
 Deg. of freedom    51
 Full point group                 C1      NOp   1
 Largest Abelian subgroup         C1      NOp   1
 Largest concise Abelian subgroup C1      NOp   1
                         Standard orientation:                         
 ---------------------------------------------------------------------
 Center     Atomic      Atomic             Coordinates (Angstroms)
 Number     Number       Type             X           Y           Z
 ---------------------------------------------------------------------
      1          6           0       -2.708595    0.060322    0.230003
      2          8           0       -1.563813   -0.761858    0.119057
      3          6           0       -0.569961   -0.244792   -0.707866
      4          6           0        0.705937   -1.116326   -0.825969
      5          6           0        1.411147    0.195578   -1.309146
      6          6           0        0.543224    0.706366   -0.102232
      7          6           0        0.432205    2.101155    0.443466
      8          6           0        1.035366   -0.585871    0.583528
      9          8           0        1.483659   -0.949165    1.624944
     10          1           0       -3.154675    0.262705   -0.755610
     11          1           0       -3.433388   -0.481157    0.841365
     12          1           0       -2.483635    1.020892    0.713356
     13          1           0       -0.973997    0.109207   -1.667527
     14          1           0        0.788486   -2.116778   -1.241746
     15          1           0        2.494182    0.246890   -1.196926
     16          1           0        1.086664    0.553684   -2.289577
     17          1           0        0.021005    2.793187   -0.299046
     18          1           0       -0.214200    2.123559    1.326449
     19          1           0        1.414854    2.477406    0.746556
 ---------------------------------------------------------------------
 Rotational constants (GHZ):      2.2283142      1.4325893      1.3221247
 1\1\GINC-ALCHEMY-AL\FOpt\RB3LYP\6-31G(2df,p)\C7H10O2\PUCK\31-Jan-2020\
 0\\# b3lyp 6-31G(2df,p) opt Freq\\titel\\0,1\C,1.5389670164,-0.2696329
 9,-0.1302390901\O,0.1451677534,-0.0381501084,-0.0796971547\C,-0.289650
 9185,0.5610859397,1.09960339\C,-1.8109326911,0.8480445587,1.1688294404
 \C,-1.4430544284,1.8779537151,2.2894655743\C,-0.3281541153,2.141058641
 4,1.213078464\C,0.7960640324,3.1359037941,1.2574234031\C,-1.4970791963
 ,2.0160765689,0.2129073006\O,-1.9393148644,2.5703268226,-0.7435072342\
 H,1.8734522308,-0.8923315776,0.7134117158\H,1.7416179471,-0.7999950907
 ,-1.0629429461\H,2.1149797915,0.6658146614,-0.1213637939\H,0.125015427
 8,0.0677728874,1.9907847077\H,-2.6223324697,0.1254608656,1.1592840605\
 H,-2.1527558289,2.6843319538,2.4745827448\H,-1.083827233,1.4310202632,
 3.2200464851\H,1.4797220259,2.9351110954,2.0890552448\H,1.373005116,3.
 1132673008,0.3275694153\H,0.4083155642,4.1527936187,1.3783124227\\Vers
 ion=ES64L-G09RevD.01\State=1-A\HF=-423.1474892\RMSD=4.809e-09\RMSF=8.7
 58e-06\Dipole=0.8726618,-0.3605466,1.1530474\Quadrupole=1.5854221,0.08
 84532,-1.6738753,0.4574925,-3.5881083,1.8577335\PG=C01 [X(C7H10O2)]\\@


 EDUCATION IS NOT TRAINING BUT RATHER THE PROCESS THAT EQUIPS YOU TO
 ENTERTAIN YOURSELF, A FRIEND, OR AN IDEA.  -- WALLACE STERLING
 Job cpu time:       0 days  0 hours  6 minutes 11.5 seconds.
 File lengths (MBytes):  RWF=     52 Int=      0 D2E=      0 Chk=      7 Scr=      1
 Normal termination of Gaussian 09 at Fri Jan 31 16:03:48 2020.
 Link1:  Proceeding to internal job step number  2.
 ----------------------------------------------------------------------
 #N Geom=AllCheck Guess=TCheck SCRF=Check GenChk RB3LYP/6-31G(2df,p) Fr
 eq
 ----------------------------------------------------------------------
 1/10=4,29=7,30=1,38=1,40=1/1,3;
 2/12=2,40=1/2;
 3/5=1,6=6,7=104,11=2,14=-4,16=1,25=1,30=1,70=2,71=2,74=-5,116=1,140=1/1,2,3;
 4/5=101/1;
 5/5=2,98=1/2;
 8/6=4,10=90,11=11/1;
 11/6=1,8=1,9=11,15=111,16=1/1,2,10;
 10/6=1/2;
 6/7=2,8=2,9=2,10=2,18=1,28=1/1;
 7/8=1,10=1,25=1/1,2,3,16;
 1/10=4,30=1/3;
 99//99;
 Structure from the checkpoint file:  "/scratch/puck/g09_fa481d4f-97d4-4ff7-a947-3490dfb959a3/Gau-175119.chk"
 -----
 titel
 -----
 Charge =  0 Multiplicity = 1
 Redundant internal coordinates found in file.
 C,0,1.5389670164,-0.26963299,-0.1302390901
 O,0,0.1451677534,-0.0381501084,-0.0796971547
 C,0,-0.2896509185,0.5610859397,1.09960339
 C,0,-1.8109326911,0.8480445587,1.1688294404
 C,0,-1.4430544284,1.8779537151,2.2894655743
 C,0,-0.3281541153,2.1410586414,1.213078464
 C,0,0.7960640324,3.1359037941,1.2574234031
 C,0,-1.4970791963,2.0160765689,0.2129073006
 O,0,-1.9393148644,2.5703268226,-0.7435072342
 H,0,1.8734522308,-0.8923315776,0.7134117158
 H,0,1.7416179471,-0.7999950907,-1.0629429461
 H,0,2.1149797915,0.6658146614,-0.1213637939
 H,0,0.1250154278,0.0677728874,1.9907847077
 H,0,-2.6223324697,0.1254608656,1.1592840605
 H,0,-2.1527558289,2.6843319538,2.4745827448
 H,0,-1.083827233,1.4310202632,3.2200464851
 H,0,1.4797220259,2.9351110954,2.0890552448
 H,0,1.373005116,3.1132673008,0.3275694153
 H,0,0.4083155642,4.1527936187,1.3783124227
 Recover connectivity data from disk.

 GradGradGradGradGradGradGradGradGradGradGradGradGradGradGradGradGradGrad
 Berny optimization.
 Initialization pass.
                           ----------------------------
                           !    Initial Parameters    !
                           ! (Angstroms and Degrees)  !
 --------------------------                            --------------------------
 ! Name  Definition              Value          Derivative Info.                !
 --------------------------------------------------------------------------------
 ! R1    R(1,2)                  1.4138         calculate D2E/DX2 analytically  !
 ! R2    R(1,10)                 1.1006         calculate D2E/DX2 analytically  !
 ! R3    R(1,11)                 1.0919         calculate D2E/DX2 analytically  !
 ! R4    R(1,12)                 1.0986         calculate D2E/DX2 analytically  !
 ! R5    R(2,3)                  1.3924         calculate D2E/DX2 analytically  !
 ! R6    R(3,4)                  1.5497         calculate D2E/DX2 analytically  !
 ! R7    R(3,6)                  1.5845         calculate D2E/DX2 analytically  !
 ! R8    R(3,13)                 1.0998         calculate D2E/DX2 analytically  !
 ! R9    R(4,5)                  1.5658         calculate D2E/DX2 analytically  !
 ! R10   R(4,8)                  1.5416         calculate D2E/DX2 analytically  !
 ! R11   R(4,14)                 1.0865         calculate D2E/DX2 analytically  !
 ! R12   R(5,6)                  1.5719         calculate D2E/DX2 analytically  !
 ! R13   R(5,15)                 1.09           calculate D2E/DX2 analytically  !
 ! R14   R(5,16)                 1.0931         calculate D2E/DX2 analytically  !
 ! R15   R(6,7)                  1.5018         calculate D2E/DX2 analytically  !
 ! R16   R(6,8)                  1.5435         calculate D2E/DX2 analytically  !
 ! R17   R(7,17)                 1.0951         calculate D2E/DX2 analytically  !
 ! R18   R(7,18)                 1.0945         calculate D2E/DX2 analytically  !
 ! R19   R(7,19)                 1.095          calculate D2E/DX2 analytically  !
 ! R20   R(8,9)                  1.1906         calculate D2E/DX2 analytically  !
 ! A1    A(2,1,10)             111.3976         calculate D2E/DX2 analytically  !
 ! A2    A(2,1,11)             107.0395         calculate D2E/DX2 analytically  !
 ! A3    A(2,1,12)             112.16           calculate D2E/DX2 analytically  !
 ! A4    A(10,1,11)            108.8775         calculate D2E/DX2 analytically  !
 ! A5    A(10,1,12)            108.4339         calculate D2E/DX2 analytically  !
 ! A6    A(11,1,12)            108.8549         calculate D2E/DX2 analytically  !
 ! A7    A(1,2,3)              114.1164         calculate D2E/DX2 analytically  !
 ! A8    A(2,3,4)              115.0922         calculate D2E/DX2 analytically  !
 ! A9    A(2,3,6)              119.8253         calculate D2E/DX2 analytically  !
 ! A10   A(2,3,13)             112.0561         calculate D2E/DX2 analytically  !
 ! A11   A(4,3,6)               77.778          calculate D2E/DX2 analytically  !
 ! A12   A(4,3,13)             114.6456         calculate D2E/DX2 analytically  !
 ! A13   A(6,3,13)             113.4784         calculate D2E/DX2 analytically  !
 ! A14   A(3,4,5)               85.5913         calculate D2E/DX2 analytically  !
 ! A15   A(3,4,8)               84.9941         calculate D2E/DX2 analytically  !
 ! A16   A(3,4,14)             127.5574         calculate D2E/DX2 analytically  !
 ! A17   A(5,4,8)               84.1226         calculate D2E/DX2 analytically  !
 ! A18   A(5,4,14)             128.2535         calculate D2E/DX2 analytically  !
 ! A19   A(8,4,14)             130.5757         calculate D2E/DX2 analytically  !
 ! A20   A(4,5,6)               77.6815         calculate D2E/DX2 analytically  !
 ! A21   A(4,5,15)             117.0744         calculate D2E/DX2 analytically  !
 ! A22   A(4,5,16)             114.6812         calculate D2E/DX2 analytically  !
 ! A23   A(6,5,15)             117.0174         calculate D2E/DX2 analytically  !
 ! A24   A(6,5,16)             114.7289         calculate D2E/DX2 analytically  !
 ! A25   A(15,5,16)            111.831          calculate D2E/DX2 analytically  !
 ! A26   A(3,6,5)               84.2247         calculate D2E/DX2 analytically  !
 ! A27   A(3,6,7)              130.1238         calculate D2E/DX2 analytically  !
 ! A28   A(3,6,8)               83.757          calculate D2E/DX2 analytically  !
 ! A29   A(5,6,7)              128.4322         calculate D2E/DX2 analytically  !
 ! A30   A(5,6,8)               83.8589         calculate D2E/DX2 analytically  !
 ! A31   A(7,6,8)              129.7675         calculate D2E/DX2 analytically  !
 ! A32   A(6,7,17)             111.6089         calculate D2E/DX2 analytically  !
 ! A33   A(6,7,18)             110.8418         calculate D2E/DX2 analytically  !
 ! A34   A(6,7,19)             110.6924         calculate D2E/DX2 analytically  !
 ! A35   A(17,7,18)            108.1968         calculate D2E/DX2 analytically  !
 ! A36   A(17,7,19)            107.9082         calculate D2E/DX2 analytically  !
 ! A37   A(18,7,19)            107.4366         calculate D2E/DX2 analytically  !
 ! A38   A(4,8,6)               79.2646         calculate D2E/DX2 analytically  !
 ! A39   A(4,8,9)              140.824          calculate D2E/DX2 analytically  !
 ! A40   A(6,8,9)              139.8317         calculate D2E/DX2 analytically  !
 ! D1    D(10,1,2,3)            57.2375         calculate D2E/DX2 analytically  !
 ! D2    D(11,1,2,3)           176.1549         calculate D2E/DX2 analytically  !
 ! D3    D(12,1,2,3)           -64.5181         calculate D2E/DX2 analytically  !
 ! D4    D(1,2,3,4)            178.9706         calculate D2E/DX2 analytically  !
 ! D5    D(1,2,3,6)             89.0276         calculate D2E/DX2 analytically  !
 ! D6    D(1,2,3,13)           -47.6721         calculate D2E/DX2 analytically  !
 ! D7    D(2,3,4,5)           -159.9855         calculate D2E/DX2 analytically  !
 ! D8    D(2,3,4,8)            -75.5141         calculate D2E/DX2 analytically  !
 ! D9    D(2,3,4,14)            63.6248         calculate D2E/DX2 analytically  !
 ! D10   D(6,3,4,5)            -42.5667         calculate D2E/DX2 analytically  !
 ! D11   D(6,3,4,8)             41.9046         calculate D2E/DX2 analytically  !
 ! D12   D(6,3,4,14)          -178.9564         calculate D2E/DX2 analytically  !
 ! D13   D(13,3,4,5)            67.8667         calculate D2E/DX2 analytically  !
 ! D14   D(13,3,4,8)           152.338          calculate D2E/DX2 analytically  !
 ! D15   D(13,3,4,14)          -68.523          calculate D2E/DX2 analytically  !
 ! D16   D(2,3,6,5)            154.5608         calculate D2E/DX2 analytically  !
 ! D17   D(2,3,6,7)            -68.4009         calculate D2E/DX2 analytically  !
 ! D18   D(2,3,6,8)             70.133          calculate D2E/DX2 analytically  !
 ! D19   D(4,3,6,5)             42.476          calculate D2E/DX2 analytically  !
 ! D20   D(4,3,6,7)            179.5142         calculate D2E/DX2 analytically  !
 ! D21   D(4,3,6,8)            -41.9518         calculate D2E/DX2 analytically  !
 ! D22   D(13,3,6,5)           -69.3076         calculate D2E/DX2 analytically  !
 ! D23   D(13,3,6,7)            67.7307         calculate D2E/DX2 analytically  !
 ! D24   D(13,3,6,8)          -153.7353         calculate D2E/DX2 analytically  !
 ! D25   D(3,4,5,6)             43.0103         calculate D2E/DX2 analytically  !
 ! D26   D(3,4,5,15)           157.2506         calculate D2E/DX2 analytically  !
 ! D27   D(3,4,5,16)           -68.7596         calculate D2E/DX2 analytically  !
 ! D28   D(8,4,5,6)            -42.3987         calculate D2E/DX2 analytically  !
 ! D29   D(8,4,5,15)            71.8416         calculate D2E/DX2 analytically  !
 ! D30   D(8,4,5,16)          -154.1686         calculate D2E/DX2 analytically  !
 ! D31   D(14,4,5,6)           178.8788         calculate D2E/DX2 analytically  !
 ! D32   D(14,4,5,15)          -66.8808         calculate D2E/DX2 analytically  !
 ! D33   D(14,4,5,16)           67.1089         calculate D2E/DX2 analytically  !
 ! D34   D(3,4,8,6)            -43.0034         calculate D2E/DX2 analytically  !
 ! D35   D(3,4,8,9)            140.0761         calculate D2E/DX2 analytically  !
 ! D36   D(5,4,8,6)             43.0656         calculate D2E/DX2 analytically  !
 ! D37   D(5,4,8,9)           -133.855          calculate D2E/DX2 analytically  !
 ! D38   D(14,4,8,6)          -179.939          calculate D2E/DX2 analytically  !
 ! D39   D(14,4,8,9)             3.1405         calculate D2E/DX2 analytically  !
 ! D40   D(4,5,6,3)            -41.9548         calculate D2E/DX2 analytically  !
 ! D41   D(4,5,6,7)            179.7466         calculate D2E/DX2 analytically  !
 ! D42   D(4,5,6,8)             42.3608         calculate D2E/DX2 analytically  !
 ! D43   D(15,5,6,3)          -156.2597         calculate D2E/DX2 analytically  !
 ! D44   D(15,5,6,7)            65.4417         calculate D2E/DX2 analytically  !
 ! D45   D(15,5,6,8)           -71.9441         calculate D2E/DX2 analytically  !
 ! D46   D(16,5,6,3)            69.76           calculate D2E/DX2 analytically  !
 ! D47   D(16,5,6,7)           -68.5386         calculate D2E/DX2 analytically  !
 ! D48   D(16,5,6,8)           154.0755         calculate D2E/DX2 analytically  !
 ! D49   D(3,6,7,17)           -57.5988         calculate D2E/DX2 analytically  !
 ! D50   D(3,6,7,18)            63.0786         calculate D2E/DX2 analytically  !
 ! D51   D(3,6,7,19)          -177.8081         calculate D2E/DX2 analytically  !
 ! D52   D(5,6,7,17)            62.4517         calculate D2E/DX2 analytically  !
 ! D53   D(5,6,7,18)          -176.8709         calculate D2E/DX2 analytically  !
 ! D54   D(5,6,7,19)           -57.7576         calculate D2E/DX2 analytically  !
 ! D55   D(8,6,7,17)          -178.6869         calculate D2E/DX2 analytically  !
 ! D56   D(8,6,7,18)           -58.0095         calculate D2E/DX2 analytically  !
 ! D57   D(8,6,7,19)            61.1038         calculate D2E/DX2 analytically  !
 ! D58   D(3,6,8,4)             41.9482         calculate D2E/DX2 analytically  !
 ! D59   D(3,6,8,9)           -141.0675         calculate D2E/DX2 analytically  !
 ! D60   D(5,6,8,4)            -42.8858         calculate D2E/DX2 analytically  !
 ! D61   D(5,6,8,9)            134.0985         calculate D2E/DX2 analytically  !
 ! D62   D(7,6,8,4)           -179.2553         calculate D2E/DX2 analytically  !
 ! D63   D(7,6,8,9)             -2.2711         calculate D2E/DX2 analytically  !
 --------------------------------------------------------------------------------
 Trust Radius=3.00D-01 FncErr=1.00D-07 GrdErr=1.00D-07
 Number of steps in this run=      2 maximum allowed number of steps=      2.
 GradGradGradGradGradGradGradGradGradGradGradGradGradGradGradGradGradGrad

                          Input orientation:                          
 ---------------------------------------------------------------------
 Center     Atomic      Atomic             Coordinates (Angstroms)
 Number     Number       Type             X           Y           Z
 ---------------------------------------------------------------------
      1          6           0        1.538967   -0.269633   -0.130239
      2          8           0        0.145168   -0.038150   -0.079697
      3          6           0       -0.289651    0.561086    1.099603
      4          6           0       -1.810933    0.848045    1.168829
      5          6           0       -1.443054    1.877954    2.289466
      6          6           0       -0.328154    2.141059    1.213078
      7          6           0        0.796064    3.135904    1.257423
      8          6           0       -1.497079    2.016077    0.212907
      9          8           0       -1.939315    2.570327   -0.743507
     10          1           0        1.873452   -0.892332    0.713412
     11          1           0        1.741618   -0.799995   -1.062943
     12          1           0        2.114980    0.665815   -0.121364
     13          1           0        0.125015    0.067773    1.990785
     14          1           0       -2.622332    0.125461    1.159284
     15          1           0       -2.152756    2.684332    2.474583
     16          1           0       -1.083827    1.431020    3.220046
     17          1           0        1.479722    2.935111    2.089055
     18          1           0        1.373005    3.113267    0.327569
     19          1           0        0.408316    4.152794    1.378312
 ---------------------------------------------------------------------
                    Distance matrix (angstroms):
                    1          2          3          4          5
     1  C    0.000000
     2  O    1.413795   0.000000
     3  C    2.355090   1.392444   0.000000
     4  C    3.762793   2.484047   1.549657   0.000000
     5  C    4.399949   3.436108   2.116661   1.565846   0.000000
     6  C    3.331978   2.577645   1.584510   1.967861   1.571889
     7  C    3.751692   3.505164   2.798816   3.469666   2.767887
     8  C    3.815730   2.646212   2.088327   1.541619   2.081848
     9  O    4.532098   3.404389   3.186769   2.576775   3.150330
    10  H    1.100627   2.084614   2.634498   4.100123   4.599744
    11  H    1.091919   2.023817   3.264231   4.507489   5.343425
    12  H    1.098604   2.092239   2.698885   4.136496   4.465533
    13  H    2.571351   2.073287   1.099777   2.243285   2.413464
    14  H    4.374401   3.036594   2.373760   1.086549   2.395671
    15  H    5.398131   4.383686   3.141640   2.278988   1.090041
    16  H    4.582105   3.815390   2.425651   2.253006   1.093057
    17  H    3.898610   3.914691   3.121809   4.003882   3.114541
    18  H    3.417769   3.406594   3.142307   3.997050   3.647633
    19  H    4.807490   4.445115   3.669496   3.986265   3.071265
                    6          7          8          9         10
     6  C    0.000000
     7  C    1.501849   0.000000
     8  C    1.543486   2.757450   0.000000
     9  O    2.570669   3.435971   1.190586   0.000000
    10  H    3.781295   4.205163   4.479936   5.352552   0.000000
    11  H    4.256058   4.665777   4.477411   5.001037   1.783632
    12  H    3.150553   3.121207   3.870648   4.522337   1.784098
    13  H    2.260244   3.225144   3.096438   4.242710   2.368652
    14  H    3.054306   4.556076   2.395047   3.172459   4.631067
    15  H    2.283793   3.221945   2.447785   3.227175   5.666092
    16  H    2.259008   3.208194   3.091271   4.211845   4.519589
    17  H    2.160155   1.095134   3.636743   4.454918   4.086164
    18  H    2.150176   1.094533   3.074794   3.523273   4.055138
    19  H    2.148666   1.095001   3.090996   3.538035   5.295470
                   11         12         13         14         15
    11  H    0.000000
    12  H    1.781732   0.000000
    13  H    3.562538   2.962901   0.000000
    14  H    4.983856   4.937020   2.871000   0.000000
    15  H    6.310370   5.387663   3.502668   2.915190   0.000000
    16  H    5.595049   4.688596   2.197915   2.884133   1.808069
    17  H    4.894354   3.230977   3.172777   5.058207   3.661477
    18  H    4.169295   2.596554   3.687655   5.057812   4.150258
    19  H    5.680452   4.161821   4.140384   5.045018   3.149171
                   16         17         18         19
    16  H    0.000000
    17  H    3.180128   0.000000
    18  H    4.151193   1.773686   0.000000
    19  H    3.609228   1.770824   1.765022   0.000000
 Stoichiometry    C7H10O2
 Framework group  C1[X(C7H10O2)]
 Deg. of freedom    51
 Full point group                 C1      NOp   1
 Largest Abelian subgroup         C1      NOp   1
 Largest concise Abelian subgroup C1      NOp   1
                         Standard orientation:                         
 ---------------------------------------------------------------------
 Center     Atomic      Atomic             Coordinates (Angstroms)
 Number     Number       Type             X           Y           Z
 ---------------------------------------------------------------------
      1          6           0       -2.708595    0.060322    0.230003
      2          8           0       -1.563813   -0.761858    0.119057
      3          6           0       -0.569961   -0.244792   -0.707866
      4          6           0        0.705937   -1.116326   -0.825969
      5          6           0        1.411147    0.195578   -1.309146
      6          6           0        0.543224    0.706366   -0.102232
      7          6           0        0.432205    2.101155    0.443466
      8          6           0        1.035366   -0.585871    0.583528
      9          8           0        1.483659   -0.949165    1.624944
     10          1           0       -3.154675    0.262705   -0.755610
     11          1           0       -3.433388   -0.481157    0.841365
     12          1           0       -2.483635    1.020892    0.713356
     13          1           0       -0.973997    0.109207   -1.667527
     14          1           0        0.788486   -2.116778   -1.241746
     15          1           0        2.494182    0.246890   -1.196926
     16          1           0        1.086664    0.553684   -2.289577
     17          1           0        0.021005    2.793187   -0.299046
     18          1           0       -0.214200    2.123559    1.326449
     19          1           0        1.414854    2.477406    0.746556
 ---------------------------------------------------------------------
 Rotational constants (GHZ):      2.2283142      1.4325893      1.3221247
 Standard basis: 6-31G(2df,p) (6D, 7F)
 There are   329 symmetry adapted cartesian basis functions of A   symmetry.
 There are   302 symmetry adapted basis functions of A   symmetry.
   302 basis functions,   466 primitive gaussians,   329 cartesian basis functions
    34 alpha electrons       34 beta electrons
       nuclear repulsion energy       464.8746352443 Hartrees.
 NAtoms=   19 NActive=   19 NUniq=   19 SFac= 1.00D+00 NAtFMM=   60 NAOKFM=F Big=F
 Integral buffers will be    131072 words long.
 Raffenetti 2 integral format.
 Two-electron integral symmetry is turned on.
 One-electron integrals computed using PRISM.
 NBasis=   302 RedAO= T EigKep=  3.27D-04  NBF=   302
 NBsUse=   302 1.00D-06 EigRej= -1.00D+00 NBFU=   302
 Initial guess from the checkpoint file:  "/scratch/puck/g09_fa481d4f-97d4-4ff7-a947-3490dfb959a3/Gau-175119.chk"
 B after Tr=     0.000000    0.000000    0.000000
         Rot=    1.000000    0.000000    0.000000    0.000000 Ang=   0.00 deg.
 Requested convergence on RMS density matrix=1.00D-08 within 128 cycles.
 Requested convergence on MAX density matrix=1.00D-06.
 Requested convergence on             energy=1.00D-06.
 No special actions if energy rises.
 SCF Done:  E(RB3LYP) =  -423.147489152     A.U. after    1 cycles
            NFock=  1  Conv=0.29D-08     -V/T= 2.0074
 DoSCS=F DFT=T ScalE2(SS,OS)=  1.000000  1.000000
 Range of M.O.s used for correlation:     1   302
 NBasis=   302 NAE=    34 NBE=    34 NFC=     0 NFV=     0
 NROrb=    302 NOA=    34 NOB=    34 NVA=   268 NVB=   268

 **** Warning!!: The largest alpha MO coefficient is  0.18793486D+02

 Symmetrizing basis deriv contribution to polar:
 IMax=3 JMax=2 DiffMx= 0.00D+00
 G2DrvN: will do    20 centers at a time, making    1 passes.
 Calling FoFCou, ICntrl=  3107 FMM=F I1Cent=   0 AccDes= 0.00D+00.
 End of G2Drv F.D. properties file   721 does not exist.
 End of G2Drv F.D. properties file   722 does not exist.
 End of G2Drv F.D. properties file   788 does not exist.
          IDoAtm=1111111111111111111
          Differentiating once with respect to electric field.
                with respect to dipole field.
          Differentiating once with respect to nuclear coordinates.
          There are    60 degrees of freedom in the 1st order CPHF.  IDoFFX=6 NUNeed=     3.
     57 vectors produced by pass  0 Test12= 1.52D-14 1.67D-09 XBig12= 5.65D+01 2.62D+00.
 AX will form    57 AO Fock derivatives at one time.
