 Entering Gaussian System, Link 0=/home/puck/opt/gaussian_09/g09
 Input=dsC7O2H10nsd_1327.com
 Output=dsC7O2H10nsd_1327.log
 Initial command:
 /home/puck/opt/gaussian_09/l1.exe "/scratch/puck/g09_d0a40020-e6c7-467b-8e4b-fc3adbdbde13/Gau-175077.inp" -scrdir="/scratch/puck/g09_d0a40020-e6c7-467b-8e4b-fc3adbdbde13/"
 Entering Link 1 = /home/puck/opt/gaussian_09/l1.exe PID=    175078.
  
 Copyright (c) 1988,1990,1992,1993,1995,1998,2003,2009,2013,
            Gaussian, Inc.  All Rights Reserved.
  
 This is part of the Gaussian(R) 09 program.  It is based on
 the Gaussian(R) 03 system (copyright 2003, Gaussian, Inc.),
 the Gaussian(R) 98 system (copyright 1998, Gaussian, Inc.),
 the Gaussian(R) 94 system (copyright 1995, Gaussian, Inc.),
 the Gaussian 92(TM) system (copyright 1992, Gaussian, Inc.),
 the Gaussian 90(TM) system (copyright 1990, Gaussian, Inc.),
 the Gaussian 88(TM) system (copyright 1988, Gaussian, Inc.),
 the Gaussian 86(TM) system (copyright 1986, Carnegie Mellon
 University), and the Gaussian 82(TM) system (copyright 1983,
 Carnegie Mellon University). Gaussian is a federally registered
 trademark of Gaussian, Inc.
  
 This software contains proprietary and confidential information,
 including trade secrets, belonging to Gaussian, Inc.
  
 This software is provided under written license and may be
 used, copied, transmitted, or stored only in accord with that
 written license.
  
 The following legend is applicable only to US Government
 contracts under FAR:
  
                    RESTRICTED RIGHTS LEGEND
  
 Use, reproduction and disclosure by the US Government is
 subject to restrictions as set forth in subparagraphs (a)
 and (c) of the Commercial Computer Software - Restricted
 Rights clause in FAR 52.227-19.
  
 Gaussian, Inc.
 340 Quinnipiac St., Bldg. 40, Wallingford CT 06492
  
  
 ---------------------------------------------------------------
 Warning -- This program may not be used in any manner that
 competes with the business of Gaussian, Inc. or will provide
 assistance to any competitor of Gaussian, Inc.  The licensee
 of this program is prohibited from giving any competitor of
 Gaussian, Inc. access to this program.  By using this program,
 the user acknowledges that Gaussian, Inc. is engaged in the
 business of creating and licensing software in the field of
 computational chemistry and represents and warrants to the
 licensee that it is not a competitor of Gaussian, Inc. and that
 it will not use this program in any manner prohibited above.
 ---------------------------------------------------------------
  

 Cite this work as:
 Gaussian 09, Revision D.01,
 M. J. Frisch, G. W. Trucks, H. B. Schlegel, G. E. Scuseria, 
 M. A. Robb, J. R. Cheeseman, G. Scalmani, V. Barone, B. Mennucci, 
 G. A. Petersson, H. Nakatsuji, M. Caricato, X. Li, H. P. Hratchian, 
 A. F. Izmaylov, J. Bloino, G. Zheng, J. L. Sonnenberg, M. Hada, 
 M. Ehara, K. Toyota, R. Fukuda, J. Hasegawa, M. Ishida, T. Nakajima, 
 Y. Honda, O. Kitao, H. Nakai, T. Vreven, J. A. Montgomery, Jr., 
 J. E. Peralta, F. Ogliaro, M. Bearpark, J. J. Heyd, E. Brothers, 
 K. N. Kudin, V. N. Staroverov, T. Keith, R. Kobayashi, J. Normand, 
 K. Raghavachari, A. Rendell, J. C. Burant, S. S. Iyengar, J. Tomasi, 
 M. Cossi, N. Rega, J. M. Millam, M. Klene, J. E. Knox, J. B. Cross, 
 V. Bakken, C. Adamo, J. Jaramillo, R. Gomperts, R. E. Stratmann, 
 O. Yazyev, A. J. Austin, R. Cammi, C. Pomelli, J. W. Ochterski, 
 R. L. Martin, K. Morokuma, V. G. Zakrzewski, G. A. Voth, 
 P. Salvador, J. J. Dannenberg, S. Dapprich, A. D. Daniels, 
 O. Farkas, J. B. Foresman, J. V. Ortiz, J. Cioslowski, 
 and D. J. Fox, Gaussian, Inc., Wallingford CT, 2013.
 
 ******************************************
 Gaussian 09:  ES64L-G09RevD.01 24-Apr-2013
                31-Jan-2020 
 ******************************************
 -----------------------------
 # b3lyp 6-31G(2df,p) opt Freq
 -----------------------------
 1/14=-1,18=20,19=15,26=3,38=1/1,3;
 2/9=110,12=2,17=6,18=5,40=1/2;
 3/5=1,6=6,7=104,11=2,16=1,25=1,30=1,71=1,74=-5/1,2,3;
 4//1;
 5/5=2,38=5/2;
 6/7=2,8=2,9=2,10=2,28=1/1;
 7//1,2,3,16;
 1/14=-1,18=20,19=15,26=3/3(2);
 2/9=110/2;
 99//99;
 2/9=110/2;
 3/5=1,6=6,7=104,11=2,16=1,25=1,30=1,71=1,74=-5/1,2,3;
 4/5=5,16=3,69=1/1;
 5/5=2,38=5/2;
 7//1,2,3,16;
 1/14=-1,18=20,19=15,26=3/3(-5);
 2/9=110/2;
 6/7=2,8=2,9=2,10=2,19=2,28=1/1;
 99/9=1/99;
 -----
 titel
 -----
 Symbolic Z-matrix:
 Charge =  0 Multiplicity = 1
 C                    -1.66108   2.86569  -1.79874 
 C                    -1.16533   2.00259  -0.61759 
 C                    -2.37457   1.55606   0.23588 
 C                    -0.23075   2.77555   0.2063 
 C                     0.5338    3.39519   0.89681 
 C                    -0.41663   0.75388  -1.20644 
 O                     0.53775   1.12268  -2.15692 
 C                     0.24566  -0.08133  -0.12208 
 O                     1.42752  -0.32442  -0.15635 
 H                    -2.37749   2.29891  -2.40319 
 H                    -2.15847   3.76404  -1.42339 
 H                    -0.82541   3.15983  -2.43358 
 H                    -2.0737    1.00715   1.13137 
 H                    -2.93888   2.43304   0.56339 
 H                    -3.04427   0.92274  -0.35557 
 H                     1.21317   3.94507   1.50024 
 H                    -1.19145   0.11943  -1.67418 
 H                     1.38719   0.80509  -1.80983 
 H                    -0.39985  -0.46703   0.68893 
 

 GradGradGradGradGradGradGradGradGradGradGradGradGradGradGradGradGradGrad
 Berny optimization.
 Initialization pass.
                           ----------------------------
                           !    Initial Parameters    !
                           ! (Angstroms and Degrees)  !
 --------------------------                            --------------------------
 ! Name  Definition              Value          Derivative Info.                !
 --------------------------------------------------------------------------------
 ! R1    R(1,2)                  1.5446         estimate D2E/DX2                !
 ! R2    R(1,10)                 1.0954         estimate D2E/DX2                !
 ! R3    R(1,11)                 1.0933         estimate D2E/DX2                !
 ! R4    R(1,12)                 1.0899         estimate D2E/DX2                !
 ! R5    R(2,3)                  1.546          estimate D2E/DX2                !
 ! R6    R(2,4)                  1.4662         estimate D2E/DX2                !
 ! R7    R(2,6)                  1.5705         estimate D2E/DX2                !
 ! R8    R(3,13)                 1.0926         estimate D2E/DX2                !
 ! R9    R(3,14)                 1.0931         estimate D2E/DX2                !
 ! R10   R(3,15)                 1.0952         estimate D2E/DX2                !
 ! R11   R(4,5)                  1.2022         estimate D2E/DX2                !
 ! R12   R(5,16)                 1.0621         estimate D2E/DX2                !
 ! R13   R(6,7)                  1.3965         estimate D2E/DX2                !
 ! R14   R(6,8)                  1.5205         estimate D2E/DX2                !
 ! R15   R(6,17)                 1.1053         estimate D2E/DX2                !
 ! R16   R(7,18)                 0.971          estimate D2E/DX2                !
 ! R17   R(8,9)                  1.2071         estimate D2E/DX2                !
 ! R18   R(8,19)                 1.106          estimate D2E/DX2                !
 ! A1    A(2,1,10)             110.0449         estimate D2E/DX2                !
 ! A2    A(2,1,11)             110.0365         estimate D2E/DX2                !
 ! A3    A(2,1,12)             110.495          estimate D2E/DX2                !
 ! A4    A(10,1,11)            108.486          estimate D2E/DX2                !
 ! A5    A(10,1,12)            108.6443         estimate D2E/DX2                !
 ! A6    A(11,1,12)            109.0894         estimate D2E/DX2                !
 ! A7    A(1,2,3)              109.4209         estimate D2E/DX2                !
 ! A8    A(1,2,4)              109.8587         estimate D2E/DX2                !
 ! A9    A(1,2,6)              108.0938         estimate D2E/DX2                !
 ! A10   A(3,2,4)              109.9156         estimate D2E/DX2                !
 ! A11   A(3,2,6)              110.5005         estimate D2E/DX2                !
 ! A12   A(4,2,6)              109.0247         estimate D2E/DX2                !
 ! A13   A(2,3,13)             112.4689         estimate D2E/DX2                !
 ! A14   A(2,3,14)             109.7236         estimate D2E/DX2                !
 ! A15   A(2,3,15)             110.3157         estimate D2E/DX2                !
 ! A16   A(13,3,14)            107.438          estimate D2E/DX2                !
 ! A17   A(13,3,15)            108.6932         estimate D2E/DX2                !
 ! A18   A(14,3,15)            108.064          estimate D2E/DX2                !
 ! A19   A(2,6,7)              111.7775         estimate D2E/DX2                !
 ! A20   A(2,6,8)              112.1472         estimate D2E/DX2                !
 ! A21   A(2,6,17)             106.3124         estimate D2E/DX2                !
 ! A22   A(7,6,8)              109.4363         estimate D2E/DX2                !
 ! A23   A(7,6,17)             110.0379         estimate D2E/DX2                !
 ! A24   A(8,6,17)             106.9675         estimate D2E/DX2                !
 ! A25   A(6,7,18)             105.5561         estimate D2E/DX2                !
 ! A26   A(6,8,9)              121.1201         estimate D2E/DX2                !
 ! A27   A(6,8,19)             117.4058         estimate D2E/DX2                !
 ! A28   A(9,8,19)             121.4691         estimate D2E/DX2                !
 ! A29   L(2,4,5,9,-1)         179.5094         estimate D2E/DX2                !
 ! A30   L(4,5,16,9,-1)        179.9794         estimate D2E/DX2                !
 ! A31   L(2,4,5,9,-2)         180.8753         estimate D2E/DX2                !
 ! A32   L(4,5,16,9,-2)        179.4998         estimate D2E/DX2                !
 ! D1    D(10,1,2,3)           -57.9344         estimate D2E/DX2                !
 ! D2    D(10,1,2,4)          -178.6891         estimate D2E/DX2                !
 ! D3    D(10,1,2,6)            62.4539         estimate D2E/DX2                !
 ! D4    D(11,1,2,3)            61.5591         estimate D2E/DX2                !
 ! D5    D(11,1,2,4)           -59.1956         estimate D2E/DX2                !
 ! D6    D(11,1,2,6)          -178.0526         estimate D2E/DX2                !
 ! D7    D(12,1,2,3)          -177.9133         estimate D2E/DX2                !
 ! D8    D(12,1,2,4)            61.332          estimate D2E/DX2                !
 ! D9    D(12,1,2,6)           -57.525          estimate D2E/DX2                !
 ! D10   D(1,2,3,13)          -175.4709         estimate D2E/DX2                !
 ! D11   D(1,2,3,14)           -55.9476         estimate D2E/DX2                !
 ! D12   D(1,2,3,15)            62.9985         estimate D2E/DX2                !
 ! D13   D(4,2,3,13)           -54.7508         estimate D2E/DX2                !
 ! D14   D(4,2,3,14)            64.7725         estimate D2E/DX2                !
 ! D15   D(4,2,3,15)          -176.2814         estimate D2E/DX2                !
 ! D16   D(6,2,3,13)            65.6215         estimate D2E/DX2                !
 ! D17   D(6,2,3,14)          -174.8552         estimate D2E/DX2                !
 ! D18   D(6,2,3,15)           -55.909          estimate D2E/DX2                !
 ! D19   D(1,2,6,7)             50.2956         estimate D2E/DX2                !
 ! D20   D(1,2,6,8)            173.6274         estimate D2E/DX2                !
 ! D21   D(1,2,6,17)           -69.7952         estimate D2E/DX2                !
 ! D22   D(3,2,6,7)            170.006          estimate D2E/DX2                !
 ! D23   D(3,2,6,8)            -66.6622         estimate D2E/DX2                !
 ! D24   D(3,2,6,17)            49.9152         estimate D2E/DX2                !
 ! D25   D(4,2,6,7)            -69.0899         estimate D2E/DX2                !
 ! D26   D(4,2,6,8)             54.2419         estimate D2E/DX2                !
 ! D27   D(4,2,6,17)           170.8193         estimate D2E/DX2                !
 ! D28   D(2,6,7,18)           119.7227         estimate D2E/DX2                !
 ! D29   D(8,6,7,18)            -5.13           estimate D2E/DX2                !
 ! D30   D(17,6,7,18)         -122.3948         estimate D2E/DX2                !
 ! D31   D(2,6,8,9)           -123.9375         estimate D2E/DX2                !
 ! D32   D(2,6,8,19)            56.8688         estimate D2E/DX2                !
 ! D33   D(7,6,8,9)              0.7003         estimate D2E/DX2                !
 ! D34   D(7,6,8,19)          -178.4934         estimate D2E/DX2                !
 ! D35   D(17,6,8,9)           119.8799         estimate D2E/DX2                !
 ! D36   D(17,6,8,19)          -59.3139         estimate D2E/DX2                !
 --------------------------------------------------------------------------------
 Trust Radius=3.00D-01 FncErr=1.00D-07 GrdErr=1.00D-06
 Number of steps in this run=     96 maximum allowed number of steps=    114.
 GradGradGradGradGradGradGradGradGradGradGradGradGradGradGradGradGradGrad

                          Input orientation:                          
 ---------------------------------------------------------------------
 Center     Atomic      Atomic             Coordinates (Angstroms)
 Number     Number       Type             X           Y           Z
 ---------------------------------------------------------------------
      1          6           0       -1.661081    2.865691   -1.798742
      2          6           0       -1.165332    2.002594   -0.617593
      3          6           0       -2.374574    1.556058    0.235880
      4          6           0       -0.230746    2.775553    0.206300
      5          6           0        0.533797    3.395185    0.896814
      6          6           0       -0.416630    0.753879   -1.206444
      7          8           0        0.537753    1.122676   -2.156919
      8          6           0        0.245660   -0.081327   -0.122085
      9          8           0        1.427515   -0.324418   -0.156353
     10          1           0       -2.377487    2.298911   -2.403192
     11          1           0       -2.158468    3.764042   -1.423386
     12          1           0       -0.825406    3.159829   -2.433582
     13          1           0       -2.073698    1.007154    1.131366
     14          1           0       -2.938885    2.433038    0.563387
     15          1           0       -3.044266    0.922742   -0.355565
     16          1           0        1.213174    3.945070    1.500240
     17          1           0       -1.191451    0.119427   -1.674184
     18          1           0        1.387195    0.805095   -1.809827
     19          1           0       -0.399850   -0.467034    0.688933
 ---------------------------------------------------------------------
                    Distance matrix (angstroms):
                    1          2          3          4          5
     1  C    0.000000
     2  C    1.544608   0.000000
     3  C    2.522676   1.545987   0.000000
     4  C    2.464584   1.466192   2.466585   0.000000
     5  C    3.516230   2.668292   3.503976   1.202198   0.000000
     6  C    2.521750   1.570538   2.560729   2.473371   3.507635
     7  O    2.828649   2.458511   3.794068   2.984526   3.806520
     8  C    3.889955   2.564987   3.110434   2.914887   3.634187
     9  O    4.734306   3.514340   4.259803   3.534285   3.967788
    10  H    1.095371   2.178414   2.741631   3.412497   4.535133
    11  H    1.093308   2.176769   2.770390   2.710922   3.573189
    12  H    1.089904   2.180037   3.478222   2.733179   3.604770
    13  H    3.494273   2.207914   1.092574   2.716515   3.543549
    14  H    2.720225   2.173817   1.093069   2.752970   3.618898
    15  H    2.787653   2.182918   1.095164   3.415333   4.525922
    16  H    4.506626   3.730378   4.491983   2.264278   1.062096
    17  H    2.788912   2.159487   2.666840   3.393255   4.507450
    18  H    3.679424   3.061180   4.347386   3.250416   3.842234
    19  H    4.345835   2.896901   2.863162   3.282666   3.978900
                    6          7          8          9         10
     6  C    0.000000
     7  O    1.396517   0.000000
     8  C    1.520537   2.382329   0.000000
     9  O    2.380396   2.624504   1.207083   0.000000
    10  H    2.768445   3.153220   4.213061   5.138889   0.000000
    11  H    3.484558   3.845061   4.718060   5.583919   1.776120
    12  H    2.731586   2.466726   4.122535   4.733012   1.775122
    13  H    2.876696   4.200695   2.852254   3.961035   3.775450
    14  H    3.509080   4.604793   4.115001   5.214119   3.022209
    15  H    2.767125   4.014438   3.447649   4.646711   2.555624
    16  H    4.490667   4.668716   4.447459   4.584623   5.553329
    17  H    1.105287   2.056620   2.124760   3.059378   2.586171
    18  H    1.902755   0.971021   2.222008   2.002848   4.093458
    19  H    2.254632   3.391924   1.105985   2.018443   4.595948
                   11         12         13         14         15
    11  H    0.000000
    12  H    1.778376   0.000000
    13  H    3.759571   4.347539   0.000000
    14  H    2.515530   3.738561   1.761900   0.000000
    15  H    3.161941   3.774394   1.777665   1.771037   0.000000
    16  H    4.466355   4.499708   4.423905   4.517026   5.541144
    17  H    3.779053   3.155110   3.072057   3.662382   2.411845
    18  H    4.634267   3.290813   4.546341   5.195893   4.665465
    19  H    5.045457   4.804720   2.273927   3.856537   3.164710
                   16         17         18         19
    16  H    0.000000
    17  H    5.522204   0.000000
    18  H    4.565772   2.671695   0.000000
    19  H    4.767255   2.560252   3.325002   0.000000
 Stoichiometry    C7H10O2
 Framework group  C1[X(C7H10O2)]
 Deg. of freedom    51
 Full point group                 C1      NOp   1
 Largest Abelian subgroup         C1      NOp   1
 Largest concise Abelian subgroup C1      NOp   1
                         Standard orientation:                         
 ---------------------------------------------------------------------
 Center     Atomic      Atomic             Coordinates (Angstroms)
 Number     Number       Type             X           Y           Z
 ---------------------------------------------------------------------
      1          6           0       -1.808581   -0.984446   -0.797387
      2          6           0       -0.868960   -0.196640    0.141915
      3          6           0       -1.392483   -0.294789    1.593247
      4          6           0       -0.811696    1.208024   -0.274447
      5          6           0       -0.756007    2.364598   -0.597735
      6          6           0        0.567402   -0.822208    0.031832
      7          8           0        0.975337   -0.952402   -1.297415
      8          6           0        1.603102   -0.018897    0.802578
      9          8           0        2.590364    0.411837    0.257757
     10          1           0       -1.871870   -2.029401   -0.475049
     11          1           0       -2.812520   -0.552287   -0.771546
     12          1           0       -1.435180   -0.957564   -1.820978
     13          1           0       -0.808255    0.311226    2.289767
     14          1           0       -2.425535    0.059670    1.637528
     15          1           0       -1.375635   -1.335464    1.933978
     16          1           0       -0.705749    3.384154   -0.891042
     17          1           0        0.510097   -1.817258    0.509589
     18          1           0        1.780003   -0.414717   -1.376723
     19          1           0        1.422375    0.142306    1.881723
 ---------------------------------------------------------------------
 Rotational constants (GHZ):      2.0475530      1.3551623      1.2129834
 Standard basis: 6-31G(2df,p) (6D, 7F)
 There are   329 symmetry adapted cartesian basis functions of A   symmetry.
 There are   302 symmetry adapted basis functions of A   symmetry.
   302 basis functions,   466 primitive gaussians,   329 cartesian basis functions
    34 alpha electrons       34 beta electrons
       nuclear repulsion energy       449.0606982849 Hartrees.
 NAtoms=   19 NActive=   19 NUniq=   19 SFac= 1.00D+00 NAtFMM=   60 NAOKFM=F Big=F
 Integral buffers will be    131072 words long.
 Raffenetti 2 integral format.
 Two-electron integral symmetry is turned on.
 One-electron integrals computed using PRISM.
 NBasis=   302 RedAO= T EigKep=  1.31D-04  NBF=   302
 NBsUse=   302 1.00D-06 EigRej= -1.00D+00 NBFU=   302
 ExpMin= 1.61D-01 ExpMax= 5.48D+03 ExpMxC= 8.25D+02 IAcc=1 IRadAn=         1 AccDes= 0.00D+00
 Harris functional with IExCor=  402 and IRadAn=       1 diagonalized for initial guess.
 HarFok:  IExCor=  402 AccDes= 0.00D+00 IRadAn=         1 IDoV= 1 UseB2=F ITyADJ=14
 ICtDFT=  3500011 ScaDFX=  1.000000  1.000000  1.000000  1.000000
 FoFCou: FMM=F IPFlag=           0 FMFlag=      100000 FMFlg1=           0
         NFxFlg=           0 DoJE=T BraDBF=F KetDBF=T FulRan=T
         wScrn=  0.000000 ICntrl=     500 IOpCl=  0 I1Cent=   200000004 NGrid=           0
         NMat0=    1 NMatS0=      1 NMatT0=    0 NMatD0=    1 NMtDS0=    0 NMtDT0=    0
 Petite list used in FoFCou.
 Requested convergence on RMS density matrix=1.00D-08 within 128 cycles.
 Requested convergence on MAX density matrix=1.00D-06.
 Requested convergence on             energy=1.00D-06.
 No special actions if energy rises.
 Integral accuracy reduced to 1.0D-05 until final iterations.
 Initial convergence to 1.0D-05 achieved.  Increase integral accuracy.
 SCF Done:  E(RB3LYP) =  -423.157329266     A.U. after   15 cycles
            NFock= 15  Conv=0.73D-08     -V/T= 2.0074

 **********************************************************************

            Population analysis using the SCF density.

 **********************************************************************

 Orbital symmetries:
       Occupied  (A) (A) (A) (A) (A) (A) (A) (A) (A) (A) (A) (A)
                 (A) (A) (A) (A) (A) (A) (A) (A) (A) (A) (A) (A)
                 (A) (A) (A) (A) (A) (A) (A) (A) (A) (A)
       Virtual   (A) (A) (A) (A) (A) (A) (A) (A) (A) (A) (A) (A)
                 (A) (A) (A) (A) (A) (A) (A) (A) (A) (A) (A) (A)
                 (A) (A) (A) (A) (A) (A) (A) (A) (A) (A) (A) (A)
                 (A) (A) (A) (A) (A) (A) (A) (A) (A) (A) (A) (A)
                 (A) (A) (A) (A) (A) (A) (A) (A) (A) (A) (A) (A)
                 (A) (A) (A) (A) (A) (A) (A) (A) (A) (A) (A) (A)
                 (A) (A) (A) (A) (A) (A) (A) (A) (A) (A) (A) (A)
                 (A) (A) (A) (A) (A) (A) (A) (A) (A) (A) (A) (A)
                 (A) (A) (A) (A) (A) (A) (A) (A) (A) (A) (A) (A)
                 (A) (A) (A) (A) (A) (A) (A) (A) (A) (A) (A) (A)
                 (A) (A) (A) (A) (A) (A) (A) (A) (A) (A) (A) (A)
                 (A) (A) (A) (A) (A) (A) (A) (A) (A) (A) (A) (A)
                 (A) (A) (A) (A) (A) (A) (A) (A) (A) (A) (A) (A)
                 (A) (A) (A) (A) (A) (A) (A) (A) (A) (A) (A) (A)
                 (A) (A) (A) (A) (A) (A) (A) (A) (A) (A) (A) (A)
                 (A) (A) (A) (A) (A) (A) (A) (A) (A) (A) (A) (A)
                 (A) (A) (A) (A) (A) (A) (A) (A) (A) (A) (A) (A)
                 (A) (A) (A) (A) (A) (A) (A) (A) (A) (A) (A) (A)
                 (A) (A) (A) (A) (A) (A) (A) (A) (A) (A) (A) (A)
                 (A) (A) (A) (A) (A) (A) (A) (A) (A) (A) (A) (A)
                 (A) (A) (A) (A) (A) (A) (A) (A) (A) (A) (A) (A)
                 (A) (A) (A) (A) (A) (A) (A) (A) (A) (A) (A) (A)
                 (A) (A) (A) (A)
 The electronic state is 1-A.
 Alpha  occ. eigenvalues --  -19.16258 -19.13971 -10.28527 -10.25129 -10.23197
 Alpha  occ. eigenvalues --  -10.19327 -10.18291 -10.18125 -10.17620  -1.07477
 Alpha  occ. eigenvalues --   -1.02350  -0.83925  -0.73694  -0.71920  -0.69803
 Alpha  occ. eigenvalues --   -0.62084  -0.59267  -0.52912  -0.52177  -0.49717
 Alpha  occ. eigenvalues --   -0.47612  -0.46334  -0.43088  -0.42190  -0.39619
 Alpha  occ. eigenvalues --   -0.39461  -0.37815  -0.36932  -0.36584  -0.34751
 Alpha  occ. eigenvalues --   -0.28818  -0.27633  -0.26898  -0.26211
 Alpha virt. eigenvalues --   -0.03971   0.04797   0.05434   0.08246   0.10257
 Alpha virt. eigenvalues --    0.11174   0.12162   0.13246   0.15614   0.16585
 Alpha virt. eigenvalues --    0.18256   0.18589   0.19932   0.20531   0.21978
 Alpha virt. eigenvalues --    0.23294   0.24443   0.26462   0.28552   0.32109
 Alpha virt. eigenvalues --    0.37722   0.41809   0.44499   0.45041   0.45585
 Alpha virt. eigenvalues --    0.46892   0.50904   0.51703   0.52457   0.53502
 Alpha virt. eigenvalues --    0.54727   0.57216   0.58449   0.59534   0.60963
 Alpha virt. eigenvalues --    0.61524   0.62398   0.65289   0.68097   0.68526
 Alpha virt. eigenvalues --    0.69378   0.72250   0.72486   0.72585   0.73308
 Alpha virt. eigenvalues --    0.74590   0.75355   0.76011   0.77592   0.79459
 Alpha virt. eigenvalues --    0.80476   0.83294   0.85133   0.85311   0.86429
 Alpha virt. eigenvalues --    0.88272   0.90564   0.90760   0.91973   0.92807
 Alpha virt. eigenvalues --    0.94294   0.97223   0.98888   1.02358   1.04677
 Alpha virt. eigenvalues --    1.06423   1.07694   1.10209   1.11359   1.12621
 Alpha virt. eigenvalues --    1.14258   1.17824   1.18376   1.20288   1.25528
 Alpha virt. eigenvalues --    1.26552   1.28949   1.31624   1.34270   1.35235
 Alpha virt. eigenvalues --    1.38809   1.40144   1.41650   1.42854   1.45146
 Alpha virt. eigenvalues --    1.46758   1.47197   1.50855   1.51340   1.53847
 Alpha virt. eigenvalues --    1.54771   1.55493   1.57295   1.61006   1.62561
 Alpha virt. eigenvalues --    1.66343   1.68678   1.70710   1.74464   1.76901
 Alpha virt. eigenvalues --    1.78806   1.82511   1.84347   1.88327   1.92012
 Alpha virt. eigenvalues --    1.94359   1.94785   1.96256   1.97156   2.01583
 Alpha virt. eigenvalues --    2.06020   2.18429   2.23457   2.26996   2.28430
 Alpha virt. eigenvalues --    2.29434   2.35812   2.37282   2.41975   2.45473
 Alpha virt. eigenvalues --    2.46954   2.49838   2.50310   2.54409   2.57126
 Alpha virt. eigenvalues --    2.61171   2.62571   2.66555   2.67361   2.68325
 Alpha virt. eigenvalues --    2.68976   2.69398   2.72178   2.78874   2.79124
 Alpha virt. eigenvalues --    2.80407   2.81597   2.83870   2.88804   2.90088
 Alpha virt. eigenvalues --    2.90351   2.91371   2.93825   2.94807   2.95972
 Alpha virt. eigenvalues --    2.98171   3.02750   3.03419   3.04815   3.06996
 Alpha virt. eigenvalues --    3.09517   3.10857   3.12198   3.14312   3.15454
 Alpha virt. eigenvalues --    3.17997   3.20256   3.22312   3.24011   3.27043
 Alpha virt. eigenvalues --    3.29872   3.32320   3.38407   3.40519   3.44422
 Alpha virt. eigenvalues --    3.47781   3.50935   3.52216   3.54417   3.57159
 Alpha virt. eigenvalues --    3.57984   3.61671   3.64207   3.66178   3.67870
 Alpha virt. eigenvalues --    3.71620   3.72847   3.76693   3.77353   3.79724
 Alpha virt. eigenvalues --    3.81153   3.91227   3.92032   3.99013   4.02063
 Alpha virt. eigenvalues --    4.06839   4.10239   4.12678   4.14036   4.16820
 Alpha virt. eigenvalues --    4.21257   4.22369   4.22832   4.24348   4.25880
 Alpha virt. eigenvalues --    4.30149   4.33014   4.34399   4.35577   4.38646
 Alpha virt. eigenvalues --    4.41067   4.43650   4.44902   4.48718   4.50658
 Alpha virt. eigenvalues --    4.51674   4.52085   4.55287   4.56542   4.58495
 Alpha virt. eigenvalues --    4.60467   4.63154   4.64798   4.68848   4.72071
 Alpha virt. eigenvalues --    4.73187   4.75085   4.76209   4.79350   4.80999
 Alpha virt. eigenvalues --    4.83899   4.87637   4.88974   4.90100   4.92215
 Alpha virt. eigenvalues --    4.94299   4.96641   5.00526   5.03936   5.04818
 Alpha virt. eigenvalues --    5.06116   5.09054   5.09592   5.21910   5.28592
 Alpha virt. eigenvalues --    5.31694   5.32923   5.33795   5.41118   5.43227
 Alpha virt. eigenvalues --    5.47486   5.48339   5.52236   5.54310   5.55753
 Alpha virt. eigenvalues --    5.61163   5.66356   5.74844   5.83032   5.98810
 Alpha virt. eigenvalues --    6.05004   6.12509   6.18890   6.29108   6.34217
 Alpha virt. eigenvalues --    6.46593   6.81673   7.14667   7.28397   9.79320
 Alpha virt. eigenvalues --   10.97764  11.42196  11.80221  11.92218  12.26194
 Alpha virt. eigenvalues --   12.94518  13.06586  13.44683
          Condensed to atoms (all electrons):
               1          2          3          4          5          6
     1  C    5.071768   0.398168  -0.049584  -0.046670  -0.002641  -0.041613
     2  C    0.398168   4.783362   0.364978   0.412832  -0.035091   0.295159
     3  C   -0.049584   0.364978   5.102037  -0.041580  -0.004546  -0.037206
     4  C   -0.046670   0.412832  -0.041580   4.424540   0.886414  -0.017513
     5  C   -0.002641  -0.035091  -0.004546   0.886414   5.282091  -0.005672
     6  C   -0.041613   0.295159  -0.037206  -0.017513  -0.005672   5.021489
     7  O   -0.008501  -0.060444   0.001986   0.007880  -0.001361   0.400077
     8  C    0.002695   0.000256  -0.001772  -0.004622   0.005984   0.269179
     9  O   -0.000091  -0.003188   0.000091  -0.000488  -0.000140  -0.063236
    10  H    0.359041  -0.022979  -0.004016   0.003809  -0.000012  -0.001293
    11  H    0.366570  -0.017870  -0.004290  -0.003407   0.000352   0.003519
    12  H    0.367053  -0.017377   0.004929  -0.000486   0.000205  -0.005209
    13  H    0.005116  -0.016380   0.365643  -0.003526   0.001069  -0.004185
    14  H   -0.005775  -0.014804   0.368285  -0.001009   0.000692   0.002873
    15  H   -0.003208  -0.022327   0.360537   0.003674  -0.000037  -0.002885
    16  H   -0.000017  -0.000044  -0.000022   0.011749   0.367600   0.000054
    17  H   -0.006139  -0.063995  -0.002486   0.005678  -0.000141   0.339748
    18  H   -0.000137   0.003818  -0.000178   0.001927  -0.000040  -0.100554
    19  H   -0.000244   0.001922   0.000147  -0.000044  -0.000059  -0.100275
               7          8          9         10         11         12
     1  C   -0.008501   0.002695  -0.000091   0.359041   0.366570   0.367053
     2  C   -0.060444   0.000256  -0.003188  -0.022979  -0.017870  -0.017377
     3  C    0.001986  -0.001772   0.000091  -0.004016  -0.004290   0.004929
     4  C    0.007880  -0.004622  -0.000488   0.003809  -0.003407  -0.000486
     5  C   -0.001361   0.005984  -0.000140  -0.000012   0.000352   0.000205
     6  C    0.400077   0.269179  -0.063236  -0.001293   0.003519  -0.005209
     7  O    7.826258  -0.021184  -0.015653  -0.000172   0.000249   0.012150
     8  C   -0.021184   4.555725   0.732154   0.000066  -0.000061   0.000187
     9  O   -0.015653   0.732154   7.618749   0.000001   0.000001   0.000006
    10  H   -0.000172   0.000066   0.000001   0.605050  -0.030424  -0.027381
    11  H    0.000249  -0.000061   0.000001  -0.030424   0.588245  -0.028194
    12  H    0.012150   0.000187   0.000006  -0.027381  -0.028194   0.541572
    13  H    0.000017   0.000348   0.000008  -0.000064  -0.000036  -0.000185
    14  H   -0.000040   0.000010  -0.000001   0.000146   0.004400  -0.000067
    15  H    0.000103  -0.000215   0.000003   0.003236   0.000065  -0.000060
    16  H   -0.000013  -0.000002   0.000008   0.000001  -0.000008  -0.000008
    17  H   -0.024569  -0.032611   0.000598   0.003839  -0.000087   0.000725
    18  H    0.314819  -0.000287   0.042862  -0.000013   0.000007  -0.000199
    19  H    0.002673   0.353945  -0.048616   0.000001   0.000006  -0.000014
              13         14         15         16         17         18
     1  C    0.005116  -0.005775  -0.003208  -0.000017  -0.006139  -0.000137
     2  C   -0.016380  -0.014804  -0.022327  -0.000044  -0.063995   0.003818
     3  C    0.365643   0.368285   0.360537  -0.000022  -0.002486  -0.000178
     4  C   -0.003526  -0.001009   0.003674   0.011749   0.005678   0.001927
     5  C    0.001069   0.000692  -0.000037   0.367600  -0.000141  -0.000040
     6  C   -0.004185   0.002873  -0.002885   0.000054   0.339748  -0.100554
     7  O    0.000017  -0.000040   0.000103  -0.000013  -0.024569   0.314819
     8  C    0.000348   0.000010  -0.000215  -0.000002  -0.032611  -0.000287
     9  O    0.000008  -0.000001   0.000003   0.000008   0.000598   0.042862
    10  H   -0.000064   0.000146   0.003236   0.000001   0.003839  -0.000013
    11  H   -0.000036   0.004400   0.000065  -0.000008  -0.000087   0.000007
    12  H   -0.000185  -0.000067  -0.000060  -0.000008   0.000725  -0.000199
    13  H    0.582452  -0.028411  -0.031073  -0.000007   0.000056   0.000006
    14  H   -0.028411   0.568696  -0.029118  -0.000001  -0.000224   0.000006
    15  H   -0.031073  -0.029118   0.596824   0.000001   0.006066   0.000001
    16  H   -0.000007  -0.000001   0.000001   0.420200   0.000001  -0.000004
    17  H    0.000056  -0.000224   0.006066   0.000001   0.670804   0.006148
    18  H    0.000006   0.000006   0.000001  -0.000004   0.006148   0.431135
    19  H    0.003811  -0.000004   0.000433  -0.000003   0.003246   0.002910
              19
     1  C   -0.000244
     2  C    0.001922
     3  C    0.000147
     4  C   -0.000044
     5  C   -0.000059
     6  C   -0.100275
     7  O    0.002673
     8  C    0.353945
     9  O   -0.048616
    10  H    0.000001
    11  H    0.000006
    12  H   -0.000014
    13  H    0.003811
    14  H   -0.000004
    15  H    0.000433
    16  H   -0.000003
    17  H    0.003246
    18  H    0.002910
    19  H    0.675789
 Mulliken charges:
               1
     1  C   -0.405788
     2  C    0.014004
     3  C   -0.422953
     4  C    0.360844
     5  C   -0.494667
     6  C    0.047545
     7  O   -0.434274
     8  C    0.140205
     9  O   -0.263069
    10  H    0.111162
    11  H    0.120965
    12  H    0.152352
    13  H    0.125341
    14  H    0.134344
    15  H    0.117981
    16  H    0.200513
    17  H    0.093343
    18  H    0.297775
    19  H    0.104376
 Sum of Mulliken charges =   0.00000
 Mulliken charges with hydrogens summed into heavy atoms:
               1
     1  C   -0.021310
     2  C    0.014004
     3  C   -0.045286
     4  C    0.360844
     5  C   -0.294154
     6  C    0.140889
     7  O   -0.136500
     8  C    0.244582
     9  O   -0.263069
 Electronic spatial extent (au):  <R**2>=           1174.2516
 Charge=              0.0000 electrons
 Dipole moment (field-independent basis, Debye):
    X=             -1.4782    Y=             -0.3597    Z=              1.7815  Tot=              2.3427
 Quadrupole moment (field-independent basis, Debye-Ang):
   XX=            -57.6670   YY=            -50.5585   ZZ=            -52.7754
   XY=             -0.6956   XZ=              0.1894   YZ=             -3.4677
 Traceless Quadrupole moment (field-independent basis, Debye-Ang):
   XX=             -4.0000   YY=              3.1084   ZZ=              0.8916
   XY=             -0.6956   XZ=              0.1894   YZ=             -3.4677
 Octapole moment (field-independent basis, Debye-Ang**2):
  XXX=             -2.3778  YYY=             15.5200  ZZZ=             -0.1660  XYY=              1.4707
  XXY=             -8.8949  XXZ=             -3.7864  XZZ=              9.2755  YZZ=              1.7109
  YYZ=             -4.6596  XYZ=             -1.5383
 Hexadecapole moment (field-independent basis, Debye-Ang**3):
 XXXX=           -769.3175 YYYY=           -360.1227 ZZZZ=           -333.8089 XXXY=            -13.5744
 XXXZ=            -19.2660 YYYX=             -7.4568 YYYZ=            -29.8005 ZZZX=             -1.7645
 ZZZY=              5.1646 XXYY=           -204.0774 XXZZ=           -168.0044 YYZZ=           -131.7476
 XXYZ=              0.2147 YYXZ=              5.3985 ZZXY=              2.7124
 N-N= 4.490606982849D+02 E-N=-1.884629064629D+03  KE= 4.200291362224D+02
 Calling FoFJK, ICntrl=      2127 FMM=F ISym2X=0 I1Cent= 0 IOpClX= 0 NMat=1 NMatS=1 NMatT=0.
 ***** Axes restored to original set *****
 -------------------------------------------------------------------
 Center     Atomic                   Forces (Hartrees/Bohr)
 Number     Number              X              Y              Z
 -------------------------------------------------------------------
      1        6          -0.000002207    0.000003135    0.000001300
      2        6           0.000025166   -0.000022825   -0.000008229
      3        6           0.000003431    0.000002052   -0.000003084
      4        6          -0.000006184   -0.000002235    0.000001032
      5        6          -0.000005827    0.000000853    0.000006137
      6        6          -0.000019517    0.000022388    0.000035661
      7        8           0.000017322    0.000002660   -0.000005050
      8        6           0.000005416   -0.000000987   -0.000000882
      9        8          -0.000007939    0.000010630   -0.000008441
     10        1          -0.000000936   -0.000000699   -0.000001680
     11        1          -0.000000365   -0.000001556   -0.000001895
     12        1           0.000001121    0.000001954   -0.000002360
     13        1          -0.000000293   -0.000002878   -0.000000495
     14        1          -0.000007539   -0.000003654   -0.000000958
     15        1          -0.000005680   -0.000003983    0.000001645
     16        1          -0.000005778    0.000002336   -0.000000472
     17        1          -0.000001481   -0.000016289   -0.000003463
     18        1           0.000015906    0.000005486   -0.000003857
     19        1          -0.000004617    0.000003610   -0.000004910
 -------------------------------------------------------------------
 Cartesian Forces:  Max     0.000035661 RMS     0.000009340

 GradGradGradGradGradGradGradGradGradGradGradGradGradGradGradGradGradGrad
 Berny optimization.
 FormGI is forming the generalized inverse of G from B-inverse, IUseBI=4.
 Internal  Forces:  Max     0.000028229 RMS     0.000006451
 Search for a local minimum.
 Step number   1 out of a maximum of   96
 All quantities printed in internal units (Hartrees-Bohrs-Radians)
 Mixed Optimization -- En-DIIS/RFO-DIIS
 Second derivative matrix not updated -- first step.
 ITU=  0
     Eigenvalues ---    0.00230   0.00230   0.00230   0.00494   0.00495
     Eigenvalues ---    0.00604   0.00604   0.01738   0.04705   0.04705
     Eigenvalues ---    0.04756   0.04773   0.05307   0.05388   0.05545
     Eigenvalues ---    0.05611   0.05618   0.06300   0.06689   0.07936
     Eigenvalues ---    0.16000   0.16000   0.16000   0.16000   0.16000
     Eigenvalues ---    0.16000   0.16000   0.16000   0.17296   0.17719
     Eigenvalues ---    0.18009   0.20363   0.22000   0.25976   0.27995
     Eigenvalues ---    0.28115   0.30315   0.33029   0.33104   0.34199
     Eigenvalues ---    0.34223   0.34433   0.34460   0.34517   0.34824
     Eigenvalues ---    0.36200   0.38247   0.46203   0.53169   1.01343
     Eigenvalues ---    1.03726
 RFO step:  Lambda=-2.30999081D-08 EMin= 2.30000000D-03
 Linear search not attempted -- first point.
 Iteration  1 RMS(Cart)=  0.00022491 RMS(Int)=  0.00000006
 Iteration  2 RMS(Cart)=  0.00000007 RMS(Int)=  0.00000000
 Variable       Old X    -DE/DX   Delta X   Delta X   Delta X     New X
                                 (Linear)    (Quad)   (Total)
    R1        2.91889   0.00001   0.00000   0.00002   0.00002   2.91891
    R2        2.06995   0.00000   0.00000   0.00000   0.00000   2.06995
    R3        2.06605   0.00000   0.00000   0.00000   0.00000   2.06605
    R4        2.05962   0.00000   0.00000   0.00001   0.00001   2.05963
    R5        2.92149   0.00001   0.00000   0.00003   0.00003   2.92152
    R6        2.77070  -0.00001   0.00000  -0.00001  -0.00001   2.77069
    R7        2.96789  -0.00002   0.00000  -0.00008  -0.00008   2.96781
    R8        2.06467   0.00000   0.00000   0.00000   0.00000   2.06467
    R9        2.06560   0.00000   0.00000   0.00001   0.00001   2.06561
   R10        2.06956   0.00000   0.00000   0.00001   0.00001   2.06957
   R11        2.27182   0.00000   0.00000   0.00000   0.00000   2.27182
   R12        2.00707   0.00000   0.00000  -0.00001  -0.00001   2.00707
   R13        2.63903   0.00003   0.00000   0.00006   0.00006   2.63910
   R14        2.87340  -0.00002   0.00000  -0.00007  -0.00007   2.87333
   R15        2.08869   0.00001   0.00000   0.00004   0.00004   2.08873
   R16        1.83496   0.00001   0.00000   0.00002   0.00002   1.83498
   R17        2.28106  -0.00001   0.00000  -0.00001  -0.00001   2.28104
   R18        2.09001   0.00000   0.00000   0.00000   0.00000   2.09001
    A1        1.92065   0.00000   0.00000   0.00001   0.00001   1.92065
    A2        1.92050   0.00000   0.00000   0.00000   0.00000   1.92050
    A3        1.92850   0.00000   0.00000   0.00001   0.00001   1.92852
    A4        1.89344   0.00000   0.00000  -0.00001  -0.00001   1.89343
    A5        1.89620   0.00000   0.00000   0.00000   0.00000   1.89620
    A6        1.90397   0.00000   0.00000  -0.00001  -0.00001   1.90396
    A7        1.90975   0.00000   0.00000   0.00000   0.00000   1.90975
    A8        1.91740   0.00000   0.00000  -0.00002  -0.00002   1.91738
    A9        1.88659   0.00000   0.00000   0.00002   0.00002   1.88662
   A10        1.91839   0.00000   0.00000  -0.00005  -0.00005   1.91834
   A11        1.92860   0.00000   0.00000   0.00004   0.00004   1.92864
   A12        1.90284   0.00000   0.00000   0.00001   0.00001   1.90285
   A13        1.96295   0.00000   0.00000  -0.00002  -0.00002   1.96293
   A14        1.91504   0.00000   0.00000   0.00003   0.00003   1.91506
   A15        1.92537   0.00001   0.00000   0.00006   0.00006   1.92544
   A16        1.87515   0.00000   0.00000  -0.00001  -0.00001   1.87513
   A17        1.89706   0.00000   0.00000  -0.00002  -0.00002   1.89704
   A18        1.88607  -0.00001   0.00000  -0.00004  -0.00004   1.88603
   A19        1.95089   0.00000   0.00000   0.00001   0.00001   1.95089
   A20        1.95734   0.00000   0.00000   0.00000   0.00000   1.95733
   A21        1.85550   0.00001   0.00000   0.00007   0.00007   1.85558
   A22        1.91002   0.00000   0.00000  -0.00003  -0.00003   1.91000
   A23        1.92052   0.00000   0.00000   0.00002   0.00002   1.92055
   A24        1.86693  -0.00001   0.00000  -0.00007  -0.00007   1.86686
   A25        1.84230   0.00002   0.00000   0.00013   0.00013   1.84244
   A26        2.11394  -0.00001   0.00000  -0.00006  -0.00006   2.11389
   A27        2.04912   0.00000   0.00000  -0.00003  -0.00003   2.04909
   A28        2.12004   0.00001   0.00000   0.00008   0.00008   2.12012
   A29        3.13303   0.00001   0.00000   0.00011   0.00011   3.13314
   A30        3.14123   0.00000   0.00000   0.00024   0.00024   3.14147
   A31        3.15687   0.00000   0.00000  -0.00003  -0.00003   3.15684
   A32        3.13286   0.00000   0.00000  -0.00078  -0.00078   3.13208
    D1       -1.01115   0.00000   0.00000   0.00027   0.00027  -1.01088
    D2       -3.11871   0.00000   0.00000   0.00035   0.00035  -3.11837
    D3        1.09003   0.00000   0.00000   0.00033   0.00033   1.09036
    D4        1.07441   0.00000   0.00000   0.00026   0.00026   1.07467
    D5       -1.03316   0.00000   0.00000   0.00034   0.00034  -1.03282
    D6       -3.10760   0.00000   0.00000   0.00033   0.00033  -3.10728
    D7       -3.10517   0.00000   0.00000   0.00026   0.00026  -3.10491
    D8        1.07044   0.00000   0.00000   0.00033   0.00033   1.07078
    D9       -1.00400   0.00000   0.00000   0.00032   0.00032  -1.00368
   D10       -3.06255   0.00000   0.00000   0.00014   0.00014  -3.06241
   D11       -0.97647   0.00000   0.00000   0.00013   0.00013  -0.97634
   D12        1.09953   0.00000   0.00000   0.00013   0.00013   1.09966
   D13       -0.95558   0.00000   0.00000   0.00008   0.00008  -0.95550
   D14        1.13049   0.00000   0.00000   0.00007   0.00007   1.13056
   D15       -3.07669   0.00000   0.00000   0.00007   0.00007  -3.07662
   D16        1.14531   0.00000   0.00000   0.00009   0.00009   1.14540
   D17       -3.05180   0.00000   0.00000   0.00007   0.00007  -3.05173
   D18       -0.97580   0.00000   0.00000   0.00008   0.00008  -0.97572
   D19        0.87782   0.00000   0.00000   0.00011   0.00011   0.87793
   D20        3.03037   0.00000   0.00000   0.00007   0.00007   3.03044
   D21       -1.21816   0.00000   0.00000   0.00003   0.00003  -1.21813
   D22        2.96716   0.00000   0.00000   0.00015   0.00015   2.96731
   D23       -1.16347   0.00000   0.00000   0.00011   0.00011  -1.16336
   D24        0.87118   0.00000   0.00000   0.00007   0.00007   0.87125
   D25       -1.20585   0.00000   0.00000   0.00011   0.00011  -1.20573
   D26        0.94670   0.00000   0.00000   0.00008   0.00008   0.94678
   D27        2.98136   0.00000   0.00000   0.00003   0.00003   2.98139
   D28        2.08956   0.00000   0.00000  -0.00007  -0.00007   2.08948
   D29       -0.08954   0.00000   0.00000  -0.00005  -0.00005  -0.08959
   D30       -2.13619   0.00000   0.00000   0.00004   0.00004  -2.13615
   D31       -2.16312   0.00000   0.00000  -0.00009  -0.00009  -2.16320
   D32        0.99255   0.00000   0.00000   0.00010   0.00010   0.99265
   D33        0.01222   0.00000   0.00000  -0.00010  -0.00010   0.01212
   D34       -3.11530   0.00000   0.00000   0.00009   0.00009  -3.11521
   D35        2.09230   0.00000   0.00000  -0.00013  -0.00013   2.09217
   D36       -1.03522   0.00000   0.00000   0.00006   0.00006  -1.03516
         Item               Value     Threshold  Converged?
 Maximum Force            0.000028     0.000450     YES
 RMS     Force            0.000006     0.000300     YES
 Maximum Displacement     0.000973     0.001800     YES
 RMS     Displacement     0.000225     0.001200     YES
 Predicted change in Energy=-1.154994D-08
 Optimization completed.
    -- Stationary point found.
                           ----------------------------
                           !   Optimized Parameters   !
                           ! (Angstroms and Degrees)  !
 --------------------------                            --------------------------
 ! Name  Definition              Value          Derivative Info.                !
 --------------------------------------------------------------------------------
 ! R1    R(1,2)                  1.5446         -DE/DX =    0.0                 !
 ! R2    R(1,10)                 1.0954         -DE/DX =    0.0                 !
 ! R3    R(1,11)                 1.0933         -DE/DX =    0.0                 !
 ! R4    R(1,12)                 1.0899         -DE/DX =    0.0                 !
 ! R5    R(2,3)                  1.546          -DE/DX =    0.0                 !
 ! R6    R(2,4)                  1.4662         -DE/DX =    0.0                 !
 ! R7    R(2,6)                  1.5705         -DE/DX =    0.0                 !
 ! R8    R(3,13)                 1.0926         -DE/DX =    0.0                 !
 ! R9    R(3,14)                 1.0931         -DE/DX =    0.0                 !
 ! R10   R(3,15)                 1.0952         -DE/DX =    0.0                 !
 ! R11   R(4,5)                  1.2022         -DE/DX =    0.0                 !
 ! R12   R(5,16)                 1.0621         -DE/DX =    0.0                 !
 ! R13   R(6,7)                  1.3965         -DE/DX =    0.0                 !
 ! R14   R(6,8)                  1.5205         -DE/DX =    0.0                 !
 ! R15   R(6,17)                 1.1053         -DE/DX =    0.0                 !
 ! R16   R(7,18)                 0.971          -DE/DX =    0.0                 !
 ! R17   R(8,9)                  1.2071         -DE/DX =    0.0                 !
 ! R18   R(8,19)                 1.106          -DE/DX =    0.0                 !
 ! A1    A(2,1,10)             110.0449         -DE/DX =    0.0                 !
 ! A2    A(2,1,11)             110.0365         -DE/DX =    0.0                 !
 ! A3    A(2,1,12)             110.495          -DE/DX =    0.0                 !
 ! A4    A(10,1,11)            108.486          -DE/DX =    0.0                 !
 ! A5    A(10,1,12)            108.6443         -DE/DX =    0.0                 !
 ! A6    A(11,1,12)            109.0894         -DE/DX =    0.0                 !
 ! A7    A(1,2,3)              109.4209         -DE/DX =    0.0                 !
 ! A8    A(1,2,4)              109.8587         -DE/DX =    0.0                 !
 ! A9    A(1,2,6)              108.0938         -DE/DX =    0.0                 !
 ! A10   A(3,2,4)              109.9156         -DE/DX =    0.0                 !
 ! A11   A(3,2,6)              110.5005         -DE/DX =    0.0                 !
 ! A12   A(4,2,6)              109.0247         -DE/DX =    0.0                 !
 ! A13   A(2,3,13)             112.4689         -DE/DX =    0.0                 !
 ! A14   A(2,3,14)             109.7236         -DE/DX =    0.0                 !
 ! A15   A(2,3,15)             110.3157         -DE/DX =    0.0                 !
 ! A16   A(13,3,14)            107.438          -DE/DX =    0.0                 !
 ! A17   A(13,3,15)            108.6932         -DE/DX =    0.0                 !
 ! A18   A(14,3,15)            108.064          -DE/DX =    0.0                 !
 ! A19   A(2,6,7)              111.7775         -DE/DX =    0.0                 !
 ! A20   A(2,6,8)              112.1472         -DE/DX =    0.0                 !
 ! A21   A(2,6,17)             106.3124         -DE/DX =    0.0                 !
 ! A22   A(7,6,8)              109.4363         -DE/DX =    0.0                 !
 ! A23   A(7,6,17)             110.0379         -DE/DX =    0.0                 !
 ! A24   A(8,6,17)             106.9675         -DE/DX =    0.0                 !
 ! A25   A(6,7,18)             105.5561         -DE/DX =    0.0                 !
 ! A26   A(6,8,9)              121.1201         -DE/DX =    0.0                 !
 ! A27   A(6,8,19)             117.4058         -DE/DX =    0.0                 !
 ! A28   A(9,8,19)             121.4691         -DE/DX =    0.0                 !
 ! A29   L(2,4,5,9,-1)         179.5094         -DE/DX =    0.0                 !
 ! A30   L(4,5,16,9,-1)        179.9794         -DE/DX =    0.0                 !
 ! A31   L(2,4,5,9,-2)         180.8753         -DE/DX =    0.0                 !
 ! A32   L(4,5,16,9,-2)        179.4998         -DE/DX =    0.0                 !
 ! D1    D(10,1,2,3)           -57.9344         -DE/DX =    0.0                 !
 ! D2    D(10,1,2,4)          -178.6891         -DE/DX =    0.0                 !
 ! D3    D(10,1,2,6)            62.4539         -DE/DX =    0.0                 !
 ! D4    D(11,1,2,3)            61.5591         -DE/DX =    0.0                 !
 ! D5    D(11,1,2,4)           -59.1956         -DE/DX =    0.0                 !
 ! D6    D(11,1,2,6)          -178.0526         -DE/DX =    0.0                 !
 ! D7    D(12,1,2,3)          -177.9133         -DE/DX =    0.0                 !
 ! D8    D(12,1,2,4)            61.332          -DE/DX =    0.0                 !
 ! D9    D(12,1,2,6)           -57.525          -DE/DX =    0.0                 !
 ! D10   D(1,2,3,13)          -175.4709         -DE/DX =    0.0                 !
 ! D11   D(1,2,3,14)           -55.9476         -DE/DX =    0.0                 !
 ! D12   D(1,2,3,15)            62.9985         -DE/DX =    0.0                 !
 ! D13   D(4,2,3,13)           -54.7508         -DE/DX =    0.0                 !
 ! D14   D(4,2,3,14)            64.7725         -DE/DX =    0.0                 !
 ! D15   D(4,2,3,15)          -176.2814         -DE/DX =    0.0                 !
 ! D16   D(6,2,3,13)            65.6215         -DE/DX =    0.0                 !
 ! D17   D(6,2,3,14)          -174.8552         -DE/DX =    0.0                 !
 ! D18   D(6,2,3,15)           -55.909          -DE/DX =    0.0                 !
 ! D19   D(1,2,6,7)             50.2956         -DE/DX =    0.0                 !
 ! D20   D(1,2,6,8)            173.6274         -DE/DX =    0.0                 !
 ! D21   D(1,2,6,17)           -69.7952         -DE/DX =    0.0                 !
 ! D22   D(3,2,6,7)            170.006          -DE/DX =    0.0                 !
 ! D23   D(3,2,6,8)            -66.6622         -DE/DX =    0.0                 !
 ! D24   D(3,2,6,17)            49.9152         -DE/DX =    0.0                 !
 ! D25   D(4,2,6,7)            -69.0899         -DE/DX =    0.0                 !
 ! D26   D(4,2,6,8)             54.2419         -DE/DX =    0.0                 !
 ! D27   D(4,2,6,17)           170.8193         -DE/DX =    0.0                 !
 ! D28   D(2,6,7,18)           119.7227         -DE/DX =    0.0                 !
 ! D29   D(8,6,7,18)            -5.13           -DE/DX =    0.0                 !
 ! D30   D(17,6,7,18)         -122.3948         -DE/DX =    0.0                 !
 ! D31   D(2,6,8,9)           -123.9375         -DE/DX =    0.0                 !
 ! D32   D(2,6,8,19)            56.8688         -DE/DX =    0.0                 !
 ! D33   D(7,6,8,9)              0.7003         -DE/DX =    0.0                 !
 ! D34   D(7,6,8,19)          -178.4934         -DE/DX =    0.0                 !
 ! D35   D(17,6,8,9)           119.8799         -DE/DX =    0.0                 !
 ! D36   D(17,6,8,19)          -59.3139         -DE/DX =    0.0                 !
 --------------------------------------------------------------------------------
 GradGradGradGradGradGradGradGradGradGradGradGradGradGradGradGradGradGrad

                          Input orientation:                          
 ---------------------------------------------------------------------
 Center     Atomic      Atomic             Coordinates (Angstroms)
 Number     Number       Type             X           Y           Z
 ---------------------------------------------------------------------
      1          6           0       -1.661081    2.865691   -1.798742
      2          6           0       -1.165332    2.002594   -0.617593
      3          6           0       -2.374574    1.556058    0.235880
      4          6           0       -0.230746    2.775553    0.206300
      5          6           0        0.533797    3.395185    0.896814
      6          6           0       -0.416630    0.753879   -1.206444
      7          8           0        0.537753    1.122676   -2.156919
      8          6           0        0.245660   -0.081327   -0.122085
      9          8           0        1.427515   -0.324418   -0.156353
     10          1           0       -2.377487    2.298911   -2.403192
     11          1           0       -2.158468    3.764042   -1.423386
     12          1           0       -0.825406    3.159829   -2.433582
     13          1           0       -2.073698    1.007154    1.131366
     14          1           0       -2.938885    2.433038    0.563387
     15          1           0       -3.044266    0.922742   -0.355565
     16          1           0        1.213174    3.945070    1.500240
     17          1           0       -1.191451    0.119427   -1.674184
     18          1           0        1.387195    0.805095   -1.809827
     19          1           0       -0.399850   -0.467034    0.688933
 ---------------------------------------------------------------------
                    Distance matrix (angstroms):
                    1          2          3          4          5
     1  C    0.000000
     2  C    1.544608   0.000000
     3  C    2.522676   1.545987   0.000000
     4  C    2.464584   1.466192   2.466585   0.000000
     5  C    3.516230   2.668292   3.503976   1.202198   0.000000
     6  C    2.521750   1.570538   2.560729   2.473371   3.507635
     7  O    2.828649   2.458511   3.794068   2.984526   3.806520
     8  C    3.889955   2.564987   3.110434   2.914887   3.634187
     9  O    4.734306   3.514340   4.259803   3.534285   3.967788
    10  H    1.095371   2.178414   2.741631   3.412497   4.535133
    11  H    1.093308   2.176769   2.770390   2.710922   3.573189
    12  H    1.089904   2.180037   3.478222   2.733179   3.604770
    13  H    3.494273   2.207914   1.092574   2.716515   3.543549
    14  H    2.720225   2.173817   1.093069   2.752970   3.618898
    15  H    2.787653   2.182918   1.095164   3.415333   4.525922
    16  H    4.506626   3.730378   4.491983   2.264278   1.062096
    17  H    2.788912   2.159487   2.666840   3.393255   4.507450
    18  H    3.679424   3.061180   4.347386   3.250416   3.842234
    19  H    4.345835   2.896901   2.863162   3.282666   3.978900
                    6          7          8          9         10
     6  C    0.000000
     7  O    1.396517   0.000000
     8  C    1.520537   2.382329   0.000000
     9  O    2.380396   2.624504   1.207083   0.000000
    10  H    2.768445   3.153220   4.213061   5.138889   0.000000
    11  H    3.484558   3.845061   4.718060   5.583919   1.776120
    12  H    2.731586   2.466726   4.122535   4.733012   1.775122
    13  H    2.876696   4.200695   2.852254   3.961035   3.775450
    14  H    3.509080   4.604793   4.115001   5.214119   3.022209
    15  H    2.767125   4.014438   3.447649   4.646711   2.555624
    16  H    4.490667   4.668716   4.447459   4.584623   5.553329
    17  H    1.105287   2.056620   2.124760   3.059378   2.586171
    18  H    1.902755   0.971021   2.222008   2.002848   4.093458
    19  H    2.254632   3.391924   1.105985   2.018443   4.595948
                   11         12         13         14         15
    11  H    0.000000
    12  H    1.778376   0.000000
    13  H    3.759571   4.347539   0.000000
    14  H    2.515530   3.738561   1.761900   0.000000
    15  H    3.161941   3.774394   1.777665   1.771037   0.000000
    16  H    4.466355   4.499708   4.423905   4.517026   5.541144
    17  H    3.779053   3.155110   3.072057   3.662382   2.411845
    18  H    4.634267   3.290813   4.546341   5.195893   4.665465
    19  H    5.045457   4.804720   2.273927   3.856537   3.164710
                   16         17         18         19
    16  H    0.000000
    17  H    5.522204   0.000000
    18  H    4.565772   2.671695   0.000000
    19  H    4.767255   2.560252   3.325002   0.000000
 Stoichiometry    C7H10O2
 Framework group  C1[X(C7H10O2)]
 Deg. of freedom    51
 Full point group                 C1      NOp   1
 Largest Abelian subgroup         C1      NOp   1
 Largest concise Abelian subgroup C1      NOp   1
                         Standard orientation:                         
 ---------------------------------------------------------------------
 Center     Atomic      Atomic             Coordinates (Angstroms)
 Number     Number       Type             X           Y           Z
 ---------------------------------------------------------------------
      1          6           0       -1.808581   -0.984446   -0.797387
      2          6           0       -0.868960   -0.196640    0.141915
      3          6           0       -1.392483   -0.294789    1.593247
      4          6           0       -0.811696    1.208024   -0.274447
      5          6           0       -0.756007    2.364598   -0.597735
      6          6           0        0.567402   -0.822208    0.031832
      7          8           0        0.975337   -0.952402   -1.297415
      8          6           0        1.603102   -0.018897    0.802578
      9          8           0        2.590364    0.411837    0.257757
     10          1           0       -1.871870   -2.029401   -0.475049
     11          1           0       -2.812520   -0.552287   -0.771546
     12          1           0       -1.435180   -0.957564   -1.820978
     13          1           0       -0.808255    0.311226    2.289767
     14          1           0       -2.425535    0.059670    1.637528
     15          1           0       -1.375635   -1.335464    1.933978
     16          1           0       -0.705749    3.384154   -0.891042
     17          1           0        0.510097   -1.817258    0.509589
     18          1           0        1.780003   -0.414717   -1.376723
     19          1           0        1.422375    0.142306    1.881723
 ---------------------------------------------------------------------
 Rotational constants (GHZ):      2.0475530      1.3551623      1.2129834
 1\1\GINC-ALCHEMY-AL\FOpt\RB3LYP\6-31G(2df,p)\C7H10O2\PUCK\31-Jan-2020\
 0\\# b3lyp 6-31G(2df,p) opt Freq\\titel\\0,1\C,-1.6610805217,2.8656905
 361,-1.7987416747\C,-1.1653324424,2.0025938304,-0.6175928077\C,-2.3745
 739827,1.5560583364,0.2358797999\C,-0.2307458073,2.7755529526,0.206300
 1644\C,0.5337974217,3.3951851606,0.8968140778\C,-0.4166297012,0.753879
 3798,-1.2064439287\O,0.5377528294,1.1226762827,-2.1569185046\C,0.24566
 04287,-0.0813273719,-0.122084859\O,1.42751531,-0.3244180417,-0.1563532
 3\H,-2.3774867284,2.2989105115,-2.4031921501\H,-2.1584678267,3.7640424
 502,-1.4233859873\H,-0.8254062323,3.1598290866,-2.4335818934\H,-2.0736
 976667,1.0071543131,1.1313660703\H,-2.9388847573,2.4330375148,0.563386
 6402\H,-3.0442662647,0.9227415945,-0.3555651821\H,1.2131736396,3.94506
 95912,1.5002403571\H,-1.1914510202,0.1194269174,-1.6741842789\H,1.3871
 948027,0.8050947372,-1.8098268639\H,-0.3998497106,-0.4670337413,0.6889
 331207\\Version=ES64L-G09RevD.01\State=1-A\HF=-423.1573293\RMSD=7.340e
 -09\RMSF=9.340e-06\Dipole=-0.8536622,-0.0156897,0.3471826\Quadrupole=0
 .2361047,0.6226137,-0.8587184,3.4354551,0.794788,1.1054411\PG=C01 [X(C
 7H10O2)]\\@


 IT IS WELL TO REMEMBER THAT MAN IS A PART OF NATURE AND THAT HIS WORKS,
 WHATEVER THEY MAY BE, ARE NO MORE "UNNATURAL" THAN 
 THE FLIGHT OF AN EAGLE OR THE PASSAGE OF A TORNADO.

                                    -- CHARLES MCCARRY IN "THE GREAT SOUTHWEST"
 Job cpu time:       0 days  0 hours  6 minutes  7.1 seconds.
 File lengths (MBytes):  RWF=     52 Int=      0 D2E=      0 Chk=      7 Scr=      1
 Normal termination of Gaussian 09 at Fri Jan 31 16:03:28 2020.
 Link1:  Proceeding to internal job step number  2.
 ----------------------------------------------------------------------
 #N Geom=AllCheck Guess=TCheck SCRF=Check GenChk RB3LYP/6-31G(2df,p) Fr
 eq
 ----------------------------------------------------------------------
 1/10=4,29=7,30=1,38=1,40=1/1,3;
 2/12=2,40=1/2;
 3/5=1,6=6,7=104,11=2,14=-4,16=1,25=1,30=1,70=2,71=2,74=-5,116=1,140=1/1,2,3;
 4/5=101/1;
 5/5=2,98=1/2;
 8/6=4,10=90,11=11/1;
 11/6=1,8=1,9=11,15=111,16=1/1,2,10;
 10/6=1/2;
 6/7=2,8=2,9=2,10=2,18=1,28=1/1;
 7/8=1,10=1,25=1/1,2,3,16;
 1/10=4,30=1/3;
 99//99;
 Structure from the checkpoint file:  "/scratch/puck/g09_d0a40020-e6c7-467b-8e4b-fc3adbdbde13/Gau-175078.chk"
 -----
 titel
 -----
 Charge =  0 Multiplicity = 1
 Redundant internal coordinates found in file.
 C,0,-1.6610805217,2.8656905361,-1.7987416747
 C,0,-1.1653324424,2.0025938304,-0.6175928077
 C,0,-2.3745739827,1.5560583364,0.2358797999
 C,0,-0.2307458073,2.7755529526,0.2063001644
 C,0,0.5337974217,3.3951851606,0.8968140778
 C,0,-0.4166297012,0.7538793798,-1.2064439287
 O,0,0.5377528294,1.1226762827,-2.1569185046
 C,0,0.2456604287,-0.0813273719,-0.122084859
 O,0,1.42751531,-0.3244180417,-0.15635323
 H,0,-2.3774867284,2.2989105115,-2.4031921501
 H,0,-2.1584678267,3.7640424502,-1.4233859873
 H,0,-0.8254062323,3.1598290866,-2.4335818934
 H,0,-2.0736976667,1.0071543131,1.1313660703
 H,0,-2.9388847573,2.4330375148,0.5633866402
 H,0,-3.0442662647,0.9227415945,-0.3555651821
 H,0,1.2131736396,3.9450695912,1.5002403571
 H,0,-1.1914510202,0.1194269174,-1.6741842789
 H,0,1.3871948027,0.8050947372,-1.8098268639
 H,0,-0.3998497106,-0.4670337413,0.6889331207
 Recover connectivity data from disk.

 GradGradGradGradGradGradGradGradGradGradGradGradGradGradGradGradGradGrad
 Berny optimization.
 Initialization pass.
                           ----------------------------
                           !    Initial Parameters    !
                           ! (Angstroms and Degrees)  !
 --------------------------                            --------------------------
 ! Name  Definition              Value          Derivative Info.                !
 --------------------------------------------------------------------------------
 ! R1    R(1,2)                  1.5446         calculate D2E/DX2 analytically  !
 ! R2    R(1,10)                 1.0954         calculate D2E/DX2 analytically  !
 ! R3    R(1,11)                 1.0933         calculate D2E/DX2 analytically  !
 ! R4    R(1,12)                 1.0899         calculate D2E/DX2 analytically  !
 ! R5    R(2,3)                  1.546          calculate D2E/DX2 analytically  !
 ! R6    R(2,4)                  1.4662         calculate D2E/DX2 analytically  !
 ! R7    R(2,6)                  1.5705         calculate D2E/DX2 analytically  !
 ! R8    R(3,13)                 1.0926         calculate D2E/DX2 analytically  !
 ! R9    R(3,14)                 1.0931         calculate D2E/DX2 analytically  !
 ! R10   R(3,15)                 1.0952         calculate D2E/DX2 analytically  !
 ! R11   R(4,5)                  1.2022         calculate D2E/DX2 analytically  !
 ! R12   R(5,16)                 1.0621         calculate D2E/DX2 analytically  !
 ! R13   R(6,7)                  1.3965         calculate D2E/DX2 analytically  !
 ! R14   R(6,8)                  1.5205         calculate D2E/DX2 analytically  !
 ! R15   R(6,17)                 1.1053         calculate D2E/DX2 analytically  !
 ! R16   R(7,18)                 0.971          calculate D2E/DX2 analytically  !
 ! R17   R(8,9)                  1.2071         calculate D2E/DX2 analytically  !
 ! R18   R(8,19)                 1.106          calculate D2E/DX2 analytically  !
 ! A1    A(2,1,10)             110.0449         calculate D2E/DX2 analytically  !
 ! A2    A(2,1,11)             110.0365         calculate D2E/DX2 analytically  !
 ! A3    A(2,1,12)             110.495          calculate D2E/DX2 analytically  !
 ! A4    A(10,1,11)            108.486          calculate D2E/DX2 analytically  !
 ! A5    A(10,1,12)            108.6443         calculate D2E/DX2 analytically  !
 ! A6    A(11,1,12)            109.0894         calculate D2E/DX2 analytically  !
 ! A7    A(1,2,3)              109.4209         calculate D2E/DX2 analytically  !
 ! A8    A(1,2,4)              109.8587         calculate D2E/DX2 analytically  !
 ! A9    A(1,2,6)              108.0938         calculate D2E/DX2 analytically  !
 ! A10   A(3,2,4)              109.9156         calculate D2E/DX2 analytically  !
 ! A11   A(3,2,6)              110.5005         calculate D2E/DX2 analytically  !
 ! A12   A(4,2,6)              109.0247         calculate D2E/DX2 analytically  !
 ! A13   A(2,3,13)             112.4689         calculate D2E/DX2 analytically  !
 ! A14   A(2,3,14)             109.7236         calculate D2E/DX2 analytically  !
 ! A15   A(2,3,15)             110.3157         calculate D2E/DX2 analytically  !
 ! A16   A(13,3,14)            107.438          calculate D2E/DX2 analytically  !
 ! A17   A(13,3,15)            108.6932         calculate D2E/DX2 analytically  !
 ! A18   A(14,3,15)            108.064          calculate D2E/DX2 analytically  !
 ! A19   A(2,6,7)              111.7775         calculate D2E/DX2 analytically  !
 ! A20   A(2,6,8)              112.1472         calculate D2E/DX2 analytically  !
 ! A21   A(2,6,17)             106.3124         calculate D2E/DX2 analytically  !
 ! A22   A(7,6,8)              109.4363         calculate D2E/DX2 analytically  !
 ! A23   A(7,6,17)             110.0379         calculate D2E/DX2 analytically  !
 ! A24   A(8,6,17)             106.9675         calculate D2E/DX2 analytically  !
 ! A25   A(6,7,18)             105.5561         calculate D2E/DX2 analytically  !
 ! A26   A(6,8,9)              121.1201         calculate D2E/DX2 analytically  !
 ! A27   A(6,8,19)             117.4058         calculate D2E/DX2 analytically  !
 ! A28   A(9,8,19)             121.4691         calculate D2E/DX2 analytically  !
 ! A29   L(2,4,5,9,-1)         179.5094         calculate D2E/DX2 analytically  !
 ! A30   L(4,5,16,9,-1)        179.9794         calculate D2E/DX2 analytically  !
 ! A31   L(2,4,5,9,-2)         180.8753         calculate D2E/DX2 analytically  !
 ! A32   L(4,5,16,9,-2)        179.4998         calculate D2E/DX2 analytically  !
 ! D1    D(10,1,2,3)           -57.9344         calculate D2E/DX2 analytically  !
 ! D2    D(10,1,2,4)          -178.6891         calculate D2E/DX2 analytically  !
 ! D3    D(10,1,2,6)            62.4539         calculate D2E/DX2 analytically  !
 ! D4    D(11,1,2,3)            61.5591         calculate D2E/DX2 analytically  !
 ! D5    D(11,1,2,4)           -59.1956         calculate D2E/DX2 analytically  !
 ! D6    D(11,1,2,6)          -178.0526         calculate D2E/DX2 analytically  !
 ! D7    D(12,1,2,3)          -177.9133         calculate D2E/DX2 analytically  !
 ! D8    D(12,1,2,4)            61.332          calculate D2E/DX2 analytically  !
 ! D9    D(12,1,2,6)           -57.525          calculate D2E/DX2 analytically  !
 ! D10   D(1,2,3,13)          -175.4709         calculate D2E/DX2 analytically  !
 ! D11   D(1,2,3,14)           -55.9476         calculate D2E/DX2 analytically  !
 ! D12   D(1,2,3,15)            62.9985         calculate D2E/DX2 analytically  !
 ! D13   D(4,2,3,13)           -54.7508         calculate D2E/DX2 analytically  !
 ! D14   D(4,2,3,14)            64.7725         calculate D2E/DX2 analytically  !
 ! D15   D(4,2,3,15)          -176.2814         calculate D2E/DX2 analytically  !
 ! D16   D(6,2,3,13)            65.6215         calculate D2E/DX2 analytically  !
 ! D17   D(6,2,3,14)          -174.8552         calculate D2E/DX2 analytically  !
 ! D18   D(6,2,3,15)           -55.909          calculate D2E/DX2 analytically  !
 ! D19   D(1,2,6,7)             50.2956         calculate D2E/DX2 analytically  !
 ! D20   D(1,2,6,8)            173.6274         calculate D2E/DX2 analytically  !
 ! D21   D(1,2,6,17)           -69.7952         calculate D2E/DX2 analytically  !
 ! D22   D(3,2,6,7)            170.006          calculate D2E/DX2 analytically  !
 ! D23   D(3,2,6,8)            -66.6622         calculate D2E/DX2 analytically  !
 ! D24   D(3,2,6,17)            49.9152         calculate D2E/DX2 analytically  !
 ! D25   D(4,2,6,7)            -69.0899         calculate D2E/DX2 analytically  !
 ! D26   D(4,2,6,8)             54.2419         calculate D2E/DX2 analytically  !
 ! D27   D(4,2,6,17)           170.8193         calculate D2E/DX2 analytically  !
 ! D28   D(2,6,7,18)           119.7227         calculate D2E/DX2 analytically  !
 ! D29   D(8,6,7,18)            -5.13           calculate D2E/DX2 analytically  !
 ! D30   D(17,6,7,18)         -122.3948         calculate D2E/DX2 analytically  !
 ! D31   D(2,6,8,9)           -123.9375         calculate D2E/DX2 analytically  !
 ! D32   D(2,6,8,19)            56.8688         calculate D2E/DX2 analytically  !
 ! D33   D(7,6,8,9)              0.7003         calculate D2E/DX2 analytically  !
 ! D34   D(7,6,8,19)          -178.4934         calculate D2E/DX2 analytically  !
 ! D35   D(17,6,8,9)           119.8799         calculate D2E/DX2 analytically  !
 ! D36   D(17,6,8,19)          -59.3139         calculate D2E/DX2 analytically  !
 --------------------------------------------------------------------------------
 Trust Radius=3.00D-01 FncErr=1.00D-07 GrdErr=1.00D-07
 Number of steps in this run=      2 maximum allowed number of steps=      2.
 GradGradGradGradGradGradGradGradGradGradGradGradGradGradGradGradGradGrad

                          Input orientation:                          
 ---------------------------------------------------------------------
 Center     Atomic      Atomic             Coordinates (Angstroms)
 Number     Number       Type             X           Y           Z
 ---------------------------------------------------------------------
      1          6           0       -1.661081    2.865691   -1.798742
      2          6           0       -1.165332    2.002594   -0.617593
      3          6           0       -2.374574    1.556058    0.235880
      4          6           0       -0.230746    2.775553    0.206300
      5          6           0        0.533797    3.395185    0.896814
      6          6           0       -0.416630    0.753879   -1.206444
      7          8           0        0.537753    1.122676   -2.156919
      8          6           0        0.245660   -0.081327   -0.122085
      9          8           0        1.427515   -0.324418   -0.156353
     10          1           0       -2.377487    2.298911   -2.403192
     11          1           0       -2.158468    3.764042   -1.423386
     12          1           0       -0.825406    3.159829   -2.433582
     13          1           0       -2.073698    1.007154    1.131366
     14          1           0       -2.938885    2.433038    0.563387
     15          1           0       -3.044266    0.922742   -0.355565
     16          1           0        1.213174    3.945070    1.500240
     17          1           0       -1.191451    0.119427   -1.674184
     18          1           0        1.387195    0.805095   -1.809827
     19          1           0       -0.399850   -0.467034    0.688933
 ---------------------------------------------------------------------
                    Distance matrix (angstroms):
                    1          2          3          4          5
     1  C    0.000000
     2  C    1.544608   0.000000
     3  C    2.522676   1.545987   0.000000
     4  C    2.464584   1.466192   2.466585   0.000000
     5  C    3.516230   2.668292   3.503976   1.202198   0.000000
     6  C    2.521750   1.570538   2.560729   2.473371   3.507635
     7  O    2.828649   2.458511   3.794068   2.984526   3.806520
     8  C    3.889955   2.564987   3.110434   2.914887   3.634187
     9  O    4.734306   3.514340   4.259803   3.534285   3.967788
    10  H    1.095371   2.178414   2.741631   3.412497   4.535133
    11  H    1.093308   2.176769   2.770390   2.710922   3.573189
    12  H    1.089904   2.180037   3.478222   2.733179   3.604770
    13  H    3.494273   2.207914   1.092574   2.716515   3.543549
    14  H    2.720225   2.173817   1.093069   2.752970   3.618898
    15  H    2.787653   2.182918   1.095164   3.415333   4.525922
    16  H    4.506626   3.730378   4.491983   2.264278   1.062096
    17  H    2.788912   2.159487   2.666840   3.393255   4.507450
    18  H    3.679424   3.061180   4.347386   3.250416   3.842234
    19  H    4.345835   2.896901   2.863162   3.282666   3.978900
                    6          7          8          9         10
     6  C    0.000000
     7  O    1.396517   0.000000
     8  C    1.520537   2.382329   0.000000
     9  O    2.380396   2.624504   1.207083   0.000000
    10  H    2.768445   3.153220   4.213061   5.138889   0.000000
    11  H    3.484558   3.845061   4.718060   5.583919   1.776120
    12  H    2.731586   2.466726   4.122535   4.733012   1.775122
    13  H    2.876696   4.200695   2.852254   3.961035   3.775450
    14  H    3.509080   4.604793   4.115001   5.214119   3.022209
    15  H    2.767125   4.014438   3.447649   4.646711   2.555624
    16  H    4.490667   4.668716   4.447459   4.584623   5.553329
    17  H    1.105287   2.056620   2.124760   3.059378   2.586171
    18  H    1.902755   0.971021   2.222008   2.002848   4.093458
    19  H    2.254632   3.391924   1.105985   2.018443   4.595948
                   11         12         13         14         15
    11  H    0.000000
    12  H    1.778376   0.000000
    13  H    3.759571   4.347539   0.000000
    14  H    2.515530   3.738561   1.761900   0.000000
    15  H    3.161941   3.774394   1.777665   1.771037   0.000000
    16  H    4.466355   4.499708   4.423905   4.517026   5.541144
    17  H    3.779053   3.155110   3.072057   3.662382   2.411845
    18  H    4.634267   3.290813   4.546341   5.195893   4.665465
    19  H    5.045457   4.804720   2.273927   3.856537   3.164710
                   16         17         18         19
    16  H    0.000000
    17  H    5.522204   0.000000
    18  H    4.565772   2.671695   0.000000
    19  H    4.767255   2.560252   3.325002   0.000000
 Stoichiometry    C7H10O2
 Framework group  C1[X(C7H10O2)]
 Deg. of freedom    51
 Full point group                 C1      NOp   1
 Largest Abelian subgroup         C1      NOp   1
 Largest concise Abelian subgroup C1      NOp   1
                         Standard orientation:                         
 ---------------------------------------------------------------------
 Center     Atomic      Atomic             Coordinates (Angstroms)
 Number     Number       Type             X           Y           Z
 ---------------------------------------------------------------------
      1          6           0       -1.808581   -0.984446   -0.797387
      2          6           0       -0.868960   -0.196640    0.141915
      3          6           0       -1.392483   -0.294789    1.593247
      4          6           0       -0.811696    1.208024   -0.274447
      5          6           0       -0.756007    2.364598   -0.597735
      6          6           0        0.567402   -0.822208    0.031832
      7          8           0        0.975337   -0.952402   -1.297415
      8          6           0        1.603102   -0.018897    0.802578
      9          8           0        2.590364    0.411837    0.257757
     10          1           0       -1.871870   -2.029401   -0.475049
     11          1           0       -2.812520   -0.552287   -0.771546
     12          1           0       -1.435180   -0.957564   -1.820978
     13          1           0       -0.808255    0.311226    2.289767
     14          1           0       -2.425535    0.059670    1.637528
     15          1           0       -1.375635   -1.335464    1.933978
     16          1           0       -0.705749    3.384154   -0.891042
     17          1           0        0.510097   -1.817258    0.509589
     18          1           0        1.780003   -0.414717   -1.376723
     19          1           0        1.422375    0.142306    1.881723
 ---------------------------------------------------------------------
 Rotational constants (GHZ):      2.0475530      1.3551623      1.2129834
 Standard basis: 6-31G(2df,p) (6D, 7F)
 There are   329 symmetry adapted cartesian basis functions of A   symmetry.
 There are   302 symmetry adapted basis functions of A   symmetry.
   302 basis functions,   466 primitive gaussians,   329 cartesian basis functions
    34 alpha electrons       34 beta electrons
       nuclear repulsion energy       449.0606982849 Hartrees.
 NAtoms=   19 NActive=   19 NUniq=   19 SFac= 1.00D+00 NAtFMM=   60 NAOKFM=F Big=F
 Integral buffers will be    131072 words long.
 Raffenetti 2 integral format.
 Two-electron integral symmetry is turned on.
 One-electron integrals computed using PRISM.
 NBasis=   302 RedAO= T EigKep=  1.31D-04  NBF=   302
 NBsUse=   302 1.00D-06 EigRej= -1.00D+00 NBFU=   302
 Initial guess from the checkpoint file:  "/scratch/puck/g09_d0a40020-e6c7-467b-8e4b-fc3adbdbde13/Gau-175078.chk"
 B after Tr=     0.000000    0.000000    0.000000
         Rot=    1.000000    0.000000    0.000000    0.000000 Ang=   0.00 deg.
 Requested convergence on RMS density matrix=1.00D-08 within 128 cycles.
 Requested convergence on MAX density matrix=1.00D-06.
 Requested convergence on             energy=1.00D-06.
 No special actions if energy rises.
 SCF Done:  E(RB3LYP) =  -423.157329266     A.U. after    1 cycles
            NFock=  1  Conv=0.46D-08     -V/T= 2.0074
 DoSCS=F DFT=T ScalE2(SS,OS)=  1.000000  1.000000
 Range of M.O.s used for correlation:     1   302
 NBasis=   302 NAE=    34 NBE=    34 NFC=     0 NFV=     0
 NROrb=    302 NOA=    34 NOB=    34 NVA=   268 NVB=   268

 **** Warning!!: The largest alpha MO coefficient is  0.22821895D+02

 Symmetrizing basis deriv contribution to polar:
 IMax=3 JMax=2 DiffMx= 0.00D+00
 G2DrvN: will do    20 centers at a time, making    1 passes.
 Calling FoFCou, ICntrl=  3107 FMM=F I1Cent=   0 AccDes= 0.00D+00.
 End of G2Drv F.D. properties file   721 does not exist.
 End of G2Drv F.D. properties file   722 does not exist.
 End of G2Drv F.D. properties file   788 does not exist.
          IDoAtm=1111111111111111111
          Differentiating once with respect to electric field.
                with respect to dipole field.
          Differentiating once with respect to nuclear coordinates.
          There are    60 degrees of freedom in the 1st order CPHF.  IDoFFX=6 NUNeed=     3.
     57 vectors produced by pass  0 Test12= 1.52D-14 1.67D-09 XBig12= 7.52D+01 3.68D+00.
 AX will form    57 AO Fock derivatives at one time.
