 Entering Gaussian System, Link 0=/home/puck/opt/gaussian_09/g09
 Input=dsC7O2H10nsd_1039.com
 Output=dsC7O2H10nsd_1039.log
 Initial command:
 /home/puck/opt/gaussian_09/l1.exe "/scratch/puck/g09_052090f3-fc81-4d07-9d62-a60cebce1cd2/Gau-76375.inp" -scrdir="/scratch/puck/g09_052090f3-fc81-4d07-9d62-a60cebce1cd2/"
 Entering Link 1 = /home/puck/opt/gaussian_09/l1.exe PID=     76377.
  
 Copyright (c) 1988,1990,1992,1993,1995,1998,2003,2009,2013,
            Gaussian, Inc.  All Rights Reserved.
  
 This is part of the Gaussian(R) 09 program.  It is based on
 the Gaussian(R) 03 system (copyright 2003, Gaussian, Inc.),
 the Gaussian(R) 98 system (copyright 1998, Gaussian, Inc.),
 the Gaussian(R) 94 system (copyright 1995, Gaussian, Inc.),
 the Gaussian 92(TM) system (copyright 1992, Gaussian, Inc.),
 the Gaussian 90(TM) system (copyright 1990, Gaussian, Inc.),
 the Gaussian 88(TM) system (copyright 1988, Gaussian, Inc.),
 the Gaussian 86(TM) system (copyright 1986, Carnegie Mellon
 University), and the Gaussian 82(TM) system (copyright 1983,
 Carnegie Mellon University). Gaussian is a federally registered
 trademark of Gaussian, Inc.
  
 This software contains proprietary and confidential information,
 including trade secrets, belonging to Gaussian, Inc.
  
 This software is provided under written license and may be
 used, copied, transmitted, or stored only in accord with that
 written license.
  
 The following legend is applicable only to US Government
 contracts under FAR:
  
                    RESTRICTED RIGHTS LEGEND
  
 Use, reproduction and disclosure by the US Government is
 subject to restrictions as set forth in subparagraphs (a)
 and (c) of the Commercial Computer Software - Restricted
 Rights clause in FAR 52.227-19.
  
 Gaussian, Inc.
 340 Quinnipiac St., Bldg. 40, Wallingford CT 06492
  
  
 ---------------------------------------------------------------
 Warning -- This program may not be used in any manner that
 competes with the business of Gaussian, Inc. or will provide
 assistance to any competitor of Gaussian, Inc.  The licensee
 of this program is prohibited from giving any competitor of
 Gaussian, Inc. access to this program.  By using this program,
 the user acknowledges that Gaussian, Inc. is engaged in the
 business of creating and licensing software in the field of
 computational chemistry and represents and warrants to the
 licensee that it is not a competitor of Gaussian, Inc. and that
 it will not use this program in any manner prohibited above.
 ---------------------------------------------------------------
  

 Cite this work as:
 Gaussian 09, Revision D.01,
 M. J. Frisch, G. W. Trucks, H. B. Schlegel, G. E. Scuseria, 
 M. A. Robb, J. R. Cheeseman, G. Scalmani, V. Barone, B. Mennucci, 
 G. A. Petersson, H. Nakatsuji, M. Caricato, X. Li, H. P. Hratchian, 
 A. F. Izmaylov, J. Bloino, G. Zheng, J. L. Sonnenberg, M. Hada, 
 M. Ehara, K. Toyota, R. Fukuda, J. Hasegawa, M. Ishida, T. Nakajima, 
 Y. Honda, O. Kitao, H. Nakai, T. Vreven, J. A. Montgomery, Jr., 
 J. E. Peralta, F. Ogliaro, M. Bearpark, J. J. Heyd, E. Brothers, 
 K. N. Kudin, V. N. Staroverov, T. Keith, R. Kobayashi, J. Normand, 
 K. Raghavachari, A. Rendell, J. C. Burant, S. S. Iyengar, J. Tomasi, 
 M. Cossi, N. Rega, J. M. Millam, M. Klene, J. E. Knox, J. B. Cross, 
 V. Bakken, C. Adamo, J. Jaramillo, R. Gomperts, R. E. Stratmann, 
 O. Yazyev, A. J. Austin, R. Cammi, C. Pomelli, J. W. Ochterski, 
 R. L. Martin, K. Morokuma, V. G. Zakrzewski, G. A. Voth, 
 P. Salvador, J. J. Dannenberg, S. Dapprich, A. D. Daniels, 
 O. Farkas, J. B. Foresman, J. V. Ortiz, J. Cioslowski, 
 and D. J. Fox, Gaussian, Inc., Wallingford CT, 2013.
 
 ******************************************
 Gaussian 09:  ES64L-G09RevD.01 24-Apr-2013
                27-Jan-2020 
 ******************************************
 -----------------------------
 # b3lyp 6-31G(2df,p) opt Freq
 -----------------------------
 1/14=-1,18=20,19=15,26=3,38=1/1,3;
 2/9=110,12=2,17=6,18=5,40=1/2;
 3/5=1,6=6,7=104,11=2,16=1,25=1,30=1,71=1,74=-5/1,2,3;
 4//1;
 5/5=2,38=5/2;
 6/7=2,8=2,9=2,10=2,28=1/1;
 7//1,2,3,16;
 1/14=-1,18=20,19=15,26=3/3(2);
 2/9=110/2;
 99//99;
 2/9=110/2;
 3/5=1,6=6,7=104,11=2,16=1,25=1,30=1,71=1,74=-5/1,2,3;
 4/5=5,16=3,69=1/1;
 5/5=2,38=5/2;
 7//1,2,3,16;
 1/14=-1,18=20,19=15,26=3/3(-5);
 2/9=110/2;
 6/7=2,8=2,9=2,10=2,19=2,28=1/1;
 99/9=1/99;
 -----
 titel
 -----
 Symbolic Z-matrix:
 Charge =  0 Multiplicity = 1
 C                     1.58903   0.16705   0.13293 
 C                     0.13833   0.04834   0.1128 
 C                    -1.06078  -0.05013   0.08545 
 C                    -2.5105   -0.18595   0.06652 
 C                    -2.96583  -1.6707    0.03175 
 O                    -2.5003   -2.30714  -1.12067 
 C                    -4.4934   -1.78427   0.10797 
 C                    -5.21189  -1.21341   1.30838 
 O                    -5.08238  -2.33466  -0.79869 
 H                     1.98779   0.0392    1.14544 
 H                     2.05658  -0.59052  -0.50562 
 H                     1.91283   1.14957  -0.22817 
 H                    -2.93929   0.30668   0.94845 
 H                    -2.92784   0.31423  -0.81689 
 H                    -2.55856  -2.16413   0.93056 
 H                    -3.3      -2.61764  -1.57715 
 H                    -4.65287  -1.38662   2.2325 
 H                    -5.31744  -0.12845   1.19007 
 H                    -6.20875  -1.65045   1.38022 
 

 GradGradGradGradGradGradGradGradGradGradGradGradGradGradGradGradGradGrad
 Berny optimization.
 Initialization pass.
                           ----------------------------
                           !    Initial Parameters    !
                           ! (Angstroms and Degrees)  !
 --------------------------                            --------------------------
 ! Name  Definition              Value          Derivative Info.                !
 --------------------------------------------------------------------------------
 ! R1    R(1,2)                  1.4557         estimate D2E/DX2                !
 ! R2    R(1,10)                 1.0957         estimate D2E/DX2                !
 ! R3    R(1,11)                 1.0956         estimate D2E/DX2                !
 ! R4    R(1,12)                 1.0957         estimate D2E/DX2                !
 ! R5    R(2,3)                  1.2035         estimate D2E/DX2                !
 ! R6    R(3,4)                  1.4562         estimate D2E/DX2                !
 ! R7    R(4,5)                  1.5534         estimate D2E/DX2                !
 ! R8    R(4,13)                 1.0974         estimate D2E/DX2                !
 ! R9    R(4,14)                 1.0976         estimate D2E/DX2                !
 ! R10   R(5,6)                  1.3964         estimate D2E/DX2                !
 ! R11   R(5,7)                  1.5337         estimate D2E/DX2                !
 ! R12   R(5,15)                 1.1033         estimate D2E/DX2                !
 ! R13   R(6,16)                 0.9718         estimate D2E/DX2                !
 ! R14   R(7,8)                  1.511          estimate D2E/DX2                !
 ! R15   R(7,9)                  1.2132         estimate D2E/DX2                !
 ! R16   R(8,17)                 1.0939         estimate D2E/DX2                !
 ! R17   R(8,18)                 1.0965         estimate D2E/DX2                !
 ! R18   R(8,19)                 1.0908         estimate D2E/DX2                !
 ! A1    A(2,1,10)             111.4667         estimate D2E/DX2                !
 ! A2    A(2,1,11)             111.1524         estimate D2E/DX2                !
 ! A3    A(2,1,12)             111.2891         estimate D2E/DX2                !
 ! A4    A(10,1,11)            107.6139         estimate D2E/DX2                !
 ! A5    A(10,1,12)            107.5544         estimate D2E/DX2                !
 ! A6    A(11,1,12)            107.5692         estimate D2E/DX2                !
 ! A7    A(3,4,5)              112.4113         estimate D2E/DX2                !
 ! A8    A(3,4,13)             109.6743         estimate D2E/DX2                !
 ! A9    A(3,4,14)             110.2728         estimate D2E/DX2                !
 ! A10   A(5,4,13)             109.4217         estimate D2E/DX2                !
 ! A11   A(5,4,14)             107.8241         estimate D2E/DX2                !
 ! A12   A(13,4,14)            107.0786         estimate D2E/DX2                !
 ! A13   A(4,5,6)              110.879          estimate D2E/DX2                !
 ! A14   A(4,5,7)              111.199          estimate D2E/DX2                !
 ! A15   A(4,5,15)             107.5204         estimate D2E/DX2                !
 ! A16   A(6,5,7)              109.8356         estimate D2E/DX2                !
 ! A17   A(6,5,15)             110.209          estimate D2E/DX2                !
 ! A18   A(7,5,15)             107.1016         estimate D2E/DX2                !
 ! A19   A(5,6,16)             105.0083         estimate D2E/DX2                !
 ! A20   A(5,7,8)              119.0205         estimate D2E/DX2                !
 ! A21   A(5,7,9)              118.6847         estimate D2E/DX2                !
 ! A22   A(8,7,9)              122.2944         estimate D2E/DX2                !
 ! A23   A(7,8,17)             111.6133         estimate D2E/DX2                !
 ! A24   A(7,8,18)             109.5048         estimate D2E/DX2                !
 ! A25   A(7,8,19)             109.603          estimate D2E/DX2                !
 ! A26   A(17,8,18)            107.28           estimate D2E/DX2                !
 ! A27   A(17,8,19)            110.3623         estimate D2E/DX2                !
 ! A28   A(18,8,19)            108.3956         estimate D2E/DX2                !
 ! A29   L(1,2,3,6,-1)         179.739          estimate D2E/DX2                !
 ! A30   L(2,3,4,6,-1)         179.6948         estimate D2E/DX2                !
 ! A31   L(1,2,3,6,-2)         180.673          estimate D2E/DX2                !
 ! A32   L(2,3,4,6,-2)         179.0242         estimate D2E/DX2                !
 ! D1    D(10,1,4,5)           -81.8863         estimate D2E/DX2                !
 ! D2    D(10,1,4,13)           39.839          estimate D2E/DX2                !
 ! D3    D(10,1,4,14)          157.7884         estimate D2E/DX2                !
 ! D4    D(11,1,4,5)            38.0443         estimate D2E/DX2                !
 ! D5    D(11,1,4,13)          159.7696         estimate D2E/DX2                !
 ! D6    D(11,1,4,14)          -82.2811         estimate D2E/DX2                !
 ! D7    D(12,1,4,5)           157.8581         estimate D2E/DX2                !
 ! D8    D(12,1,4,13)          -80.4166         estimate D2E/DX2                !
 ! D9    D(12,1,4,14)           37.5327         estimate D2E/DX2                !
 ! D10   D(3,4,5,6)            -61.3197         estimate D2E/DX2                !
 ! D11   D(3,4,5,7)            176.1685         estimate D2E/DX2                !
 ! D12   D(3,4,5,15)            59.2194         estimate D2E/DX2                !
 ! D13   D(13,4,5,6)           176.5695         estimate D2E/DX2                !
 ! D14   D(13,4,5,7)            54.0577         estimate D2E/DX2                !
 ! D15   D(13,4,5,15)          -62.8913         estimate D2E/DX2                !
 ! D16   D(14,4,5,6)            60.4357         estimate D2E/DX2                !
 ! D17   D(14,4,5,7)           -62.0762         estimate D2E/DX2                !
 ! D18   D(14,4,5,15)         -179.0252         estimate D2E/DX2                !
 ! D19   D(4,5,6,16)          -121.0029         estimate D2E/DX2                !
 ! D20   D(7,5,6,16)             2.2974         estimate D2E/DX2                !
 ! D21   D(15,5,6,16)          120.0664         estimate D2E/DX2                !
 ! D22   D(4,5,7,8)            -59.4055         estimate D2E/DX2                !
 ! D23   D(4,5,7,9)            120.8226         estimate D2E/DX2                !
 ! D24   D(6,5,7,8)            177.4822         estimate D2E/DX2                !
 ! D25   D(6,5,7,9)             -2.2897         estimate D2E/DX2                !
 ! D26   D(15,5,7,8)            57.7988         estimate D2E/DX2                !
 ! D27   D(15,5,7,9)          -121.973          estimate D2E/DX2                !
 ! D28   D(5,7,8,17)           -38.7522         estimate D2E/DX2                !
 ! D29   D(5,7,8,18)            79.8872         estimate D2E/DX2                !
 ! D30   D(5,7,8,19)          -161.3269         estimate D2E/DX2                !
 ! D31   D(9,7,8,17)           141.0111         estimate D2E/DX2                !
 ! D32   D(9,7,8,18)          -100.3496         estimate D2E/DX2                !
 ! D33   D(9,7,8,19)            18.4363         estimate D2E/DX2                !
 --------------------------------------------------------------------------------
 Trust Radius=3.00D-01 FncErr=1.00D-07 GrdErr=1.00D-06
 Number of steps in this run=     93 maximum allowed number of steps=    114.
 GradGradGradGradGradGradGradGradGradGradGradGradGradGradGradGradGradGrad

                          Input orientation:                          
 ---------------------------------------------------------------------
 Center     Atomic      Atomic             Coordinates (Angstroms)
 Number     Number       Type             X           Y           Z
 ---------------------------------------------------------------------
      1          6           0        1.589030    0.167049    0.132930
      2          6           0        0.138333    0.048336    0.112795
      3          6           0       -1.060783   -0.050126    0.085448
      4          6           0       -2.510503   -0.185946    0.066519
      5          6           0       -2.965825   -1.670704    0.031751
      6          8           0       -2.500298   -2.307144   -1.120671
      7          6           0       -4.493400   -1.784269    0.107972
      8          6           0       -5.211891   -1.213408    1.308380
      9          8           0       -5.082376   -2.334664   -0.798692
     10          1           0        1.987795    0.039204    1.145437
     11          1           0        2.056578   -0.590522   -0.505616
     12          1           0        1.912832    1.149566   -0.228167
     13          1           0       -2.939295    0.306681    0.948449
     14          1           0       -2.927838    0.314225   -0.816889
     15          1           0       -2.558565   -2.164128    0.930557
     16          1           0       -3.299997   -2.617640   -1.577152
     17          1           0       -4.652871   -1.386622    2.232503
     18          1           0       -5.317438   -0.128452    1.190068
     19          1           0       -6.208754   -1.650447    1.380216
 ---------------------------------------------------------------------
                    Distance matrix (angstroms):
                    1          2          3          4          5
     1  C    0.000000
     2  C    1.455685   0.000000
     3  C    2.659121   1.203462   0.000000
     4  C    4.115239   2.659580   1.456192   0.000000
     5  C    4.912665   3.549291   2.501668   1.553394   0.000000
     6  O    4.941229   3.745944   2.936163   2.430845   1.396370
     7  C    6.387818   4.981106   3.845858   2.547201   1.533686
     8  C    7.038456   5.625506   4.481126   3.145694   2.623683
     9  O    7.185690   5.810792   4.708931   3.461229   2.368600
    10  H    1.095686   2.118240   3.228836   4.631355   5.357466
    11  H    1.095562   2.114293   3.218590   4.620525   5.165278
    12  H    1.095709   2.116084   3.221801   4.629938   5.641168
    13  H    4.603291   3.199508   2.097830   1.097426   2.179700
    14  H    4.617998   3.215029   2.105435   1.097610   2.159069
    15  H    4.824224   3.582874   2.725172   2.159184   1.103259
    16  H    5.880600   4.667490   3.790837   3.039422   1.896557
    17  H    6.766345   5.432117   4.393081   3.274576   2.787496
    18  H    6.993151   5.563920   4.398345   3.023996   3.041435
    19  H    8.103360   6.691617   5.544282   4.188988   3.512172
                    6          7          8          9         10
     6  O    0.000000
     7  C    2.399046   0.000000
     8  C    3.801221   1.510989   0.000000
     9  O    2.602222   1.213205   2.390343   0.000000
    10  H    5.548295   6.812289   7.309656   7.707283   0.000000
    11  H    4.908177   6.686086   7.517261   7.354767   1.768407
    12  H    5.676365   7.054090   7.662004   7.835706   1.767855
    13  H    3.362448   2.737465   2.757701   3.823873   4.938275
    14  H    2.673323   2.776694   3.473806   3.414526   5.299981
    15  H    2.057034   2.136476   2.843723   3.064149   5.056702
    16  H    0.971752   2.226738   3.735438   1.965439   6.513989
    17  H    4.089585   2.167299   1.093851   3.204903   6.878454
    18  H    4.245291   2.142825   1.096480   2.979563   7.307293
    19  H    4.520878   2.139849   1.090825   2.546472   8.372184
                   11         12         13         14         15
    11  H    0.000000
    12  H    1.767921   0.000000
    13  H    5.279964   5.063400   0.000000
    14  H    5.075417   4.947370   1.765391   0.000000
    15  H    5.083146   5.684769   2.500035   3.054860   0.000000
    16  H    5.826688   6.571544   3.880775   3.051612   2.654054
    17  H    7.290252   7.456246   2.729911   3.894536   2.585671
    18  H    7.580565   7.478070   2.429668   3.151829   3.438417
    19  H    8.543742   8.739973   3.834858   4.410399   3.713481
                   16         17         18         19
    16  H    0.000000
    17  H    4.226008   0.000000
    18  H    4.233631   1.763892   0.000000
    19  H    4.259385   1.793535   1.773998   0.000000
 Stoichiometry    C7H10O2
 Framework group  C1[X(C7H10O2)]
 Deg. of freedom    51
 Full point group                 C1      NOp   1
 Largest Abelian subgroup         C1      NOp   1
 Largest concise Abelian subgroup C1      NOp   1
                         Standard orientation:                         
 ---------------------------------------------------------------------
 Center     Atomic      Atomic             Coordinates (Angstroms)
 Number     Number       Type             X           Y           Z
 ---------------------------------------------------------------------
      1          6           0        4.260453   -0.018039   -0.225708
      2          6           0        2.849220   -0.229486    0.061921
      3          6           0        1.682707   -0.396033    0.306522
      4          6           0        0.266869   -0.597418    0.581012
      5          6           0       -0.642681    0.268165   -0.333601
      6          8           0       -0.397508    1.628461   -0.135275
      7          6           0       -2.125841   -0.034661   -0.087175
      8          6           0       -2.632008   -1.442168   -0.301199
      9          8           0       -2.853119    0.868464    0.269616
     10          1           0        4.588042   -0.613252   -1.085321
     11          1           0        4.464097    1.033953   -0.453960
     12          1           0        4.886901   -0.298433    0.628412
     13          1           0        0.012388   -1.656995    0.451088
     14          1           0        0.040692   -0.337001    1.623018
     15          1           0       -0.423993   -0.010124   -1.378546
     16          1           0       -1.250699    1.999690    0.145004
     17          1           0       -2.166616   -1.909359   -1.173926
     18          1           0       -2.380976   -2.058019    0.570569
     19          1           0       -3.717129   -1.428015   -0.411704
 ---------------------------------------------------------------------
 Rotational constants (GHZ):      4.0954927      0.6876065      0.6149313
 Standard basis: 6-31G(2df,p) (6D, 7F)
 There are   329 symmetry adapted cartesian basis functions of A   symmetry.
 There are   302 symmetry adapted basis functions of A   symmetry.
   302 basis functions,   466 primitive gaussians,   329 cartesian basis functions
    34 alpha electrons       34 beta electrons
       nuclear repulsion energy       416.3908469751 Hartrees.
 NAtoms=   19 NActive=   19 NUniq=   19 SFac= 1.00D+00 NAtFMM=   60 NAOKFM=F Big=F
 Integral buffers will be    131072 words long.
 Raffenetti 2 integral format.
 Two-electron integral symmetry is turned on.
 One-electron integrals computed using PRISM.
 NBasis=   302 RedAO= T EigKep=  6.34D-05  NBF=   302
 NBsUse=   302 1.00D-06 EigRej= -1.00D+00 NBFU=   302
 ExpMin= 1.61D-01 ExpMax= 5.48D+03 ExpMxC= 8.25D+02 IAcc=1 IRadAn=         1 AccDes= 0.00D+00
 Harris functional with IExCor=  402 and IRadAn=       1 diagonalized for initial guess.
 HarFok:  IExCor=  402 AccDes= 0.00D+00 IRadAn=         1 IDoV= 1 UseB2=F ITyADJ=14
 ICtDFT=  3500011 ScaDFX=  1.000000  1.000000  1.000000  1.000000
 FoFCou: FMM=F IPFlag=           0 FMFlag=      100000 FMFlg1=           0
         NFxFlg=           0 DoJE=T BraDBF=F KetDBF=T FulRan=T
         wScrn=  0.000000 ICntrl=     500 IOpCl=  0 I1Cent=   200000004 NGrid=           0
         NMat0=    1 NMatS0=      1 NMatT0=    0 NMatD0=    1 NMtDS0=    0 NMtDT0=    0
 Petite list used in FoFCou.
 Requested convergence on RMS density matrix=1.00D-08 within 128 cycles.
 Requested convergence on MAX density matrix=1.00D-06.
 Requested convergence on             energy=1.00D-06.
 No special actions if energy rises.
 Integral accuracy reduced to 1.0D-05 until final iterations.
 Initial convergence to 1.0D-05 achieved.  Increase integral accuracy.
 SCF Done:  E(RB3LYP) =  -423.179629133     A.U. after   14 cycles
            NFock= 14  Conv=0.85D-08     -V/T= 2.0075

 **********************************************************************

            Population analysis using the SCF density.

 **********************************************************************

 Orbital symmetries:
       Occupied  (A) (A) (A) (A) (A) (A) (A) (A) (A) (A) (A) (A)
                 (A) (A) (A) (A) (A) (A) (A) (A) (A) (A) (A) (A)
                 (A) (A) (A) (A) (A) (A) (A) (A) (A) (A)
       Virtual   (A) (A) (A) (A) (A) (A) (A) (A) (A) (A) (A) (A)
                 (A) (A) (A) (A) (A) (A) (A) (A) (A) (A) (A) (A)
                 (A) (A) (A) (A) (A) (A) (A) (A) (A) (A) (A) (A)
                 (A) (A) (A) (A) (A) (A) (A) (A) (A) (A) (A) (A)
                 (A) (A) (A) (A) (A) (A) (A) (A) (A) (A) (A) (A)
                 (A) (A) (A) (A) (A) (A) (A) (A) (A) (A) (A) (A)
                 (A) (A) (A) (A) (A) (A) (A) (A) (A) (A) (A) (A)
                 (A) (A) (A) (A) (A) (A) (A) (A) (A) (A) (A) (A)
                 (A) (A) (A) (A) (A) (A) (A) (A) (A) (A) (A) (A)
                 (A) (A) (A) (A) (A) (A) (A) (A) (A) (A) (A) (A)
                 (A) (A) (A) (A) (A) (A) (A) (A) (A) (A) (A) (A)
                 (A) (A) (A) (A) (A) (A) (A) (A) (A) (A) (A) (A)
                 (A) (A) (A) (A) (A) (A) (A) (A) (A) (A) (A) (A)
                 (A) (A) (A) (A) (A) (A) (A) (A) (A) (A) (A) (A)
                 (A) (A) (A) (A) (A) (A) (A) (A) (A) (A) (A) (A)
                 (A) (A) (A) (A) (A) (A) (A) (A) (A) (A) (A) (A)
                 (A) (A) (A) (A) (A) (A) (A) (A) (A) (A) (A) (A)
                 (A) (A) (A) (A) (A) (A) (A) (A) (A) (A) (A) (A)
                 (A) (A) (A) (A) (A) (A) (A) (A) (A) (A) (A) (A)
                 (A) (A) (A) (A) (A) (A) (A) (A) (A) (A) (A) (A)
                 (A) (A) (A) (A) (A) (A) (A) (A) (A) (A) (A) (A)
                 (A) (A) (A) (A) (A) (A) (A) (A) (A) (A) (A) (A)
                 (A) (A) (A) (A)
 The electronic state is 1-A.
 Alpha  occ. eigenvalues --  -19.15200 -19.12852 -10.28445 -10.24599 -10.21316
 Alpha  occ. eigenvalues --  -10.20448 -10.19995 -10.16995 -10.16578  -1.06767
 Alpha  occ. eigenvalues --   -1.01314  -0.80285  -0.76982  -0.74857  -0.68947
 Alpha  occ. eigenvalues --   -0.64455  -0.56112  -0.51041  -0.49787  -0.47519
 Alpha  occ. eigenvalues --   -0.45590  -0.44365  -0.43133  -0.42780  -0.42283
 Alpha  occ. eigenvalues --   -0.42082  -0.41420  -0.39383  -0.36782  -0.34066
 Alpha  occ. eigenvalues --   -0.27857  -0.26835  -0.24599  -0.24220
 Alpha virt. eigenvalues --   -0.03095   0.05508   0.06230   0.08848   0.11398
 Alpha virt. eigenvalues --    0.12287   0.12406   0.15026   0.15165   0.15597
 Alpha virt. eigenvalues --    0.16874   0.18372   0.19845   0.20405   0.21789
 Alpha virt. eigenvalues --    0.23552   0.24794   0.27456   0.30409   0.33294
 Alpha virt. eigenvalues --    0.36162   0.40232   0.44407   0.46450   0.49389
 Alpha virt. eigenvalues --    0.50354   0.51151   0.51605   0.53296   0.54385
 Alpha virt. eigenvalues --    0.56182   0.58248   0.59175   0.60692   0.61745
 Alpha virt. eigenvalues --    0.64056   0.64940   0.66892   0.68945   0.69626
 Alpha virt. eigenvalues --    0.70366   0.70942   0.71233   0.72712   0.73192
 Alpha virt. eigenvalues --    0.73336   0.75152   0.76192   0.77854   0.78294
 Alpha virt. eigenvalues --    0.79019   0.81020   0.81959   0.82248   0.83639
 Alpha virt. eigenvalues --    0.83899   0.88223   0.88726   0.91616   0.92423
 Alpha virt. eigenvalues --    0.93466   0.96584   0.96628   0.98847   1.03913
 Alpha virt. eigenvalues --    1.05913   1.08269   1.08711   1.09532   1.10965
 Alpha virt. eigenvalues --    1.12280   1.16291   1.18751   1.20241   1.23311
 Alpha virt. eigenvalues --    1.25068   1.28061   1.32549   1.33238   1.35212
 Alpha virt. eigenvalues --    1.37767   1.38686   1.40558   1.42351   1.44093
 Alpha virt. eigenvalues --    1.46806   1.49341   1.49510   1.52245   1.54013
 Alpha virt. eigenvalues --    1.54383   1.56955   1.62248   1.65075   1.69755
 Alpha virt. eigenvalues --    1.70257   1.72185   1.74615   1.77198   1.78883
 Alpha virt. eigenvalues --    1.80768   1.83475   1.84567   1.86388   1.89808
 Alpha virt. eigenvalues --    1.92452   1.94124   1.95169   1.96751   2.01325
 Alpha virt. eigenvalues --    2.05429   2.14182   2.19567   2.25626   2.29239
 Alpha virt. eigenvalues --    2.31108   2.31719   2.35513   2.36153   2.38918
 Alpha virt. eigenvalues --    2.40944   2.45403   2.51910   2.56120   2.60613
 Alpha virt. eigenvalues --    2.61807   2.63945   2.64863   2.65221   2.67434
 Alpha virt. eigenvalues --    2.68076   2.70028   2.71079   2.73323   2.73811
 Alpha virt. eigenvalues --    2.77331   2.80489   2.82917   2.83605   2.85308
 Alpha virt. eigenvalues --    2.89288   2.90585   2.93579   2.95523   2.97057
 Alpha virt. eigenvalues --    2.98164   2.99408   3.02032   3.04419   3.05884
 Alpha virt. eigenvalues --    3.06644   3.08482   3.09719   3.11167   3.16707
 Alpha virt. eigenvalues --    3.18806   3.22718   3.24116   3.24134   3.30203
 Alpha virt. eigenvalues --    3.32821   3.32973   3.36401   3.38633   3.40724
 Alpha virt. eigenvalues --    3.45159   3.49504   3.53016   3.55728   3.57209
 Alpha virt. eigenvalues --    3.58917   3.61672   3.63562   3.66421   3.66903
 Alpha virt. eigenvalues --    3.69476   3.70160   3.75555   3.80580   3.81004
 Alpha virt. eigenvalues --    3.86315   3.90391   3.90849   3.93507   3.95168
 Alpha virt. eigenvalues --    4.02202   4.02478   4.11060   4.11144   4.17164
 Alpha virt. eigenvalues --    4.17526   4.20061   4.20751   4.24029   4.25353
 Alpha virt. eigenvalues --    4.27543   4.29755   4.32915   4.33423   4.34648
 Alpha virt. eigenvalues --    4.37196   4.38696   4.41210   4.42300   4.43101
 Alpha virt. eigenvalues --    4.46838   4.48470   4.50118   4.52687   4.54079
 Alpha virt. eigenvalues --    4.56421   4.59363   4.64479   4.65893   4.66171
 Alpha virt. eigenvalues --    4.69154   4.71317   4.73220   4.74174   4.75067
 Alpha virt. eigenvalues --    4.75904   4.78644   4.79896   4.81487   4.86017
 Alpha virt. eigenvalues --    4.91093   4.97819   4.99534   5.00753   5.03330
 Alpha virt. eigenvalues --    5.06775   5.06919   5.10101   5.12973   5.18143
 Alpha virt. eigenvalues --    5.27986   5.32551   5.36207   5.42884   5.46389
 Alpha virt. eigenvalues --    5.47498   5.55001   5.56018   5.58562   5.60488
 Alpha virt. eigenvalues --    5.66336   5.68376   5.74482   5.99024   6.04039
 Alpha virt. eigenvalues --    6.06967   6.12577   6.19393   6.39834   6.43840
 Alpha virt. eigenvalues --    6.51818   6.81613   7.11421   7.13021   9.84497
 Alpha virt. eigenvalues --   10.85785  11.02997  11.62463  11.86744  12.05373
 Alpha virt. eigenvalues --   12.46741  13.03104  13.35732
          Condensed to atoms (all electrons):
               1          2          3          4          5          6
     1  C    4.988680   0.429401  -0.034986   0.000045   0.000060  -0.000008
     2  C    0.429401   4.655002   0.915029  -0.038735  -0.001447  -0.001486
     3  C   -0.034986   0.915029   4.703519   0.449585  -0.036763   0.000857
     4  C    0.000045  -0.038735   0.449585   5.117840   0.316537  -0.049575
     5  C    0.000060  -0.001447  -0.036763   0.316537   4.930044   0.410906
     6  O   -0.000008  -0.001486   0.000857  -0.049575   0.410906   7.822058
     7  C    0.000000  -0.000213  -0.000114  -0.011986   0.316225  -0.026678
     8  C    0.000000   0.000049   0.001043   0.003443  -0.106727   0.002484
     9  O    0.000000  -0.000003  -0.000193  -0.002208  -0.078702  -0.019609
    10  H    0.371777  -0.022582  -0.002184  -0.000004   0.000000   0.000000
    11  H    0.372892  -0.022384  -0.002033   0.000029   0.000009   0.000002
    12  H    0.369996  -0.021032  -0.001700  -0.000088  -0.000003   0.000000
    13  H   -0.000040  -0.002418  -0.019999   0.331275  -0.019828   0.002861
    14  H   -0.000038  -0.001014  -0.015779   0.330796  -0.023166   0.001877
    15  H   -0.000010   0.000407  -0.003081  -0.069402   0.340377  -0.028689
    16  H    0.000000   0.000048   0.000048   0.005713  -0.101955   0.313259
    17  H    0.000000  -0.000007  -0.000127  -0.001418   0.003052   0.000048
    18  H    0.000000   0.000007   0.000222  -0.001292   0.000979  -0.000003
    19  H    0.000000   0.000000  -0.000012   0.000090   0.003863  -0.000052
               7          8          9         10         11         12
     1  C    0.000000   0.000000   0.000000   0.371777   0.372892   0.369996
     2  C   -0.000213   0.000049  -0.000003  -0.022582  -0.022384  -0.021032
     3  C   -0.000114   0.001043  -0.000193  -0.002184  -0.002033  -0.001700
     4  C   -0.011986   0.003443  -0.002208  -0.000004   0.000029  -0.000088
     5  C    0.316225  -0.106727  -0.078702   0.000000   0.000009  -0.000003
     6  O   -0.026678   0.002484  -0.019609   0.000000   0.000002   0.000000
     7  C    4.344399   0.327531   0.763745   0.000000   0.000000   0.000000
     8  C    0.327531   5.243020  -0.062882   0.000000   0.000000   0.000000
     9  O    0.763745  -0.062882   7.662038   0.000000   0.000000   0.000000
    10  H    0.000000   0.000000   0.000000   0.572763  -0.032176  -0.032253
    11  H    0.000000   0.000000   0.000000  -0.032176   0.563272  -0.031442
    12  H    0.000000   0.000000   0.000000  -0.032253  -0.031442   0.569758
    13  H   -0.007166   0.003152   0.000177   0.000020  -0.000007   0.000003
    14  H   -0.001800  -0.000495   0.000901  -0.000007   0.000005   0.000019
    15  H   -0.027933  -0.001343   0.001236  -0.000006   0.000000   0.000001
    16  H   -0.001150   0.003074   0.046340   0.000000   0.000000   0.000000
    17  H   -0.016200   0.359538   0.001847   0.000000   0.000000   0.000000
    18  H   -0.012326   0.358167  -0.000268   0.000000   0.000000   0.000000
    19  H   -0.007181   0.353727   0.002670   0.000000   0.000000   0.000000
              13         14         15         16         17         18
     1  C   -0.000040  -0.000038  -0.000010   0.000000   0.000000   0.000000
     2  C   -0.002418  -0.001014   0.000407   0.000048  -0.000007   0.000007
     3  C   -0.019999  -0.015779  -0.003081   0.000048  -0.000127   0.000222
     4  C    0.331275   0.330796  -0.069402   0.005713  -0.001418  -0.001292
     5  C   -0.019828  -0.023166   0.340377  -0.101955   0.003052   0.000979
     6  O    0.002861   0.001877  -0.028689   0.313259   0.000048  -0.000003
     7  C   -0.007166  -0.001800  -0.027933  -0.001150  -0.016200  -0.012326
     8  C    0.003152  -0.000495  -0.001343   0.003074   0.359538   0.358167
     9  O    0.000177   0.000901   0.001236   0.046340   0.001847  -0.000268
    10  H    0.000020  -0.000007  -0.000006   0.000000   0.000000   0.000000
    11  H   -0.000007   0.000005   0.000000   0.000000   0.000000   0.000000
    12  H    0.000003   0.000019   0.000001   0.000000   0.000000   0.000000
    13  H    0.621115  -0.035201   0.001952  -0.000204   0.001090   0.002117
    14  H   -0.035201   0.600966   0.007008   0.000740   0.000074   0.000605
    15  H    0.001952   0.007008   0.674429   0.006044   0.002379   0.000380
    16  H   -0.000204   0.000740   0.006044   0.435953  -0.000085  -0.000055
    17  H    0.001090   0.000074   0.002379  -0.000085   0.560066  -0.027296
    18  H    0.002117   0.000605   0.000380  -0.000055  -0.027296   0.543044
    19  H   -0.000004  -0.000044  -0.000363  -0.000083  -0.025813  -0.021985
              19
     1  C    0.000000
     2  C    0.000000
     3  C   -0.000012
     4  C    0.000090
     5  C    0.003863
     6  O   -0.000052
     7  C   -0.007181
     8  C    0.353727
     9  O    0.002670
    10  H    0.000000
    11  H    0.000000
    12  H    0.000000
    13  H   -0.000004
    14  H   -0.000044
    15  H   -0.000363
    16  H   -0.000083
    17  H   -0.025813
    18  H   -0.021985
    19  H    0.543451
 Mulliken charges:
               1
     1  C   -0.497768
     2  C    0.111380
     3  C    0.046668
     4  C   -0.380646
     5  C    0.046540
     6  O   -0.428251
     7  C    0.360847
     8  C   -0.483782
     9  O   -0.315091
    10  H    0.144652
    11  H    0.151834
    12  H    0.146741
    13  H    0.121105
    14  H    0.134554
    15  H    0.096613
    16  H    0.292312
    17  H    0.142850
    18  H    0.157705
    19  H    0.151737
 Sum of Mulliken charges =   0.00000
 Mulliken charges with hydrogens summed into heavy atoms:
               1
     1  C   -0.054541
     2  C    0.111380
     3  C    0.046668
     4  C   -0.124987
     5  C    0.143153
     6  O   -0.135940
     7  C    0.360847
     8  C   -0.031489
     9  O   -0.315091
 Electronic spatial extent (au):  <R**2>=           1824.3741
 Charge=              0.0000 electrons
 Dipole moment (field-independent basis, Debye):
    X=              0.2195    Y=             -2.7208    Z=             -0.4835  Tot=              2.7721
 Quadrupole moment (field-independent basis, Debye-Ang):
   XX=            -49.3586   YY=            -53.8340   ZZ=            -52.0382
   XY=              4.8979   XZ=              0.4923   YZ=              0.3902
 Traceless Quadrupole moment (field-independent basis, Debye-Ang):
   XX=              2.3850   YY=             -2.0904   ZZ=             -0.2946
   XY=              4.8979   XZ=              0.4923   YZ=              0.3902
 Octapole moment (field-independent basis, Debye-Ang**2):
  XXX=             39.9699  YYY=              9.5106  ZZZ=              0.0360  XYY=            -10.3587
  XXY=             -8.2028  XXZ=             -9.7203  XZZ=             -6.5587  YZZ=              2.0192
  YYZ=              1.3029  XYZ=              0.7337
 Hexadecapole moment (field-independent basis, Debye-Ang**3):
 XXXX=          -1802.5794 YYYY=           -308.6540 ZZZZ=           -107.1057 XXXY=             43.8316
 XXXZ=              4.8040 YYYX=            -11.9131 YYYZ=              3.3320 ZZZX=             -5.2431
 ZZZY=              2.0685 XXYY=           -374.2828 XXZZ=           -338.8806 YYZZ=            -70.9560
 XXYZ=             -2.5418 YYXZ=             -4.5241 ZZXY=             -3.4962
 N-N= 4.163908469751D+02 E-N=-1.819523909120D+03  KE= 4.200338653982D+02
 Calling FoFJK, ICntrl=      2127 FMM=F ISym2X=0 I1Cent= 0 IOpClX= 0 NMat=1 NMatS=1 NMatT=0.
 ***** Axes restored to original set *****
 -------------------------------------------------------------------
 Center     Atomic                   Forces (Hartrees/Bohr)
 Number     Number              X              Y              Z
 -------------------------------------------------------------------
      1        6          -0.000004296    0.000003074   -0.000000834
      2        6           0.000003614    0.000000499   -0.000000855
      3        6          -0.000008898   -0.000001101   -0.000000563
      4        6           0.000013537    0.000017928   -0.000001085
      5        6          -0.000031324   -0.000017680   -0.000017655
      6        8          -0.000010761    0.000008659    0.000012460
      7        6           0.000031426    0.000004874    0.000009156
      8        6          -0.000004544   -0.000009879   -0.000004838
      9        8          -0.000003086   -0.000012001   -0.000011441
     10        1           0.000000352    0.000005149    0.000001470
     11        1           0.000000585   -0.000002150    0.000000620
     12        1          -0.000000700    0.000001253   -0.000005260
     13        1          -0.000007652   -0.000006542    0.000006774
     14        1          -0.000002914    0.000003075   -0.000001155
     15        1           0.000006036   -0.000007812    0.000003389
     16        1           0.000000408    0.000003531    0.000007349
     17        1           0.000005914    0.000003009    0.000005393
     18        1           0.000008464    0.000006998    0.000000668
     19        1           0.000003841   -0.000000886   -0.000003594
 -------------------------------------------------------------------
 Cartesian Forces:  Max     0.000031426 RMS     0.000009110

 GradGradGradGradGradGradGradGradGradGradGradGradGradGradGradGradGradGrad
 Berny optimization.
 FormGI is forming the generalized inverse of G from B-inverse, IUseBI=4.
 GSVD:  received Info=                   1 from GESDD.
 Internal  Forces:  Max     0.000039773 RMS     0.000007198
 Search for a local minimum.
 Step number   1 out of a maximum of   93
 All quantities printed in internal units (Hartrees-Bohrs-Radians)
 Mixed Optimization -- En-DIIS/RFO-DIIS
 Second derivative matrix not updated -- first step.
 ITU=  0
     Eigenvalues ---    0.00230   0.00230   0.00320   0.00476   0.00621
     Eigenvalues ---    0.01013   0.01094   0.01740   0.03272   0.03673
     Eigenvalues ---    0.03883   0.04913   0.05016   0.05345   0.06670
     Eigenvalues ---    0.07141   0.07213   0.07456   0.07804   0.09166
     Eigenvalues ---    0.12526   0.16000   0.16000   0.16000   0.16000
     Eigenvalues ---    0.16000   0.16000   0.16000   0.17686   0.20231
     Eigenvalues ---    0.21928   0.25000   0.25000   0.27365   0.29086
     Eigenvalues ---    0.31251   0.33324   0.33948   0.33968   0.34074
     Eigenvalues ---    0.34161   0.34164   0.34178   0.34371   0.34717
     Eigenvalues ---    0.37445   0.37510   0.46227   0.53021   0.98458
     Eigenvalues ---    1.03102
 RFO step:  Lambda=-8.05531368D-08 EMin= 2.30000000D-03
 Linear search not attempted -- first point.
 Iteration  1 RMS(Cart)=  0.00074828 RMS(Int)=  0.00000020
 Iteration  2 RMS(Cart)=  0.00000038 RMS(Int)=  0.00000001
 Variable       Old X    -DE/DX   Delta X   Delta X   Delta X     New X
                                 (Linear)    (Quad)   (Total)
    R1        2.75085   0.00000   0.00000  -0.00001  -0.00001   2.75084
    R2        2.07055   0.00000   0.00000   0.00001   0.00001   2.07055
    R3        2.07031   0.00000   0.00000   0.00001   0.00001   2.07032
    R4        2.07059   0.00000   0.00000   0.00000   0.00000   2.07059
    R5        2.27421   0.00000   0.00000   0.00000   0.00000   2.27422
    R6        2.75180  -0.00001   0.00000  -0.00002  -0.00002   2.75179
    R7        2.93549   0.00001   0.00000   0.00004   0.00004   2.93553
    R8        2.07383   0.00001   0.00000   0.00002   0.00002   2.07385
    R9        2.07418   0.00000   0.00000   0.00001   0.00001   2.07419
   R10        2.63876  -0.00003   0.00000  -0.00006  -0.00006   2.63870
   R11        2.89825  -0.00004   0.00000  -0.00014  -0.00014   2.89811
   R12        2.08486   0.00001   0.00000   0.00002   0.00002   2.08488
   R13        1.83634   0.00000   0.00000  -0.00001  -0.00001   1.83634
   R14        2.85536  -0.00001   0.00000  -0.00003  -0.00003   2.85533
   R15        2.29263   0.00002   0.00000   0.00002   0.00002   2.29264
   R16        2.06708   0.00001   0.00000   0.00002   0.00002   2.06710
   R17        2.07205   0.00001   0.00000   0.00002   0.00002   2.07207
   R18        2.06136   0.00000   0.00000  -0.00001  -0.00001   2.06135
    A1        1.94546   0.00000   0.00000   0.00000   0.00000   1.94546
    A2        1.93998   0.00000   0.00000   0.00000   0.00000   1.93997
    A3        1.94236   0.00000   0.00000   0.00000   0.00000   1.94236
    A4        1.87822   0.00000   0.00000   0.00000   0.00000   1.87822
    A5        1.87718   0.00000   0.00000   0.00000   0.00000   1.87718
    A6        1.87744   0.00000   0.00000   0.00000   0.00000   1.87744
    A7        1.96195   0.00000   0.00000   0.00000   0.00000   1.96194
    A8        1.91418   0.00000   0.00000   0.00004   0.00004   1.91422
    A9        1.92462   0.00000   0.00000   0.00002   0.00002   1.92465
   A10        1.90977  -0.00001   0.00000  -0.00006  -0.00006   1.90970
   A11        1.88188   0.00000   0.00000   0.00000   0.00000   1.88188
   A12        1.86887   0.00000   0.00000   0.00001   0.00001   1.86888
   A13        1.93520   0.00001   0.00000   0.00003   0.00003   1.93523
   A14        1.94079  -0.00001   0.00000  -0.00006  -0.00006   1.94073
   A15        1.87659   0.00000   0.00000   0.00003   0.00003   1.87661
   A16        1.91699   0.00000   0.00000  -0.00004  -0.00004   1.91695
   A17        1.92351   0.00000   0.00000   0.00001   0.00001   1.92352
   A18        1.86928   0.00001   0.00000   0.00004   0.00004   1.86932
   A19        1.83274  -0.00001   0.00000  -0.00008  -0.00008   1.83266
   A20        2.07730  -0.00002   0.00000  -0.00006  -0.00006   2.07724
   A21        2.07144   0.00000   0.00000   0.00001   0.00001   2.07145
   A22        2.13444   0.00001   0.00000   0.00005   0.00005   2.13449
   A23        1.94802   0.00000   0.00000   0.00001   0.00001   1.94803
   A24        1.91122  -0.00001   0.00000  -0.00005  -0.00005   1.91117
   A25        1.91293   0.00000   0.00000   0.00000   0.00000   1.91293
   A26        1.87239   0.00000   0.00000  -0.00005  -0.00005   1.87234
   A27        1.92618   0.00000   0.00000   0.00005   0.00005   1.92623
   A28        1.89186   0.00001   0.00000   0.00005   0.00005   1.89191
   A29        3.13704   0.00000   0.00000   0.00000   0.00000   3.13704
   A30        3.13627   0.00000   0.00000  -0.00010  -0.00010   3.13616
   A31        3.15334   0.00000   0.00000   0.00000   0.00000   3.15334
   A32        3.12456   0.00000   0.00000  -0.00006  -0.00006   3.12450
    D1       -1.42919   0.00000   0.00000  -0.00104  -0.00104  -1.43023
    D2        0.69532   0.00000   0.00000  -0.00112  -0.00112   0.69420
    D3        2.75393   0.00000   0.00000  -0.00103  -0.00103   2.75290
    D4        0.66400   0.00000   0.00000  -0.00107  -0.00107   0.66293
    D5        2.78851   0.00000   0.00000  -0.00115  -0.00115   2.78736
    D6       -1.43608   0.00000   0.00000  -0.00105  -0.00105  -1.43713
    D7        2.75514   0.00000   0.00000  -0.00107  -0.00107   2.75407
    D8       -1.40353  -0.00001   0.00000  -0.00115  -0.00115  -1.40468
    D9        0.65507   0.00000   0.00000  -0.00105  -0.00105   0.65402
   D10       -1.07023   0.00000   0.00000  -0.00034  -0.00034  -1.07057
   D11        3.07472   0.00000   0.00000  -0.00026  -0.00026   3.07446
   D12        1.03357   0.00000   0.00000  -0.00029  -0.00029   1.03329
   D13        3.08172   0.00000   0.00000  -0.00034  -0.00034   3.08138
   D14        0.94348   0.00000   0.00000  -0.00026  -0.00026   0.94322
   D15       -1.09766   0.00000   0.00000  -0.00029  -0.00029  -1.09795
   D16        1.05480   0.00000   0.00000  -0.00032  -0.00032   1.05449
   D17       -1.08343   0.00000   0.00000  -0.00024  -0.00024  -1.08367
   D18       -3.12458   0.00000   0.00000  -0.00026  -0.00026  -3.12484
   D19       -2.11190   0.00000   0.00000   0.00005   0.00005  -2.11185
   D20        0.04010   0.00000   0.00000  -0.00004  -0.00004   0.04006
   D21        2.09555   0.00000   0.00000  -0.00001  -0.00001   2.09554
   D22       -1.03682   0.00001   0.00000   0.00154   0.00154  -1.03528
   D23        2.10875   0.00000   0.00000   0.00085   0.00085   2.10960
   D24        3.09765   0.00000   0.00000   0.00158   0.00158   3.09922
   D25       -0.03996   0.00000   0.00000   0.00088   0.00088  -0.03908
   D26        1.00878   0.00001   0.00000   0.00156   0.00156   1.01034
   D27       -2.12883   0.00000   0.00000   0.00087   0.00087  -2.12796
   D28       -0.67635   0.00000   0.00000  -0.00058  -0.00058  -0.67694
   D29        1.39430  -0.00001   0.00000  -0.00068  -0.00068   1.39362
   D30       -2.81569   0.00000   0.00000  -0.00065  -0.00065  -2.81634
   D31        2.46111   0.00000   0.00000   0.00013   0.00013   2.46124
   D32       -1.75143   0.00000   0.00000   0.00004   0.00004  -1.75139
   D33        0.32177   0.00000   0.00000   0.00006   0.00006   0.32184
         Item               Value     Threshold  Converged?
 Maximum Force            0.000040     0.000450     YES
 RMS     Force            0.000007     0.000300     YES
 Maximum Displacement     0.001888     0.001800     NO 
 RMS     Displacement     0.000748     0.001200     YES
 Predicted change in Energy=-4.027663D-08
 GradGradGradGradGradGradGradGradGradGradGradGradGradGradGradGradGradGrad

                          Input orientation:                          
 ---------------------------------------------------------------------
 Center     Atomic      Atomic             Coordinates (Angstroms)
 Number     Number       Type             X           Y           Z
 ---------------------------------------------------------------------
      1          6           0        1.588810    0.167146    0.133073
      2          6           0        0.138123    0.048346    0.113024
      3          6           0       -1.060991   -0.050180    0.085750
      4          6           0       -2.510679   -0.186248    0.066891
      5          6           0       -2.965741   -1.671095    0.031481
      6          8           0       -2.500601   -2.306824   -1.121454
      7          6           0       -4.493204   -1.784885    0.108162
      8          6           0       -5.211447   -1.212946    1.308187
      9          8           0       -5.082358   -2.335663   -0.798164
     10          1           0        1.987596    0.039921    1.145654
     11          1           0        2.056389   -0.590782   -0.505032
     12          1           0        1.912558    1.149466   -0.228613
     13          1           0       -2.939516    0.305838    0.949112
     14          1           0       -2.928209    0.314260   -0.816240
     15          1           0       -2.558065   -2.164962    0.929871
     16          1           0       -3.300481   -2.617147   -1.577727
     17          1           0       -4.652422   -1.385647    2.232415
     18          1           0       -5.316574   -0.128024    1.189085
     19          1           0       -6.208454   -1.649587    1.380362
 ---------------------------------------------------------------------
                    Distance matrix (angstroms):
                    1          2          3          4          5
     1  C    0.000000
     2  C    1.455682   0.000000
     3  C    2.659119   1.203463   0.000000
     4  C    4.115226   2.659570   1.456183   0.000000
     5  C    4.912574   3.549238   2.501676   1.553417   0.000000
     6  O    4.941422   3.746148   2.936369   2.430866   1.396341
     7  C    6.387640   4.980958   3.845750   2.547105   1.533614
     8  C    7.037687   5.624692   4.480253   3.144689   2.623561
     9  O    7.185801   5.810953   4.709154   3.461479   2.368550
    10  H    1.095690   2.118241   3.228838   4.631345   5.357658
    11  H    1.095565   2.114291   3.218592   4.620483   5.164951
    12  H    1.095711   2.116082   3.221795   4.629955   5.641011
    13  H    4.603357   3.199563   2.097856   1.097434   2.179678
    14  H    4.618041   3.215063   2.105447   1.097616   2.159090
    15  H    4.823918   3.582652   2.725082   2.159233   1.103272
    16  H    5.880841   4.667706   3.791014   3.039379   1.896475
    17  H    6.765456   5.431158   4.392041   3.273395   2.787559
    18  H    6.991897   5.562619   4.396976   3.022541   3.040975
    19  H    8.102690   6.690901   5.543510   4.188090   3.512140
                    6          7          8          9         10
     6  O    0.000000
     7  C    2.398925   0.000000
     8  C    3.801106   1.510975   0.000000
     9  O    2.602079   1.213214   2.390371   0.000000
    10  H    5.548955   6.812273   7.309056   7.707533   0.000000
    11  H    4.908252   6.685735   7.516402   7.354743   1.768412
    12  H    5.676185   7.053908   7.661213   7.835774   1.767861
    13  H    3.362423   2.737200   2.756322   3.823908   4.938195
    14  H    2.673216   2.776713   3.472567   3.415080   5.299946
    15  H    2.057028   2.136452   2.844274   3.063871   5.056787
    16  H    0.971747   2.226538   3.735247   1.965207   6.514642
    17  H    4.089907   2.167300   1.093861   3.204963   6.877727
    18  H    4.244463   2.142783   1.096492   2.979545   7.306229
    19  H    4.520975   2.139832   1.090820   2.546521   8.371664
                   11         12         13         14         15
    11  H    0.000000
    12  H    1.767925   0.000000
    13  H    5.279918   5.063730   0.000000
    14  H    5.075645   4.947312   1.765408   0.000000
    15  H    5.082339   5.684539   2.500146   3.054906   0.000000
    16  H    5.826910   6.571396   3.880599   3.051490   2.653998
    17  H    7.289278   7.455362   2.728010   3.893185   2.586559
    18  H    7.579233   7.476777   2.428215   3.149798   3.438849
    19  H    8.543033   8.739241   3.833487   4.409281   3.714013
                   16         17         18         19
    16  H    0.000000
    17  H    4.226290   0.000000
    18  H    4.232684   1.763874   0.000000
    19  H    4.259434   1.793570   1.774033   0.000000
 Stoichiometry    C7H10O2
 Framework group  C1[X(C7H10O2)]
 Deg. of freedom    51
 Full point group                 C1      NOp   1
 Largest Abelian subgroup         C1      NOp   1
 Largest concise Abelian subgroup C1      NOp   1
                         Standard orientation:                         
 ---------------------------------------------------------------------
 Center     Atomic      Atomic             Coordinates (Angstroms)
 Number     Number       Type             X           Y           Z
 ---------------------------------------------------------------------
      1          6           0        4.260346   -0.017849   -0.225708
      2          6           0        2.849124   -0.229455    0.061843
      3          6           0        1.682617   -0.396142    0.306384
      4          6           0        0.266759   -0.597569    0.580686
      5          6           0       -0.642688    0.268513   -0.333596
      6          8           0       -0.397787    1.628691   -0.134331
      7          6           0       -2.125779   -0.034650   -0.087619
      8          6           0       -2.631217   -1.442551   -0.300680
      9          8           0       -2.853437    0.868346    0.268749
     10          1           0        4.588190   -0.613463   -1.084950
     11          1           0        4.463781    1.034066   -0.454513
     12          1           0        4.886739   -0.297628    0.628656
     13          1           0        0.012166   -1.657059    0.450200
     14          1           0        0.040506   -0.337641    1.622803
     15          1           0       -0.423748   -0.009070   -1.378690
     16          1           0       -1.251125    1.999526    0.146005
     17          1           0       -2.165633   -1.910087   -1.173132
     18          1           0       -2.379700   -2.057679    0.571473
     19          1           0       -3.716354   -1.429045   -0.411059
 ---------------------------------------------------------------------
 Rotational constants (GHZ):      4.0951907      0.6876841      0.6149534
 Standard basis: 6-31G(2df,p) (6D, 7F)
 There are   329 symmetry adapted cartesian basis functions of A   symmetry.
 There are   302 symmetry adapted basis functions of A   symmetry.
   302 basis functions,   466 primitive gaussians,   329 cartesian basis functions
    34 alpha electrons       34 beta electrons
       nuclear repulsion energy       416.3996154713 Hartrees.
 NAtoms=   19 NActive=   19 NUniq=   19 SFac= 1.00D+00 NAtFMM=   60 NAOKFM=F Big=F
 Integral buffers will be    131072 words long.
 Raffenetti 2 integral format.
 Two-electron integral symmetry is turned on.
 One-electron integrals computed using PRISM.
 NBasis=   302 RedAO= T EigKep=  6.34D-05  NBF=   302
 NBsUse=   302 1.00D-06 EigRej= -1.00D+00 NBFU=   302
 Initial guess from the checkpoint file:  "/scratch/puck/g09_052090f3-fc81-4d07-9d62-a60cebce1cd2/Gau-76377.chk"
 B after Tr=     0.000000    0.000000    0.000000
         Rot=    1.000000   -0.000025    0.000009   -0.000039 Ang=  -0.01 deg.
 Requested convergence on RMS density matrix=1.00D-08 within 128 cycles.
 Requested convergence on MAX density matrix=1.00D-06.
 Requested convergence on             energy=1.00D-06.
 No special actions if energy rises.
 SCF Done:  E(RB3LYP) =  -423.179629130     A.U. after    7 cycles
            NFock=  7  Conv=0.37D-08     -V/T= 2.0075
 Calling FoFJK, ICntrl=      2127 FMM=F ISym2X=0 I1Cent= 0 IOpClX= 0 NMat=1 NMatS=1 NMatT=0.
 ***** Axes restored to original set *****
 -------------------------------------------------------------------
 Center     Atomic                   Forces (Hartrees/Bohr)
 Number     Number              X              Y              Z
 -------------------------------------------------------------------
      1        6          -0.000001308    0.000003385   -0.000000149
      2        6           0.000000885    0.000001087   -0.000001144
      3        6          -0.000003949   -0.000003820   -0.000002429
      4        6           0.000010657    0.000011685    0.000008653
      5        6          -0.000014104   -0.000008389   -0.000016011
      6        8           0.000009168    0.000002476    0.000006150
      7        6           0.000003226    0.000062845   -0.000016037
      8        6          -0.000009257   -0.000034172    0.000010110
      9        8          -0.000004525   -0.000016934    0.000004320
     10        1          -0.000000309    0.000005574   -0.000000523
     11        1          -0.000000290   -0.000000553    0.000001679
     12        1          -0.000000553    0.000000200   -0.000004831
     13        1           0.000005268   -0.000004713   -0.000001666
     14        1          -0.000002347    0.000001255    0.000001784
     15        1           0.000004089   -0.000001028    0.000003297
     16        1          -0.000001249   -0.000013890    0.000002216
     17        1          -0.000000930    0.000000075    0.000004204
     18        1           0.000004838   -0.000004268   -0.000003225
     19        1           0.000000690   -0.000000815    0.000003602
 -------------------------------------------------------------------
 Cartesian Forces:  Max     0.000062845 RMS     0.000011366

 GradGradGradGradGradGradGradGradGradGradGradGradGradGradGradGradGradGrad
 Berny optimization.
 Using GEDIIS/GDIIS optimizer.
 FormGI is forming the generalized inverse of G from B-inverse, IUseBI=4.
 Internal  Forces:  Max     0.000019568 RMS     0.000005785
 Search for a local minimum.
 Step number   2 out of a maximum of   93
 All quantities printed in internal units (Hartrees-Bohrs-Radians)
 Mixed Optimization -- En-DIIS/RFO-DIIS
 Swapping is turned off.
 Update second derivatives using D2CorX and points    1    2
 DE=  2.15D-09 DEPred=-4.03D-08 R=-5.34D-02
 Trust test=-5.34D-02 RLast= 4.71D-03 DXMaxT set to 1.50D-01
 ITU= -1  0
     Eigenvalues ---    0.00127   0.00232   0.00357   0.00605   0.00991
     Eigenvalues ---    0.01081   0.01273   0.01972   0.03272   0.03678
     Eigenvalues ---    0.03887   0.05005   0.05048   0.05599   0.06671
     Eigenvalues ---    0.07060   0.07228   0.07444   0.07803   0.09122
     Eigenvalues ---    0.12555   0.15784   0.16000   0.16000   0.16000
     Eigenvalues ---    0.16000   0.16000   0.16204   0.17617   0.20368
     Eigenvalues ---    0.21931   0.24997   0.25658   0.27039   0.28849
     Eigenvalues ---    0.31216   0.33265   0.33942   0.34010   0.34099
     Eigenvalues ---    0.34160   0.34162   0.34176   0.34348   0.34711
     Eigenvalues ---    0.37403   0.37508   0.45914   0.53055   0.98215
     Eigenvalues ---    1.03099
 En-DIIS/RFO-DIIS IScMMF=        0 using points:     2    1
 RFO step:  Lambda=-1.21207270D-08.
 DidBck=T Rises=F RFO-DIIS coefs:    0.53614    0.46386
 Iteration  1 RMS(Cart)=  0.00063544 RMS(Int)=  0.00000041
 Iteration  2 RMS(Cart)=  0.00000043 RMS(Int)=  0.00000003
 Variable       Old X    -DE/DX   Delta X   Delta X   Delta X     New X
                                 (Linear)    (Quad)   (Total)
    R1        2.75084   0.00000   0.00000  -0.00001  -0.00001   2.75083
    R2        2.07055   0.00000   0.00000   0.00001   0.00001   2.07056
    R3        2.07032   0.00000   0.00000   0.00001   0.00001   2.07032
    R4        2.07059   0.00000   0.00000   0.00000   0.00000   2.07060
    R5        2.27422   0.00000   0.00000   0.00000   0.00000   2.27422
    R6        2.75179   0.00000   0.00001  -0.00003  -0.00002   2.75177
    R7        2.93553   0.00001  -0.00002   0.00008   0.00006   2.93559
    R8        2.07385  -0.00001  -0.00001   0.00001   0.00001   2.07386
    R9        2.07419   0.00000   0.00000   0.00001   0.00001   2.07420
   R10        2.63870   0.00000   0.00003  -0.00007  -0.00005   2.63865
   R11        2.89811   0.00001   0.00006  -0.00017  -0.00011   2.89800
   R12        2.08488   0.00000  -0.00001   0.00004   0.00003   2.08491
   R13        1.83634   0.00000   0.00000  -0.00001   0.00000   1.83633
   R14        2.85533   0.00000   0.00001  -0.00004  -0.00003   2.85530
   R15        2.29264   0.00001  -0.00001   0.00003   0.00002   2.29266
   R16        2.06710   0.00000  -0.00001   0.00003   0.00002   2.06712
   R17        2.07207   0.00000  -0.00001   0.00003   0.00002   2.07208
   R18        2.06135   0.00000   0.00000  -0.00001  -0.00001   2.06134
    A1        1.94546   0.00000   0.00000   0.00000   0.00000   1.94547
    A2        1.93997   0.00000   0.00000  -0.00001  -0.00001   1.93997
    A3        1.94236   0.00000   0.00000   0.00000   0.00000   1.94236
    A4        1.87822   0.00000   0.00000   0.00000   0.00000   1.87821
    A5        1.87718   0.00000   0.00000   0.00001   0.00000   1.87719
    A6        1.87744   0.00000   0.00000   0.00000   0.00000   1.87744
    A7        1.96194   0.00000   0.00000  -0.00001  -0.00001   1.96193
    A8        1.91422   0.00000  -0.00002   0.00005   0.00004   1.91425
    A9        1.92465   0.00000  -0.00001   0.00003   0.00002   1.92466
   A10        1.90970   0.00000   0.00003  -0.00007  -0.00004   1.90966
   A11        1.88188   0.00000   0.00000  -0.00002  -0.00002   1.88186
   A12        1.86888   0.00000   0.00000   0.00002   0.00002   1.86890
   A13        1.93523   0.00000  -0.00001   0.00006   0.00004   1.93528
   A14        1.94073   0.00001   0.00003  -0.00003   0.00000   1.94072
   A15        1.87661   0.00000  -0.00001   0.00001   0.00000   1.87661
   A16        1.91695   0.00000   0.00002  -0.00004  -0.00002   1.91693
   A17        1.92352  -0.00001  -0.00001  -0.00005  -0.00006   1.92347
   A18        1.86932   0.00000  -0.00002   0.00005   0.00003   1.86935
   A19        1.83266   0.00001   0.00004  -0.00009  -0.00005   1.83261
   A20        2.07724   0.00002   0.00003  -0.00005  -0.00002   2.07722
   A21        2.07145   0.00000  -0.00001   0.00000   0.00000   2.07145
   A22        2.13449  -0.00001  -0.00002   0.00004   0.00002   2.13451
   A23        1.94803   0.00001   0.00000   0.00003   0.00003   1.94806
   A24        1.91117  -0.00001   0.00002  -0.00011  -0.00009   1.91108
   A25        1.91293   0.00000   0.00000   0.00002   0.00002   1.91295
   A26        1.87234   0.00000   0.00002  -0.00008  -0.00005   1.87228
   A27        1.92623   0.00000  -0.00002   0.00006   0.00004   1.92628
   A28        1.89191   0.00000  -0.00002   0.00007   0.00005   1.89196
   A29        3.13704   0.00000   0.00000   0.00003   0.00003   3.13707
   A30        3.13616   0.00001   0.00005   0.00005   0.00009   3.13626
   A31        3.15334   0.00000   0.00000   0.00000   0.00000   3.15334
   A32        3.12450   0.00000   0.00003  -0.00002   0.00001   3.12451
    D1       -1.43023   0.00000   0.00048  -0.00204  -0.00156  -1.43178
    D2        0.69420   0.00000   0.00052  -0.00211  -0.00159   0.69261
    D3        2.75290   0.00000   0.00048  -0.00205  -0.00158   2.75132
    D4        0.66293   0.00000   0.00049  -0.00203  -0.00153   0.66140
    D5        2.78736   0.00000   0.00053  -0.00209  -0.00156   2.78580
    D6       -1.43713   0.00000   0.00049  -0.00204  -0.00155  -1.43868
    D7        2.75407   0.00000   0.00050  -0.00203  -0.00153   2.75254
    D8       -1.40468   0.00000   0.00053  -0.00209  -0.00156  -1.40624
    D9        0.65402   0.00000   0.00049  -0.00204  -0.00155   0.65247
   D10       -1.07057   0.00001   0.00016  -0.00012   0.00004  -1.07054
   D11        3.07446   0.00000   0.00012  -0.00009   0.00003   3.07449
   D12        1.03329   0.00000   0.00013  -0.00014  -0.00001   1.03328
   D13        3.08138   0.00001   0.00016  -0.00013   0.00003   3.08140
   D14        0.94322   0.00000   0.00012  -0.00010   0.00002   0.94324
   D15       -1.09795   0.00000   0.00013  -0.00015  -0.00002  -1.09797
   D16        1.05449   0.00001   0.00015  -0.00011   0.00004   1.05452
   D17       -1.08367   0.00000   0.00011  -0.00008   0.00003  -1.08364
   D18       -3.12484   0.00000   0.00012  -0.00013  -0.00001  -3.12485
   D19       -2.11185  -0.00001  -0.00002  -0.00022  -0.00024  -2.11209
   D20        0.04006   0.00000   0.00002  -0.00025  -0.00023   0.03983
   D21        2.09554  -0.00001   0.00001  -0.00023  -0.00023   2.09531
   D22       -1.03528  -0.00001  -0.00071   0.00005  -0.00067  -1.03595
   D23        2.10960   0.00000  -0.00039   0.00090   0.00051   2.11011
   D24        3.09922  -0.00002  -0.00073   0.00002  -0.00071   3.09852
   D25       -0.03908   0.00000  -0.00041   0.00088   0.00047  -0.03861
   D26        1.01034  -0.00001  -0.00072   0.00007  -0.00065   1.00969
   D27       -2.12796   0.00000  -0.00040   0.00093   0.00053  -2.12744
   D28       -0.67694   0.00001   0.00027   0.00010   0.00038  -0.67656
   D29        1.39362   0.00001   0.00031  -0.00004   0.00027   1.39389
   D30       -2.81634   0.00001   0.00030  -0.00001   0.00029  -2.81605
   D31        2.46124  -0.00001  -0.00006  -0.00078  -0.00085   2.46039
   D32       -1.75139  -0.00001  -0.00002  -0.00093  -0.00095  -1.75234
   D33        0.32184  -0.00001  -0.00003  -0.00090  -0.00093   0.32091
         Item               Value     Threshold  Converged?
 Maximum Force            0.000020     0.000450     YES
 RMS     Force            0.000006     0.000300     YES
 Maximum Displacement     0.002722     0.001800     NO 
 RMS     Displacement     0.000635     0.001200     YES
 Predicted change in Energy=-5.274371D-08
 GradGradGradGradGradGradGradGradGradGradGradGradGradGradGradGradGradGrad

                          Input orientation:                          
 ---------------------------------------------------------------------
 Center     Atomic      Atomic             Coordinates (Angstroms)
 Number     Number       Type             X           Y           Z
 ---------------------------------------------------------------------
      1          6           0        1.588869    0.167090    0.133174
      2          6           0        0.138184    0.048315    0.113016
      3          6           0       -1.060933   -0.050158    0.085669
      4          6           0       -2.510628   -0.186036    0.066777
      5          6           0       -2.965875   -1.670855    0.031289
      6          8           0       -2.500786   -2.306637   -1.121606
      7          6           0       -4.493297   -1.784456    0.107892
      8          6           0       -5.211411   -1.213241    1.308323
      9          8           0       -5.082432   -2.335607   -0.798232
     10          1           0        1.987455    0.041361    1.146024
     11          1           0        2.056541   -0.591814   -0.503707
     12          1           0        1.912727    1.148854   -0.229923
     13          1           0       -2.939452    0.306026    0.949021
     14          1           0       -2.928094    0.314549   -0.816347
     15          1           0       -2.558259   -2.164820    0.929672
     16          1           0       -3.300705   -2.617022   -1.577764
     17          1           0       -4.652228   -1.386337    2.232393
     18          1           0       -5.316561   -0.128253    1.189766
     19          1           0       -6.208379   -1.649973    1.380402
 ---------------------------------------------------------------------
                    Distance matrix (angstroms):
                    1          2          3          4          5
     1  C    0.000000
     2  C    1.455679   0.000000
     3  C    2.659117   1.203464   0.000000
     4  C    4.115214   2.659561   1.456172   0.000000
     5  C    4.912648   3.549282   2.501683   1.553447   0.000000
     6  O    4.941566   3.746232   2.936390   2.430906   1.396315
     7  C    6.387637   4.980932   3.845699   2.547079   1.533555
     8  C    7.037762   5.624806   4.480414   3.144966   2.623482
     9  O    7.185908   5.811049   4.709248   3.461658   2.368505
    10  H    1.095693   2.118243   3.228838   4.631331   5.358152
    11  H    1.095568   2.114286   3.218602   4.620513   5.164805
    12  H    1.095712   2.116081   3.221783   4.629907   5.640900
    13  H    4.603325   3.199556   2.097874   1.097437   2.179677
    14  H    4.618039   3.215067   2.105453   1.097620   2.159107
    15  H    4.823991   3.582694   2.725091   2.159269   1.103287
    16  H    5.881030   4.667838   3.791091   3.039478   1.896416
    17  H    6.765438   5.431209   4.392175   3.273693   2.787400
    18  H    6.992037   5.562806   4.397215   3.022864   3.040957
    19  H    8.102739   6.690987   5.543640   4.188327   3.512033
                    6          7          8          9         10
     6  O    0.000000
     7  C    2.398842   0.000000
     8  C    3.800994   1.510962   0.000000
     9  O    2.601982   1.213223   2.390379   0.000000
    10  H    5.549733   6.812596   7.309174   7.708009   0.000000
    11  H    4.908324   6.685568   7.516165   7.354760   1.768416
    12  H    5.675792   7.053763   7.661529   7.835605   1.767867
    13  H    3.362430   2.737160   2.756641   3.824067   4.937941
    14  H    2.673274   2.776671   3.473024   3.415382   5.299825
    15  H    2.056978   2.136438   2.843957   3.063702   5.057426
    16  H    0.971745   2.226405   3.735089   1.965049   6.515416
    17  H    4.089617   2.167316   1.093871   3.204821   6.877784
    18  H    4.244573   2.142714   1.096500   2.979827   7.306116
    19  H    4.520786   2.139831   1.090815   2.546428   8.371812
                   11         12         13         14         15
    11  H    0.000000
    12  H    1.767928   0.000000
    13  H    5.279818   5.063982   0.000000
    14  H    5.076004   4.947070   1.765425   0.000000
    15  H    5.081860   5.684612   2.500153   3.054935   0.000000
    16  H    5.827104   6.571025   3.880638   3.051672   2.653854
    17  H    7.288696   7.455792   2.728505   3.893645   2.586083
    18  H    7.579273   7.477241   2.428416   3.150451   3.438529
    19  H    8.542744   8.739505   3.833785   4.409685   3.713705
                   16         17         18         19
    16  H    0.000000
    17  H    4.225931   0.000000
    18  H    4.232832   1.763855   0.000000
    19  H    4.259166   1.793599   1.774066   0.000000
 Stoichiometry    C7H10O2
 Framework group  C1[X(C7H10O2)]
 Deg. of freedom    51
 Full point group                 C1      NOp   1
 Largest Abelian subgroup         C1      NOp   1
 Largest concise Abelian subgroup C1      NOp   1
                         Standard orientation:                         
 ---------------------------------------------------------------------
 Center     Atomic      Atomic             Coordinates (Angstroms)
 Number     Number       Type             X           Y           Z
 ---------------------------------------------------------------------
      1          6           0        4.260388   -0.017869   -0.225845
      2          6           0        2.849175   -0.229374    0.061808
      3          6           0        1.682680   -0.396010    0.306446
      4          6           0        0.266876   -0.597501    0.580918
      5          6           0       -0.642731    0.268420   -0.333408
      6          8           0       -0.397913    1.628627   -0.134422
      7          6           0       -2.125722   -0.034769   -0.087227
      8          6           0       -2.631259   -1.442532   -0.300870
      9          8           0       -2.853500    0.868367    0.268574
     10          1           0        4.588543   -0.614810   -1.084052
     11          1           0        4.463578    1.033726   -0.456350
     12          1           0        4.886708   -0.296067    0.629090
     13          1           0        0.012299   -1.657015    0.450572
     14          1           0        0.040690   -0.337439    1.623021
     15          1           0       -0.423862   -0.009283   -1.378501
     16          1           0       -1.251317    1.999444    0.145727
     17          1           0       -2.165633   -1.909813   -1.173450
     18          1           0       -2.379755   -2.057965    0.571081
     19          1           0       -3.716386   -1.428919   -0.411279
 ---------------------------------------------------------------------
 Rotational constants (GHZ):      4.0953170      0.6876612      0.6149431
 Standard basis: 6-31G(2df,p) (6D, 7F)
 There are   329 symmetry adapted cartesian basis functions of A   symmetry.
 There are   302 symmetry adapted basis functions of A   symmetry.
   302 basis functions,   466 primitive gaussians,   329 cartesian basis functions
    34 alpha electrons       34 beta electrons
       nuclear repulsion energy       416.3993941495 Hartrees.
 NAtoms=   19 NActive=   19 NUniq=   19 SFac= 1.00D+00 NAtFMM=   60 NAOKFM=F Big=F
 Integral buffers will be    131072 words long.
 Raffenetti 2 integral format.
 Two-electron integral symmetry is turned on.
 One-electron integrals computed using PRISM.
 NBasis=   302 RedAO= T EigKep=  6.34D-05  NBF=   302
 NBsUse=   302 1.00D-06 EigRej= -1.00D+00 NBFU=   302
 Initial guess from the checkpoint file:  "/scratch/puck/g09_052090f3-fc81-4d07-9d62-a60cebce1cd2/Gau-76377.chk"
 B after Tr=     0.000000    0.000000    0.000000
         Rot=    1.000000    0.000047   -0.000002   -0.000007 Ang=   0.01 deg.
 Requested convergence on RMS density matrix=1.00D-08 within 128 cycles.
 Requested convergence on MAX density matrix=1.00D-06.
 Requested convergence on             energy=1.00D-06.
 No special actions if energy rises.
 SCF Done:  E(RB3LYP) =  -423.179629164     A.U. after    6 cycles
            NFock=  6  Conv=0.74D-08     -V/T= 2.0075
 Calling FoFJK, ICntrl=      2127 FMM=F ISym2X=0 I1Cent= 0 IOpClX= 0 NMat=1 NMatS=1 NMatT=0.
 ***** Axes restored to original set *****
 -------------------------------------------------------------------
 Center     Atomic                   Forces (Hartrees/Bohr)
 Number     Number              X              Y              Z
 -------------------------------------------------------------------
      1        6           0.000001932   -0.000000258   -0.000000713
      2        6          -0.000003463    0.000002185   -0.000000796
      3        6           0.000002863    0.000005512    0.000000999
      4        6           0.000006747   -0.000009648    0.000002332
      5        6           0.000012276    0.000038117   -0.000023984
      6        8           0.000017019    0.000005889   -0.000010874
      7        6          -0.000005559   -0.000082607    0.000057487
      8        6          -0.000011704    0.000023887   -0.000014073
      9        8          -0.000007414    0.000033497   -0.000011169
     10        1          -0.000000940    0.000005952   -0.000002229
     11        1          -0.000000077    0.000000971    0.000002594
     12        1          -0.000001061   -0.000000646   -0.000004484
     13        1           0.000007198   -0.000003318   -0.000002956
     14        1          -0.000000028    0.000001155    0.000004876
     15        1          -0.000011623    0.000007099    0.000003473
     16        1          -0.000000370   -0.000018632   -0.000005205
     17        1          -0.000000603   -0.000005032   -0.000007438
     18        1          -0.000005334   -0.000003461    0.000009088
     19        1           0.000000143   -0.000000662    0.000003074
 -------------------------------------------------------------------
 Cartesian Forces:  Max     0.000082607 RMS     0.000016831

 GradGradGradGradGradGradGradGradGradGradGradGradGradGradGradGradGradGrad
 Berny optimization.
 Using GEDIIS/GDIIS optimizer.
 FormGI is forming the generalized inverse of G from B-inverse, IUseBI=4.
 Internal  Forces:  Max     0.000036455 RMS     0.000009049
 Search for a local minimum.
 Step number   3 out of a maximum of   93
 All quantities printed in internal units (Hartrees-Bohrs-Radians)
 Mixed Optimization -- En-DIIS/RFO-DIIS
 Swapping is turned off.
 Update second derivatives using D2CorX and points    1    2    3
 DE= -3.38D-08 DEPred=-5.27D-08 R= 6.41D-01
 Trust test= 6.41D-01 RLast= 5.19D-03 DXMaxT set to 1.50D-01
 ITU=  0 -1  0
     Eigenvalues ---    0.00034   0.00233   0.00593   0.00704   0.01003
     Eigenvalues ---    0.01099   0.01851   0.02441   0.03273   0.03679
     Eigenvalues ---    0.03887   0.05020   0.05303   0.05554   0.06671
     Eigenvalues ---    0.07220   0.07243   0.07443   0.07804   0.09224
     Eigenvalues ---    0.12570   0.15992   0.16000   0.16000   0.16000
     Eigenvalues ---    0.16000   0.16201   0.16688   0.18251   0.21015
     Eigenvalues ---    0.21991   0.25010   0.25961   0.27191   0.31127
     Eigenvalues ---    0.32579   0.33387   0.33951   0.34039   0.34154
     Eigenvalues ---    0.34162   0.34175   0.34283   0.34708   0.35092
     Eigenvalues ---    0.37428   0.37520   0.47754   0.53302   0.98212
     Eigenvalues ---    1.03104
 En-DIIS/RFO-DIIS IScMMF=        0 using points:     3    2    1
 RFO step:  Lambda=-1.52641825D-08.
 DidBck=F Rises=F RFO-DIIS coefs:    0.87641    0.39404   -0.27045
 Iteration  1 RMS(Cart)=  0.00161340 RMS(Int)=  0.00000287
 Iteration  2 RMS(Cart)=  0.00000297 RMS(Int)=  0.00000001
 Iteration  3 RMS(Cart)=  0.00000000 RMS(Int)=  0.00000001
 Variable       Old X    -DE/DX   Delta X   Delta X   Delta X     New X
                                 (Linear)    (Quad)   (Total)
    R1        2.75083   0.00000   0.00000  -0.00001  -0.00001   2.75082
    R2        2.07056   0.00000   0.00000   0.00001   0.00001   2.07057
    R3        2.07032   0.00000   0.00000   0.00001   0.00001   2.07034
    R4        2.07060   0.00000   0.00000   0.00000   0.00001   2.07060
    R5        2.27422   0.00000   0.00000   0.00000   0.00000   2.27422
    R6        2.75177   0.00000   0.00000  -0.00005  -0.00005   2.75171
    R7        2.93559   0.00000   0.00000   0.00014   0.00015   2.93573
    R8        2.07386  -0.00001   0.00000   0.00001   0.00001   2.07387
    R9        2.07420   0.00000   0.00000   0.00002   0.00002   2.07422
   R10        2.63865   0.00002  -0.00001  -0.00011  -0.00012   2.63854
   R11        2.89800   0.00004  -0.00002  -0.00025  -0.00027   2.89773
   R12        2.08491  -0.00001   0.00000   0.00007   0.00007   2.08498
   R13        1.83633   0.00001   0.00000   0.00000  -0.00001   1.83633
   R14        2.85530   0.00001   0.00000  -0.00006  -0.00006   2.85524
   R15        2.29266   0.00000   0.00000   0.00005   0.00005   2.29271
   R16        2.06712  -0.00001   0.00000   0.00004   0.00004   2.06716
   R17        2.07208   0.00000   0.00000   0.00004   0.00004   2.07213
   R18        2.06134   0.00000   0.00000  -0.00003  -0.00003   2.06131
    A1        1.94547   0.00000   0.00000   0.00001   0.00001   1.94547
    A2        1.93997   0.00000   0.00000  -0.00001  -0.00001   1.93996
    A3        1.94236   0.00000   0.00000   0.00000   0.00000   1.94236
    A4        1.87821   0.00000   0.00000   0.00000   0.00000   1.87821
    A5        1.87719   0.00000   0.00000   0.00001   0.00001   1.87720
    A6        1.87744   0.00000   0.00000  -0.00001  -0.00001   1.87743
    A7        1.96193   0.00000   0.00000  -0.00001  -0.00001   1.96192
    A8        1.91425   0.00000   0.00001   0.00008   0.00009   1.91434
    A9        1.92466   0.00000   0.00000   0.00004   0.00004   1.92471
   A10        1.90966   0.00000  -0.00001  -0.00010  -0.00011   1.90955
   A11        1.88186   0.00000   0.00000  -0.00004  -0.00004   1.88182
   A12        1.86890   0.00000   0.00000   0.00004   0.00004   1.86894
   A13        1.93528  -0.00002   0.00000   0.00009   0.00010   1.93537
   A14        1.94072   0.00002  -0.00002   0.00002   0.00001   1.94073
   A15        1.87661   0.00000   0.00001  -0.00003  -0.00002   1.87659
   A16        1.91693   0.00001  -0.00001   0.00001   0.00000   1.91693
   A17        1.92347   0.00000   0.00001  -0.00012  -0.00011   1.92336
   A18        1.86935  -0.00001   0.00001   0.00002   0.00002   1.86937
   A19        1.83261   0.00002  -0.00001  -0.00009  -0.00010   1.83251
   A20        2.07722   0.00002  -0.00001  -0.00004  -0.00005   2.07716
   A21        2.07145   0.00000   0.00000   0.00000   0.00001   2.07146
   A22        2.13451  -0.00002   0.00001   0.00004   0.00005   2.13456
   A23        1.94806  -0.00001   0.00000   0.00002   0.00002   1.94808
   A24        1.91108   0.00002   0.00000  -0.00014  -0.00015   1.91093
   A25        1.91295   0.00000   0.00000   0.00004   0.00004   1.91299
   A26        1.87228   0.00000  -0.00001  -0.00014  -0.00015   1.87214
   A27        1.92628   0.00000   0.00001   0.00010   0.00011   1.92638
   A28        1.89196  -0.00001   0.00001   0.00012   0.00013   1.89208
   A29        3.13707   0.00000   0.00000   0.00003   0.00003   3.13710
   A30        3.13626   0.00000  -0.00004  -0.00004  -0.00008   3.13618
   A31        3.15334   0.00000   0.00000   0.00000   0.00000   3.15334
   A32        3.12451   0.00000  -0.00002   0.00001   0.00000   3.12451
    D1       -1.43178   0.00000  -0.00009  -0.00444  -0.00453  -1.43631
    D2        0.69261   0.00000  -0.00011  -0.00451  -0.00462   0.68799
    D3        2.75132   0.00000  -0.00008  -0.00439  -0.00447   2.74685
    D4        0.66140   0.00000  -0.00010  -0.00443  -0.00453   0.65687
    D5        2.78580   0.00000  -0.00012  -0.00450  -0.00462   2.78118
    D6       -1.43868   0.00000  -0.00009  -0.00438  -0.00447  -1.44315
    D7        2.75254   0.00000  -0.00010  -0.00446  -0.00456   2.74799
    D8       -1.40624   0.00000  -0.00012  -0.00453  -0.00465  -1.41089
    D9        0.65247   0.00000  -0.00009  -0.00441  -0.00450   0.64797
   D10       -1.07054   0.00001  -0.00010   0.00012   0.00003  -1.07051
   D11        3.07449  -0.00001  -0.00007   0.00003  -0.00005   3.07444
   D12        1.03328   0.00000  -0.00008   0.00001  -0.00007   1.03321
[...]
 One-electron integrals computed using PRISM.
 NBasis=   302 RedAO= T EigKep=  6.58D-05  NBF=   302
 NBsUse=   302 1.00D-06 EigRej= -1.00D+00 NBFU=   302
 Initial guess from the checkpoint file:  "/scratch/puck/g09_052090f3-fc81-4d07-9d62-a60cebce1cd2/Gau-76377.chk"
 B after Tr=     0.000000    0.000000    0.000000
         Rot=    1.000000   -0.000080    0.000142    0.000002 Ang=  -0.02 deg.
 ExpMin= 1.61D-01 ExpMax= 5.48D+03 ExpMxC= 8.25D+02 IAcc=1 IRadAn=         1 AccDes= 0.00D+00
 Harris functional with IExCor=  402 and IRadAn=       1 diagonalized for initial guess.
 HarFok:  IExCor=  402 AccDes= 0.00D+00 IRadAn=         1 IDoV= 1 UseB2=F ITyADJ=14
 ICtDFT=  3500011 ScaDFX=  1.000000  1.000000  1.000000  1.000000
 FoFCou: FMM=F IPFlag=           0 FMFlag=      100000 FMFlg1=           0
         NFxFlg=           0 DoJE=T BraDBF=F KetDBF=T FulRan=T
         wScrn=  0.000000 ICntrl=     500 IOpCl=  0 I1Cent=   200000004 NGrid=           0
         NMat0=    1 NMatS0=      1 NMatT0=    0 NMatD0=    1 NMtDS0=    0 NMtDT0=    0
 Petite list used in FoFCou.
 Requested convergence on RMS density matrix=1.00D-08 within 128 cycles.
 Requested convergence on MAX density matrix=1.00D-06.
 Requested convergence on             energy=1.00D-06.
 No special actions if energy rises.
 Integral accuracy reduced to 1.0D-05 until final iterations.
 Initial convergence to 1.0D-05 achieved.  Increase integral accuracy.
 SCF Done:  E(RB3LYP) =  -423.179519182     A.U. after   11 cycles
            NFock= 11  Conv=0.57D-08     -V/T= 2.0076
 Calling FoFJK, ICntrl=      2127 FMM=F ISym2X=0 I1Cent= 0 IOpClX= 0 NMat=1 NMatS=1 NMatT=0.
 ***** Axes restored to original set *****
 -------------------------------------------------------------------
 Center     Atomic                   Forces (Hartrees/Bohr)
 Number     Number              X              Y              Z
 -------------------------------------------------------------------
      1        6          -0.000087182    0.000016795   -0.000045710
      2        6          -0.014389404   -0.001228456   -0.000138722
      3        6           0.014404914    0.001261543    0.000208513
      4        6           0.000066359    0.000006787    0.000030235
      5        6          -0.000072691   -0.000063483   -0.000009474
      6        8          -0.000031964   -0.000228995    0.000127803
      7        6          -0.000039248    0.000115421    0.000004253
      8        6          -0.000004384    0.000051255   -0.000031138
      9        8           0.000031166   -0.000138047    0.000092237
     10        1           0.000000171   -0.000003378    0.000039871
     11        1           0.000004021   -0.000047405   -0.000003152
     12        1          -0.000006031    0.000042822   -0.000008201
     13        1          -0.000054472    0.000014757    0.000006402
     14        1           0.000045735    0.000022859   -0.000051348
     15        1           0.000138419   -0.000051021   -0.000101350
     16        1          -0.000008100    0.000237452   -0.000128924
     17        1           0.000016041    0.000023990   -0.000001481
     18        1          -0.000027536   -0.000000734   -0.000011635
     19        1           0.000014187   -0.000032161    0.000021821
 -------------------------------------------------------------------
 Cartesian Forces:  Max     0.014404914 RMS     0.002707962

 GradGradGradGradGradGradGradGradGradGradGradGradGradGradGradGradGradGrad
 Berny optimization.
 Using GEDIIS/GDIIS optimizer.
 FormGI is forming the generalized inverse of G from B-inverse, IUseBI=4.
 GSVD:  received Info=                   1 from GESDD.
 Internal  Forces:  Max     0.014528603 RMS     0.001595498
 Search for a local minimum.
 Step number  29 out of a maximum of   93
 All quantities printed in internal units (Hartrees-Bohrs-Radians)
 Mixed Optimization -- RFO/linear search
 Update second derivatives using D2CorX and points    1    2    3    4    5
                                                      6    7    8    9   11
                                                     12   13   14   15   16
                                                     17   18   19   20   21
                                                     22   23   24   25   26
                                                     27   28   29   10
 ITU=  0  0  0  0  0  0  0  0  0  0  0  0  0  0  0  0  0 -1 -1  0
 ITU=  1  0  0  0  0  0  0 -1  0
 Use linear search instead of GDIIS.
 Skip linear search -- no minimum in search direction.
 Steepest descent instead of Quadratic search.
 Steepest descent step scaled to max of 0.05000.
 Iteration  1 RMS(Cart)=  0.01051530 RMS(Int)=  0.00000324
 Iteration  2 RMS(Cart)=  0.00000415 RMS(Int)=  0.00000007
 Iteration  3 RMS(Cart)=  0.00000000 RMS(Int)=  0.00000007
 Variable       Old X    -DE/DX   Delta X   Delta X   Delta X     New X
                                 (Linear)    (Quad)   (Total)
    R1        2.75086  -0.00009   0.00000  -0.00030  -0.00030   2.75056
    R2        2.07051   0.00004   0.00000   0.00013   0.00013   2.07064
    R3        2.07031   0.00004   0.00000   0.00014   0.00014   2.07045
    R4        2.07056   0.00004   0.00000   0.00013   0.00013   2.07069
    R5        2.28769  -0.01453   0.00000  -0.05000  -0.05000   2.23769
    R6        2.75177  -0.00007   0.00000  -0.00023  -0.00023   2.75154
    R7        2.93515   0.00007   0.00000   0.00025   0.00025   2.93540
    R8        2.07381   0.00003   0.00000   0.00011   0.00011   2.07392
    R9        2.07425   0.00003   0.00000   0.00012   0.00012   2.07436
   R10        2.63859  -0.00002   0.00000  -0.00006  -0.00006   2.63853
   R11        2.89868   0.00001   0.00000   0.00004   0.00004   2.89872
   R12        2.08516  -0.00001   0.00000  -0.00003  -0.00003   2.08512
   R13        1.83631  -0.00001   0.00000  -0.00004  -0.00004   1.83627
   R14        2.85506   0.00000   0.00000   0.00000   0.00000   2.85506
   R15        2.29272  -0.00002   0.00000  -0.00008  -0.00008   2.29264
   R16        2.06754   0.00000   0.00000   0.00000   0.00000   2.06754
   R17        2.07182   0.00000   0.00000   0.00001   0.00001   2.07183
   R18        2.06116   0.00000   0.00000   0.00000   0.00000   2.06116
    A1        1.94579  -0.00002   0.00000  -0.00006  -0.00006   1.94573
    A2        1.93973  -0.00001   0.00000  -0.00004  -0.00004   1.93969
    A3        1.94229  -0.00001   0.00000  -0.00005  -0.00005   1.94224
    A4        1.87848   0.00001   0.00000   0.00004   0.00004   1.87853
    A5        1.87733   0.00001   0.00000   0.00004   0.00004   1.87737
    A6        1.87700   0.00002   0.00000   0.00008   0.00008   1.87708
    A7        1.96183   0.00003   0.00000   0.00011   0.00011   1.96194
    A8        1.91412  -0.00003   0.00000  -0.00009  -0.00009   1.91403
    A9        1.92436  -0.00001   0.00000  -0.00003  -0.00003   1.92434
   A10        1.90893  -0.00001   0.00000  -0.00005  -0.00005   1.90888
   A11        1.88290   0.00001   0.00000   0.00004   0.00004   1.88293
   A12        1.86917   0.00000   0.00000   0.00001   0.00001   1.86918
   A13        1.93362   0.00003   0.00000   0.00011   0.00011   1.93373
   A14        1.94093  -0.00001   0.00000  -0.00002  -0.00002   1.94091
   A15        1.87654  -0.00001   0.00000  -0.00003  -0.00003   1.87651
   A16        1.91660   0.00000   0.00000   0.00002   0.00002   1.91661
   A17        1.92586  -0.00002   0.00000  -0.00008  -0.00008   1.92577
   A18        1.86891   0.00000   0.00000   0.00000   0.00000   1.86891
   A19        1.83292   0.00000   0.00000   0.00000   0.00000   1.83292
   A20        2.07732   0.00000   0.00000   0.00001   0.00001   2.07733
   A21        2.07116  -0.00001   0.00000  -0.00003  -0.00003   2.07112
   A22        2.13470   0.00001   0.00000   0.00002   0.00002   2.13472
   A23        1.94514   0.00000   0.00000  -0.00001  -0.00001   1.94513
   A24        1.91376   0.00001   0.00000   0.00002   0.00002   1.91378
   A25        1.91311   0.00000   0.00000  -0.00001  -0.00001   1.91310
   A26        1.87084   0.00000   0.00000   0.00000   0.00000   1.87084
   A27        1.92569   0.00000   0.00000  -0.00001  -0.00001   1.92568
   A28        1.89422   0.00000   0.00000   0.00001   0.00001   1.89423
   A29        3.13660   0.00000   0.00000  -0.00001  -0.00001   3.13659
   A30        3.13685  -0.00002   0.00000  -0.00006  -0.00006   3.13679
   A31        3.15195   0.00003   0.00000   0.00009   0.00009   3.15204
   A32        3.12655  -0.00007   0.00000  -0.00024  -0.00024   3.12631
    D1       -1.51733   0.00002   0.00000   0.00007   0.00007  -1.51726
    D2        0.60644   0.00000   0.00000  -0.00002  -0.00002   0.60643
    D3        2.66487  -0.00001   0.00000  -0.00003  -0.00003   2.66483
    D4        0.57644   0.00000   0.00000   0.00001   0.00001   0.57645
    D5        2.70021  -0.00002   0.00000  -0.00007  -0.00007   2.70013
    D6       -1.52456  -0.00003   0.00000  -0.00009  -0.00009  -1.52464
    D7        2.66654   0.00002   0.00000   0.00008   0.00008   2.66662
    D8       -1.49287   0.00000   0.00000  -0.00001  -0.00001  -1.49288
    D9        0.56555  -0.00001   0.00000  -0.00002  -0.00002   0.56553
   D10       -1.05241  -0.00005   0.00000  -0.00017  -0.00017  -1.05258
   D11        3.09406  -0.00007   0.00000  -0.00025  -0.00025   3.09380
   D12        1.05330  -0.00006   0.00000  -0.00022  -0.00022   1.05308
   D13        3.10029  -0.00003   0.00000  -0.00010  -0.00010   3.10019
   D14        0.96357  -0.00005   0.00000  -0.00018  -0.00018   0.96339
   D15       -1.07718  -0.00004   0.00000  -0.00015  -0.00015  -1.07734
   D16        1.07292  -0.00003   0.00000  -0.00010  -0.00010   1.07281
   D17       -1.06380  -0.00006   0.00000  -0.00019  -0.00019  -1.06399
   D18       -3.10456  -0.00005   0.00000  -0.00016  -0.00016  -3.10472
   D19       -2.13030   0.00015   0.00000   0.00052   0.00052  -2.12977
   D20        0.02053   0.00017   0.00000   0.00058   0.00058   0.02112
   D21        2.07671   0.00016   0.00000   0.00055   0.00055   2.07726
   D22       -1.04102   0.00009   0.00000   0.00029   0.00029  -1.04072
   D23        2.10625   0.00014   0.00000   0.00047   0.00047   2.10672
   D24        3.09564   0.00004   0.00000   0.00015   0.00015   3.09580
   D25       -0.04028   0.00009   0.00000   0.00033   0.00033  -0.03995
   D26        1.00439   0.00007   0.00000   0.00024   0.00024   1.00464
   D27       -2.13153   0.00012   0.00000   0.00042   0.00042  -2.13111
   D28       -0.71846   0.00006   0.00000   0.00019   0.00019  -0.71827
   D29        1.35011   0.00006   0.00000   0.00019   0.00019   1.35031
   D30       -2.85535   0.00006   0.00000   0.00021   0.00021  -2.85513
   D31        2.41724   0.00000   0.00000   0.00001   0.00001   2.41725
   D32       -1.79737   0.00000   0.00000   0.00002   0.00002  -1.79735
   D33        0.28036   0.00001   0.00000   0.00003   0.00003   0.28039
         Item               Value     Threshold  Converged?
 Maximum Force            0.014529     0.000450     NO 
 RMS     Force            0.001595     0.000300     NO 
 Maximum Displacement     0.036602     0.001800     NO 
 RMS     Displacement     0.010515     0.001200     NO 
 Predicted change in Energy=-7.374617D-04
 GradGradGradGradGradGradGradGradGradGradGradGradGradGradGradGradGradGrad

                          Input orientation:                          
 ---------------------------------------------------------------------
 Center     Atomic      Atomic             Coordinates (Angstroms)
 Number     Number       Type             X           Y           Z
 ---------------------------------------------------------------------
      1          6           0        1.577319    0.165482    0.119668
      2          6           0        0.126572    0.047798    0.111729
      3          6           0       -1.053476   -0.049090    0.095294
      4          6           0       -2.503307   -0.183356    0.087703
      5          6           0       -2.960398   -1.667126    0.038885
      6          8           0       -2.485778   -2.294324   -1.114752
      7          6           0       -4.489013   -1.779119    0.100185
      8          6           0       -5.217411   -1.219844    1.299879
      9          8           0       -5.070112   -2.320856   -0.816727
     10          1           0        1.978545    0.113699    1.137989
     11          1           0        2.042106   -0.638690   -0.461446
     12          1           0        1.901505    1.117446   -0.315490
     13          1           0       -2.923459    0.297791    0.980121
     14          1           0       -2.927869    0.329064   -0.785296
     15          1           0       -2.562486   -2.166970    0.938502
     16          1           0       -3.280813   -2.615053   -1.572221
     17          1           0       -4.685801   -1.441935    2.229995
     18          1           0       -5.282068   -0.128587    1.216229
     19          1           0       -6.229323   -1.625342    1.335591
 ---------------------------------------------------------------------
                    Distance matrix (angstroms):
                    1          2          3          4          5
     1  C    0.000000
     2  C    1.455534   0.000000
     3  C    2.639644   1.184133   0.000000
     4  C    4.095634   2.640127   1.456054   0.000000
     5  C    4.894471   3.532089   2.501514   1.553347   0.000000
     6  O    4.907463   3.716741   2.925196   2.429484   1.396252
     7  C    6.370418   4.964008   3.846548   2.547478   1.533937
     8  C    7.034229   5.619321   4.489993   3.148021   2.623790
     9  O    7.158704   5.786024   4.703835   3.460547   2.368613
    10  H    1.095737   2.118338   3.210431   4.612844   5.364002
    11  H    1.095633   2.114017   3.200034   4.601051   5.131574
    12  H    1.095762   2.115904   3.203352   4.610533   5.614046
    13  H    4.584200   3.181083   2.097637   1.097470   2.179034
    14  H    4.598091   3.195837   2.105181   1.097705   2.159886
    15  H    4.821701   3.580472   2.733775   2.159186   1.103398
    16  H    5.847676   4.640769   3.784944   3.045163   1.896548
    17  H    6.801760   5.464914   4.437426   3.307071   2.797980
    18  H    6.952705   5.523080   4.375363   2.999681   3.023804
    19  H    8.101183   6.685404   5.550882   4.185659   3.516968
                    6          7          8          9         10
     6  O    0.000000
     7  C    2.398845   0.000000
     8  C    3.800891   1.510834   0.000000
     9  O    2.601596   1.213212   2.390387   0.000000
    10  H    5.550098   6.818291   7.320268   7.709185   0.000000
    11  H    4.865148   6.653684   7.492702   7.317072   1.768706
    12  H    5.614913   7.028626   7.664939   7.789518   1.768062
    13  H    3.361416   2.745687   2.769057   3.833287   4.907999
    14  H    2.680700   2.768696   3.462524   3.407678   5.274306
    15  H    2.058629   2.136518   2.841878   3.064751   5.085490
    16  H    0.971713   2.226089   3.734432   1.964411   6.515533
    17  H    4.093165   2.165297   1.094097   3.194168   6.930078
    18  H    4.235933   2.144469   1.096366   2.997312   7.265075
    19  H    4.523919   2.139756   1.090720   2.541650   8.392401
                   11         12         13         14         15
    11  H    0.000000
    12  H    1.767791   0.000000
    13  H    5.254707   5.062679   0.000000
    14  H    5.073665   4.915803   1.765700   0.000000
    15  H    5.049530   5.682173   2.491401   3.055351   0.000000
    16  H    5.785612   6.509020   3.889320   3.067841   2.649623
    17  H    7.290664   7.511493   2.773929   3.913917   2.588841
    18  H    7.531156   7.449998   2.408439   3.123747   3.410024
    19  H    8.521699   8.738381   3.841033   4.383772   3.727832
                   16         17         18         19
    16  H    0.000000
    17  H    4.219840   0.000000
    18  H    4.238277   1.762991   0.000000
    19  H    4.257770   1.793336   1.775335   0.000000
 Stoichiometry    C7H10O2
 Framework group  C1[X(C7H10O2)]
 Deg. of freedom    51
 Full point group                 C1      NOp   1
 Largest Abelian subgroup         C1      NOp   1
 Largest concise Abelian subgroup C1      NOp   1
                         Standard orientation:                         
 ---------------------------------------------------------------------
 Center     Atomic      Atomic             Coordinates (Angstroms)
 Number     Number       Type             X           Y           Z
 ---------------------------------------------------------------------
      1          6           0        4.245725   -0.012926   -0.216654
      2          6           0        2.834444   -0.232324    0.063935
      3          6           0        1.686214   -0.402565    0.297938
      4          6           0        0.270461   -0.611623    0.566320
      5          6           0       -0.639443    0.262455   -0.339744
      6          8           0       -0.381477    1.619919   -0.139080
      7          6           0       -2.123243   -0.028536   -0.081628
      8          6           0       -2.643753   -1.430259   -0.298106
      9          8           0       -2.839411    0.879849    0.284189
     10          1           0        4.599631   -0.661813   -1.025564
     11          1           0        4.432199    1.024007   -0.517337
     12          1           0        4.863032   -0.217287    0.665312
     13          1           0        0.019429   -1.670114    0.421340
     14          1           0        0.041409   -0.365858    1.611351
     15          1           0       -0.431816   -0.016678   -1.386866
     16          1           0       -1.233233    2.000618    0.132592
     17          1           0       -2.220424   -1.879116   -1.201638
     18          1           0       -2.352944   -2.066077    0.546396
     19          1           0       -3.732614   -1.411159   -0.358814
 ---------------------------------------------------------------------
 Rotational constants (GHZ):      4.1145251      0.6910523      0.6177987
 Standard basis: 6-31G(2df,p) (6D, 7F)
 There are   329 symmetry adapted cartesian basis functions of A   symmetry.
 There are   302 symmetry adapted basis functions of A   symmetry.
   302 basis functions,   466 primitive gaussians,   329 cartesian basis functions
    34 alpha electrons       34 beta electrons
       nuclear repulsion energy       417.0784610513 Hartrees.
 NAtoms=   19 NActive=   19 NUniq=   19 SFac= 1.00D+00 NAtFMM=   60 NAOKFM=F Big=F
 Integral buffers will be    131072 words long.
 Raffenetti 2 integral format.
 Two-electron integral symmetry is turned on.
 One-electron integrals computed using PRISM.
 NBasis=   302 RedAO= T EigKep=  5.63D-05  NBF=   302
 NBsUse=   302 1.00D-06 EigRej= -1.00D+00 NBFU=   302
 Initial guess from the checkpoint file:  "/scratch/puck/g09_052090f3-fc81-4d07-9d62-a60cebce1cd2/Gau-76377.chk"
 B after Tr=     0.000000    0.000000    0.000000
         Rot=    1.000000    0.000088   -0.000138   -0.000025 Ang=   0.02 deg.
 ExpMin= 1.61D-01 ExpMax= 5.48D+03 ExpMxC= 8.25D+02 IAcc=1 IRadAn=         1 AccDes= 0.00D+00
 Harris functional with IExCor=  402 and IRadAn=       1 diagonalized for initial guess.
 HarFok:  IExCor=  402 AccDes= 0.00D+00 IRadAn=         1 IDoV= 1 UseB2=F ITyADJ=14
 ICtDFT=  3500011 ScaDFX=  1.000000  1.000000  1.000000  1.000000
 FoFCou: FMM=F IPFlag=           0 FMFlag=      100000 FMFlg1=           0
         NFxFlg=           0 DoJE=T BraDBF=F KetDBF=T FulRan=T
         wScrn=  0.000000 ICntrl=     500 IOpCl=  0 I1Cent=   200000004 NGrid=           0
         NMat0=    1 NMatS0=      1 NMatT0=    0 NMatD0=    1 NMtDS0=    0 NMtDT0=    0
 Petite list used in FoFCou.
 Requested convergence on RMS density matrix=1.00D-08 within 128 cycles.
 Requested convergence on MAX density matrix=1.00D-06.
 Requested convergence on             energy=1.00D-06.
 No special actions if energy rises.
 Integral accuracy reduced to 1.0D-05 until final iterations.
