 Entering Gaussian System, Link 0=/home/puck/opt/gaussian_09/g09
 Input=dsC7O2H10nsd_5531.com
 Output=dsC7O2H10nsd_5531.log
 Initial command:
 /home/puck/opt/gaussian_09/l1.exe "/scratch/puck/g09_c243e2f3-5b54-4e5c-a897-d19af1567054/Gau-175143.inp" -scrdir="/scratch/puck/g09_c243e2f3-5b54-4e5c-a897-d19af1567054/"
 Entering Link 1 = /home/puck/opt/gaussian_09/l1.exe PID=    175145.
  
 Copyright (c) 1988,1990,1992,1993,1995,1998,2003,2009,2013,
            Gaussian, Inc.  All Rights Reserved.
  
 This is part of the Gaussian(R) 09 program.  It is based on
 the Gaussian(R) 03 system (copyright 2003, Gaussian, Inc.),
 the Gaussian(R) 98 system (copyright 1998, Gaussian, Inc.),
 the Gaussian(R) 94 system (copyright 1995, Gaussian, Inc.),
 the Gaussian 92(TM) system (copyright 1992, Gaussian, Inc.),
 the Gaussian 90(TM) system (copyright 1990, Gaussian, Inc.),
 the Gaussian 88(TM) system (copyright 1988, Gaussian, Inc.),
 the Gaussian 86(TM) system (copyright 1986, Carnegie Mellon
 University), and the Gaussian 82(TM) system (copyright 1983,
 Carnegie Mellon University). Gaussian is a federally registered
 trademark of Gaussian, Inc.
  
 This software contains proprietary and confidential information,
 including trade secrets, belonging to Gaussian, Inc.
  
 This software is provided under written license and may be
 used, copied, transmitted, or stored only in accord with that
 written license.
  
 The following legend is applicable only to US Government
 contracts under FAR:
  
                    RESTRICTED RIGHTS LEGEND
  
 Use, reproduction and disclosure by the US Government is
 subject to restrictions as set forth in subparagraphs (a)
 and (c) of the Commercial Computer Software - Restricted
 Rights clause in FAR 52.227-19.
  
 Gaussian, Inc.
 340 Quinnipiac St., Bldg. 40, Wallingford CT 06492
  
  
 ---------------------------------------------------------------
 Warning -- This program may not be used in any manner that
 competes with the business of Gaussian, Inc. or will provide
 assistance to any competitor of Gaussian, Inc.  The licensee
 of this program is prohibited from giving any competitor of
 Gaussian, Inc. access to this program.  By using this program,
 the user acknowledges that Gaussian, Inc. is engaged in the
 business of creating and licensing software in the field of
 computational chemistry and represents and warrants to the
 licensee that it is not a competitor of Gaussian, Inc. and that
 it will not use this program in any manner prohibited above.
 ---------------------------------------------------------------
  

 Cite this work as:
 Gaussian 09, Revision D.01,
 M. J. Frisch, G. W. Trucks, H. B. Schlegel, G. E. Scuseria, 
 M. A. Robb, J. R. Cheeseman, G. Scalmani, V. Barone, B. Mennucci, 
 G. A. Petersson, H. Nakatsuji, M. Caricato, X. Li, H. P. Hratchian, 
 A. F. Izmaylov, J. Bloino, G. Zheng, J. L. Sonnenberg, M. Hada, 
 M. Ehara, K. Toyota, R. Fukuda, J. Hasegawa, M. Ishida, T. Nakajima, 
 Y. Honda, O. Kitao, H. Nakai, T. Vreven, J. A. Montgomery, Jr., 
 J. E. Peralta, F. Ogliaro, M. Bearpark, J. J. Heyd, E. Brothers, 
 K. N. Kudin, V. N. Staroverov, T. Keith, R. Kobayashi, J. Normand, 
 K. Raghavachari, A. Rendell, J. C. Burant, S. S. Iyengar, J. Tomasi, 
 M. Cossi, N. Rega, J. M. Millam, M. Klene, J. E. Knox, J. B. Cross, 
 V. Bakken, C. Adamo, J. Jaramillo, R. Gomperts, R. E. Stratmann, 
 O. Yazyev, A. J. Austin, R. Cammi, C. Pomelli, J. W. Ochterski, 
 R. L. Martin, K. Morokuma, V. G. Zakrzewski, G. A. Voth, 
 P. Salvador, J. J. Dannenberg, S. Dapprich, A. D. Daniels, 
 O. Farkas, J. B. Foresman, J. V. Ortiz, J. Cioslowski, 
 and D. J. Fox, Gaussian, Inc., Wallingford CT, 2013.
 
 ******************************************
 Gaussian 09:  ES64L-G09RevD.01 24-Apr-2013
                31-Jan-2020 
 ******************************************
 -----------------------------
 # b3lyp 6-31G(2df,p) opt Freq
 -----------------------------
 1/14=-1,18=20,19=15,26=3,38=1/1,3;
 2/9=110,12=2,17=6,18=5,40=1/2;
 3/5=1,6=6,7=104,11=2,16=1,25=1,30=1,71=1,74=-5/1,2,3;
 4//1;
 5/5=2,38=5/2;
 6/7=2,8=2,9=2,10=2,28=1/1;
 7//1,2,3,16;
 1/14=-1,18=20,19=15,26=3/3(2);
 2/9=110/2;
 99//99;
 2/9=110/2;
 3/5=1,6=6,7=104,11=2,16=1,25=1,30=1,71=1,74=-5/1,2,3;
 4/5=5,16=3,69=1/1;
 5/5=2,38=5/2;
 7//1,2,3,16;
 1/14=-1,18=20,19=15,26=3/3(-5);
 2/9=110/2;
 6/7=2,8=2,9=2,10=2,19=2,28=1/1;
 99/9=1/99;
 -----
 titel
 -----
 Symbolic Z-matrix:
 Charge =  0 Multiplicity = 1
 O                     1.33898   0.88854  -0.01196 
 C                     0.31901   0.01395   0.45522 
 C                    -0.87793   0.77975   1.0061 
 C                    -0.70582   1.33145   2.4457 
 O                    -0.9211   -0.04306   2.93186 
 C                    -1.88461  -0.07947   1.81274 
 C                    -2.9703    0.89208   2.31712 
 C                    -3.06997   2.28128   1.73934 
 C                    -2.04806   1.99761   2.81138 
 H                     1.75697   1.28852   0.75668 
 H                     0.00557  -0.56395  -0.42154 
 H                     0.69639  -0.6898    1.20636 
 H                    -1.25076   1.45109   0.23191 
 H                     0.21378   1.78802   2.81551 
 H                    -2.17863  -1.08837   1.52203 
 H                    -3.77417   0.49439   2.92423 
 H                    -2.78276   2.49758   0.71797 
 H                    -3.93266   2.85497   2.06628 
 H                    -2.15136   2.4404    3.79433 
 

 GradGradGradGradGradGradGradGradGradGradGradGradGradGradGradGradGradGrad
 Berny optimization.
 Initialization pass.
                           ----------------------------
                           !    Initial Parameters    !
                           ! (Angstroms and Degrees)  !
 --------------------------                            --------------------------
 ! Name  Definition              Value          Derivative Info.                !
 --------------------------------------------------------------------------------
 ! R1    R(1,2)                  1.4225         estimate D2E/DX2                !
 ! R2    R(1,10)                 0.962          estimate D2E/DX2                !
 ! R3    R(2,3)                  1.524          estimate D2E/DX2                !
 ! R4    R(2,11)                 1.0959         estimate D2E/DX2                !
 ! R5    R(2,12)                 1.0963         estimate D2E/DX2                !
 ! R6    R(3,4)                  1.5513         estimate D2E/DX2                !
 ! R7    R(3,6)                  1.5499         estimate D2E/DX2                !
 ! R8    R(3,13)                 1.0904         estimate D2E/DX2                !
 ! R9    R(4,5)                  1.4738         estimate D2E/DX2                !
 ! R10   R(4,9)                  1.5424         estimate D2E/DX2                !
 ! R11   R(4,14)                 1.0913         estimate D2E/DX2                !
 ! R12   R(5,6)                  1.4772         estimate D2E/DX2                !
 ! R13   R(6,7)                  1.5418         estimate D2E/DX2                !
 ! R14   R(6,15)                 1.0903         estimate D2E/DX2                !
 ! R15   R(7,8)                  1.5079         estimate D2E/DX2                !
 ! R16   R(7,9)                  1.5222         estimate D2E/DX2                !
 ! R17   R(7,16)                 1.083          estimate D2E/DX2                !
 ! R18   R(8,9)                  1.508          estimate D2E/DX2                !
 ! R19   R(8,17)                 1.0828         estimate D2E/DX2                !
 ! R20   R(8,18)                 1.0864         estimate D2E/DX2                !
 ! R21   R(9,19)                 1.083          estimate D2E/DX2                !
 ! A1    A(2,1,10)             107.7442         estimate D2E/DX2                !
 ! A2    A(1,2,3)              111.8954         estimate D2E/DX2                !
 ! A3    A(1,2,11)             105.4595         estimate D2E/DX2                !
 ! A4    A(1,2,12)             111.8926         estimate D2E/DX2                !
 ! A5    A(3,2,11)             109.2415         estimate D2E/DX2                !
 ! A6    A(3,2,12)             110.1973         estimate D2E/DX2                !
 ! A7    A(11,2,12)            107.9452         estimate D2E/DX2                !
 ! A8    A(2,3,4)              115.2788         estimate D2E/DX2                !
 ! A9    A(2,3,6)              114.8138         estimate D2E/DX2                !
 ! A10   A(2,3,13)             108.7384         estimate D2E/DX2                !
 ! A11   A(4,3,6)               77.6579         estimate D2E/DX2                !
 ! A12   A(4,3,13)             118.5452         estimate D2E/DX2                !
 ! A13   A(6,3,13)             119.2565         estimate D2E/DX2                !
 ! A14   A(3,4,5)               87.6058         estimate D2E/DX2                !
 ! A15   A(3,4,9)              106.0851         estimate D2E/DX2                !
 ! A16   A(3,4,14)             123.8333         estimate D2E/DX2                !
 ! A17   A(5,4,9)              101.3897         estimate D2E/DX2                !
 ! A18   A(5,4,14)             113.6728         estimate D2E/DX2                !
 ! A19   A(9,4,14)             118.182          estimate D2E/DX2                !
 ! A20   A(4,5,6)               82.4354         estimate D2E/DX2                !
 ! A21   A(3,6,5)               87.5339         estimate D2E/DX2                !
 ! A22   A(3,6,7)              106.1585         estimate D2E/DX2                !
 ! A23   A(3,6,15)             123.3213         estimate D2E/DX2                !
 ! A24   A(5,6,7)              101.2993         estimate D2E/DX2                !
 ! A25   A(5,6,15)             113.6212         estimate D2E/DX2                !
 ! A26   A(7,6,15)             118.7128         estimate D2E/DX2                !
 ! A27   A(6,7,8)              120.1162         estimate D2E/DX2                !
 ! A28   A(6,7,9)               97.8888         estimate D2E/DX2                !
 ! A29   A(6,7,16)             118.3379         estimate D2E/DX2                !
 ! A30   A(8,7,16)             120.2679         estimate D2E/DX2                !
 ! A31   A(9,7,16)             122.302          estimate D2E/DX2                !
 ! A32   A(7,8,17)             121.8667         estimate D2E/DX2                !
 ! A33   A(7,8,18)             115.0678         estimate D2E/DX2                !
 ! A34   A(9,8,17)             121.8974         estimate D2E/DX2                !
 ! A35   A(9,8,18)             115.0571         estimate D2E/DX2                !
 ! A36   A(17,8,18)            112.8925         estimate D2E/DX2                !
 ! A37   A(4,9,7)               97.8498         estimate D2E/DX2                !
 ! A38   A(4,9,8)              120.1595         estimate D2E/DX2                !
 ! A39   A(4,9,19)             118.3437         estimate D2E/DX2                !
 ! A40   A(7,9,19)             122.2661         estimate D2E/DX2                !
 ! A41   A(8,9,19)             120.2433         estimate D2E/DX2                !
 ! D1    D(10,1,2,3)            72.2008         estimate D2E/DX2                !
 ! D2    D(10,1,2,11)         -169.1364         estimate D2E/DX2                !
 ! D3    D(10,1,2,12)          -52.0293         estimate D2E/DX2                !
 ! D4    D(1,2,3,4)            -79.515          estimate D2E/DX2                !
 ! D5    D(1,2,3,6)           -167.1031         estimate D2E/DX2                !
 ! D6    D(1,2,3,13)            56.3939         estimate D2E/DX2                !
 ! D7    D(11,2,3,4)           164.0897         estimate D2E/DX2                !
 ! D8    D(11,2,3,6)            76.5016         estimate D2E/DX2                !
 ! D9    D(11,2,3,13)          -60.0014         estimate D2E/DX2                !
 ! D10   D(12,2,3,4)            45.6571         estimate D2E/DX2                !
 ! D11   D(12,2,3,6)           -41.931          estimate D2E/DX2                !
 ! D12   D(12,2,3,13)         -178.434          estimate D2E/DX2                !
 ! D13   D(2,3,4,5)            -76.1123         estimate D2E/DX2                !
 ! D14   D(2,3,4,9)           -177.2782         estimate D2E/DX2                !
 ! D15   D(2,3,4,14)            41.0017         estimate D2E/DX2                !
 ! D16   D(6,3,4,5)             35.7121         estimate D2E/DX2                !
 ! D17   D(6,3,4,9)            -65.4538         estimate D2E/DX2                !
 ! D18   D(6,3,4,14)           152.8261         estimate D2E/DX2                !
 ! D19   D(13,3,4,5)           152.487          estimate D2E/DX2                !
 ! D20   D(13,3,4,9)            51.3211         estimate D2E/DX2                !
 ! D21   D(13,3,4,14)          -90.399          estimate D2E/DX2                !
 ! D22   D(2,3,6,5)             76.7413         estimate D2E/DX2                !
 ! D23   D(2,3,6,7)            177.7935         estimate D2E/DX2                !
 ! D24   D(2,3,6,15)           -40.1084         estimate D2E/DX2                !
 ! D25   D(4,3,6,5)            -35.6185         estimate D2E/DX2                !
 ! D26   D(4,3,6,7)             65.4337         estimate D2E/DX2                !
 ! D27   D(4,3,6,15)          -152.4682         estimate D2E/DX2                !
 ! D28   D(13,3,6,5)          -151.6017         estimate D2E/DX2                !
 ! D29   D(13,3,6,7)           -50.5495         estimate D2E/DX2                !
 ! D30   D(13,3,6,15)           91.5486         estimate D2E/DX2                !
 ! D31   D(3,4,5,6)            -37.125          estimate D2E/DX2                !
 ! D32   D(9,4,5,6)             68.8045         estimate D2E/DX2                !
 ! D33   D(14,4,5,6)          -163.2916         estimate D2E/DX2                !
 ! D34   D(3,4,9,7)             45.7078         estimate D2E/DX2                !
 ! D35   D(3,4,9,8)            -13.6794         estimate D2E/DX2                !
 ! D36   D(3,4,9,19)           179.0756         estimate D2E/DX2                !
 ! D37   D(5,4,9,7)            -45.0793         estimate D2E/DX2                !
 ! D38   D(5,4,9,8)           -104.4666         estimate D2E/DX2                !
 ! D39   D(5,4,9,19)            88.2885         estimate D2E/DX2                !
 ! D40   D(14,4,9,7)          -170.0109         estimate D2E/DX2                !
 ! D41   D(14,4,9,8)           130.6019         estimate D2E/DX2                !
 ! D42   D(14,4,9,19)          -36.6431         estimate D2E/DX2                !
 ! D43   D(4,5,6,3)             37.1645         estimate D2E/DX2                !
 ! D44   D(4,5,6,7)            -68.8246         estimate D2E/DX2                !
 ! D45   D(4,5,6,15)           162.7058         estimate D2E/DX2                !
 ! D46   D(3,6,7,8)             13.8009         estimate D2E/DX2                !
 ! D47   D(3,6,7,9)            -45.6273         estimate D2E/DX2                !
 ! D48   D(3,6,7,16)          -179.0729         estimate D2E/DX2                !
 ! D49   D(5,6,7,8)            104.5005         estimate D2E/DX2                !
 ! D50   D(5,6,7,9)             45.0723         estimate D2E/DX2                !
 ! D51   D(5,6,7,16)           -88.3734         estimate D2E/DX2                !
 ! D52   D(15,6,7,8)          -130.3758         estimate D2E/DX2                !
 ! D53   D(15,6,7,9)           170.196          estimate D2E/DX2                !
 ! D54   D(15,6,7,16)           36.7504         estimate D2E/DX2                !
 ! D55   D(6,7,8,17)            30.2834         estimate D2E/DX2                !
 ! D56   D(6,7,8,18)           173.075          estimate D2E/DX2                !
 ! D57   D(16,7,8,17)         -136.5927         estimate D2E/DX2                !
 ! D58   D(16,7,8,18)            6.199          estimate D2E/DX2                !
 ! D59   D(6,7,9,4)             -0.0757         estimate D2E/DX2                !
 ! D60   D(6,7,9,19)          -130.9056         estimate D2E/DX2                !
 ! D61   D(16,7,9,4)           130.8095         estimate D2E/DX2                !
 ! D62   D(16,7,9,19)           -0.0204         estimate D2E/DX2                !
 ! D63   D(17,8,9,4)           -30.3223         estimate D2E/DX2                !
 ! D64   D(17,8,9,19)          136.679          estimate D2E/DX2                !
 ! D65   D(18,8,9,4)          -173.1454         estimate D2E/DX2                !
 ! D66   D(18,8,9,19)           -6.144          estimate D2E/DX2                !
 --------------------------------------------------------------------------------
 Trust Radius=3.00D-01 FncErr=1.00D-07 GrdErr=1.00D-06
 Number of steps in this run=    114 maximum allowed number of steps=    114.
 GradGradGradGradGradGradGradGradGradGradGradGradGradGradGradGradGradGrad

                          Input orientation:                          
 ---------------------------------------------------------------------
 Center     Atomic      Atomic             Coordinates (Angstroms)
 Number     Number       Type             X           Y           Z
 ---------------------------------------------------------------------
      1          8           0        1.338979    0.888543   -0.011956
      2          6           0        0.319007    0.013948    0.455218
      3          6           0       -0.877928    0.779748    1.006105
      4          6           0       -0.705816    1.331450    2.445700
      5          8           0       -0.921098   -0.043059    2.931856
      6          6           0       -1.884609   -0.079469    1.812737
      7          6           0       -2.970301    0.892081    2.317122
      8          6           0       -3.069969    2.281280    1.739342
      9          6           0       -2.048060    1.997614    2.811381
     10          1           0        1.756969    1.288525    0.756680
     11          1           0        0.005565   -0.563951   -0.421543
     12          1           0        0.696391   -0.689803    1.206360
     13          1           0       -1.250755    1.451085    0.231905
     14          1           0        0.213783    1.788018    2.815514
     15          1           0       -2.178632   -1.088372    1.522026
     16          1           0       -3.774173    0.494387    2.924228
     17          1           0       -2.782758    2.497582    0.717968
     18          1           0       -3.932660    2.854971    2.066277
     19          1           0       -2.151365    2.440403    3.794327
 ---------------------------------------------------------------------
                    Distance matrix (angstroms):
                    1          2          3          4          5
     1  O    0.000000
     2  C    1.422502   0.000000
     3  C    2.441918   1.524001   0.000000
     4  C    3.227604   2.597709   1.551268   0.000000
     5  O    3.826469   2.770351   2.094610   1.473760   0.000000
     6  C    3.828586   2.589886   1.549940   1.944449   1.477195
     7  C    4.898419   3.880380   2.471722   2.310296   2.334870
     8  C    4.944247   4.274918   2.756316   2.643925   3.382645
     9  C    4.546790   3.884513   2.472130   1.542438   2.334288
    10  H    0.962030   1.945035   2.695134   2.986627   3.698182
    11  H    2.013826   1.095866   2.150411   3.509942   3.517857
    12  H    2.094849   1.096311   2.162906   2.754562   2.451915
    13  H    2.661324   2.139950   1.090449   2.283015   3.103365
    14  H    3.173280   2.954555   2.341454   1.091275   2.157391
    15  H    4.316815   2.931107   2.334069   2.979580   2.159095
    16  H    5.909387   4.804264   3.485521   3.216283   2.903264
    17  H    4.484475   3.982263   2.581154   2.942551   3.849926
    18  H    5.998006   5.361306   3.842123   3.588538   4.268174
    19  H    5.392454   4.810412   3.486201   2.266756   2.902584
                    6          7          8          9         10
     6  C    0.000000
     7  C    1.541765   0.000000
     8  C    2.642650   1.507858   0.000000
     9  C    2.310471   1.522177   1.507990   0.000000
    10  H    4.030850   4.993919   5.024989   4.382105   0.000000
    11  H    2.966394   4.298383   4.714199   4.607688   2.808432
    12  H    2.720618   4.144971   4.826684   4.162969   2.289283
    13  H    2.289846   2.759973   2.504222   2.754647   3.057486
    14  H    2.982670   3.345070   3.490628   2.271537   2.621014
    15  H    1.090344   2.276206   3.492315   3.347058   4.660939
    16  H    2.266092   1.083027   2.256733   2.291700   5.993534
    17  H    2.940473   2.273784   1.082811   2.274231   4.698132
    18  H    3.587441   2.200453   1.086391   2.200445   6.044889
    19  H    3.216770   2.291308   2.256572   1.083013   5.082243
                   11         12         13         14         15
    11  H    0.000000
    12  H    1.772893   0.000000
    13  H    2.462866   3.053579   0.000000
    14  H    4.006701   2.993641   2.988885   0.000000
    15  H    2.970387   2.919634   2.995699   3.958584   0.000000
    16  H    5.157585   4.933490   3.812021   4.193935   2.648971
    17  H    4.294906   4.743673   1.917927   3.725914   3.724318
    18  H    5.778226   5.893471   3.539552   4.346578   4.350032
    19  H    5.608213   4.960391   3.805351   2.641516   4.197183
                   16         17         18         19
    16  H    0.000000
    17  H    3.140584   0.000000
    18  H    2.516655   1.807744   0.000000
    19  H    2.679096   3.141004   2.516155   0.000000
 Stoichiometry    C7H10O2
 Framework group  C1[X(C7H10O2)]
 Deg. of freedom    51
 Full point group                 C1      NOp   1
 Largest Abelian subgroup         C1      NOp   1
 Largest concise Abelian subgroup C1      NOp   1
                         Standard orientation:                         
 ---------------------------------------------------------------------
 Center     Atomic      Atomic             Coordinates (Angstroms)
 Number     Number       Type             X           Y           Z
 ---------------------------------------------------------------------
      1          8           0       -2.895982   -0.776513    0.168474
      2          6           0       -2.036845    0.151947   -0.482186
      3          6           0       -0.573108   -0.259742   -0.379399
      4          6           0        0.113744    0.067646    0.972445
      5          8           0        0.179628    1.471365    0.528372
      6          6           0        0.441829    0.840548   -0.781370
      7          6           0        1.841977    0.237471   -0.551314
      8          6           0        2.000250   -1.246148   -0.333456
      9          6           0        1.585269   -0.369143    0.820963
     10          1           0       -2.776339   -0.671539    1.117245
     11          1           0       -2.341308    0.143505   -1.534875
     12          1           0       -2.171281    1.170590   -0.099836
     13          1           0       -0.461790   -1.263444   -0.790824
     14          1           0       -0.365021   -0.062416    1.944427
     15          1           0        0.293326    1.512210   -1.627340
     16          1           0        2.707767    0.854194   -0.758700
     17          1           0        1.323297   -1.964695   -0.778321
     18          1           0        3.027069   -1.599100   -0.297238
     19          1           0        2.256411   -0.213590    1.656599
 ---------------------------------------------------------------------
 Rotational constants (GHZ):      3.5174630      1.2394257      1.1494717
 Standard basis: 6-31G(2df,p) (6D, 7F)
 There are   329 symmetry adapted cartesian basis functions of A   symmetry.
 There are   302 symmetry adapted basis functions of A   symmetry.
   302 basis functions,   466 primitive gaussians,   329 cartesian basis functions
    34 alpha electrons       34 beta electrons
       nuclear repulsion energy       473.4434497562 Hartrees.
 NAtoms=   19 NActive=   19 NUniq=   19 SFac= 1.00D+00 NAtFMM=   60 NAOKFM=F Big=F
 Integral buffers will be    131072 words long.
 Raffenetti 2 integral format.
 Two-electron integral symmetry is turned on.
 One-electron integrals computed using PRISM.
 NBasis=   302 RedAO= T EigKep=  3.69D-04  NBF=   302
 NBsUse=   302 1.00D-06 EigRej= -1.00D+00 NBFU=   302
 ExpMin= 1.61D-01 ExpMax= 5.48D+03 ExpMxC= 8.25D+02 IAcc=1 IRadAn=         1 AccDes= 0.00D+00
 Harris functional with IExCor=  402 and IRadAn=       1 diagonalized for initial guess.
 HarFok:  IExCor=  402 AccDes= 0.00D+00 IRadAn=         1 IDoV= 1 UseB2=F ITyADJ=14
 ICtDFT=  3500011 ScaDFX=  1.000000  1.000000  1.000000  1.000000
 FoFCou: FMM=F IPFlag=           0 FMFlag=      100000 FMFlg1=           0
         NFxFlg=           0 DoJE=T BraDBF=F KetDBF=T FulRan=T
         wScrn=  0.000000 ICntrl=     500 IOpCl=  0 I1Cent=   200000004 NGrid=           0
         NMat0=    1 NMatS0=      1 NMatT0=    0 NMatD0=    1 NMtDS0=    0 NMtDT0=    0
 Petite list used in FoFCou.
 Requested convergence on RMS density matrix=1.00D-08 within 128 cycles.
 Requested convergence on MAX density matrix=1.00D-06.
 Requested convergence on             energy=1.00D-06.
 No special actions if energy rises.
 Integral accuracy reduced to 1.0D-05 until final iterations.
 Initial convergence to 1.0D-05 achieved.  Increase integral accuracy.
 SCF Done:  E(RB3LYP) =  -423.120706250     A.U. after   14 cycles
            NFock= 14  Conv=0.30D-08     -V/T= 2.0074

 **********************************************************************

            Population analysis using the SCF density.

 **********************************************************************

 Orbital symmetries:
       Occupied  (A) (A) (A) (A) (A) (A) (A) (A) (A) (A) (A) (A)
                 (A) (A) (A) (A) (A) (A) (A) (A) (A) (A) (A) (A)
                 (A) (A) (A) (A) (A) (A) (A) (A) (A) (A)
       Virtual   (A) (A) (A) (A) (A) (A) (A) (A) (A) (A) (A) (A)
                 (A) (A) (A) (A) (A) (A) (A) (A) (A) (A) (A) (A)
                 (A) (A) (A) (A) (A) (A) (A) (A) (A) (A) (A) (A)
                 (A) (A) (A) (A) (A) (A) (A) (A) (A) (A) (A) (A)
                 (A) (A) (A) (A) (A) (A) (A) (A) (A) (A) (A) (A)
                 (A) (A) (A) (A) (A) (A) (A) (A) (A) (A) (A) (A)
                 (A) (A) (A) (A) (A) (A) (A) (A) (A) (A) (A) (A)
                 (A) (A) (A) (A) (A) (A) (A) (A) (A) (A) (A) (A)
                 (A) (A) (A) (A) (A) (A) (A) (A) (A) (A) (A) (A)
                 (A) (A) (A) (A) (A) (A) (A) (A) (A) (A) (A) (A)
                 (A) (A) (A) (A) (A) (A) (A) (A) (A) (A) (A) (A)
                 (A) (A) (A) (A) (A) (A) (A) (A) (A) (A) (A) (A)
                 (A) (A) (A) (A) (A) (A) (A) (A) (A) (A) (A) (A)
                 (A) (A) (A) (A) (A) (A) (A) (A) (A) (A) (A) (A)
                 (A) (A) (A) (A) (A) (A) (A) (A) (A) (A) (A) (A)
                 (A) (A) (A) (A) (A) (A) (A) (A) (A) (A) (A) (A)
                 (A) (A) (A) (A) (A) (A) (A) (A) (A) (A) (A) (A)
                 (A) (A) (A) (A) (A) (A) (A) (A) (A) (A) (A) (A)
                 (A) (A) (A) (A) (A) (A) (A) (A) (A) (A) (A) (A)
                 (A) (A) (A) (A) (A) (A) (A) (A) (A) (A) (A) (A)
                 (A) (A) (A) (A) (A) (A) (A) (A) (A) (A) (A) (A)
                 (A) (A) (A) (A) (A) (A) (A) (A) (A) (A) (A) (A)
                 (A) (A) (A) (A)
 The electronic state is 1-A.
 Alpha  occ. eigenvalues --  -19.13320 -19.12994 -10.24386 -10.24333 -10.22352
 Alpha  occ. eigenvalues --  -10.19708 -10.19511 -10.19486 -10.19189  -1.04556
 Alpha  occ. eigenvalues --   -1.01247  -0.86649  -0.76016  -0.70047  -0.67099
 Alpha  occ. eigenvalues --   -0.61916  -0.55659  -0.54050  -0.52894  -0.51234
 Alpha  occ. eigenvalues --   -0.47396  -0.46190  -0.43812  -0.40805  -0.40175
 Alpha  occ. eigenvalues --   -0.38424  -0.36207  -0.33448  -0.33275  -0.32237
 Alpha  occ. eigenvalues --   -0.29697  -0.27504  -0.26483  -0.24526
 Alpha virt. eigenvalues --    0.06896   0.08561   0.09528   0.10133   0.11848
 Alpha virt. eigenvalues --    0.12618   0.13944   0.14313   0.15897   0.16605
 Alpha virt. eigenvalues --    0.18016   0.19041   0.19471   0.21506   0.23474
 Alpha virt. eigenvalues --    0.24408   0.24954   0.25951   0.29090   0.31501
 Alpha virt. eigenvalues --    0.33600   0.41714   0.43853   0.43946   0.46096
 Alpha virt. eigenvalues --    0.47614   0.48553   0.49906   0.51629   0.53731
 Alpha virt. eigenvalues --    0.54550   0.55437   0.56181   0.57973   0.58574
 Alpha virt. eigenvalues --    0.61785   0.62364   0.64482   0.65600   0.67685
 Alpha virt. eigenvalues --    0.72080   0.73377   0.73884   0.75434   0.75978
 Alpha virt. eigenvalues --    0.76670   0.77385   0.78773   0.80680   0.83585
 Alpha virt. eigenvalues --    0.85171   0.85447   0.87939   0.88266   0.89798
 Alpha virt. eigenvalues --    0.90016   0.91279   0.94702   0.96734   0.98404
 Alpha virt. eigenvalues --    1.02225   1.02804   1.03799   1.07425   1.09368
 Alpha virt. eigenvalues --    1.13744   1.16440   1.17306   1.20598   1.21254
 Alpha virt. eigenvalues --    1.24876   1.27320   1.28992   1.30046   1.31442
 Alpha virt. eigenvalues --    1.33860   1.35820   1.37717   1.41009   1.41896
 Alpha virt. eigenvalues --    1.43782   1.47076   1.48124   1.48971   1.50455
 Alpha virt. eigenvalues --    1.51098   1.52533   1.56691   1.58473   1.59101
 Alpha virt. eigenvalues --    1.60593   1.62289   1.65183   1.67019   1.67630
 Alpha virt. eigenvalues --    1.68499   1.69382   1.73187   1.76517   1.77601
 Alpha virt. eigenvalues --    1.81503   1.83126   1.86203   1.88390   1.90385
 Alpha virt. eigenvalues --    1.95944   1.97658   2.02984   2.08338   2.13951
 Alpha virt. eigenvalues --    2.16448   2.23843   2.27512   2.29153   2.32428
 Alpha virt. eigenvalues --    2.34544   2.35612   2.40639   2.44307   2.47099
 Alpha virt. eigenvalues --    2.47663   2.51509   2.53485   2.55800   2.63258
 Alpha virt. eigenvalues --    2.65403   2.66382   2.71100   2.71768   2.73473
 Alpha virt. eigenvalues --    2.78217   2.80953   2.82403   2.82475   2.84691
 Alpha virt. eigenvalues --    2.86447   2.89207   2.91128   2.92104   2.94568
 Alpha virt. eigenvalues --    2.95311   3.00305   3.02758   3.04002   3.06332
 Alpha virt. eigenvalues --    3.07427   3.07671   3.10658   3.12190   3.14372
 Alpha virt. eigenvalues --    3.14652   3.18598   3.20275   3.20485   3.21546
 Alpha virt. eigenvalues --    3.22825   3.28393   3.30584   3.34418   3.35927
 Alpha virt. eigenvalues --    3.36507   3.39821   3.41625   3.45050   3.48892
 Alpha virt. eigenvalues --    3.49838   3.52618   3.57807   3.59799   3.67660
 Alpha virt. eigenvalues --    3.68377   3.71252   3.72378   3.81710   3.84264
 Alpha virt. eigenvalues --    3.85886   3.88082   3.89782   3.96225   3.98153
 Alpha virt. eigenvalues --    4.01073   4.06949   4.10398   4.15354   4.17612
 Alpha virt. eigenvalues --    4.20909   4.23973   4.26671   4.31026   4.31281
 Alpha virt. eigenvalues --    4.32183   4.34669   4.39093   4.39335   4.42041
 Alpha virt. eigenvalues --    4.42500   4.43577   4.44939   4.48337   4.49626
 Alpha virt. eigenvalues --    4.50840   4.55442   4.56997   4.59299   4.62439
 Alpha virt. eigenvalues --    4.62793   4.65495   4.65626   4.67629   4.69541
 Alpha virt. eigenvalues --    4.70338   4.72503   4.72864   4.75789   4.77816
 Alpha virt. eigenvalues --    4.78845   4.80625   4.82843   4.83677   4.87547
 Alpha virt. eigenvalues --    4.90338   4.93258   4.97272   5.00391   5.02214
 Alpha virt. eigenvalues --    5.02514   5.07451   5.11277   5.11954   5.14079
 Alpha virt. eigenvalues --    5.21478   5.23565   5.26024   5.31267   5.34476
 Alpha virt. eigenvalues --    5.38840   5.39683   5.48536   5.49721   5.51928
 Alpha virt. eigenvalues --    5.55206   5.58538   5.60620   5.67870   5.71898
 Alpha virt. eigenvalues --    5.76282   5.82730   5.88348   5.94199   5.96275
 Alpha virt. eigenvalues --    5.99147   6.02200   6.05400   6.10330   6.16879
 Alpha virt. eigenvalues --    6.89110   6.97650   7.09397   7.26511  10.54933
 Alpha virt. eigenvalues --   11.42725  11.51702  11.75000  11.96676  12.72119
 Alpha virt. eigenvalues --   12.77141  13.18328  13.60049
          Condensed to atoms (all electrons):
               1          2          3          4          5          6
     1  O    7.831649   0.363696  -0.052721   0.002095  -0.000047   0.003329
     2  C    0.363696   4.820613   0.377570  -0.027350  -0.003125  -0.020547
     3  C   -0.052721   0.377570   5.024905   0.337344  -0.080440   0.246873
     4  C    0.002095  -0.027350   0.337344   4.785383   0.300210  -0.078957
     5  O   -0.000047  -0.003125  -0.080440   0.300210   7.927579   0.292818
     6  C    0.003329  -0.020547   0.246873  -0.078957   0.292818   4.879733
     7  C   -0.000087   0.003522  -0.002360  -0.041079  -0.056423   0.356043
     8  C    0.000008  -0.000432  -0.005902   0.004220   0.010032   0.005397
     9  C    0.000119   0.003933  -0.015157   0.379815  -0.058483  -0.040439
    10  H    0.312187  -0.067969  -0.001760   0.004884  -0.000037  -0.000082
    11  H   -0.015919   0.346276  -0.028972   0.004244   0.000439  -0.000796
    12  H   -0.024916   0.354806  -0.042159  -0.010549   0.016517   0.003578
    13  H    0.002304  -0.037017   0.336930  -0.034574   0.006655  -0.026631
    14  H    0.001146  -0.001603  -0.052333   0.368640  -0.026313   0.010861
    15  H    0.000033  -0.002624  -0.050170   0.008727  -0.026052   0.378099
    16  H    0.000000  -0.000022   0.003469   0.003318   0.001368  -0.041075
    17  H   -0.000002  -0.000062   0.005384  -0.011168  -0.000091  -0.011059
    18  H    0.000000  -0.000012  -0.000128   0.002045  -0.000187   0.002145
    19  H    0.000000  -0.000063   0.003916  -0.042409   0.001386   0.003640
               7          8          9         10         11         12
     1  O   -0.000087   0.000008   0.000119   0.312187  -0.015919  -0.024916
     2  C    0.003522  -0.000432   0.003933  -0.067969   0.346276   0.354806
     3  C   -0.002360  -0.005902  -0.015157  -0.001760  -0.028972  -0.042159
     4  C   -0.041079   0.004220   0.379815   0.004884   0.004244  -0.010549
     5  O   -0.056423   0.010032  -0.058483  -0.000037   0.000439   0.016517
     6  C    0.356043   0.005397  -0.040439  -0.000082  -0.000796   0.003578
     7  C    4.902498   0.279403   0.324244  -0.000016  -0.000254   0.000302
     8  C    0.279403   5.079274   0.279876   0.000005   0.000017  -0.000064
     9  C    0.324244   0.279876   4.887019  -0.000039  -0.000039   0.000487
    10  H   -0.000016   0.000005  -0.000039   0.467446   0.007489  -0.006213
    11  H   -0.000254   0.000017  -0.000039   0.007489   0.623906  -0.040440
    12  H    0.000302  -0.000064   0.000487  -0.006213  -0.040440   0.631161
    13  H   -0.003009  -0.002749  -0.002301  -0.000319  -0.004221   0.007235
    14  H    0.007157   0.003623  -0.055035   0.001520  -0.000044  -0.000025
    15  H   -0.058958   0.003564   0.007470   0.000015   0.002281   0.000125
    16  H    0.387110  -0.036901  -0.029538   0.000000  -0.000002  -0.000003
    17  H   -0.014579   0.366104  -0.014529   0.000007   0.000036  -0.000005
    18  H   -0.012126   0.361985  -0.012133   0.000000   0.000000   0.000001
    19  H   -0.029622  -0.037631   0.387621   0.000003   0.000002  -0.000004
              13         14         15         16         17         18
     1  O    0.002304   0.001146   0.000033   0.000000  -0.000002   0.000000
     2  C   -0.037017  -0.001603  -0.002624  -0.000022  -0.000062  -0.000012
     3  C    0.336930  -0.052333  -0.050170   0.003469   0.005384  -0.000128
     4  C   -0.034574   0.368640   0.008727   0.003318  -0.011168   0.002045
     5  O    0.006655  -0.026313  -0.026052   0.001368  -0.000091  -0.000187
     6  C   -0.026631   0.010861   0.378099  -0.041075  -0.011059   0.002145
     7  C   -0.003009   0.007157  -0.058958   0.387110  -0.014579  -0.012126
     8  C   -0.002749   0.003623   0.003564  -0.036901   0.366104   0.361985
     9  C   -0.002301  -0.055035   0.007470  -0.029538  -0.014529  -0.012133
    10  H   -0.000319   0.001520   0.000015   0.000000   0.000007   0.000000
    11  H   -0.004221  -0.000044   0.002281  -0.000002   0.000036   0.000000
    12  H    0.007235  -0.000025   0.000125  -0.000003  -0.000005   0.000001
    13  H    0.676674   0.001338   0.001451  -0.000104   0.003018   0.000314
    14  H    0.001338   0.677786  -0.000768  -0.000034   0.000142  -0.000041
    15  H    0.001451  -0.000768   0.662006  -0.003498   0.000119  -0.000037
    16  H   -0.000104  -0.000034  -0.003498   0.624628   0.002401  -0.005051
    17  H    0.003018   0.000142   0.000119   0.002401   0.588686  -0.039699
    18  H    0.000314  -0.000041  -0.000037  -0.005051  -0.039699   0.593901
    19  H   -0.000109  -0.003750  -0.000032  -0.005245   0.002394  -0.005073
              19
     1  O    0.000000
     2  C   -0.000063
     3  C    0.003916
     4  C   -0.042409
     5  O    0.001386
     6  C    0.003640
     7  C   -0.029622
     8  C   -0.037631
     9  C    0.387621
    10  H    0.000003
    11  H    0.000002
    12  H   -0.000004
    13  H   -0.000109
    14  H   -0.003750
    15  H   -0.000032
    16  H   -0.005245
    17  H    0.002394
    18  H   -0.005073
    19  H    0.626477
 Mulliken charges:
               1
     1  O   -0.422873
     2  C   -0.109590
     3  C   -0.004288
     4  C    0.045162
     5  O   -0.305806
     6  C    0.037072
     7  C   -0.041766
     8  C   -0.309831
     9  C   -0.042894
    10  H    0.282880
    11  H    0.105998
    12  H    0.110165
    13  H    0.075113
    14  H    0.067734
    15  H    0.078249
    16  H    0.099178
    17  H    0.122900
    18  H    0.114097
    19  H    0.098500
 Sum of Mulliken charges =   0.00000
 Mulliken charges with hydrogens summed into heavy atoms:
               1
     1  O   -0.139993
     2  C    0.106573
     3  C    0.070825
     4  C    0.112896
     5  O   -0.305806
     6  C    0.115320
     7  C    0.057413
     8  C   -0.072834
     9  C    0.055606
 Electronic spatial extent (au):  <R**2>=           1127.9334
 Charge=              0.0000 electrons
 Dipole moment (field-independent basis, Debye):
    X=              1.4436    Y=             -0.6021    Z=              0.1288  Tot=              1.5694
 Quadrupole moment (field-independent basis, Debye-Ang):
   XX=            -55.5291   YY=            -57.0286   ZZ=            -49.0816
   XY=             -2.8962   XZ=             -2.3560   YZ=             -2.6734
 Traceless Quadrupole moment (field-independent basis, Debye-Ang):
   XX=             -1.6493   YY=             -3.1488   ZZ=              4.7982
   XY=             -2.8962   XZ=             -2.3560   YZ=             -2.6734
 Octapole moment (field-independent basis, Debye-Ang**2):
  XXX=             18.6378  YYY=             -1.9009  ZZZ=              8.9355  XYY=             -0.8725
  XXY=              9.6192  XXZ=              9.6937  XZZ=            -12.5316  YZZ=              0.7649
  YYZ=             -5.1458  XYZ=              1.2353
 Hexadecapole moment (field-independent basis, Debye-Ang**3):
 XXXX=           -988.0453 YYYY=           -282.5477 ZZZZ=           -202.9217 XXXY=            -20.7140
 XXXZ=            -21.4908 YYYX=              6.1775 YYYZ=             -2.5032 ZZZX=             -3.8185
 ZZZY=             -2.2473 XXYY=           -208.5427 XXZZ=           -172.0396 YYZZ=            -80.1681
 XXYZ=             -7.0310 YYXZ=             -7.3460 ZZXY=             10.5431
 N-N= 4.734434497562D+02 E-N=-1.933727418753D+03  KE= 4.200233481988D+02
 Calling FoFJK, ICntrl=      2127 FMM=F ISym2X=0 I1Cent= 0 IOpClX= 0 NMat=1 NMatS=1 NMatT=0.
 ***** Axes restored to original set *****
 -------------------------------------------------------------------
 Center     Atomic                   Forces (Hartrees/Bohr)
 Number     Number              X              Y              Z
 -------------------------------------------------------------------
      1        8          -0.000058842   -0.000020865    0.000004845
      2        6           0.000069573    0.000043198   -0.000033334
      3        6          -0.000080442    0.000011153    0.000069295
      4        6           0.000043333   -0.000009712    0.000021163
      5        8           0.000045135    0.000009004   -0.000016623
      6        6          -0.000036824   -0.000025323   -0.000059436
      7        6          -0.000020493   -0.000078111    0.000010429
      8        6          -0.000067950    0.000096970   -0.000064642
      9        6           0.000064480    0.000011732    0.000036286
     10        1           0.000013052    0.000008544   -0.000004252
     11        1          -0.000013852    0.000005717   -0.000018351
     12        1           0.000004275   -0.000015451   -0.000009968
     13        1           0.000017846    0.000007499   -0.000026027
     14        1          -0.000013845   -0.000019837   -0.000004155
     15        1           0.000000336    0.000020561    0.000005173
     16        1           0.000002349    0.000013450    0.000004289
     17        1           0.000032393   -0.000023772    0.000023569
     18        1           0.000011225   -0.000020601    0.000057333
     19        1          -0.000011751   -0.000014156    0.000004406
 -------------------------------------------------------------------
 Cartesian Forces:  Max     0.000096970 RMS     0.000035976

 GradGradGradGradGradGradGradGradGradGradGradGradGradGradGradGradGradGrad
 Berny optimization.
 FormGI is forming the generalized inverse of G from B-inverse, IUseBI=4.
 Internal  Forces:  Max     0.000046138 RMS     0.000011776
 Search for a local minimum.
 Step number   1 out of a maximum of  114
 All quantities printed in internal units (Hartrees-Bohrs-Radians)
 Mixed Optimization -- En-DIIS/RFO-DIIS
 Second derivative matrix not updated -- first step.
 ITU=  0
     Eigenvalues ---    0.00448   0.01051   0.01394   0.01752   0.01901
     Eigenvalues ---    0.02273   0.02341   0.02771   0.03026   0.03066
     Eigenvalues ---    0.03177   0.04880   0.05024   0.05153   0.05917
     Eigenvalues ---    0.06230   0.07391   0.07478   0.07642   0.08210
     Eigenvalues ---    0.08541   0.10313   0.11238   0.11605   0.13852
     Eigenvalues ---    0.13939   0.14303   0.15858   0.16000   0.17033
     Eigenvalues ---    0.21031   0.21245   0.22046   0.23355   0.26457
     Eigenvalues ---    0.27194   0.28275   0.29984   0.30590   0.32029
     Eigenvalues ---    0.34093   0.34143   0.34666   0.34761   0.34773
     Eigenvalues ---    0.35233   0.35631   0.35633   0.35657   0.42086
     Eigenvalues ---    0.55039
 RFO step:  Lambda=-1.29360925D-07 EMin= 4.48463617D-03
 Linear search not attempted -- first point.
 Iteration  1 RMS(Cart)=  0.00020593 RMS(Int)=  0.00000004
 Iteration  2 RMS(Cart)=  0.00000004 RMS(Int)=  0.00000001
 Variable       Old X    -DE/DX   Delta X   Delta X   Delta X     New X
                                 (Linear)    (Quad)   (Total)
    R1        2.68814  -0.00005   0.00000  -0.00011  -0.00011   2.68803
    R2        1.81797   0.00001   0.00000   0.00002   0.00002   1.81799
    R3        2.87994   0.00003   0.00000   0.00011   0.00011   2.88006
    R4        2.07089   0.00001   0.00000   0.00003   0.00003   2.07091
    R5        2.07173   0.00002   0.00000   0.00005   0.00005   2.07178
    R6        2.93147   0.00000   0.00000  -0.00003  -0.00003   2.93144
    R7        2.92896  -0.00001   0.00000  -0.00004  -0.00004   2.92892
    R8        2.06065   0.00001   0.00000   0.00004   0.00004   2.06069
    R9        2.78500  -0.00002   0.00000  -0.00005  -0.00005   2.78495
   R10        2.91479   0.00001   0.00000   0.00002   0.00002   2.91480
   R11        2.06221  -0.00002   0.00000  -0.00006  -0.00006   2.06215
   R12        2.79149   0.00002   0.00000   0.00010   0.00010   2.79159
   R13        2.91351   0.00000   0.00000   0.00001   0.00001   2.91353
   R14        2.06045  -0.00002   0.00000  -0.00006  -0.00006   2.06039
   R15        2.84944   0.00003   0.00000   0.00013   0.00013   2.84957
   R16        2.87650   0.00003   0.00000   0.00008   0.00008   2.87658
   R17        2.04662  -0.00001   0.00000  -0.00002  -0.00002   2.04661
   R18        2.84969   0.00003   0.00000   0.00010   0.00010   2.84979
   R19        2.04622  -0.00001   0.00000  -0.00002  -0.00002   2.04620
   R20        2.05298  -0.00001   0.00000  -0.00002  -0.00002   2.05296
   R21        2.04660  -0.00001   0.00000  -0.00002  -0.00002   2.04658
    A1        1.88049   0.00002   0.00000   0.00013   0.00013   1.88062
    A2        1.95294  -0.00001   0.00000  -0.00004  -0.00004   1.95290
    A3        1.84062   0.00000   0.00000  -0.00004  -0.00004   1.84057
    A4        1.95289   0.00000   0.00000   0.00008   0.00008   1.95297
    A5        1.90662  -0.00001   0.00000  -0.00010  -0.00010   1.90653
    A6        1.92331   0.00001   0.00000   0.00012   0.00012   1.92343
    A7        1.88400   0.00000   0.00000  -0.00004  -0.00004   1.88396
    A8        2.01199  -0.00001   0.00000  -0.00012  -0.00012   2.01188
    A9        2.00388   0.00000   0.00000   0.00011   0.00011   2.00398
   A10        1.89784  -0.00001   0.00000  -0.00024  -0.00024   1.89761
   A11        1.35539   0.00001   0.00000   0.00010   0.00010   1.35549
   A12        2.06900   0.00001   0.00000   0.00014   0.00014   2.06914
   A13        2.08142   0.00000   0.00000   0.00012   0.00012   2.08154
   A14        1.52901   0.00000   0.00000  -0.00011  -0.00011   1.52890
   A15        1.85153  -0.00001   0.00000  -0.00005  -0.00005   1.85148
   A16        2.16130   0.00001   0.00000   0.00004   0.00004   2.16134
   A17        1.76958   0.00001   0.00000   0.00009   0.00009   1.76967
   A18        1.98396   0.00000   0.00000  -0.00001  -0.00001   1.98395
   A19        2.06266   0.00000   0.00000   0.00003   0.00003   2.06269
   A20        1.43877   0.00001   0.00000   0.00008   0.00008   1.43884
   A21        1.52776  -0.00002   0.00000  -0.00016  -0.00016   1.52760
   A22        1.85282   0.00000   0.00000  -0.00002  -0.00002   1.85279
   A23        2.15236   0.00001   0.00000   0.00011   0.00011   2.15247
   A24        1.76801   0.00001   0.00000   0.00007   0.00007   1.76808
   A25        1.98306   0.00000   0.00000  -0.00004  -0.00004   1.98302
   A26        2.07193   0.00000   0.00000   0.00000   0.00000   2.07193
   A27        2.09642   0.00000   0.00000  -0.00003  -0.00003   2.09639
   A28        1.70848   0.00000   0.00000   0.00001   0.00001   1.70849
   A29        2.06539   0.00001   0.00000   0.00011   0.00011   2.06549
   A30        2.09907  -0.00001   0.00000  -0.00008  -0.00008   2.09899
   A31        2.13457  -0.00001   0.00000  -0.00006  -0.00006   2.13451
   A32        2.12698  -0.00001   0.00000  -0.00014  -0.00014   2.12684
   A33        2.00831  -0.00002   0.00000  -0.00011  -0.00011   2.00820
   A34        2.12751  -0.00001   0.00000  -0.00015  -0.00015   2.12736
   A35        2.00813  -0.00002   0.00000  -0.00015  -0.00015   2.00798
   A36        1.97035   0.00004   0.00000   0.00034   0.00034   1.97069
   A37        1.70780   0.00000   0.00000   0.00003   0.00003   1.70783
   A38        2.09718   0.00000   0.00000   0.00001   0.00001   2.09719
   A39        2.06549   0.00001   0.00000   0.00010   0.00010   2.06558
   A40        2.13395  -0.00001   0.00000  -0.00010  -0.00010   2.13385
   A41        2.09864  -0.00001   0.00000  -0.00010  -0.00010   2.09854
    D1        1.26014   0.00001   0.00000   0.00033   0.00033   1.26047
    D2       -2.95199   0.00000   0.00000   0.00017   0.00017  -2.95182
    D3       -0.90808   0.00000   0.00000   0.00014   0.00014  -0.90794
    D4       -1.38780   0.00000   0.00000  -0.00042  -0.00042  -1.38822
    D5       -2.91650  -0.00001   0.00000  -0.00054  -0.00054  -2.91704
    D6        0.98426  -0.00001   0.00000  -0.00058  -0.00058   0.98368
    D7        2.86391   0.00001   0.00000  -0.00029  -0.00029   2.86362
    D8        1.33521   0.00000   0.00000  -0.00041  -0.00041   1.33480
    D9       -1.04722   0.00000   0.00000  -0.00045  -0.00045  -1.04767
   D10        0.79687   0.00001   0.00000  -0.00026  -0.00026   0.79661
   D11       -0.73183   0.00000   0.00000  -0.00038  -0.00038  -0.73221
   D12       -3.11426   0.00000   0.00000  -0.00041  -0.00041  -3.11468
   D13       -1.32841   0.00000   0.00000  -0.00008  -0.00008  -1.32849
   D14       -3.09409  -0.00001   0.00000  -0.00014  -0.00014  -3.09423
   D15        0.71561  -0.00001   0.00000  -0.00017  -0.00017   0.71545
   D16        0.62329   0.00001   0.00000   0.00008   0.00008   0.62338
   D17       -1.14238   0.00000   0.00000   0.00002   0.00002  -1.14236
   D18        2.66732   0.00000   0.00000   0.00000   0.00000   2.66732
   D19        2.66140   0.00002   0.00000   0.00028   0.00028   2.66168
   D20        0.89572   0.00001   0.00000   0.00022   0.00022   0.89594
   D21       -1.57776   0.00001   0.00000   0.00019   0.00019  -1.57757
   D22        1.33939   0.00000   0.00000  -0.00014  -0.00014   1.33925
   D23        3.10308   0.00000   0.00000  -0.00011  -0.00011   3.10297
   D24       -0.70002   0.00000   0.00000   0.00000   0.00000  -0.70003
   D25       -0.62166   0.00000   0.00000  -0.00005  -0.00005  -0.62171
   D26        1.14203   0.00001   0.00000  -0.00002  -0.00002   1.14201
   D27       -2.66107   0.00001   0.00000   0.00009   0.00009  -2.66098
   D28       -2.64595  -0.00001   0.00000  -0.00026  -0.00026  -2.64621
   D29       -0.88225  -0.00001   0.00000  -0.00023  -0.00023  -0.88249
   D30        1.59783  -0.00001   0.00000  -0.00012  -0.00012   1.59770
   D31       -0.64795   0.00000   0.00000  -0.00006  -0.00006  -0.64801
   D32        1.20087  -0.00001   0.00000  -0.00014  -0.00014   1.20073
   D33       -2.84998   0.00000   0.00000  -0.00004  -0.00004  -2.85002
   D34        0.79775   0.00000   0.00000  -0.00003  -0.00003   0.79772
   D35       -0.23875   0.00000   0.00000  -0.00007  -0.00007  -0.23882
   D36        3.12546   0.00000   0.00000  -0.00007  -0.00007   3.12539
   D37       -0.78678   0.00000   0.00000   0.00007   0.00007  -0.78671
   D38       -1.82329   0.00000   0.00000   0.00004   0.00004  -1.82325
   D39        1.54092   0.00000   0.00000   0.00004   0.00004   1.54096
   D40       -2.96725   0.00000   0.00000   0.00000   0.00000  -2.96725
   D41        2.27943   0.00000   0.00000  -0.00003  -0.00003   2.27940
   D42       -0.63954   0.00000   0.00000  -0.00004  -0.00004  -0.63958
   D43        0.64864   0.00000   0.00000   0.00006   0.00006   0.64871
   D44       -1.20122   0.00001   0.00000   0.00012   0.00012  -1.20110
   D45        2.83975   0.00000   0.00000   0.00009   0.00009   2.83985
   D46        0.24087   0.00000   0.00000   0.00007   0.00007   0.24094
   D47       -0.79635   0.00001   0.00000   0.00007   0.00007  -0.79628
   D48       -3.12541   0.00001   0.00000   0.00007   0.00007  -3.12534
   D49        1.82388  -0.00001   0.00000  -0.00008  -0.00008   1.82380
   D50        0.78666  -0.00001   0.00000  -0.00009  -0.00009   0.78657
   D51       -1.54241  -0.00001   0.00000  -0.00008  -0.00008  -1.54249
   D52       -2.27549   0.00000   0.00000  -0.00008  -0.00008  -2.27557
   D53        2.97048   0.00000   0.00000  -0.00009  -0.00009   2.97039
   D54        0.64142   0.00000   0.00000  -0.00008  -0.00008   0.64133
   D55        0.52855  -0.00001   0.00000  -0.00017  -0.00017   0.52838
   D56        3.02073   0.00002   0.00000   0.00010   0.00010   3.02083
   D57       -2.38399  -0.00002   0.00000  -0.00019  -0.00019  -2.38418
   D58        0.10819   0.00001   0.00000   0.00008   0.00008   0.10827
   D59       -0.00132   0.00000   0.00000  -0.00002  -0.00002  -0.00134
   D60       -2.28473  -0.00001   0.00000  -0.00011  -0.00011  -2.28485
   D61        2.28306   0.00001   0.00000   0.00009   0.00009   2.28314
   D62       -0.00036   0.00000   0.00000   0.00000   0.00000  -0.00036
   D63       -0.52922   0.00001   0.00000   0.00017   0.00017  -0.52906
   D64        2.38550   0.00002   0.00000   0.00020   0.00020   2.38569
   D65       -3.02196  -0.00001   0.00000  -0.00003  -0.00003  -3.02198
   D66       -0.10723  -0.00001   0.00000   0.00000   0.00000  -0.10723
         Item               Value     Threshold  Converged?
 Maximum Force            0.000046     0.000450     YES
 RMS     Force            0.000012     0.000300     YES
 Maximum Displacement     0.001027     0.001800     YES
 RMS     Displacement     0.000206     0.001200     YES
 Predicted change in Energy=-6.468027D-08
 Optimization completed.
    -- Stationary point found.
                           ----------------------------
                           !   Optimized Parameters   !
                           ! (Angstroms and Degrees)  !
 --------------------------                            --------------------------
 ! Name  Definition              Value          Derivative Info.                !
 --------------------------------------------------------------------------------
 ! R1    R(1,2)                  1.4225         -DE/DX =    0.0                 !
 ! R2    R(1,10)                 0.962          -DE/DX =    0.0                 !
 ! R3    R(2,3)                  1.524          -DE/DX =    0.0                 !
 ! R4    R(2,11)                 1.0959         -DE/DX =    0.0                 !
 ! R5    R(2,12)                 1.0963         -DE/DX =    0.0                 !
 ! R6    R(3,4)                  1.5513         -DE/DX =    0.0                 !
 ! R7    R(3,6)                  1.5499         -DE/DX =    0.0                 !
 ! R8    R(3,13)                 1.0904         -DE/DX =    0.0                 !
 ! R9    R(4,5)                  1.4738         -DE/DX =    0.0                 !
 ! R10   R(4,9)                  1.5424         -DE/DX =    0.0                 !
 ! R11   R(4,14)                 1.0913         -DE/DX =    0.0                 !
 ! R12   R(5,6)                  1.4772         -DE/DX =    0.0                 !
 ! R13   R(6,7)                  1.5418         -DE/DX =    0.0                 !
 ! R14   R(6,15)                 1.0903         -DE/DX =    0.0                 !
 ! R15   R(7,8)                  1.5079         -DE/DX =    0.0                 !
 ! R16   R(7,9)                  1.5222         -DE/DX =    0.0                 !
 ! R17   R(7,16)                 1.083          -DE/DX =    0.0                 !
 ! R18   R(8,9)                  1.508          -DE/DX =    0.0                 !
 ! R19   R(8,17)                 1.0828         -DE/DX =    0.0                 !
 ! R20   R(8,18)                 1.0864         -DE/DX =    0.0                 !
 ! R21   R(9,19)                 1.083          -DE/DX =    0.0                 !
 ! A1    A(2,1,10)             107.7442         -DE/DX =    0.0                 !
 ! A2    A(1,2,3)              111.8954         -DE/DX =    0.0                 !
 ! A3    A(1,2,11)             105.4595         -DE/DX =    0.0                 !
 ! A4    A(1,2,12)             111.8926         -DE/DX =    0.0                 !
 ! A5    A(3,2,11)             109.2415         -DE/DX =    0.0                 !
 ! A6    A(3,2,12)             110.1973         -DE/DX =    0.0                 !
 ! A7    A(11,2,12)            107.9452         -DE/DX =    0.0                 !
 ! A8    A(2,3,4)              115.2788         -DE/DX =    0.0                 !
 ! A9    A(2,3,6)              114.8138         -DE/DX =    0.0                 !
 ! A10   A(2,3,13)             108.7384         -DE/DX =    0.0                 !
 ! A11   A(4,3,6)               77.6579         -DE/DX =    0.0                 !
 ! A12   A(4,3,13)             118.5452         -DE/DX =    0.0                 !
 ! A13   A(6,3,13)             119.2565         -DE/DX =    0.0                 !
 ! A14   A(3,4,5)               87.6058         -DE/DX =    0.0                 !
 ! A15   A(3,4,9)              106.0851         -DE/DX =    0.0                 !
 ! A16   A(3,4,14)             123.8333         -DE/DX =    0.0                 !
 ! A17   A(5,4,9)              101.3897         -DE/DX =    0.0                 !
 ! A18   A(5,4,14)             113.6728         -DE/DX =    0.0                 !
 ! A19   A(9,4,14)             118.182          -DE/DX =    0.0                 !
 ! A20   A(4,5,6)               82.4354         -DE/DX =    0.0                 !
 ! A21   A(3,6,5)               87.5339         -DE/DX =    0.0                 !
 ! A22   A(3,6,7)              106.1585         -DE/DX =    0.0                 !
 ! A23   A(3,6,15)             123.3213         -DE/DX =    0.0                 !
 ! A24   A(5,6,7)              101.2993         -DE/DX =    0.0                 !
 ! A25   A(5,6,15)             113.6212         -DE/DX =    0.0                 !
 ! A26   A(7,6,15)             118.7128         -DE/DX =    0.0                 !
 ! A27   A(6,7,8)              120.1162         -DE/DX =    0.0                 !
 ! A28   A(6,7,9)               97.8888         -DE/DX =    0.0                 !
 ! A29   A(6,7,16)             118.3379         -DE/DX =    0.0                 !
 ! A30   A(8,7,16)             120.2679         -DE/DX =    0.0                 !
 ! A31   A(9,7,16)             122.302          -DE/DX =    0.0                 !
 ! A32   A(7,8,17)             121.8667         -DE/DX =    0.0                 !
 ! A33   A(7,8,18)             115.0678         -DE/DX =    0.0                 !
 ! A34   A(9,8,17)             121.8974         -DE/DX =    0.0                 !
 ! A35   A(9,8,18)             115.0571         -DE/DX =    0.0                 !
 ! A36   A(17,8,18)            112.8925         -DE/DX =    0.0                 !
 ! A37   A(4,9,7)               97.8498         -DE/DX =    0.0                 !
 ! A38   A(4,9,8)              120.1595         -DE/DX =    0.0                 !
 ! A39   A(4,9,19)             118.3437         -DE/DX =    0.0                 !
 ! A40   A(7,9,19)             122.2661         -DE/DX =    0.0                 !
 ! A41   A(8,9,19)             120.2433         -DE/DX =    0.0                 !
 ! D1    D(10,1,2,3)            72.2008         -DE/DX =    0.0                 !
 ! D2    D(10,1,2,11)         -169.1364         -DE/DX =    0.0                 !
 ! D3    D(10,1,2,12)          -52.0293         -DE/DX =    0.0                 !
 ! D4    D(1,2,3,4)            -79.515          -DE/DX =    0.0                 !
 ! D5    D(1,2,3,6)           -167.1031         -DE/DX =    0.0                 !
 ! D6    D(1,2,3,13)            56.3939         -DE/DX =    0.0                 !
 ! D7    D(11,2,3,4)           164.0897         -DE/DX =    0.0                 !
 ! D8    D(11,2,3,6)            76.5016         -DE/DX =    0.0                 !
 ! D9    D(11,2,3,13)          -60.0014         -DE/DX =    0.0                 !
 ! D10   D(12,2,3,4)            45.6571         -DE/DX =    0.0                 !
 ! D11   D(12,2,3,6)           -41.931          -DE/DX =    0.0                 !
 ! D12   D(12,2,3,13)         -178.434          -DE/DX =    0.0                 !
 ! D13   D(2,3,4,5)            -76.1123         -DE/DX =    0.0                 !
 ! D14   D(2,3,4,9)           -177.2782         -DE/DX =    0.0                 !
 ! D15   D(2,3,4,14)            41.0017         -DE/DX =    0.0                 !
 ! D16   D(6,3,4,5)             35.7121         -DE/DX =    0.0                 !
 ! D17   D(6,3,4,9)            -65.4538         -DE/DX =    0.0                 !
 ! D18   D(6,3,4,14)           152.8261         -DE/DX =    0.0                 !
 ! D19   D(13,3,4,5)           152.487          -DE/DX =    0.0                 !
 ! D20   D(13,3,4,9)            51.3211         -DE/DX =    0.0                 !
 ! D21   D(13,3,4,14)          -90.399          -DE/DX =    0.0                 !
 ! D22   D(2,3,6,5)             76.7413         -DE/DX =    0.0                 !
 ! D23   D(2,3,6,7)            177.7935         -DE/DX =    0.0                 !
 ! D24   D(2,3,6,15)           -40.1084         -DE/DX =    0.0                 !
 ! D25   D(4,3,6,5)            -35.6185         -DE/DX =    0.0                 !
 ! D26   D(4,3,6,7)             65.4337         -DE/DX =    0.0                 !
 ! D27   D(4,3,6,15)          -152.4682         -DE/DX =    0.0                 !
 ! D28   D(13,3,6,5)          -151.6017         -DE/DX =    0.0                 !
 ! D29   D(13,3,6,7)           -50.5495         -DE/DX =    0.0                 !
 ! D30   D(13,3,6,15)           91.5486         -DE/DX =    0.0                 !
 ! D31   D(3,4,5,6)            -37.125          -DE/DX =    0.0                 !
 ! D32   D(9,4,5,6)             68.8045         -DE/DX =    0.0                 !
 ! D33   D(14,4,5,6)          -163.2916         -DE/DX =    0.0                 !
 ! D34   D(3,4,9,7)             45.7078         -DE/DX =    0.0                 !
 ! D35   D(3,4,9,8)            -13.6794         -DE/DX =    0.0                 !
 ! D36   D(3,4,9,19)           179.0756         -DE/DX =    0.0                 !
 ! D37   D(5,4,9,7)            -45.0793         -DE/DX =    0.0                 !
 ! D38   D(5,4,9,8)           -104.4666         -DE/DX =    0.0                 !
 ! D39   D(5,4,9,19)            88.2885         -DE/DX =    0.0                 !
 ! D40   D(14,4,9,7)          -170.0109         -DE/DX =    0.0                 !
 ! D41   D(14,4,9,8)           130.6019         -DE/DX =    0.0                 !
 ! D42   D(14,4,9,19)          -36.6431         -DE/DX =    0.0                 !
 ! D43   D(4,5,6,3)             37.1645         -DE/DX =    0.0                 !
 ! D44   D(4,5,6,7)            -68.8246         -DE/DX =    0.0                 !
 ! D45   D(4,5,6,15)           162.7058         -DE/DX =    0.0                 !
 ! D46   D(3,6,7,8)             13.8009         -DE/DX =    0.0                 !
 ! D47   D(3,6,7,9)            -45.6273         -DE/DX =    0.0                 !
 ! D48   D(3,6,7,16)          -179.0729         -DE/DX =    0.0                 !
 ! D49   D(5,6,7,8)            104.5005         -DE/DX =    0.0                 !
 ! D50   D(5,6,7,9)             45.0723         -DE/DX =    0.0                 !
 ! D51   D(5,6,7,16)           -88.3734         -DE/DX =    0.0                 !
 ! D52   D(15,6,7,8)          -130.3758         -DE/DX =    0.0                 !
 ! D53   D(15,6,7,9)           170.196          -DE/DX =    0.0                 !
 ! D54   D(15,6,7,16)           36.7504         -DE/DX =    0.0                 !
 ! D55   D(6,7,8,17)            30.2834         -DE/DX =    0.0                 !
 ! D56   D(6,7,8,18)           173.075          -DE/DX =    0.0                 !
 ! D57   D(16,7,8,17)         -136.5927         -DE/DX =    0.0                 !
 ! D58   D(16,7,8,18)            6.199          -DE/DX =    0.0                 !
 ! D59   D(6,7,9,4)             -0.0757         -DE/DX =    0.0                 !
 ! D60   D(6,7,9,19)          -130.9056         -DE/DX =    0.0                 !
 ! D61   D(16,7,9,4)           130.8095         -DE/DX =    0.0                 !
 ! D62   D(16,7,9,19)           -0.0204         -DE/DX =    0.0                 !
 ! D63   D(17,8,9,4)           -30.3223         -DE/DX =    0.0                 !
 ! D64   D(17,8,9,19)          136.679          -DE/DX =    0.0                 !
 ! D65   D(18,8,9,4)          -173.1454         -DE/DX =    0.0                 !
 ! D66   D(18,8,9,19)           -6.144          -DE/DX =    0.0                 !
 --------------------------------------------------------------------------------
 GradGradGradGradGradGradGradGradGradGradGradGradGradGradGradGradGradGrad

                          Input orientation:                          
 ---------------------------------------------------------------------
 Center     Atomic      Atomic             Coordinates (Angstroms)
 Number     Number       Type             X           Y           Z
 ---------------------------------------------------------------------
      1          8           0        1.338979    0.888543   -0.011956
      2          6           0        0.319007    0.013948    0.455218
      3          6           0       -0.877928    0.779748    1.006105
      4          6           0       -0.705816    1.331450    2.445700
      5          8           0       -0.921098   -0.043059    2.931856
      6          6           0       -1.884609   -0.079469    1.812737
      7          6           0       -2.970301    0.892081    2.317122
      8          6           0       -3.069969    2.281280    1.739342
      9          6           0       -2.048060    1.997614    2.811381
     10          1           0        1.756969    1.288525    0.756680
     11          1           0        0.005565   -0.563951   -0.421543
     12          1           0        0.696391   -0.689803    1.206360
     13          1           0       -1.250755    1.451085    0.231905
     14          1           0        0.213783    1.788018    2.815514
     15          1           0       -2.178632   -1.088372    1.522026
     16          1           0       -3.774173    0.494387    2.924228
     17          1           0       -2.782758    2.497582    0.717968
     18          1           0       -3.932660    2.854971    2.066277
     19          1           0       -2.151365    2.440403    3.794327
 ---------------------------------------------------------------------
                    Distance matrix (angstroms):
                    1          2          3          4          5
     1  O    0.000000
     2  C    1.422502   0.000000
     3  C    2.441918   1.524001   0.000000
     4  C    3.227604   2.597709   1.551268   0.000000
     5  O    3.826469   2.770351   2.094610   1.473760   0.000000
     6  C    3.828586   2.589886   1.549940   1.944449   1.477195
     7  C    4.898419   3.880380   2.471722   2.310296   2.334870
     8  C    4.944247   4.274918   2.756316   2.643925   3.382645
     9  C    4.546790   3.884513   2.472130   1.542438   2.334288
    10  H    0.962030   1.945035   2.695134   2.986627   3.698182
    11  H    2.013826   1.095866   2.150411   3.509942   3.517857
    12  H    2.094849   1.096311   2.162906   2.754562   2.451915
    13  H    2.661324   2.139950   1.090449   2.283015   3.103365
    14  H    3.173280   2.954555   2.341454   1.091275   2.157391
    15  H    4.316815   2.931107   2.334069   2.979580   2.159095
    16  H    5.909387   4.804264   3.485521   3.216283   2.903264
    17  H    4.484475   3.982263   2.581154   2.942551   3.849926
    18  H    5.998006   5.361306   3.842123   3.588538   4.268174
    19  H    5.392454   4.810412   3.486201   2.266756   2.902584
                    6          7          8          9         10
     6  C    0.000000
     7  C    1.541765   0.000000
     8  C    2.642650   1.507858   0.000000
     9  C    2.310471   1.522177   1.507990   0.000000
    10  H    4.030850   4.993919   5.024989   4.382105   0.000000
    11  H    2.966394   4.298383   4.714199   4.607688   2.808432
    12  H    2.720618   4.144971   4.826684   4.162969   2.289283
    13  H    2.289846   2.759973   2.504222   2.754647   3.057486
    14  H    2.982670   3.345070   3.490628   2.271537   2.621014
    15  H    1.090344   2.276206   3.492315   3.347058   4.660939
    16  H    2.266092   1.083027   2.256733   2.291700   5.993534
    17  H    2.940473   2.273784   1.082811   2.274231   4.698132
    18  H    3.587441   2.200453   1.086391   2.200445   6.044889
    19  H    3.216770   2.291308   2.256572   1.083013   5.082243
                   11         12         13         14         15
    11  H    0.000000
    12  H    1.772893   0.000000
    13  H    2.462866   3.053579   0.000000
    14  H    4.006701   2.993641   2.988885   0.000000
    15  H    2.970387   2.919634   2.995699   3.958584   0.000000
    16  H    5.157585   4.933490   3.812021   4.193935   2.648971
    17  H    4.294906   4.743673   1.917927   3.725914   3.724318
    18  H    5.778226   5.893471   3.539552   4.346578   4.350032
    19  H    5.608213   4.960391   3.805351   2.641516   4.197183
                   16         17         18         19
    16  H    0.000000
    17  H    3.140584   0.000000
    18  H    2.516655   1.807744   0.000000
    19  H    2.679096   3.141004   2.516155   0.000000
 Stoichiometry    C7H10O2
 Framework group  C1[X(C7H10O2)]
 Deg. of freedom    51
 Full point group                 C1      NOp   1
 Largest Abelian subgroup         C1      NOp   1
 Largest concise Abelian subgroup C1      NOp   1
                         Standard orientation:                         
 ---------------------------------------------------------------------
 Center     Atomic      Atomic             Coordinates (Angstroms)
 Number     Number       Type             X           Y           Z
 ---------------------------------------------------------------------
      1          8           0       -2.895982   -0.776513    0.168474
      2          6           0       -2.036845    0.151947   -0.482186
      3          6           0       -0.573108   -0.259742   -0.379399
      4          6           0        0.113744    0.067646    0.972445
      5          8           0        0.179628    1.471365    0.528372
      6          6           0        0.441829    0.840548   -0.781370
      7          6           0        1.841977    0.237471   -0.551314
      8          6           0        2.000250   -1.246148   -0.333456
      9          6           0        1.585269   -0.369143    0.820963
     10          1           0       -2.776339   -0.671539    1.117245
     11          1           0       -2.341308    0.143505   -1.534875
     12          1           0       -2.171281    1.170590   -0.099836
     13          1           0       -0.461790   -1.263444   -0.790824
     14          1           0       -0.365021   -0.062416    1.944427
     15          1           0        0.293326    1.512210   -1.627340
     16          1           0        2.707767    0.854194   -0.758700
     17          1           0        1.323297   -1.964695   -0.778321
     18          1           0        3.027069   -1.599100   -0.297238
     19          1           0        2.256411   -0.213590    1.656599
 ---------------------------------------------------------------------
 Rotational constants (GHZ):      3.5174630      1.2394257      1.1494717
 1\1\GINC-ALCHEMY-AL\FOpt\RB3LYP\6-31G(2df,p)\C7H10O2\PUCK\31-Jan-2020\
 0\\# b3lyp 6-31G(2df,p) opt Freq\\titel\\0,1\O,1.3389792829,0.88854341
 04,-0.0119559074\C,0.3190067636,0.0139476955,0.4552183059\C,-0.8779279
 398,0.7797476739,1.0061048407\C,-0.7058162318,1.3314496318,2.445699896
 4\O,-0.9210983095,-0.0430590302,2.9318558012\C,-1.8846089764,-0.079468
 5333,1.8127374951\C,-2.9703012568,0.8920812122,2.3171216139\C,-3.06996
 88126,2.2812802585,1.7393417746\C,-2.0480598757,1.9976137522,2.8113808
 729\H,1.7569691349,1.2885245539,0.7566801894\H,0.0055654698,-0.5639508
 1,-0.4215434209\H,0.6963912659,-0.6898032591,1.2063600771\H,-1.2507553
 302,1.4510854529,0.2319053005\H,0.2137830918,1.7880184653,2.8155142109
 \H,-2.178632106,-1.0883724696,1.5220262613\H,-3.774172807,0.4943871633
 ,2.9242276459\H,-2.7827582955,2.4975816456,0.7179684039\H,-3.932660446
 7,2.8549708723,2.0662771625\H,-2.151364871,2.4404030544,3.794326636\\V
 ersion=ES64L-G09RevD.01\State=1-A\HF=-423.1207062\RMSD=3.038e-09\RMSF=
 3.598e-05\Dipole=-0.4629983,0.3670355,0.179378\Quadrupole=1.8411543,1.
 2001788,-3.0413331,1.0704474,2.5719916,2.5902334\PG=C01 [X(C7H10O2)]\\
 @


 FAULTILY FAULTLESS, ICILY REGULAR, SPLENDIDLY NULL...
           MAUDE BY TENNYSON
 Job cpu time:       0 days  0 hours  6 minutes 33.4 seconds.
 File lengths (MBytes):  RWF=     52 Int=      0 D2E=      0 Chk=      7 Scr=      1
 Normal termination of Gaussian 09 at Fri Jan 31 16:04:24 2020.
 Link1:  Proceeding to internal job step number  2.
 ----------------------------------------------------------------------
 #N Geom=AllCheck Guess=TCheck SCRF=Check GenChk RB3LYP/6-31G(2df,p) Fr
 eq
 ----------------------------------------------------------------------
 1/10=4,29=7,30=1,38=1,40=1/1,3;
 2/12=2,40=1/2;
 3/5=1,6=6,7=104,11=2,14=-4,16=1,25=1,30=1,70=2,71=2,74=-5,116=1,140=1/1,2,3;
 4/5=101/1;
 5/5=2,98=1/2;
 8/6=4,10=90,11=11/1;
 11/6=1,8=1,9=11,15=111,16=1/1,2,10;
 10/6=1/2;
 6/7=2,8=2,9=2,10=2,18=1,28=1/1;
 7/8=1,10=1,25=1/1,2,3,16;
 1/10=4,30=1/3;
 99//99;
 Structure from the checkpoint file:  "/scratch/puck/g09_c243e2f3-5b54-4e5c-a897-d19af1567054/Gau-175145.chk"
 -----
 titel
 -----
 Charge =  0 Multiplicity = 1
 Redundant internal coordinates found in file.
 O,0,1.3389792829,0.8885434104,-0.0119559074
 C,0,0.3190067636,0.0139476955,0.4552183059
 C,0,-0.8779279398,0.7797476739,1.0061048407
 C,0,-0.7058162318,1.3314496318,2.4456998964
 O,0,-0.9210983095,-0.0430590302,2.9318558012
 C,0,-1.8846089764,-0.0794685333,1.8127374951
 C,0,-2.9703012568,0.8920812122,2.3171216139
 C,0,-3.0699688126,2.2812802585,1.7393417746
 C,0,-2.0480598757,1.9976137522,2.8113808729
 H,0,1.7569691349,1.2885245539,0.7566801894
 H,0,0.0055654698,-0.56395081,-0.4215434209
 H,0,0.6963912659,-0.6898032591,1.2063600771
 H,0,-1.2507553302,1.4510854529,0.2319053005
 H,0,0.2137830918,1.7880184653,2.8155142109
 H,0,-2.178632106,-1.0883724696,1.5220262613
 H,0,-3.774172807,0.4943871633,2.9242276459
 H,0,-2.7827582955,2.4975816456,0.7179684039
 H,0,-3.9326604467,2.8549708723,2.0662771625
 H,0,-2.151364871,2.4404030544,3.794326636
 Recover connectivity data from disk.

 GradGradGradGradGradGradGradGradGradGradGradGradGradGradGradGradGradGrad
 Berny optimization.
 Initialization pass.
                           ----------------------------
                           !    Initial Parameters    !
                           ! (Angstroms and Degrees)  !
 --------------------------                            --------------------------
 ! Name  Definition              Value          Derivative Info.                !
 --------------------------------------------------------------------------------
 ! R1    R(1,2)                  1.4225         calculate D2E/DX2 analytically  !
 ! R2    R(1,10)                 0.962          calculate D2E/DX2 analytically  !
 ! R3    R(2,3)                  1.524          calculate D2E/DX2 analytically  !
 ! R4    R(2,11)                 1.0959         calculate D2E/DX2 analytically  !
 ! R5    R(2,12)                 1.0963         calculate D2E/DX2 analytically  !
 ! R6    R(3,4)                  1.5513         calculate D2E/DX2 analytically  !
 ! R7    R(3,6)                  1.5499         calculate D2E/DX2 analytically  !
 ! R8    R(3,13)                 1.0904         calculate D2E/DX2 analytically  !
 ! R9    R(4,5)                  1.4738         calculate D2E/DX2 analytically  !
 ! R10   R(4,9)                  1.5424         calculate D2E/DX2 analytically  !
 ! R11   R(4,14)                 1.0913         calculate D2E/DX2 analytically  !
 ! R12   R(5,6)                  1.4772         calculate D2E/DX2 analytically  !
 ! R13   R(6,7)                  1.5418         calculate D2E/DX2 analytically  !
 ! R14   R(6,15)                 1.0903         calculate D2E/DX2 analytically  !
 ! R15   R(7,8)                  1.5079         calculate D2E/DX2 analytically  !
 ! R16   R(7,9)                  1.5222         calculate D2E/DX2 analytically  !
 ! R17   R(7,16)                 1.083          calculate D2E/DX2 analytically  !
 ! R18   R(8,9)                  1.508          calculate D2E/DX2 analytically  !
 ! R19   R(8,17)                 1.0828         calculate D2E/DX2 analytically  !
 ! R20   R(8,18)                 1.0864         calculate D2E/DX2 analytically  !
 ! R21   R(9,19)                 1.083          calculate D2E/DX2 analytically  !
 ! A1    A(2,1,10)             107.7442         calculate D2E/DX2 analytically  !
 ! A2    A(1,2,3)              111.8954         calculate D2E/DX2 analytically  !
 ! A3    A(1,2,11)             105.4595         calculate D2E/DX2 analytically  !
 ! A4    A(1,2,12)             111.8926         calculate D2E/DX2 analytically  !
 ! A5    A(3,2,11)             109.2415         calculate D2E/DX2 analytically  !
 ! A6    A(3,2,12)             110.1973         calculate D2E/DX2 analytically  !
 ! A7    A(11,2,12)            107.9452         calculate D2E/DX2 analytically  !
 ! A8    A(2,3,4)              115.2788         calculate D2E/DX2 analytically  !
 ! A9    A(2,3,6)              114.8138         calculate D2E/DX2 analytically  !
 ! A10   A(2,3,13)             108.7384         calculate D2E/DX2 analytically  !
 ! A11   A(4,3,6)               77.6579         calculate D2E/DX2 analytically  !
 ! A12   A(4,3,13)             118.5452         calculate D2E/DX2 analytically  !
 ! A13   A(6,3,13)             119.2565         calculate D2E/DX2 analytically  !
 ! A14   A(3,4,5)               87.6058         calculate D2E/DX2 analytically  !
 ! A15   A(3,4,9)              106.0851         calculate D2E/DX2 analytically  !
 ! A16   A(3,4,14)             123.8333         calculate D2E/DX2 analytically  !
 ! A17   A(5,4,9)              101.3897         calculate D2E/DX2 analytically  !
 ! A18   A(5,4,14)             113.6728         calculate D2E/DX2 analytically  !
 ! A19   A(9,4,14)             118.182          calculate D2E/DX2 analytically  !
 ! A20   A(4,5,6)               82.4354         calculate D2E/DX2 analytically  !
 ! A21   A(3,6,5)               87.5339         calculate D2E/DX2 analytically  !
 ! A22   A(3,6,7)              106.1585         calculate D2E/DX2 analytically  !
 ! A23   A(3,6,15)             123.3213         calculate D2E/DX2 analytically  !
 ! A24   A(5,6,7)              101.2993         calculate D2E/DX2 analytically  !
 ! A25   A(5,6,15)             113.6212         calculate D2E/DX2 analytically  !
 ! A26   A(7,6,15)             118.7128         calculate D2E/DX2 analytically  !
 ! A27   A(6,7,8)              120.1162         calculate D2E/DX2 analytically  !
 ! A28   A(6,7,9)               97.8888         calculate D2E/DX2 analytically  !
 ! A29   A(6,7,16)             118.3379         calculate D2E/DX2 analytically  !
 ! A30   A(8,7,16)             120.2679         calculate D2E/DX2 analytically  !
 ! A31   A(9,7,16)             122.302          calculate D2E/DX2 analytically  !
 ! A32   A(7,8,17)             121.8667         calculate D2E/DX2 analytically  !
 ! A33   A(7,8,18)             115.0678         calculate D2E/DX2 analytically  !
 ! A34   A(9,8,17)             121.8974         calculate D2E/DX2 analytically  !
 ! A35   A(9,8,18)             115.0571         calculate D2E/DX2 analytically  !
 ! A36   A(17,8,18)            112.8925         calculate D2E/DX2 analytically  !
 ! A37   A(4,9,7)               97.8498         calculate D2E/DX2 analytically  !
 ! A38   A(4,9,8)              120.1595         calculate D2E/DX2 analytically  !
 ! A39   A(4,9,19)             118.3437         calculate D2E/DX2 analytically  !
 ! A40   A(7,9,19)             122.2661         calculate D2E/DX2 analytically  !
 ! A41   A(8,9,19)             120.2433         calculate D2E/DX2 analytically  !
 ! D1    D(10,1,2,3)            72.2008         calculate D2E/DX2 analytically  !
 ! D2    D(10,1,2,11)         -169.1364         calculate D2E/DX2 analytically  !
 ! D3    D(10,1,2,12)          -52.0293         calculate D2E/DX2 analytically  !
 ! D4    D(1,2,3,4)            -79.515          calculate D2E/DX2 analytically  !
 ! D5    D(1,2,3,6)           -167.1031         calculate D2E/DX2 analytically  !
 ! D6    D(1,2,3,13)            56.3939         calculate D2E/DX2 analytically  !
 ! D7    D(11,2,3,4)           164.0897         calculate D2E/DX2 analytically  !
 ! D8    D(11,2,3,6)            76.5016         calculate D2E/DX2 analytically  !
 ! D9    D(11,2,3,13)          -60.0014         calculate D2E/DX2 analytically  !
 ! D10   D(12,2,3,4)            45.6571         calculate D2E/DX2 analytically  !
 ! D11   D(12,2,3,6)           -41.931          calculate D2E/DX2 analytically  !
 ! D12   D(12,2,3,13)         -178.434          calculate D2E/DX2 analytically  !
 ! D13   D(2,3,4,5)            -76.1123         calculate D2E/DX2 analytically  !
 ! D14   D(2,3,4,9)           -177.2782         calculate D2E/DX2 analytically  !
 ! D15   D(2,3,4,14)            41.0017         calculate D2E/DX2 analytically  !
 ! D16   D(6,3,4,5)             35.7121         calculate D2E/DX2 analytically  !
 ! D17   D(6,3,4,9)            -65.4538         calculate D2E/DX2 analytically  !
 ! D18   D(6,3,4,14)           152.8261         calculate D2E/DX2 analytically  !
 ! D19   D(13,3,4,5)           152.487          calculate D2E/DX2 analytically  !
 ! D20   D(13,3,4,9)            51.3211         calculate D2E/DX2 analytically  !
 ! D21   D(13,3,4,14)          -90.399          calculate D2E/DX2 analytically  !
 ! D22   D(2,3,6,5)             76.7413         calculate D2E/DX2 analytically  !
 ! D23   D(2,3,6,7)            177.7935         calculate D2E/DX2 analytically  !
 ! D24   D(2,3,6,15)           -40.1084         calculate D2E/DX2 analytically  !
 ! D25   D(4,3,6,5)            -35.6185         calculate D2E/DX2 analytically  !
 ! D26   D(4,3,6,7)             65.4337         calculate D2E/DX2 analytically  !
 ! D27   D(4,3,6,15)          -152.4682         calculate D2E/DX2 analytically  !
 ! D28   D(13,3,6,5)          -151.6017         calculate D2E/DX2 analytically  !
 ! D29   D(13,3,6,7)           -50.5495         calculate D2E/DX2 analytically  !
 ! D30   D(13,3,6,15)           91.5486         calculate D2E/DX2 analytically  !
 ! D31   D(3,4,5,6)            -37.125          calculate D2E/DX2 analytically  !
 ! D32   D(9,4,5,6)             68.8045         calculate D2E/DX2 analytically  !
 ! D33   D(14,4,5,6)          -163.2916         calculate D2E/DX2 analytically  !
 ! D34   D(3,4,9,7)             45.7078         calculate D2E/DX2 analytically  !
 ! D35   D(3,4,9,8)            -13.6794         calculate D2E/DX2 analytically  !
 ! D36   D(3,4,9,19)           179.0756         calculate D2E/DX2 analytically  !
 ! D37   D(5,4,9,7)            -45.0793         calculate D2E/DX2 analytically  !
 ! D38   D(5,4,9,8)           -104.4666         calculate D2E/DX2 analytically  !
 ! D39   D(5,4,9,19)            88.2885         calculate D2E/DX2 analytically  !
 ! D40   D(14,4,9,7)          -170.0109         calculate D2E/DX2 analytically  !
 ! D41   D(14,4,9,8)           130.6019         calculate D2E/DX2 analytically  !
 ! D42   D(14,4,9,19)          -36.6431         calculate D2E/DX2 analytically  !
 ! D43   D(4,5,6,3)             37.1645         calculate D2E/DX2 analytically  !
 ! D44   D(4,5,6,7)            -68.8246         calculate D2E/DX2 analytically  !
 ! D45   D(4,5,6,15)           162.7058         calculate D2E/DX2 analytically  !
 ! D46   D(3,6,7,8)             13.8009         calculate D2E/DX2 analytically  !
 ! D47   D(3,6,7,9)            -45.6273         calculate D2E/DX2 analytically  !
 ! D48   D(3,6,7,16)          -179.0729         calculate D2E/DX2 analytically  !
 ! D49   D(5,6,7,8)            104.5005         calculate D2E/DX2 analytically  !
 ! D50   D(5,6,7,9)             45.0723         calculate D2E/DX2 analytically  !
 ! D51   D(5,6,7,16)           -88.3734         calculate D2E/DX2 analytically  !
 ! D52   D(15,6,7,8)          -130.3758         calculate D2E/DX2 analytically  !
 ! D53   D(15,6,7,9)           170.196          calculate D2E/DX2 analytically  !
 ! D54   D(15,6,7,16)           36.7504         calculate D2E/DX2 analytically  !
 ! D55   D(6,7,8,17)            30.2834         calculate D2E/DX2 analytically  !
 ! D56   D(6,7,8,18)           173.075          calculate D2E/DX2 analytically  !
 ! D57   D(16,7,8,17)         -136.5927         calculate D2E/DX2 analytically  !
 ! D58   D(16,7,8,18)            6.199          calculate D2E/DX2 analytically  !
 ! D59   D(6,7,9,4)             -0.0757         calculate D2E/DX2 analytically  !
 ! D60   D(6,7,9,19)          -130.9056         calculate D2E/DX2 analytically  !
 ! D61   D(16,7,9,4)           130.8095         calculate D2E/DX2 analytically  !
 ! D62   D(16,7,9,19)           -0.0204         calculate D2E/DX2 analytically  !
 ! D63   D(17,8,9,4)           -30.3223         calculate D2E/DX2 analytically  !
 ! D64   D(17,8,9,19)          136.679          calculate D2E/DX2 analytically  !
 ! D65   D(18,8,9,4)          -173.1454         calculate D2E/DX2 analytically  !
 ! D66   D(18,8,9,19)           -6.144          calculate D2E/DX2 analytically  !
 --------------------------------------------------------------------------------
 Trust Radius=3.00D-01 FncErr=1.00D-07 GrdErr=1.00D-07
 Number of steps in this run=      2 maximum allowed number of steps=      2.
 GradGradGradGradGradGradGradGradGradGradGradGradGradGradGradGradGradGrad

                          Input orientation:                          
 ---------------------------------------------------------------------
 Center     Atomic      Atomic             Coordinates (Angstroms)
 Number     Number       Type             X           Y           Z
 ---------------------------------------------------------------------
      1          8           0        1.338979    0.888543   -0.011956
      2          6           0        0.319007    0.013948    0.455218
      3          6           0       -0.877928    0.779748    1.006105
      4          6           0       -0.705816    1.331450    2.445700
      5          8           0       -0.921098   -0.043059    2.931856
      6          6           0       -1.884609   -0.079469    1.812737
      7          6           0       -2.970301    0.892081    2.317122
      8          6           0       -3.069969    2.281280    1.739342
      9          6           0       -2.048060    1.997614    2.811381
     10          1           0        1.756969    1.288525    0.756680
     11          1           0        0.005565   -0.563951   -0.421543
     12          1           0        0.696391   -0.689803    1.206360
     13          1           0       -1.250755    1.451085    0.231905
     14          1           0        0.213783    1.788018    2.815514
     15          1           0       -2.178632   -1.088372    1.522026
     16          1           0       -3.774173    0.494387    2.924228
     17          1           0       -2.782758    2.497582    0.717968
     18          1           0       -3.932660    2.854971    2.066277
     19          1           0       -2.151365    2.440403    3.794327
 ---------------------------------------------------------------------
                    Distance matrix (angstroms):
                    1          2          3          4          5
     1  O    0.000000
     2  C    1.422502   0.000000
     3  C    2.441918   1.524001   0.000000
     4  C    3.227604   2.597709   1.551268   0.000000
     5  O    3.826469   2.770351   2.094610   1.473760   0.000000
     6  C    3.828586   2.589886   1.549940   1.944449   1.477195
     7  C    4.898419   3.880380   2.471722   2.310296   2.334870
     8  C    4.944247   4.274918   2.756316   2.643925   3.382645
     9  C    4.546790   3.884513   2.472130   1.542438   2.334288
    10  H    0.962030   1.945035   2.695134   2.986627   3.698182
    11  H    2.013826   1.095866   2.150411   3.509942   3.517857
    12  H    2.094849   1.096311   2.162906   2.754562   2.451915
    13  H    2.661324   2.139950   1.090449   2.283015   3.103365
    14  H    3.173280   2.954555   2.341454   1.091275   2.157391
    15  H    4.316815   2.931107   2.334069   2.979580   2.159095
    16  H    5.909387   4.804264   3.485521   3.216283   2.903264
    17  H    4.484475   3.982263   2.581154   2.942551   3.849926
    18  H    5.998006   5.361306   3.842123   3.588538   4.268174
    19  H    5.392454   4.810412   3.486201   2.266756   2.902584
                    6          7          8          9         10
     6  C    0.000000
     7  C    1.541765   0.000000
     8  C    2.642650   1.507858   0.000000
     9  C    2.310471   1.522177   1.507990   0.000000
    10  H    4.030850   4.993919   5.024989   4.382105   0.000000
    11  H    2.966394   4.298383   4.714199   4.607688   2.808432
    12  H    2.720618   4.144971   4.826684   4.162969   2.289283
    13  H    2.289846   2.759973   2.504222   2.754647   3.057486
    14  H    2.982670   3.345070   3.490628   2.271537   2.621014
    15  H    1.090344   2.276206   3.492315   3.347058   4.660939
    16  H    2.266092   1.083027   2.256733   2.291700   5.993534
    17  H    2.940473   2.273784   1.082811   2.274231   4.698132
    18  H    3.587441   2.200453   1.086391   2.200445   6.044889
    19  H    3.216770   2.291308   2.256572   1.083013   5.082243
                   11         12         13         14         15
    11  H    0.000000
    12  H    1.772893   0.000000
    13  H    2.462866   3.053579   0.000000
    14  H    4.006701   2.993641   2.988885   0.000000
    15  H    2.970387   2.919634   2.995699   3.958584   0.000000
    16  H    5.157585   4.933490   3.812021   4.193935   2.648971
    17  H    4.294906   4.743673   1.917927   3.725914   3.724318
    18  H    5.778226   5.893471   3.539552   4.346578   4.350032
    19  H    5.608213   4.960391   3.805351   2.641516   4.197183
                   16         17         18         19
    16  H    0.000000
    17  H    3.140584   0.000000
    18  H    2.516655   1.807744   0.000000
    19  H    2.679096   3.141004   2.516155   0.000000
 Stoichiometry    C7H10O2
 Framework group  C1[X(C7H10O2)]
 Deg. of freedom    51
 Full point group                 C1      NOp   1
 Largest Abelian subgroup         C1      NOp   1
 Largest concise Abelian subgroup C1      NOp   1
                         Standard orientation:                         
 ---------------------------------------------------------------------
 Center     Atomic      Atomic             Coordinates (Angstroms)
 Number     Number       Type             X           Y           Z
 ---------------------------------------------------------------------
      1          8           0       -2.895982   -0.776513    0.168474
      2          6           0       -2.036845    0.151947   -0.482186
      3          6           0       -0.573108   -0.259742   -0.379399
      4          6           0        0.113744    0.067646    0.972445
      5          8           0        0.179628    1.471365    0.528372
      6          6           0        0.441829    0.840548   -0.781370
      7          6           0        1.841977    0.237471   -0.551314
      8          6           0        2.000250   -1.246148   -0.333456
      9          6           0        1.585269   -0.369143    0.820963
     10          1           0       -2.776339   -0.671539    1.117245
     11          1           0       -2.341308    0.143505   -1.534875
     12          1           0       -2.171281    1.170590   -0.099836
     13          1           0       -0.461790   -1.263444   -0.790824
     14          1           0       -0.365021   -0.062416    1.944427
     15          1           0        0.293326    1.512210   -1.627340
     16          1           0        2.707767    0.854194   -0.758700
     17          1           0        1.323297   -1.964695   -0.778321
     18          1           0        3.027069   -1.599100   -0.297238
     19          1           0        2.256411   -0.213590    1.656599
 ---------------------------------------------------------------------
 Rotational constants (GHZ):      3.5174630      1.2394257      1.1494717
 Standard basis: 6-31G(2df,p) (6D, 7F)
 There are   329 symmetry adapted cartesian basis functions of A   symmetry.
 There are   302 symmetry adapted basis functions of A   symmetry.
   302 basis functions,   466 primitive gaussians,   329 cartesian basis functions
    34 alpha electrons       34 beta electrons
       nuclear repulsion energy       473.4434497562 Hartrees.
 NAtoms=   19 NActive=   19 NUniq=   19 SFac= 1.00D+00 NAtFMM=   60 NAOKFM=F Big=F
 Integral buffers will be    131072 words long.
 Raffenetti 2 integral format.
 Two-electron integral symmetry is turned on.
 One-electron integrals computed using PRISM.
 NBasis=   302 RedAO= T EigKep=  3.69D-04  NBF=   302
 NBsUse=   302 1.00D-06 EigRej= -1.00D+00 NBFU=   302
 Initial guess from the checkpoint file:  "/scratch/puck/g09_c243e2f3-5b54-4e5c-a897-d19af1567054/Gau-175145.chk"
 B after Tr=     0.000000    0.000000    0.000000
         Rot=    1.000000    0.000000    0.000000    0.000000 Ang=   0.00 deg.
 Requested convergence on RMS density matrix=1.00D-08 within 128 cycles.
 Requested convergence on MAX density matrix=1.00D-06.
 Requested convergence on             energy=1.00D-06.
 No special actions if energy rises.
 SCF Done:  E(RB3LYP) =  -423.120706250     A.U. after    1 cycles
            NFock=  1  Conv=0.17D-08     -V/T= 2.0074
 DoSCS=F DFT=T ScalE2(SS,OS)=  1.000000  1.000000
 Range of M.O.s used for correlation:     1   302
 NBasis=   302 NAE=    34 NBE=    34 NFC=     0 NFV=     0
 NROrb=    302 NOA=    34 NOB=    34 NVA=   268 NVB=   268

 **** Warning!!: The largest alpha MO coefficient is  0.18291870D+02

 Symmetrizing basis deriv contribution to polar:
 IMax=3 JMax=2 DiffMx= 0.00D+00
 G2DrvN: will do    20 centers at a time, making    1 passes.
 Calling FoFCou, ICntrl=  3107 FMM=F I1Cent=   0 AccDes= 0.00D+00.
 End of G2Drv F.D. properties file   721 does not exist.
 End of G2Drv F.D. properties file   722 does not exist.
 End of G2Drv F.D. properties file   788 does not exist.
          IDoAtm=1111111111111111111
          Differentiating once with respect to electric field.
                with respect to dipole field.
          Differentiating once with respect to nuclear coordinates.
          There are    60 degrees of freedom in the 1st order CPHF.  IDoFFX=6 NUNeed=     3.
     57 vectors produced by pass  0 Test12= 1.52D-14 1.67D-09 XBig12= 4.98D+01 1.65D+00.
 AX will form    57 AO Fock derivatives at one time.
