 Entering Gaussian System, Link 0=/home/puck/opt/gaussian_09/g09
 Input=dsC7O2H10nsd_5789.com
 Output=dsC7O2H10nsd_5789.log
 Initial command:
 /home/puck/opt/gaussian_09/l1.exe "/scratch/puck/g09_0b29f2b1-536b-4486-b83c-f690bf8b3fde/Gau-175720.inp" -scrdir="/scratch/puck/g09_0b29f2b1-536b-4486-b83c-f690bf8b3fde/"
 Entering Link 1 = /home/puck/opt/gaussian_09/l1.exe PID=    175721.
  
 Copyright (c) 1988,1990,1992,1993,1995,1998,2003,2009,2013,
            Gaussian, Inc.  All Rights Reserved.
  
 This is part of the Gaussian(R) 09 program.  It is based on
 the Gaussian(R) 03 system (copyright 2003, Gaussian, Inc.),
 the Gaussian(R) 98 system (copyright 1998, Gaussian, Inc.),
 the Gaussian(R) 94 system (copyright 1995, Gaussian, Inc.),
 the Gaussian 92(TM) system (copyright 1992, Gaussian, Inc.),
 the Gaussian 90(TM) system (copyright 1990, Gaussian, Inc.),
 the Gaussian 88(TM) system (copyright 1988, Gaussian, Inc.),
 the Gaussian 86(TM) system (copyright 1986, Carnegie Mellon
 University), and the Gaussian 82(TM) system (copyright 1983,
 Carnegie Mellon University). Gaussian is a federally registered
 trademark of Gaussian, Inc.
  
 This software contains proprietary and confidential information,
 including trade secrets, belonging to Gaussian, Inc.
  
 This software is provided under written license and may be
 used, copied, transmitted, or stored only in accord with that
 written license.
  
 The following legend is applicable only to US Government
 contracts under FAR:
  
                    RESTRICTED RIGHTS LEGEND
  
 Use, reproduction and disclosure by the US Government is
 subject to restrictions as set forth in subparagraphs (a)
 and (c) of the Commercial Computer Software - Restricted
 Rights clause in FAR 52.227-19.
  
 Gaussian, Inc.
 340 Quinnipiac St., Bldg. 40, Wallingford CT 06492
  
  
 ---------------------------------------------------------------
 Warning -- This program may not be used in any manner that
 competes with the business of Gaussian, Inc. or will provide
 assistance to any competitor of Gaussian, Inc.  The licensee
 of this program is prohibited from giving any competitor of
 Gaussian, Inc. access to this program.  By using this program,
 the user acknowledges that Gaussian, Inc. is engaged in the
 business of creating and licensing software in the field of
 computational chemistry and represents and warrants to the
 licensee that it is not a competitor of Gaussian, Inc. and that
 it will not use this program in any manner prohibited above.
 ---------------------------------------------------------------
  

 Cite this work as:
 Gaussian 09, Revision D.01,
 M. J. Frisch, G. W. Trucks, H. B. Schlegel, G. E. Scuseria, 
 M. A. Robb, J. R. Cheeseman, G. Scalmani, V. Barone, B. Mennucci, 
 G. A. Petersson, H. Nakatsuji, M. Caricato, X. Li, H. P. Hratchian, 
 A. F. Izmaylov, J. Bloino, G. Zheng, J. L. Sonnenberg, M. Hada, 
 M. Ehara, K. Toyota, R. Fukuda, J. Hasegawa, M. Ishida, T. Nakajima, 
 Y. Honda, O. Kitao, H. Nakai, T. Vreven, J. A. Montgomery, Jr., 
 J. E. Peralta, F. Ogliaro, M. Bearpark, J. J. Heyd, E. Brothers, 
 K. N. Kudin, V. N. Staroverov, T. Keith, R. Kobayashi, J. Normand, 
 K. Raghavachari, A. Rendell, J. C. Burant, S. S. Iyengar, J. Tomasi, 
 M. Cossi, N. Rega, J. M. Millam, M. Klene, J. E. Knox, J. B. Cross, 
 V. Bakken, C. Adamo, J. Jaramillo, R. Gomperts, R. E. Stratmann, 
 O. Yazyev, A. J. Austin, R. Cammi, C. Pomelli, J. W. Ochterski, 
 R. L. Martin, K. Morokuma, V. G. Zakrzewski, G. A. Voth, 
 P. Salvador, J. J. Dannenberg, S. Dapprich, A. D. Daniels, 
 O. Farkas, J. B. Foresman, J. V. Ortiz, J. Cioslowski, 
 and D. J. Fox, Gaussian, Inc., Wallingford CT, 2013.
 
 ******************************************
 Gaussian 09:  ES64L-G09RevD.01 24-Apr-2013
                31-Jan-2020 
 ******************************************
 -----------------------------
 # b3lyp 6-31G(2df,p) opt Freq
 -----------------------------
 1/14=-1,18=20,19=15,26=3,38=1/1,3;
 2/9=110,12=2,17=6,18=5,40=1/2;
 3/5=1,6=6,7=104,11=2,16=1,25=1,30=1,71=1,74=-5/1,2,3;
 4//1;
 5/5=2,38=5/2;
 6/7=2,8=2,9=2,10=2,28=1/1;
 7//1,2,3,16;
 1/14=-1,18=20,19=15,26=3/3(2);
 2/9=110/2;
 99//99;
 2/9=110/2;
 3/5=1,6=6,7=104,11=2,16=1,25=1,30=1,71=1,74=-5/1,2,3;
 4/5=5,16=3,69=1/1;
 5/5=2,38=5/2;
 7//1,2,3,16;
 1/14=-1,18=20,19=15,26=3/3(-5);
 2/9=110/2;
 6/7=2,8=2,9=2,10=2,19=2,28=1/1;
 99/9=1/99;
 -----
 titel
 -----
 Symbolic Z-matrix:
 Charge =  0 Multiplicity = 1
 O                     1.30443   0.83673  -0.14627 
 C                     0.31532  -0.01086   0.41588 
 C                    -0.86581   0.76003   1.00864 
 C                    -0.46809   1.65532   2.22305 
 C                    -1.60556   1.43077   3.2125 
 O                    -2.85289   1.84317   2.55553 
 C                    -3.12307   0.47114   2.26723 
 C                    -2.00184  -0.05859   3.10068 
 C                    -1.93174  -0.17678   1.58778 
 H                     1.68281   1.36235   0.56567 
 H                    -0.02859  -0.6462   -0.40752 
 H                     0.74566  -0.6761    1.18353 
 H                    -1.29095   1.38414   0.21586 
 H                     0.47878   1.32038   2.67151 
 H                    -0.36739   2.71161   1.95955 
 H                    -1.50405   1.88898   4.19754 
 H                    -4.15651   0.17119   2.13895 
 H                    -1.93312  -0.84504   3.83862 
 H                    -2.10463  -1.14744   1.13368 
 

 GradGradGradGradGradGradGradGradGradGradGradGradGradGradGradGradGradGrad
 Berny optimization.
 Initialization pass.
                           ----------------------------
                           !    Initial Parameters    !
                           ! (Angstroms and Degrees)  !
 --------------------------                            --------------------------
 ! Name  Definition              Value          Derivative Info.                !
 --------------------------------------------------------------------------------
 ! R1    R(1,2)                  1.4187         estimate D2E/DX2                !
 ! R2    R(1,10)                 0.9624         estimate D2E/DX2                !
 ! R3    R(2,3)                  1.5299         estimate D2E/DX2                !
 ! R4    R(2,11)                 1.0954         estimate D2E/DX2                !
 ! R5    R(2,12)                 1.1032         estimate D2E/DX2                !
 ! R6    R(3,4)                  1.5603         estimate D2E/DX2                !
 ! R7    R(3,9)                  1.5327         estimate D2E/DX2                !
 ! R8    R(3,13)                 1.0949         estimate D2E/DX2                !
 ! R9    R(4,5)                  1.5242         estimate D2E/DX2                !
 ! R10   R(4,14)                 1.0999         estimate D2E/DX2                !
 ! R11   R(4,15)                 1.0933         estimate D2E/DX2                !
 ! R12   R(5,6)                  1.4688         estimate D2E/DX2                !
 ! R13   R(5,8)                  1.5452         estimate D2E/DX2                !
 ! R14   R(5,16)                 1.0911         estimate D2E/DX2                !
 ! R15   R(6,7)                  1.4278         estimate D2E/DX2                !
 ! R16   R(7,8)                  1.4941         estimate D2E/DX2                !
 ! R17   R(7,9)                  1.5168         estimate D2E/DX2                !
 ! R18   R(7,17)                 1.0837         estimate D2E/DX2                !
 ! R19   R(8,9)                  1.5191         estimate D2E/DX2                !
 ! R20   R(8,18)                 1.0806         estimate D2E/DX2                !
 ! R21   R(9,19)                 1.0855         estimate D2E/DX2                !
 ! A1    A(2,1,10)             107.8941         estimate D2E/DX2                !
 ! A2    A(1,2,3)              112.9998         estimate D2E/DX2                !
 ! A3    A(1,2,11)             105.5185         estimate D2E/DX2                !
 ! A4    A(1,2,12)             111.3474         estimate D2E/DX2                !
 ! A5    A(3,2,11)             109.9441         estimate D2E/DX2                !
 ! A6    A(3,2,12)             109.5967         estimate D2E/DX2                !
 ! A7    A(11,2,12)            107.2038         estimate D2E/DX2                !
 ! A8    A(2,3,4)              113.1966         estimate D2E/DX2                !
 ! A9    A(2,3,9)              112.0443         estimate D2E/DX2                !
 ! A10   A(2,3,13)             107.8454         estimate D2E/DX2                !
 ! A11   A(4,3,9)              103.5264         estimate D2E/DX2                !
 ! A12   A(4,3,13)             109.6006         estimate D2E/DX2                !
 ! A13   A(9,3,13)             110.6072         estimate D2E/DX2                !
 ! A14   A(3,4,5)              103.3258         estimate D2E/DX2                !
 ! A15   A(3,4,14)             111.2251         estimate D2E/DX2                !
 ! A16   A(3,4,15)             112.9711         estimate D2E/DX2                !
 ! A17   A(5,4,14)             109.4439         estimate D2E/DX2                !
 ! A18   A(5,4,15)             111.5629         estimate D2E/DX2                !
 ! A19   A(14,4,15)            108.2504         estimate D2E/DX2                !
 ! A20   A(4,5,6)              107.5786         estimate D2E/DX2                !
 ! A21   A(4,5,8)              106.6426         estimate D2E/DX2                !
 ! A22   A(4,5,16)             117.0482         estimate D2E/DX2                !
 ! A23   A(6,5,8)               91.173          estimate D2E/DX2                !
 ! A24   A(6,5,16)             111.4001         estimate D2E/DX2                !
 ! A25   A(8,5,16)             119.5997         estimate D2E/DX2                !
 ! A26   A(5,6,7)               88.923          estimate D2E/DX2                !
 ! A27   A(6,7,8)               94.9368         estimate D2E/DX2                !
 ! A28   A(6,7,9)              110.6281         estimate D2E/DX2                !
 ! A29   A(6,7,17)             118.055          estimate D2E/DX2                !
 ! A30   A(8,7,17)             133.1196         estimate D2E/DX2                !
 ! A31   A(9,7,17)             125.2916         estimate D2E/DX2                !
 ! A32   A(5,8,7)               83.7477         estimate D2E/DX2                !
 ! A33   A(5,8,9)               97.7714         estimate D2E/DX2                !
 ! A34   A(5,8,18)             129.4743         estimate D2E/DX2                !
 ! A35   A(7,8,18)             133.3659         estimate D2E/DX2                !
 ! A36   A(9,8,18)             128.3539         estimate D2E/DX2                !
 ! A37   A(3,9,7)              117.0262         estimate D2E/DX2                !
 ! A38   A(3,9,8)              111.1519         estimate D2E/DX2                !
 ! A39   A(3,9,19)             119.9505         estimate D2E/DX2                !
 ! A40   A(7,9,19)             116.3762         estimate D2E/DX2                !
 ! A41   A(8,9,19)             118.6102         estimate D2E/DX2                !
 ! D1    D(10,1,2,3)            64.4126         estimate D2E/DX2                !
 ! D2    D(10,1,2,11)         -175.4255         estimate D2E/DX2                !
 ! D3    D(10,1,2,12)          -59.4429         estimate D2E/DX2                !
 ! D4    D(1,2,3,4)            -64.3671         estimate D2E/DX2                !
 ! D5    D(1,2,3,9)            179.0138         estimate D2E/DX2                !
 ! D6    D(1,2,3,13)            57.0574         estimate D2E/DX2                !
 ! D7    D(11,2,3,4)           178.0375         estimate D2E/DX2                !
 ! D8    D(11,2,3,9)            61.4184         estimate D2E/DX2                !
 ! D9    D(11,2,3,13)          -60.538          estimate D2E/DX2                !
 ! D10   D(12,2,3,4)            60.4453         estimate D2E/DX2                !
 ! D11   D(12,2,3,9)           -56.1738         estimate D2E/DX2                !
 ! D12   D(12,2,3,13)         -178.1302         estimate D2E/DX2                !
 ! D13   D(2,3,4,5)           -137.8028         estimate D2E/DX2                !
 ! D14   D(2,3,4,14)           -20.4813         estimate D2E/DX2                !
 ! D15   D(2,3,4,15)           101.4918         estimate D2E/DX2                !
 ! D16   D(9,3,4,5)            -16.2642         estimate D2E/DX2                !
 ! D17   D(9,3,4,14)           101.0573         estimate D2E/DX2                !
 ! D18   D(9,3,4,15)          -136.9696         estimate D2E/DX2                !
 ! D19   D(13,3,4,5)           101.7657         estimate D2E/DX2                !
 ! D20   D(13,3,4,14)         -140.9128         estimate D2E/DX2                !
 ! D21   D(13,3,4,15)          -18.9397         estimate D2E/DX2                !
 ! D22   D(2,3,9,7)            177.0622         estimate D2E/DX2                !
 ! D23   D(2,3,9,8)            112.1016         estimate D2E/DX2                !
 ! D24   D(2,3,9,19)           -32.5362         estimate D2E/DX2                !
 ! D25   D(4,3,9,7)             54.7529         estimate D2E/DX2                !
 ! D26   D(4,3,9,8)            -10.2076         estimate D2E/DX2                !
 ! D27   D(4,3,9,19)          -154.8454         estimate D2E/DX2                !
 ! D28   D(13,3,9,7)           -62.5746         estimate D2E/DX2                !
 ! D29   D(13,3,9,8)          -127.5351         estimate D2E/DX2                !
 ! D30   D(13,3,9,19)           87.8271         estimate D2E/DX2                !
 ! D31   D(3,4,5,6)            -59.3369         estimate D2E/DX2                !
 ! D32   D(3,4,5,8)             37.3886         estimate D2E/DX2                !
 ! D33   D(3,4,5,16)           174.3985         estimate D2E/DX2                !
 ! D34   D(14,4,5,6)          -177.9029         estimate D2E/DX2                !
 ! D35   D(14,4,5,8)           -81.1773         estimate D2E/DX2                !
 ! D36   D(14,4,5,16)           55.8325         estimate D2E/DX2                !
 ! D37   D(15,4,5,6)            62.3213         estimate D2E/DX2                !
 ! D38   D(15,4,5,8)           159.0468         estimate D2E/DX2                !
 ! D39   D(15,4,5,16)          -63.9433         estimate D2E/DX2                !
 ! D40   D(4,5,6,7)             99.5042         estimate D2E/DX2                !
 ! D41   D(8,5,6,7)             -8.373          estimate D2E/DX2                !
 ! D42   D(16,5,6,7)          -130.9648         estimate D2E/DX2                !
 ! D43   D(4,5,8,7)           -100.7024         estimate D2E/DX2                !
 ! D44   D(4,5,8,9)            -41.7548         estimate D2E/DX2                !
 ! D45   D(4,5,8,18)           115.7216         estimate D2E/DX2                !
 ! D46   D(6,5,8,7)              8.0456         estimate D2E/DX2                !
 ! D47   D(6,5,8,9)             66.9931         estimate D2E/DX2                !
 ! D48   D(6,5,8,18)          -135.5305         estimate D2E/DX2                !
 ! D49   D(16,5,8,7)           123.5997         estimate D2E/DX2                !
 ! D50   D(16,5,8,9)          -177.4528         estimate D2E/DX2                !
 ! D51   D(16,5,8,18)          -19.9764         estimate D2E/DX2                !
 ! D52   D(5,6,7,8)              8.6922         estimate D2E/DX2                !
 ! D53   D(5,6,7,9)            -51.7012         estimate D2E/DX2                !
 ! D54   D(5,6,7,17)           154.124          estimate D2E/DX2                !
 ! D55   D(6,7,8,5)             -8.3078         estimate D2E/DX2                !
 ! D56   D(6,7,8,18)           132.609          estimate D2E/DX2                !
 ! D57   D(17,7,8,5)          -144.995          estimate D2E/DX2                !
 ! D58   D(17,7,8,18)           -4.0781         estimate D2E/DX2                !
 ! D59   D(6,7,9,3)            -15.6637         estimate D2E/DX2                !
 ! D60   D(6,7,9,19)          -167.1293         estimate D2E/DX2                !
 ! D61   D(17,7,9,3)           136.2371         estimate D2E/DX2                !
 ! D62   D(17,7,9,19)          -15.2285         estimate D2E/DX2                !
 ! D63   D(5,8,9,3)             31.379          estimate D2E/DX2                !
 ! D64   D(5,8,9,19)           176.545          estimate D2E/DX2                !
 ! D65   D(18,8,9,3)          -126.469          estimate D2E/DX2                !
 ! D66   D(18,8,9,19)           18.6969         estimate D2E/DX2                !
 --------------------------------------------------------------------------------
 Trust Radius=3.00D-01 FncErr=1.00D-07 GrdErr=1.00D-06
 Number of steps in this run=    114 maximum allowed number of steps=    114.
 GradGradGradGradGradGradGradGradGradGradGradGradGradGradGradGradGradGrad

                          Input orientation:                          
 ---------------------------------------------------------------------
 Center     Atomic      Atomic             Coordinates (Angstroms)
 Number     Number       Type             X           Y           Z
 ---------------------------------------------------------------------
      1          8           0        1.304435    0.836734   -0.146271
      2          6           0        0.315318   -0.010860    0.415883
      3          6           0       -0.865811    0.760028    1.008645
      4          6           0       -0.468092    1.655323    2.223049
      5          6           0       -1.605564    1.430771    3.212496
      6          8           0       -2.852890    1.843167    2.555533
      7          6           0       -3.123067    0.471136    2.267234
      8          6           0       -2.001837   -0.058585    3.100680
      9          6           0       -1.931736   -0.176776    1.587781
     10          1           0        1.682809    1.362355    0.565672
     11          1           0       -0.028592   -0.646203   -0.407525
     12          1           0        0.745657   -0.676103    1.183528
     13          1           0       -1.290948    1.384139    0.215865
     14          1           0        0.478777    1.320382    2.671510
     15          1           0       -0.367388    2.711614    1.959550
     16          1           0       -1.504055    1.888975    4.197537
     17          1           0       -4.156511    0.171193    2.138952
     18          1           0       -1.933125   -0.845037    3.838618
     19          1           0       -2.104631   -1.147436    1.133677
 ---------------------------------------------------------------------
                    Distance matrix (angstroms):
                    1          2          3          4          5
     1  O    0.000000
     2  C    1.418727   0.000000
     3  C    2.459610   1.529935   0.000000
     4  C    3.070116   2.579873   1.560291   0.000000
     5  C    4.483558   3.686344   2.419523   1.524228   0.000000
     6  O    5.059249   4.248890   2.741265   2.415180   1.468842
     7  C    5.055832   3.934757   2.600521   2.907429   2.029098
     8  C    4.719717   3.546776   2.517399   2.461726   1.545224
     9  C    3.808798   2.539710   1.532709   2.429486   2.308743
    10  H    0.962448   1.943756   2.656028   2.731136   4.221819
    11  H    2.011049   1.095416   2.164246   3.522797   4.461526
    12  H    2.090282   1.103185   2.165615   2.826541   3.752848
    13  H    2.677089   2.136848   1.094877   2.186189   3.013463
    14  H    2.975822   2.624267   2.210664   1.099938   2.156231
    15  H    3.277903   3.203258   2.227405   1.093309   2.177961
    16  H    5.278588   4.606560   3.442515   2.241967   1.091128
    17  H    5.957107   4.795766   3.528885   3.976701   3.040784
    18  H    5.402730   4.179290   3.424053   3.317858   2.382987
    19  H    4.146918   2.768246   2.277878   3.423514   3.349286
                    6          7          8          9         10
     6  O    0.000000
     7  C    1.427788   0.000000
     8  C    2.153634   1.494120   0.000000
     9  C    2.421825   1.516811   1.519127   0.000000
    10  H    4.976274   5.175522   4.692756   4.059380   0.000000
    11  H    4.790964   4.240113   4.067738   2.797064   2.812527
    12  H    4.602028   4.178229   3.406688   2.753394   2.327082
    13  H    2.850337   2.897991   3.302874   2.174677   2.994340
    14  H    3.374428   3.722626   2.870399   3.037519   2.426110
    15  H    2.699466   3.564853   3.412859   3.305782   2.822535
    16  H    2.125473   2.890941   2.289951   3.355751   4.860440
    17  H    2.160663   1.083711   2.370725   2.318296   6.163744
    18  H    3.117486   2.370132   1.080639   2.347944   5.353479
    19  H    3.394890   2.223048   2.250615   1.085489   4.578906
                   11         12         13         14         15
    11  H    0.000000
    12  H    1.769690   0.000000
    13  H    2.470718   3.054297   0.000000
    14  H    3.688541   2.504250   3.027571   0.000000
    15  H    4.122228   3.649343   2.378149   1.777191   0.000000
    16  H    5.459919   4.552481   4.019203   2.565868   2.641464
    17  H    4.918577   5.065767   3.657999   4.805222   4.565455
    18  H    4.657951   3.775436   4.301855   3.445062   4.316503
    19  H    2.633719   2.889425   2.813064   3.889609   4.311885
                   16         17         18         19
    16  H    0.000000
    17  H    3.771482   0.000000
    18  H    2.790653   2.977421   0.000000
    19  H    4.355196   2.638100   2.727191   0.000000
 Stoichiometry    C7H10O2
 Framework group  C1[X(C7H10O2)]
 Deg. of freedom    51
 Full point group                 C1      NOp   1
 Largest Abelian subgroup         C1      NOp   1
 Largest concise Abelian subgroup C1      NOp   1
                         Standard orientation:                         
 ---------------------------------------------------------------------
 Center     Atomic      Atomic             Coordinates (Angstroms)
 Number     Number       Type             X           Y           Z
 ---------------------------------------------------------------------
      1          8           0        3.101606    0.233421   -0.209159
      2          6           0        2.037645   -0.628642    0.161812
      3          6           0        0.683539   -0.178733   -0.390168
      4          6           0        0.212038    1.194128    0.182062
      5          6           0       -1.270848    0.970497    0.454658
      6          8           0       -1.906602    0.609627   -0.819346
      7          6           0       -1.850380   -0.762290   -0.427856
      8          6           0       -1.412077   -0.478655    0.972085
      9          6           0       -0.445430   -1.137853    0.003169
     10          1           0        2.941233    1.091999    0.195107
     11          1           0        2.300051   -1.610603   -0.246641
     12          1           0        1.972713   -0.737827    1.257659
     13          1           0        0.770624   -0.112188   -1.479545
     14          1           0        0.726211    1.430120    1.125353
     15          1           0        0.372385    2.023460   -0.512073
     16          1           0       -1.810463    1.776309    0.954702
     17          1           0       -2.578217   -1.443736   -0.852490
     18          1           0       -1.739558   -0.834185    1.938592
     19          1           0       -0.241939   -2.198445    0.112804
 ---------------------------------------------------------------------
 Rotational constants (GHZ):      3.9529903      1.1811690      1.0659014
 Standard basis: 6-31G(2df,p) (6D, 7F)
 There are   329 symmetry adapted cartesian basis functions of A   symmetry.
 There are   302 symmetry adapted basis functions of A   symmetry.
   302 basis functions,   466 primitive gaussians,   329 cartesian basis functions
    34 alpha electrons       34 beta electrons
       nuclear repulsion energy       471.3493125496 Hartrees.
 NAtoms=   19 NActive=   19 NUniq=   19 SFac= 1.00D+00 NAtFMM=   60 NAOKFM=F Big=F
 Integral buffers will be    131072 words long.
 Raffenetti 2 integral format.
 Two-electron integral symmetry is turned on.
 One-electron integrals computed using PRISM.
 NBasis=   302 RedAO= T EigKep=  4.29D-04  NBF=   302
 NBsUse=   302 1.00D-06 EigRej= -1.00D+00 NBFU=   302
 ExpMin= 1.61D-01 ExpMax= 5.48D+03 ExpMxC= 8.25D+02 IAcc=1 IRadAn=         1 AccDes= 0.00D+00
 Harris functional with IExCor=  402 and IRadAn=       1 diagonalized for initial guess.
 HarFok:  IExCor=  402 AccDes= 0.00D+00 IRadAn=         1 IDoV= 1 UseB2=F ITyADJ=14
 ICtDFT=  3500011 ScaDFX=  1.000000  1.000000  1.000000  1.000000
 FoFCou: FMM=F IPFlag=           0 FMFlag=      100000 FMFlg1=           0
         NFxFlg=           0 DoJE=T BraDBF=F KetDBF=T FulRan=T
         wScrn=  0.000000 ICntrl=     500 IOpCl=  0 I1Cent=   200000004 NGrid=           0
         NMat0=    1 NMatS0=      1 NMatT0=    0 NMatD0=    1 NMtDS0=    0 NMtDT0=    0
 Petite list used in FoFCou.
 Requested convergence on RMS density matrix=1.00D-08 within 128 cycles.
 Requested convergence on MAX density matrix=1.00D-06.
 Requested convergence on             energy=1.00D-06.
 No special actions if energy rises.
 Integral accuracy reduced to 1.0D-05 until final iterations.
 Initial convergence to 1.0D-05 achieved.  Increase integral accuracy.
 SCF Done:  E(RB3LYP) =  -423.143659532     A.U. after   13 cycles
            NFock= 13  Conv=0.55D-08     -V/T= 2.0074

 **********************************************************************

            Population analysis using the SCF density.

 **********************************************************************

 Orbital symmetries:
       Occupied  (A) (A) (A) (A) (A) (A) (A) (A) (A) (A) (A) (A)
                 (A) (A) (A) (A) (A) (A) (A) (A) (A) (A) (A) (A)
                 (A) (A) (A) (A) (A) (A) (A) (A) (A) (A)
       Virtual   (A) (A) (A) (A) (A) (A) (A) (A) (A) (A) (A) (A)
                 (A) (A) (A) (A) (A) (A) (A) (A) (A) (A) (A) (A)
                 (A) (A) (A) (A) (A) (A) (A) (A) (A) (A) (A) (A)
                 (A) (A) (A) (A) (A) (A) (A) (A) (A) (A) (A) (A)
                 (A) (A) (A) (A) (A) (A) (A) (A) (A) (A) (A) (A)
                 (A) (A) (A) (A) (A) (A) (A) (A) (A) (A) (A) (A)
                 (A) (A) (A) (A) (A) (A) (A) (A) (A) (A) (A) (A)
                 (A) (A) (A) (A) (A) (A) (A) (A) (A) (A) (A) (A)
                 (A) (A) (A) (A) (A) (A) (A) (A) (A) (A) (A) (A)
                 (A) (A) (A) (A) (A) (A) (A) (A) (A) (A) (A) (A)
                 (A) (A) (A) (A) (A) (A) (A) (A) (A) (A) (A) (A)
                 (A) (A) (A) (A) (A) (A) (A) (A) (A) (A) (A) (A)
                 (A) (A) (A) (A) (A) (A) (A) (A) (A) (A) (A) (A)
                 (A) (A) (A) (A) (A) (A) (A) (A) (A) (A) (A) (A)
                 (A) (A) (A) (A) (A) (A) (A) (A) (A) (A) (A) (A)
                 (A) (A) (A) (A) (A) (A) (A) (A) (A) (A) (A) (A)
                 (A) (A) (A) (A) (A) (A) (A) (A) (A) (A) (A) (A)
                 (A) (A) (A) (A) (A) (A) (A) (A) (A) (A) (A) (A)
                 (A) (A) (A) (A) (A) (A) (A) (A) (A) (A) (A) (A)
                 (A) (A) (A) (A) (A) (A) (A) (A) (A) (A) (A) (A)
                 (A) (A) (A) (A) (A) (A) (A) (A) (A) (A) (A) (A)
                 (A) (A) (A) (A) (A) (A) (A) (A) (A) (A) (A) (A)
                 (A) (A) (A) (A)
 The electronic state is 1-A.
 Alpha  occ. eigenvalues --  -19.13415 -19.13326 -10.24101 -10.23947 -10.22493
 Alpha  occ. eigenvalues --  -10.19482 -10.19271 -10.18880 -10.18768  -1.05263
 Alpha  occ. eigenvalues --   -1.01421  -0.85080  -0.77851  -0.72547  -0.65219
 Alpha  occ. eigenvalues --   -0.60584  -0.56340  -0.53572  -0.53375  -0.50815
 Alpha  occ. eigenvalues --   -0.47939  -0.44648  -0.43848  -0.40820  -0.40641
 Alpha  occ. eigenvalues --   -0.38949  -0.36347  -0.34629  -0.33597  -0.31915
 Alpha  occ. eigenvalues --   -0.31308  -0.27268  -0.26707  -0.22816
 Alpha virt. eigenvalues --    0.07058   0.08739   0.10232   0.11007   0.12114
 Alpha virt. eigenvalues --    0.12762   0.13772   0.14676   0.15711   0.16445
 Alpha virt. eigenvalues --    0.17377   0.17686   0.19104   0.20398   0.22410
 Alpha virt. eigenvalues --    0.24526   0.26229   0.27182   0.29811   0.31187
 Alpha virt. eigenvalues --    0.33628   0.41498   0.42317   0.46153   0.46764
 Alpha virt. eigenvalues --    0.48776   0.49780   0.50869   0.52578   0.52592
 Alpha virt. eigenvalues --    0.54284   0.55242   0.55922   0.57831   0.58875
 Alpha virt. eigenvalues --    0.61040   0.62278   0.64708   0.65913   0.68737
 Alpha virt. eigenvalues --    0.70617   0.72338   0.73765   0.74689   0.75431
 Alpha virt. eigenvalues --    0.77103   0.77266   0.77931   0.79565   0.81861
 Alpha virt. eigenvalues --    0.82584   0.84263   0.86161   0.88687   0.90348
 Alpha virt. eigenvalues --    0.92036   0.92426   0.96328   0.97558   0.99999
 Alpha virt. eigenvalues --    1.02055   1.04825   1.07250   1.07947   1.10629
 Alpha virt. eigenvalues --    1.12709   1.15402   1.16438   1.19992   1.21591
 Alpha virt. eigenvalues --    1.23623   1.25001   1.29079   1.31649   1.31913
 Alpha virt. eigenvalues --    1.35134   1.35503   1.39249   1.41476   1.43430
 Alpha virt. eigenvalues --    1.44691   1.45309   1.48347   1.49095   1.49554
 Alpha virt. eigenvalues --    1.53198   1.53772   1.54849   1.57683   1.59088
 Alpha virt. eigenvalues --    1.60100   1.62734   1.64727   1.66238   1.68553
 Alpha virt. eigenvalues --    1.69502   1.71343   1.73319   1.74344   1.79423
 Alpha virt. eigenvalues --    1.82292   1.84380   1.87112   1.90089   1.92249
 Alpha virt. eigenvalues --    1.98220   2.03386   2.05386   2.08776   2.15100
 Alpha virt. eigenvalues --    2.17291   2.20732   2.24824   2.30164   2.32477
 Alpha virt. eigenvalues --    2.34515   2.36983   2.39612   2.40396   2.43973
 Alpha virt. eigenvalues --    2.45849   2.51584   2.53429   2.59409   2.61529
 Alpha virt. eigenvalues --    2.62578   2.65644   2.66765   2.69351   2.72039
 Alpha virt. eigenvalues --    2.74846   2.78324   2.79925   2.83287   2.83685
 Alpha virt. eigenvalues --    2.87033   2.88611   2.90334   2.90981   2.92967
 Alpha virt. eigenvalues --    2.95907   2.97617   2.98998   3.00581   3.05170
 Alpha virt. eigenvalues --    3.06771   3.09148   3.13231   3.14124   3.16687
 Alpha virt. eigenvalues --    3.17714   3.19262   3.21218   3.22919   3.24579
 Alpha virt. eigenvalues --    3.28459   3.31199   3.34536   3.36084   3.37327
 Alpha virt. eigenvalues --    3.37682   3.43844   3.44669   3.47013   3.48082
 Alpha virt. eigenvalues --    3.49583   3.52414   3.58611   3.59977   3.62085
 Alpha virt. eigenvalues --    3.68086   3.72914   3.74302   3.78032   3.81052
 Alpha virt. eigenvalues --    3.83808   3.86584   3.87684   3.93077   3.97074
 Alpha virt. eigenvalues --    4.01896   4.05062   4.12848   4.14080   4.17062
 Alpha virt. eigenvalues --    4.22513   4.27038   4.28631   4.31075   4.32965
 Alpha virt. eigenvalues --    4.34536   4.35016   4.40175   4.40910   4.43063
 Alpha virt. eigenvalues --    4.44416   4.45768   4.46281   4.49886   4.53767
 Alpha virt. eigenvalues --    4.54118   4.54808   4.55755   4.58062   4.58906
 Alpha virt. eigenvalues --    4.61361   4.62794   4.64964   4.68835   4.70541
 Alpha virt. eigenvalues --    4.71368   4.72734   4.74348   4.74934   4.78245
 Alpha virt. eigenvalues --    4.79864   4.81868   4.84133   4.85661   4.87408
 Alpha virt. eigenvalues --    4.89328   4.91472   4.92995   4.95271   4.98121
 Alpha virt. eigenvalues --    4.99337   5.03663   5.11653   5.15134   5.17253
 Alpha virt. eigenvalues --    5.23960   5.25602   5.28362   5.35206   5.38184
 Alpha virt. eigenvalues --    5.38830   5.39624   5.47246   5.48591   5.52689
 Alpha virt. eigenvalues --    5.55934   5.58868   5.60982   5.64903   5.71077
 Alpha virt. eigenvalues --    5.72116   5.81422   5.85476   5.95740   5.96532
 Alpha virt. eigenvalues --    6.02813   6.05474   6.08886   6.15548   6.26662
 Alpha virt. eigenvalues --    6.36985   6.88685   7.07064   7.35770  10.56754
 Alpha virt. eigenvalues --   11.45808  11.55050  11.90276  12.22337  12.34556
 Alpha virt. eigenvalues --   12.83702  13.18057  13.59672
          Condensed to atoms (all electrons):
               1          2          3          4          5          6
     1  O    7.821797   0.373973  -0.051417   0.003111   0.000486  -0.000002
     2  C    0.373973   4.803572   0.385008  -0.019771   0.000277   0.000512
     3  C   -0.051417   0.385008   4.820968   0.347234  -0.042509   0.006516
     4  C    0.003111  -0.019771   0.347234   5.102786   0.337531  -0.029728
     5  C    0.000486   0.000277  -0.042509   0.337531   4.721180   0.313228
     6  O   -0.000002   0.000512   0.006516  -0.029728   0.313228   7.810392
     7  C   -0.000063  -0.000128   0.013359  -0.032342  -0.104866   0.359849
     8  C   -0.000080  -0.001325  -0.010169  -0.018673   0.341066  -0.050234
     9  C    0.002868  -0.027452   0.322040  -0.020355   0.019193  -0.052619
    10  H    0.314285  -0.069428  -0.004566   0.007210   0.000123   0.000001
    11  H   -0.015021   0.351614  -0.025234   0.004854   0.000056   0.000004
    12  H   -0.029770   0.346188  -0.044204  -0.011791   0.001099  -0.000010
    13  H    0.002528  -0.047275   0.361658  -0.048533   0.004822   0.002750
    14  H   -0.000280  -0.008295  -0.028294   0.327434  -0.012640   0.002629
    15  H    0.000304   0.001744  -0.019921   0.351775  -0.016782  -0.002020
    16  H    0.000002  -0.000088   0.006020  -0.065023   0.377357  -0.029016
    17  H    0.000000  -0.000069   0.001459  -0.001222   0.008436  -0.030404
    18  H    0.000000   0.000183   0.002620   0.004795  -0.038179   0.005184
    19  H    0.000076  -0.001782  -0.050923   0.006138   0.004263   0.001580
               7          8          9         10         11         12
     1  O   -0.000063  -0.000080   0.002868   0.314285  -0.015021  -0.029770
     2  C   -0.000128  -0.001325  -0.027452  -0.069428   0.351614   0.346188
     3  C    0.013359  -0.010169   0.322040  -0.004566  -0.025234  -0.044204
     4  C   -0.032342  -0.018673  -0.020355   0.007210   0.004854  -0.011791
     5  C   -0.104866   0.341066   0.019193   0.000123   0.000056   0.001099
     6  O    0.359849  -0.050234  -0.052619   0.000001   0.000004  -0.000010
     7  C    4.746014   0.335434   0.256125  -0.000003  -0.000180   0.000304
     8  C    0.335434   5.045597   0.253769   0.000016  -0.000363   0.001016
     9  C    0.256125   0.253769   5.098445  -0.000122  -0.002981   0.006312
    10  H   -0.000003   0.000016  -0.000122   0.463010   0.007438  -0.005348
    11  H   -0.000180  -0.000363  -0.002981   0.007438   0.618973  -0.046233
    12  H    0.000304   0.001016   0.006312  -0.005348  -0.046233   0.684897
    13  H    0.001898   0.001383  -0.041726   0.000075  -0.004972   0.007809
    14  H    0.001954  -0.001789  -0.002065   0.002899   0.000158   0.005973
    15  H    0.001390   0.004210   0.002368  -0.000144  -0.000194   0.000048
    16  H    0.011638  -0.046496   0.002564   0.000007   0.000004   0.000002
    17  H    0.381445  -0.034804  -0.060122   0.000000   0.000000   0.000010
    18  H   -0.029435   0.373291  -0.034910  -0.000001  -0.000005  -0.000252
    19  H   -0.031384  -0.033490   0.377962   0.000010   0.003816   0.000520
              13         14         15         16         17         18
     1  O    0.002528  -0.000280   0.000304   0.000002   0.000000   0.000000
     2  C   -0.047275  -0.008295   0.001744  -0.000088  -0.000069   0.000183
     3  C    0.361658  -0.028294  -0.019921   0.006020   0.001459   0.002620
     4  C   -0.048533   0.327434   0.351775  -0.065023  -0.001222   0.004795
     5  C    0.004822  -0.012640  -0.016782   0.377357   0.008436  -0.038179
     6  O    0.002750   0.002629  -0.002020  -0.029016  -0.030404   0.005184
     7  C    0.001898   0.001954   0.001390   0.011638   0.381445  -0.029435
     8  C    0.001383  -0.001789   0.004210  -0.046496  -0.034804   0.373291
     9  C   -0.041726  -0.002065   0.002368   0.002564  -0.060122  -0.034910
    10  H    0.000075   0.002899  -0.000144   0.000007   0.000000  -0.000001
    11  H   -0.004972   0.000158  -0.000194   0.000004   0.000000  -0.000005
    12  H    0.007809   0.005973   0.000048   0.000002   0.000010  -0.000252
    13  H    0.666455   0.005900  -0.005995  -0.000029   0.000803  -0.000200
    14  H    0.005900   0.657848  -0.039324   0.001673   0.000045  -0.000474
    15  H   -0.005995  -0.039324   0.607867  -0.000072   0.000071  -0.000131
    16  H   -0.000029   0.001673  -0.000072   0.663641  -0.000156  -0.003168
    17  H    0.000803   0.000045   0.000071  -0.000156   0.637218  -0.003239
    18  H   -0.000200  -0.000474  -0.000131  -0.003168  -0.003239   0.631517
    19  H    0.001641  -0.000198  -0.000136  -0.000082  -0.003146  -0.003958
              19
     1  O    0.000076
     2  C   -0.001782
     3  C   -0.050923
     4  C    0.006138
     5  C    0.004263
     6  O    0.001580
     7  C   -0.031384
     8  C   -0.033490
     9  C    0.377962
    10  H    0.000010
    11  H    0.003816
    12  H    0.000520
    13  H    0.001641
    14  H   -0.000198
    15  H   -0.000136
    16  H   -0.000082
    17  H   -0.003146
    18  H   -0.003958
    19  H    0.642634
 Mulliken charges:
               1
     1  O   -0.422798
     2  C   -0.087457
     3  C    0.010355
     4  C   -0.245429
     5  C    0.085859
     6  O   -0.308613
     7  C    0.088990
     8  C   -0.158358
     9  C   -0.099296
    10  H    0.284537
    11  H    0.108265
    12  H    0.083430
    13  H    0.091008
    14  H    0.086846
    15  H    0.114942
    16  H    0.081222
    17  H    0.103676
    18  H    0.096363
    19  H    0.086460
 Sum of Mulliken charges =   0.00000
 Mulliken charges with hydrogens summed into heavy atoms:
               1
     1  O   -0.138261
     2  C    0.104237
     3  C    0.101363
     4  C   -0.043642
     5  C    0.167081
     6  O   -0.308613
     7  C    0.192667
     8  C   -0.061995
     9  C   -0.012836
 Electronic spatial extent (au):  <R**2>=           1154.7674
 Charge=              0.0000 electrons
 Dipole moment (field-independent basis, Debye):
    X=             -0.6409    Y=             -0.3007    Z=              2.0232  Tot=              2.1435
 Quadrupole moment (field-independent basis, Debye-Ang):
   XX=            -61.3663   YY=            -48.3197   ZZ=            -53.5565
   XY=              4.1111   XZ=             -0.2165   YZ=              2.3884
 Traceless Quadrupole moment (field-independent basis, Debye-Ang):
   XX=             -6.9521   YY=              6.0945   ZZ=              0.8577
   XY=              4.1111   XZ=             -0.2165   YZ=              2.3884
 Octapole moment (field-independent basis, Debye-Ang**2):
  XXX=            -19.4039  YYY=              4.8519  ZZZ=             -1.0601  XYY=              6.1169
  XXY=              0.7984  XXZ=              9.9827  XZZ=              1.8115  YZZ=              0.0891
  YYZ=             -0.4097  XYZ=             -1.6178
 Hexadecapole moment (field-independent basis, Debye-Ang**3):
 XXXX=          -1093.1925 YYYY=           -289.6695 ZZZZ=           -163.7161 XXXY=             34.1314
 XXXZ=             22.6651 YYYX=              4.9264 YYYZ=             -0.4945 ZZZX=             -1.6641
 ZZZY=             -1.5226 XXYY=           -184.8441 XXZZ=           -190.0538 YYZZ=            -78.5661
 XXYZ=             16.3986 YYXZ=             -0.8052 ZZXY=              4.6459
 N-N= 4.713493125496D+02 E-N=-1.929590788283D+03  KE= 4.200448865258D+02
 Calling FoFJK, ICntrl=      2127 FMM=F ISym2X=0 I1Cent= 0 IOpClX= 0 NMat=1 NMatS=1 NMatT=0.
 ***** Axes restored to original set *****
 -------------------------------------------------------------------
 Center     Atomic                   Forces (Hartrees/Bohr)
 Number     Number              X              Y              Z
 -------------------------------------------------------------------
      1        8          -0.000008150   -0.000009718   -0.000000406
      2        6           0.000011180   -0.000011156    0.000000114
      3        6          -0.000023985    0.000005017   -0.000007991
      4        6           0.000016717    0.000001364    0.000003090
      5        6          -0.000006900    0.000000929    0.000009164
      6        8          -0.000001954    0.000006441   -0.000001967
      7        6          -0.000014012    0.000009167   -0.000003137
      8        6           0.000007486   -0.000020279   -0.000002190
      9        6           0.000007326    0.000008995    0.000007792
     10        1           0.000007234    0.000010220   -0.000002125
     11        1          -0.000001534   -0.000007938    0.000001272
     12        1          -0.000000124    0.000004243    0.000007169
     13        1          -0.000001614   -0.000007459   -0.000007578
     14        1           0.000000907    0.000010740   -0.000006555
     15        1          -0.000010577    0.000001534   -0.000010870
     16        1           0.000002383    0.000009092   -0.000005417
     17        1           0.000014791   -0.000027215    0.000004651
     18        1           0.000002756    0.000021347    0.000008570
     19        1          -0.000001931   -0.000005324    0.000006416
 -------------------------------------------------------------------
 Cartesian Forces:  Max     0.000027215 RMS     0.000009383

 GradGradGradGradGradGradGradGradGradGradGradGradGradGradGradGradGradGrad
 Berny optimization.
 FormGI is forming the generalized inverse of G from B-inverse, IUseBI=4.
 Internal  Forces:  Max     0.000014068 RMS     0.000004120
 Search for a local minimum.
 Step number   1 out of a maximum of  114
 All quantities printed in internal units (Hartrees-Bohrs-Radians)
 Mixed Optimization -- En-DIIS/RFO-DIIS
 Second derivative matrix not updated -- first step.
 ITU=  0
     Eigenvalues ---    0.00370   0.00506   0.01365   0.01444   0.01586
     Eigenvalues ---    0.02120   0.02707   0.03049   0.03219   0.03798
     Eigenvalues ---    0.04252   0.04733   0.05120   0.05375   0.05699
     Eigenvalues ---    0.05816   0.06751   0.06870   0.07587   0.07962
     Eigenvalues ---    0.08229   0.10858   0.11751   0.12264   0.13102
     Eigenvalues ---    0.13920   0.14023   0.16000   0.18377   0.19308
     Eigenvalues ---    0.19787   0.22032   0.24738   0.25858   0.27148
     Eigenvalues ---    0.29055   0.29429   0.29474   0.32993   0.33332
     Eigenvalues ---    0.33689   0.34194   0.34255   0.34433   0.34683
     Eigenvalues ---    0.35339   0.35550   0.35917   0.37230   0.42653
     Eigenvalues ---    0.54950
 RFO step:  Lambda=-3.20757985D-08 EMin= 3.69959111D-03
 Linear search not attempted -- first point.
 Iteration  1 RMS(Cart)=  0.00022731 RMS(Int)=  0.00000002
 Iteration  2 RMS(Cart)=  0.00000003 RMS(Int)=  0.00000000
 Variable       Old X    -DE/DX   Delta X   Delta X   Delta X     New X
                                 (Linear)    (Quad)   (Total)
    R1        2.68101   0.00000   0.00000   0.00000   0.00000   2.68101
    R2        1.81876   0.00001   0.00000   0.00002   0.00002   1.81878
    R3        2.89116   0.00001   0.00000   0.00003   0.00003   2.89119
    R4        2.07004   0.00000   0.00000   0.00001   0.00001   2.07005
    R5        2.08472   0.00000   0.00000   0.00000   0.00000   2.08472
    R6        2.94852   0.00001   0.00000   0.00003   0.00003   2.94856
    R7        2.89640  -0.00001   0.00000  -0.00002  -0.00002   2.89638
    R8        2.06902   0.00000   0.00000   0.00001   0.00001   2.06902
    R9        2.88037   0.00001   0.00000   0.00003   0.00003   2.88041
   R10        2.07858   0.00000   0.00000   0.00000   0.00000   2.07858
   R11        2.06605   0.00000   0.00000   0.00000   0.00000   2.06605
   R12        2.77571   0.00001   0.00000   0.00002   0.00002   2.77572
   R13        2.92005   0.00000   0.00000   0.00000   0.00000   2.92005
   R14        2.06193   0.00000   0.00000   0.00000   0.00000   2.06193
   R15        2.69813   0.00001   0.00000   0.00002   0.00002   2.69815
   R16        2.82348   0.00000   0.00000   0.00001   0.00001   2.82349
   R17        2.86636  -0.00001   0.00000  -0.00002  -0.00002   2.86634
   R18        2.04792  -0.00001   0.00000  -0.00002  -0.00002   2.04790
   R19        2.87073   0.00000   0.00000  -0.00001  -0.00001   2.87072
   R20        2.04211  -0.00001   0.00000  -0.00003  -0.00003   2.04208
   R21        2.05128   0.00000   0.00000   0.00000   0.00000   2.05128
    A1        1.88311   0.00001   0.00000   0.00009   0.00009   1.88320
    A2        1.97222   0.00001   0.00000   0.00004   0.00004   1.97226
    A3        1.84165   0.00000   0.00000   0.00002   0.00002   1.84166
    A4        1.94338   0.00000   0.00000   0.00000   0.00000   1.94337
    A5        1.91889   0.00000   0.00000  -0.00001  -0.00001   1.91887
    A6        1.91282  -0.00001   0.00000  -0.00005  -0.00005   1.91277
    A7        1.87106   0.00000   0.00000   0.00001   0.00001   1.87107
    A8        1.97565   0.00000   0.00000  -0.00006  -0.00006   1.97559
    A9        1.95554  -0.00001   0.00000  -0.00012  -0.00012   1.95542
   A10        1.88226   0.00000   0.00000   0.00005   0.00005   1.88230
   A11        1.80688   0.00000   0.00000   0.00001   0.00001   1.80689
   A12        1.91289   0.00000   0.00000   0.00006   0.00006   1.91295
   A13        1.93046   0.00000   0.00000   0.00007   0.00007   1.93053
   A14        1.80337   0.00000   0.00000   0.00002   0.00002   1.80340
   A15        1.94125   0.00000   0.00000   0.00001   0.00001   1.94125
   A16        1.97172   0.00000   0.00000  -0.00004  -0.00004   1.97168
   A17        1.91016   0.00000   0.00000   0.00004   0.00004   1.91019
   A18        1.94714   0.00000   0.00000  -0.00003  -0.00003   1.94711
   A19        1.88933   0.00000   0.00000   0.00000   0.00000   1.88933
   A20        1.87760   0.00000   0.00000   0.00000   0.00000   1.87760
   A21        1.86126   0.00000   0.00000   0.00001   0.00001   1.86127
   A22        2.04288   0.00000   0.00000  -0.00003  -0.00003   2.04285
   A23        1.59127   0.00000   0.00000   0.00000   0.00000   1.59127
   A24        1.94430   0.00000   0.00000   0.00001   0.00001   1.94431
   A25        2.08741   0.00000   0.00000   0.00001   0.00001   2.08742
   A26        1.55200   0.00000   0.00000   0.00000   0.00000   1.55199
   A27        1.65696   0.00000   0.00000  -0.00001  -0.00001   1.65695
   A28        1.93082   0.00000   0.00000   0.00003   0.00003   1.93086
   A29        2.06045   0.00001   0.00000   0.00012   0.00012   2.06056
   A30        2.32338  -0.00001   0.00000  -0.00011  -0.00011   2.32326
   A31        2.18675  -0.00001   0.00000  -0.00010  -0.00010   2.18665
   A32        1.46167   0.00001   0.00000   0.00000   0.00000   1.46168
   A33        1.70643   0.00000   0.00000   0.00001   0.00001   1.70644
   A34        2.25975   0.00000   0.00000  -0.00005  -0.00005   2.25970
   A35        2.32767   0.00000   0.00000  -0.00003  -0.00003   2.32764
   A36        2.24020   0.00000   0.00000   0.00008   0.00008   2.24028
   A37        2.04249   0.00001   0.00000   0.00010   0.00010   2.04259
   A38        1.93997   0.00000   0.00000  -0.00001  -0.00001   1.93995
   A39        2.09353   0.00000   0.00000  -0.00002  -0.00002   2.09351
   A40        2.03115  -0.00001   0.00000  -0.00007  -0.00007   2.03108
   A41        2.07014   0.00000   0.00000   0.00001   0.00001   2.07015
    D1        1.12421   0.00000   0.00000   0.00005   0.00005   1.12426
    D2       -3.06175   0.00000   0.00000   0.00007   0.00007  -3.06168
    D3       -1.03747   0.00000   0.00000   0.00009   0.00009  -1.03738
    D4       -1.12342   0.00000   0.00000   0.00016   0.00016  -1.12326
    D5        3.12438   0.00000   0.00000   0.00026   0.00026   3.12464
    D6        0.99584   0.00000   0.00000   0.00022   0.00022   0.99606
    D7        3.10734   0.00000   0.00000   0.00012   0.00012   3.10746
    D8        1.07195   0.00000   0.00000   0.00022   0.00022   1.07218
    D9       -1.05659   0.00000   0.00000   0.00018   0.00018  -1.05641
   D10        1.05497   0.00000   0.00000   0.00014   0.00014   1.05511
   D11       -0.98042   0.00000   0.00000   0.00025   0.00025  -0.98017
   D12       -3.10896   0.00000   0.00000   0.00021   0.00021  -3.10875
   D13       -2.40511   0.00001   0.00000   0.00039   0.00039  -2.40472
   D14       -0.35747   0.00001   0.00000   0.00045   0.00045  -0.35701
   D15        1.77137   0.00001   0.00000   0.00044   0.00044   1.77181
   D16       -0.28386   0.00000   0.00000   0.00022   0.00022  -0.28364
   D17        1.76378   0.00000   0.00000   0.00028   0.00028   1.76406
   D18       -2.39057   0.00000   0.00000   0.00027   0.00027  -2.39030
   D19        1.77615   0.00000   0.00000   0.00033   0.00033   1.77648
   D20       -2.45939   0.00000   0.00000   0.00040   0.00040  -2.45900
   D21       -0.33056   0.00000   0.00000   0.00038   0.00038  -0.33018
   D22        3.09032   0.00000   0.00000  -0.00033  -0.00033   3.08999
   D23        1.95654   0.00000   0.00000  -0.00036  -0.00036   1.95619
   D24       -0.56786   0.00000   0.00000  -0.00032  -0.00032  -0.56819
   D25        0.95562   0.00000   0.00000  -0.00020  -0.00020   0.95542
   D26       -0.17816   0.00000   0.00000  -0.00022  -0.00022  -0.17838
   D27       -2.70256   0.00000   0.00000  -0.00019  -0.00019  -2.70275
   D28       -1.09213   0.00000   0.00000  -0.00030  -0.00030  -1.09243
   D29       -2.22591   0.00000   0.00000  -0.00033  -0.00033  -2.22624
   D30        1.53287   0.00000   0.00000  -0.00030  -0.00030   1.53258
   D31       -1.03562   0.00000   0.00000  -0.00017  -0.00017  -1.03579
   D32        0.65255   0.00000   0.00000  -0.00016  -0.00016   0.65239
   D33        3.04383   0.00000   0.00000  -0.00016  -0.00016   3.04367
   D34       -3.10499   0.00000   0.00000  -0.00020  -0.00020  -3.10519
   D35       -1.41681   0.00000   0.00000  -0.00020  -0.00020  -1.41701
   D36        0.97446   0.00000   0.00000  -0.00019  -0.00019   0.97427
   D37        1.08771   0.00000   0.00000  -0.00021  -0.00021   1.08750
   D38        2.77589   0.00000   0.00000  -0.00021  -0.00021   2.77568
   D39       -1.11602   0.00000   0.00000  -0.00020  -0.00020  -1.11623
   D40        1.73668   0.00000   0.00000  -0.00002  -0.00002   1.73666
   D41       -0.14614   0.00000   0.00000  -0.00003  -0.00003  -0.14617
   D42       -2.28577   0.00000   0.00000  -0.00005  -0.00005  -2.28582
   D43       -1.75759   0.00000   0.00000   0.00003   0.00003  -1.75756
   D44       -0.72876   0.00000   0.00000   0.00002   0.00002  -0.72874
   D45        2.01972   0.00000   0.00000   0.00013   0.00013   2.01985
   D46        0.14042   0.00000   0.00000   0.00003   0.00003   0.14045
   D47        1.16925   0.00000   0.00000   0.00002   0.00002   1.16927
   D48       -2.36545   0.00000   0.00000   0.00013   0.00013  -2.36533
   D49        2.15722   0.00000   0.00000   0.00004   0.00004   2.15727
   D50       -3.09713   0.00000   0.00000   0.00004   0.00004  -3.09710
   D51       -0.34865   0.00000   0.00000   0.00014   0.00014  -0.34851
   D52        0.15171   0.00000   0.00000   0.00003   0.00003   0.15174
   D53       -0.90236   0.00000   0.00000   0.00004   0.00004  -0.90231
   D54        2.68997   0.00000   0.00000  -0.00003  -0.00003   2.68994
   D55       -0.14500   0.00000   0.00000  -0.00003  -0.00003  -0.14503
   D56        2.31446   0.00000   0.00000  -0.00015  -0.00015   2.31432
   D57       -2.53064  -0.00001   0.00000  -0.00010  -0.00010  -2.53074
   D58       -0.07118  -0.00001   0.00000  -0.00022  -0.00022  -0.07140
   D59       -0.27338   0.00000   0.00000   0.00004   0.00004  -0.27335
   D60       -2.91696   0.00000   0.00000   0.00002   0.00002  -2.91694
   D61        2.37779   0.00001   0.00000   0.00019   0.00019   2.37797
   D62       -0.26579   0.00001   0.00000   0.00017   0.00017  -0.26562
   D63        0.54767   0.00000   0.00000   0.00013   0.00013   0.54780
   D64        3.08129   0.00000   0.00000   0.00009   0.00009   3.08138
   D65       -2.20730   0.00000   0.00000   0.00007   0.00007  -2.20723
   D66        0.32632   0.00000   0.00000   0.00003   0.00003   0.32635
         Item               Value     Threshold  Converged?
 Maximum Force            0.000014     0.000450     YES
 RMS     Force            0.000004     0.000300     YES
 Maximum Displacement     0.000720     0.001800     YES
 RMS     Displacement     0.000227     0.001200     YES
 Predicted change in Energy=-1.603765D-08
 Optimization completed.
    -- Stationary point found.
                           ----------------------------
                           !   Optimized Parameters   !
                           ! (Angstroms and Degrees)  !
 --------------------------                            --------------------------
 ! Name  Definition              Value          Derivative Info.                !
 --------------------------------------------------------------------------------
 ! R1    R(1,2)                  1.4187         -DE/DX =    0.0                 !
 ! R2    R(1,10)                 0.9624         -DE/DX =    0.0                 !
 ! R3    R(2,3)                  1.5299         -DE/DX =    0.0                 !
 ! R4    R(2,11)                 1.0954         -DE/DX =    0.0                 !
 ! R5    R(2,12)                 1.1032         -DE/DX =    0.0                 !
 ! R6    R(3,4)                  1.5603         -DE/DX =    0.0                 !
 ! R7    R(3,9)                  1.5327         -DE/DX =    0.0                 !
 ! R8    R(3,13)                 1.0949         -DE/DX =    0.0                 !
 ! R9    R(4,5)                  1.5242         -DE/DX =    0.0                 !
 ! R10   R(4,14)                 1.0999         -DE/DX =    0.0                 !
 ! R11   R(4,15)                 1.0933         -DE/DX =    0.0                 !
 ! R12   R(5,6)                  1.4688         -DE/DX =    0.0                 !
 ! R13   R(5,8)                  1.5452         -DE/DX =    0.0                 !
 ! R14   R(5,16)                 1.0911         -DE/DX =    0.0                 !
 ! R15   R(6,7)                  1.4278         -DE/DX =    0.0                 !
 ! R16   R(7,8)                  1.4941         -DE/DX =    0.0                 !
 ! R17   R(7,9)                  1.5168         -DE/DX =    0.0                 !
 ! R18   R(7,17)                 1.0837         -DE/DX =    0.0                 !
 ! R19   R(8,9)                  1.5191         -DE/DX =    0.0                 !
 ! R20   R(8,18)                 1.0806         -DE/DX =    0.0                 !
 ! R21   R(9,19)                 1.0855         -DE/DX =    0.0                 !
 ! A1    A(2,1,10)             107.8941         -DE/DX =    0.0                 !
 ! A2    A(1,2,3)              112.9998         -DE/DX =    0.0                 !
 ! A3    A(1,2,11)             105.5185         -DE/DX =    0.0                 !
 ! A4    A(1,2,12)             111.3474         -DE/DX =    0.0                 !
 ! A5    A(3,2,11)             109.9441         -DE/DX =    0.0                 !
 ! A6    A(3,2,12)             109.5967         -DE/DX =    0.0                 !
 ! A7    A(11,2,12)            107.2038         -DE/DX =    0.0                 !
 ! A8    A(2,3,4)              113.1966         -DE/DX =    0.0                 !
 ! A9    A(2,3,9)              112.0443         -DE/DX =    0.0                 !
 ! A10   A(2,3,13)             107.8454         -DE/DX =    0.0                 !
 ! A11   A(4,3,9)              103.5264         -DE/DX =    0.0                 !
 ! A12   A(4,3,13)             109.6006         -DE/DX =    0.0                 !
 ! A13   A(9,3,13)             110.6072         -DE/DX =    0.0                 !
 ! A14   A(3,4,5)              103.3258         -DE/DX =    0.0                 !
 ! A15   A(3,4,14)             111.2251         -DE/DX =    0.0                 !
 ! A16   A(3,4,15)             112.9711         -DE/DX =    0.0                 !
 ! A17   A(5,4,14)             109.4439         -DE/DX =    0.0                 !
 ! A18   A(5,4,15)             111.5629         -DE/DX =    0.0                 !
 ! A19   A(14,4,15)            108.2504         -DE/DX =    0.0                 !
 ! A20   A(4,5,6)              107.5786         -DE/DX =    0.0                 !
 ! A21   A(4,5,8)              106.6426         -DE/DX =    0.0                 !
 ! A22   A(4,5,16)             117.0482         -DE/DX =    0.0                 !
 ! A23   A(6,5,8)               91.173          -DE/DX =    0.0                 !
 ! A24   A(6,5,16)             111.4001         -DE/DX =    0.0                 !
 ! A25   A(8,5,16)             119.5997         -DE/DX =    0.0                 !
 ! A26   A(5,6,7)               88.923          -DE/DX =    0.0                 !
 ! A27   A(6,7,8)               94.9368         -DE/DX =    0.0                 !
 ! A28   A(6,7,9)              110.6281         -DE/DX =    0.0                 !
 ! A29   A(6,7,17)             118.055          -DE/DX =    0.0                 !
 ! A30   A(8,7,17)             133.1196         -DE/DX =    0.0                 !
 ! A31   A(9,7,17)             125.2916         -DE/DX =    0.0                 !
 ! A32   A(5,8,7)               83.7477         -DE/DX =    0.0                 !
 ! A33   A(5,8,9)               97.7714         -DE/DX =    0.0                 !
 ! A34   A(5,8,18)             129.4743         -DE/DX =    0.0                 !
 ! A35   A(7,8,18)             133.3659         -DE/DX =    0.0                 !
 ! A36   A(9,8,18)             128.3539         -DE/DX =    0.0                 !
 ! A37   A(3,9,7)              117.0262         -DE/DX =    0.0                 !
 ! A38   A(3,9,8)              111.1519         -DE/DX =    0.0                 !
 ! A39   A(3,9,19)             119.9505         -DE/DX =    0.0                 !
 ! A40   A(7,9,19)             116.3762         -DE/DX =    0.0                 !
 ! A41   A(8,9,19)             118.6102         -DE/DX =    0.0                 !
 ! D1    D(10,1,2,3)            64.4126         -DE/DX =    0.0                 !
 ! D2    D(10,1,2,11)         -175.4255         -DE/DX =    0.0                 !
 ! D3    D(10,1,2,12)          -59.4429         -DE/DX =    0.0                 !
 ! D4    D(1,2,3,4)            -64.3671         -DE/DX =    0.0                 !
 ! D5    D(1,2,3,9)            179.0138         -DE/DX =    0.0                 !
 ! D6    D(1,2,3,13)            57.0574         -DE/DX =    0.0                 !
 ! D7    D(11,2,3,4)           178.0375         -DE/DX =    0.0                 !
 ! D8    D(11,2,3,9)            61.4184         -DE/DX =    0.0                 !
 ! D9    D(11,2,3,13)          -60.538          -DE/DX =    0.0                 !
 ! D10   D(12,2,3,4)            60.4453         -DE/DX =    0.0                 !
 ! D11   D(12,2,3,9)           -56.1738         -DE/DX =    0.0                 !
 ! D12   D(12,2,3,13)         -178.1302         -DE/DX =    0.0                 !
 ! D13   D(2,3,4,5)           -137.8028         -DE/DX =    0.0                 !
 ! D14   D(2,3,4,14)           -20.4813         -DE/DX =    0.0                 !
 ! D15   D(2,3,4,15)           101.4918         -DE/DX =    0.0                 !
 ! D16   D(9,3,4,5)            -16.2642         -DE/DX =    0.0                 !
 ! D17   D(9,3,4,14)           101.0573         -DE/DX =    0.0                 !
 ! D18   D(9,3,4,15)          -136.9696         -DE/DX =    0.0                 !
 ! D19   D(13,3,4,5)           101.7657         -DE/DX =    0.0                 !
 ! D20   D(13,3,4,14)         -140.9128         -DE/DX =    0.0                 !
 ! D21   D(13,3,4,15)          -18.9397         -DE/DX =    0.0                 !
 ! D22   D(2,3,9,7)            177.0622         -DE/DX =    0.0                 !
 ! D23   D(2,3,9,8)            112.1016         -DE/DX =    0.0                 !
 ! D24   D(2,3,9,19)           -32.5362         -DE/DX =    0.0                 !
 ! D25   D(4,3,9,7)             54.7529         -DE/DX =    0.0                 !
 ! D26   D(4,3,9,8)            -10.2076         -DE/DX =    0.0                 !
 ! D27   D(4,3,9,19)          -154.8454         -DE/DX =    0.0                 !
 ! D28   D(13,3,9,7)           -62.5746         -DE/DX =    0.0                 !
 ! D29   D(13,3,9,8)          -127.5351         -DE/DX =    0.0                 !
 ! D30   D(13,3,9,19)           87.8271         -DE/DX =    0.0                 !
 ! D31   D(3,4,5,6)            -59.3369         -DE/DX =    0.0                 !
 ! D32   D(3,4,5,8)             37.3886         -DE/DX =    0.0                 !
 ! D33   D(3,4,5,16)           174.3985         -DE/DX =    0.0                 !
 ! D34   D(14,4,5,6)          -177.9029         -DE/DX =    0.0                 !
 ! D35   D(14,4,5,8)           -81.1773         -DE/DX =    0.0                 !
 ! D36   D(14,4,5,16)           55.8325         -DE/DX =    0.0                 !
 ! D37   D(15,4,5,6)            62.3213         -DE/DX =    0.0                 !
 ! D38   D(15,4,5,8)           159.0468         -DE/DX =    0.0                 !
 ! D39   D(15,4,5,16)          -63.9433         -DE/DX =    0.0                 !
 ! D40   D(4,5,6,7)             99.5042         -DE/DX =    0.0                 !
 ! D41   D(8,5,6,7)             -8.373          -DE/DX =    0.0                 !
 ! D42   D(16,5,6,7)          -130.9648         -DE/DX =    0.0                 !
 ! D43   D(4,5,8,7)           -100.7024         -DE/DX =    0.0                 !
 ! D44   D(4,5,8,9)            -41.7548         -DE/DX =    0.0                 !
 ! D45   D(4,5,8,18)           115.7216         -DE/DX =    0.0                 !
 ! D46   D(6,5,8,7)              8.0456         -DE/DX =    0.0                 !
 ! D47   D(6,5,8,9)             66.9931         -DE/DX =    0.0                 !
 ! D48   D(6,5,8,18)          -135.5305         -DE/DX =    0.0                 !
 ! D49   D(16,5,8,7)           123.5997         -DE/DX =    0.0                 !
 ! D50   D(16,5,8,9)          -177.4528         -DE/DX =    0.0                 !
 ! D51   D(16,5,8,18)          -19.9764         -DE/DX =    0.0                 !
 ! D52   D(5,6,7,8)              8.6922         -DE/DX =    0.0                 !
 ! D53   D(5,6,7,9)            -51.7012         -DE/DX =    0.0                 !
 ! D54   D(5,6,7,17)           154.124          -DE/DX =    0.0                 !
 ! D55   D(6,7,8,5)             -8.3078         -DE/DX =    0.0                 !
 ! D56   D(6,7,8,18)           132.609          -DE/DX =    0.0                 !
 ! D57   D(17,7,8,5)          -144.995          -DE/DX =    0.0                 !
 ! D58   D(17,7,8,18)           -4.0781         -DE/DX =    0.0                 !
 ! D59   D(6,7,9,3)            -15.6637         -DE/DX =    0.0                 !
 ! D60   D(6,7,9,19)          -167.1293         -DE/DX =    0.0                 !
 ! D61   D(17,7,9,3)           136.2371         -DE/DX =    0.0                 !
 ! D62   D(17,7,9,19)          -15.2285         -DE/DX =    0.0                 !
 ! D63   D(5,8,9,3)             31.379          -DE/DX =    0.0                 !
 ! D64   D(5,8,9,19)           176.545          -DE/DX =    0.0                 !
 ! D65   D(18,8,9,3)          -126.469          -DE/DX =    0.0                 !
 ! D66   D(18,8,9,19)           18.6969         -DE/DX =    0.0                 !
 --------------------------------------------------------------------------------
 GradGradGradGradGradGradGradGradGradGradGradGradGradGradGradGradGradGrad

                          Input orientation:                          
 ---------------------------------------------------------------------
 Center     Atomic      Atomic             Coordinates (Angstroms)
 Number     Number       Type             X           Y           Z
 ---------------------------------------------------------------------
      1          8           0        1.304435    0.836734   -0.146271
      2          6           0        0.315318   -0.010860    0.415883
      3          6           0       -0.865811    0.760028    1.008645
      4          6           0       -0.468092    1.655323    2.223049
      5          6           0       -1.605564    1.430771    3.212496
      6          8           0       -2.852890    1.843167    2.555533
      7          6           0       -3.123067    0.471136    2.267234
      8          6           0       -2.001837   -0.058585    3.100680
      9          6           0       -1.931736   -0.176776    1.587781
     10          1           0        1.682809    1.362355    0.565672
     11          1           0       -0.028592   -0.646203   -0.407525
     12          1           0        0.745657   -0.676103    1.183528
     13          1           0       -1.290948    1.384139    0.215865
     14          1           0        0.478777    1.320382    2.671510
     15          1           0       -0.367388    2.711614    1.959550
     16          1           0       -1.504055    1.888975    4.197537
     17          1           0       -4.156511    0.171193    2.138952
     18          1           0       -1.933125   -0.845037    3.838618
     19          1           0       -2.104631   -1.147436    1.133677
 ---------------------------------------------------------------------
                    Distance matrix (angstroms):
                    1          2          3          4          5
     1  O    0.000000
     2  C    1.418727   0.000000
     3  C    2.459610   1.529935   0.000000
     4  C    3.070116   2.579873   1.560291   0.000000
     5  C    4.483558   3.686344   2.419523   1.524228   0.000000
     6  O    5.059249   4.248890   2.741265   2.415180   1.468842
     7  C    5.055832   3.934757   2.600521   2.907429   2.029098
     8  C    4.719717   3.546776   2.517399   2.461726   1.545224
     9  C    3.808798   2.539710   1.532709   2.429486   2.308743
    10  H    0.962448   1.943756   2.656028   2.731136   4.221819
    11  H    2.011049   1.095416   2.164246   3.522797   4.461526
    12  H    2.090282   1.103185   2.165615   2.826541   3.752848
    13  H    2.677089   2.136848   1.094877   2.186189   3.013463
    14  H    2.975822   2.624267   2.210664   1.099938   2.156231
    15  H    3.277903   3.203258   2.227405   1.093309   2.177961
    16  H    5.278588   4.606560   3.442515   2.241967   1.091128
    17  H    5.957107   4.795766   3.528885   3.976701   3.040784
    18  H    5.402730   4.179290   3.424053   3.317858   2.382987
    19  H    4.146918   2.768246   2.277878   3.423514   3.349286
                    6          7          8          9         10
     6  O    0.000000
     7  C    1.427788   0.000000
     8  C    2.153634   1.494120   0.000000
     9  C    2.421825   1.516811   1.519127   0.000000
    10  H    4.976274   5.175522   4.692756   4.059380   0.000000
    11  H    4.790964   4.240113   4.067738   2.797064   2.812527
    12  H    4.602028   4.178229   3.406688   2.753394   2.327082
    13  H    2.850337   2.897991   3.302874   2.174677   2.994340
    14  H    3.374428   3.722626   2.870399   3.037519   2.426110
    15  H    2.699466   3.564853   3.412859   3.305782   2.822535
    16  H    2.125473   2.890941   2.289951   3.355751   4.860440
    17  H    2.160663   1.083711   2.370725   2.318296   6.163744
    18  H    3.117486   2.370132   1.080639   2.347944   5.353479
    19  H    3.394890   2.223048   2.250615   1.085489   4.578906
                   11         12         13         14         15
    11  H    0.000000
    12  H    1.769690   0.000000
    13  H    2.470718   3.054297   0.000000
    14  H    3.688541   2.504250   3.027571   0.000000
    15  H    4.122228   3.649343   2.378149   1.777191   0.000000
    16  H    5.459919   4.552481   4.019203   2.565868   2.641464
    17  H    4.918577   5.065767   3.657999   4.805222   4.565455
    18  H    4.657951   3.775436   4.301855   3.445062   4.316503
    19  H    2.633719   2.889425   2.813064   3.889609   4.311885
                   16         17         18         19
    16  H    0.000000
    17  H    3.771482   0.000000
    18  H    2.790653   2.977421   0.000000
    19  H    4.355196   2.638100   2.727191   0.000000
 Stoichiometry    C7H10O2
 Framework group  C1[X(C7H10O2)]
 Deg. of freedom    51
 Full point group                 C1      NOp   1
 Largest Abelian subgroup         C1      NOp   1
 Largest concise Abelian subgroup C1      NOp   1
                         Standard orientation:                         
 ---------------------------------------------------------------------
 Center     Atomic      Atomic             Coordinates (Angstroms)
 Number     Number       Type             X           Y           Z
 ---------------------------------------------------------------------
      1          8           0        3.101606    0.233421   -0.209159
      2          6           0        2.037645   -0.628642    0.161812
      3          6           0        0.683539   -0.178733   -0.390168
      4          6           0        0.212038    1.194128    0.182062
      5          6           0       -1.270848    0.970497    0.454658
      6          8           0       -1.906602    0.609627   -0.819346
      7          6           0       -1.850380   -0.762290   -0.427856
      8          6           0       -1.412077   -0.478655    0.972085
      9          6           0       -0.445430   -1.137853    0.003169
     10          1           0        2.941233    1.091999    0.195107
     11          1           0        2.300051   -1.610603   -0.246641
     12          1           0        1.972713   -0.737827    1.257659
     13          1           0        0.770624   -0.112188   -1.479545
     14          1           0        0.726211    1.430120    1.125353
     15          1           0        0.372385    2.023460   -0.512073
     16          1           0       -1.810463    1.776309    0.954702
     17          1           0       -2.578217   -1.443736   -0.852490
     18          1           0       -1.739558   -0.834185    1.938592
     19          1           0       -0.241939   -2.198445    0.112804
 ---------------------------------------------------------------------
 Rotational constants (GHZ):      3.9529903      1.1811690      1.0659014
 1\1\GINC-ALCHEMY-AL\FOpt\RB3LYP\6-31G(2df,p)\C7H10O2\PUCK\31-Jan-2020\
 0\\# b3lyp 6-31G(2df,p) opt Freq\\titel\\0,1\O,1.3044346366,0.83673443
 12,-0.1462713933\C,0.31531834,-0.0108601634,0.4158833539\C,-0.86581111
 99,0.7600284823,1.0086449498\C,-0.4680918191,1.6553226916,2.2230486738
 \C,-1.6055636924,1.4307712583,3.2124962011\O,-2.8528904976,1.843166942
 6,2.5555326394\C,-3.123067077,0.4711363732,2.2672336094\C,-2.001837407
 6,-0.058585114,3.1006802431\C,-1.9317359412,-0.1767758833,1.5877814822
 \H,1.6828091461,1.3623545951,0.5656716996\H,-0.0285920582,-0.646203456
 5,-0.4075247182\H,0.7456567061,-0.6761034627,1.1835279235\H,-1.2909476
 989,1.384138726,0.2158646592\H,0.4787774466,1.3203824495,2.6715096876\
 H,-0.3673878663,2.7116138798,1.9595497743\H,-1.50405456,1.8889753943,4
 .1975371072\H,-4.1565112893,0.1711925514,2.1389518132\H,-1.9331246172,
 -0.8450367235,3.8386184233\H,-2.1046309708,-1.147436282,1.1336765207\\
 Version=ES64L-G09RevD.01\State=1-A\HF=-423.1436595\RMSD=5.503e-09\RMSF
 =9.383e-06\Dipole=0.1344549,-0.5012455,0.6647278\Quadrupole=-0.2698953
 ,1.4219545,-1.1520592,3.9799534,4.335278,0.0457067\PG=C01 [X(C7H10O2)]
 \\@


 IF MATHEMATICALLY YOU END UP WITH THE INCORRECT ANSWER,
 TRY MULTIPLYING BY THE PAGE NUMBER.
 Job cpu time:       0 days  0 hours  6 minutes  5.9 seconds.
 File lengths (MBytes):  RWF=     52 Int=      0 D2E=      0 Chk=      7 Scr=      1
 Normal termination of Gaussian 09 at Fri Jan 31 16:04:27 2020.
 Link1:  Proceeding to internal job step number  2.
 ----------------------------------------------------------------------
 #N Geom=AllCheck Guess=TCheck SCRF=Check GenChk RB3LYP/6-31G(2df,p) Fr
 eq
 ----------------------------------------------------------------------
 1/10=4,29=7,30=1,38=1,40=1/1,3;
 2/12=2,40=1/2;
 3/5=1,6=6,7=104,11=2,14=-4,16=1,25=1,30=1,70=2,71=2,74=-5,116=1,140=1/1,2,3;
 4/5=101/1;
 5/5=2,98=1/2;
 8/6=4,10=90,11=11/1;
 11/6=1,8=1,9=11,15=111,16=1/1,2,10;
 10/6=1/2;
 6/7=2,8=2,9=2,10=2,18=1,28=1/1;
 7/8=1,10=1,25=1/1,2,3,16;
 1/10=4,30=1/3;
 99//99;
 Structure from the checkpoint file:  "/scratch/puck/g09_0b29f2b1-536b-4486-b83c-f690bf8b3fde/Gau-175721.chk"
 -----
 titel
 -----
 Charge =  0 Multiplicity = 1
 Redundant internal coordinates found in file.
 O,0,1.3044346366,0.8367344312,-0.1462713933
 C,0,0.31531834,-0.0108601634,0.4158833539
 C,0,-0.8658111199,0.7600284823,1.0086449498
 C,0,-0.4680918191,1.6553226916,2.2230486738
 C,0,-1.6055636924,1.4307712583,3.2124962011
 O,0,-2.8528904976,1.8431669426,2.5555326394
 C,0,-3.123067077,0.4711363732,2.2672336094
 C,0,-2.0018374076,-0.058585114,3.1006802431
 C,0,-1.9317359412,-0.1767758833,1.5877814822
 H,0,1.6828091461,1.3623545951,0.5656716996
 H,0,-0.0285920582,-0.6462034565,-0.4075247182
 H,0,0.7456567061,-0.6761034627,1.1835279235
 H,0,-1.2909476989,1.384138726,0.2158646592
 H,0,0.4787774466,1.3203824495,2.6715096876
 H,0,-0.3673878663,2.7116138798,1.9595497743
 H,0,-1.50405456,1.8889753943,4.1975371072
 H,0,-4.1565112893,0.1711925514,2.1389518132
 H,0,-1.9331246172,-0.8450367235,3.8386184233
 H,0,-2.1046309708,-1.147436282,1.1336765207
 Recover connectivity data from disk.

 GradGradGradGradGradGradGradGradGradGradGradGradGradGradGradGradGradGrad
 Berny optimization.
 Initialization pass.
                           ----------------------------
                           !    Initial Parameters    !
                           ! (Angstroms and Degrees)  !
 --------------------------                            --------------------------
 ! Name  Definition              Value          Derivative Info.                !
 --------------------------------------------------------------------------------
 ! R1    R(1,2)                  1.4187         calculate D2E/DX2 analytically  !
 ! R2    R(1,10)                 0.9624         calculate D2E/DX2 analytically  !
 ! R3    R(2,3)                  1.5299         calculate D2E/DX2 analytically  !
 ! R4    R(2,11)                 1.0954         calculate D2E/DX2 analytically  !
 ! R5    R(2,12)                 1.1032         calculate D2E/DX2 analytically  !
 ! R6    R(3,4)                  1.5603         calculate D2E/DX2 analytically  !
 ! R7    R(3,9)                  1.5327         calculate D2E/DX2 analytically  !
 ! R8    R(3,13)                 1.0949         calculate D2E/DX2 analytically  !
 ! R9    R(4,5)                  1.5242         calculate D2E/DX2 analytically  !
 ! R10   R(4,14)                 1.0999         calculate D2E/DX2 analytically  !
 ! R11   R(4,15)                 1.0933         calculate D2E/DX2 analytically  !
 ! R12   R(5,6)                  1.4688         calculate D2E/DX2 analytically  !
 ! R13   R(5,8)                  1.5452         calculate D2E/DX2 analytically  !
 ! R14   R(5,16)                 1.0911         calculate D2E/DX2 analytically  !
 ! R15   R(6,7)                  1.4278         calculate D2E/DX2 analytically  !
 ! R16   R(7,8)                  1.4941         calculate D2E/DX2 analytically  !
 ! R17   R(7,9)                  1.5168         calculate D2E/DX2 analytically  !
 ! R18   R(7,17)                 1.0837         calculate D2E/DX2 analytically  !
 ! R19   R(8,9)                  1.5191         calculate D2E/DX2 analytically  !
 ! R20   R(8,18)                 1.0806         calculate D2E/DX2 analytically  !
 ! R21   R(9,19)                 1.0855         calculate D2E/DX2 analytically  !
 ! A1    A(2,1,10)             107.8941         calculate D2E/DX2 analytically  !
 ! A2    A(1,2,3)              112.9998         calculate D2E/DX2 analytically  !
 ! A3    A(1,2,11)             105.5185         calculate D2E/DX2 analytically  !
 ! A4    A(1,2,12)             111.3474         calculate D2E/DX2 analytically  !
 ! A5    A(3,2,11)             109.9441         calculate D2E/DX2 analytically  !
 ! A6    A(3,2,12)             109.5967         calculate D2E/DX2 analytically  !
 ! A7    A(11,2,12)            107.2038         calculate D2E/DX2 analytically  !
 ! A8    A(2,3,4)              113.1966         calculate D2E/DX2 analytically  !
 ! A9    A(2,3,9)              112.0443         calculate D2E/DX2 analytically  !
 ! A10   A(2,3,13)             107.8454         calculate D2E/DX2 analytically  !
 ! A11   A(4,3,9)              103.5264         calculate D2E/DX2 analytically  !
 ! A12   A(4,3,13)             109.6006         calculate D2E/DX2 analytically  !
 ! A13   A(9,3,13)             110.6072         calculate D2E/DX2 analytically  !
 ! A14   A(3,4,5)              103.3258         calculate D2E/DX2 analytically  !
 ! A15   A(3,4,14)             111.2251         calculate D2E/DX2 analytically  !
 ! A16   A(3,4,15)             112.9711         calculate D2E/DX2 analytically  !
 ! A17   A(5,4,14)             109.4439         calculate D2E/DX2 analytically  !
 ! A18   A(5,4,15)             111.5629         calculate D2E/DX2 analytically  !
 ! A19   A(14,4,15)            108.2504         calculate D2E/DX2 analytically  !
 ! A20   A(4,5,6)              107.5786         calculate D2E/DX2 analytically  !
 ! A21   A(4,5,8)              106.6426         calculate D2E/DX2 analytically  !
 ! A22   A(4,5,16)             117.0482         calculate D2E/DX2 analytically  !
 ! A23   A(6,5,8)               91.173          calculate D2E/DX2 analytically  !
 ! A24   A(6,5,16)             111.4001         calculate D2E/DX2 analytically  !
 ! A25   A(8,5,16)             119.5997         calculate D2E/DX2 analytically  !
 ! A26   A(5,6,7)               88.923          calculate D2E/DX2 analytically  !
 ! A27   A(6,7,8)               94.9368         calculate D2E/DX2 analytically  !
 ! A28   A(6,7,9)              110.6281         calculate D2E/DX2 analytically  !
 ! A29   A(6,7,17)             118.055          calculate D2E/DX2 analytically  !
 ! A30   A(8,7,17)             133.1196         calculate D2E/DX2 analytically  !
 ! A31   A(9,7,17)             125.2916         calculate D2E/DX2 analytically  !
 ! A32   A(5,8,7)               83.7477         calculate D2E/DX2 analytically  !
 ! A33   A(5,8,9)               97.7714         calculate D2E/DX2 analytically  !
 ! A34   A(5,8,18)             129.4743         calculate D2E/DX2 analytically  !
 ! A35   A(7,8,18)             133.3659         calculate D2E/DX2 analytically  !
 ! A36   A(9,8,18)             128.3539         calculate D2E/DX2 analytically  !
 ! A37   A(3,9,7)              117.0262         calculate D2E/DX2 analytically  !
 ! A38   A(3,9,8)              111.1519         calculate D2E/DX2 analytically  !
 ! A39   A(3,9,19)             119.9505         calculate D2E/DX2 analytically  !
 ! A40   A(7,9,19)             116.3762         calculate D2E/DX2 analytically  !
 ! A41   A(8,9,19)             118.6102         calculate D2E/DX2 analytically  !
 ! D1    D(10,1,2,3)            64.4126         calculate D2E/DX2 analytically  !
 ! D2    D(10,1,2,11)         -175.4255         calculate D2E/DX2 analytically  !
 ! D3    D(10,1,2,12)          -59.4429         calculate D2E/DX2 analytically  !
 ! D4    D(1,2,3,4)            -64.3671         calculate D2E/DX2 analytically  !
 ! D5    D(1,2,3,9)            179.0138         calculate D2E/DX2 analytically  !
 ! D6    D(1,2,3,13)            57.0574         calculate D2E/DX2 analytically  !
 ! D7    D(11,2,3,4)           178.0375         calculate D2E/DX2 analytically  !
 ! D8    D(11,2,3,9)            61.4184         calculate D2E/DX2 analytically  !
 ! D9    D(11,2,3,13)          -60.538          calculate D2E/DX2 analytically  !
 ! D10   D(12,2,3,4)            60.4453         calculate D2E/DX2 analytically  !
 ! D11   D(12,2,3,9)           -56.1738         calculate D2E/DX2 analytically  !
 ! D12   D(12,2,3,13)         -178.1302         calculate D2E/DX2 analytically  !
 ! D13   D(2,3,4,5)           -137.8028         calculate D2E/DX2 analytically  !
 ! D14   D(2,3,4,14)           -20.4813         calculate D2E/DX2 analytically  !
 ! D15   D(2,3,4,15)           101.4918         calculate D2E/DX2 analytically  !
 ! D16   D(9,3,4,5)            -16.2642         calculate D2E/DX2 analytically  !
 ! D17   D(9,3,4,14)           101.0573         calculate D2E/DX2 analytically  !
 ! D18   D(9,3,4,15)          -136.9696         calculate D2E/DX2 analytically  !
 ! D19   D(13,3,4,5)           101.7657         calculate D2E/DX2 analytically  !
 ! D20   D(13,3,4,14)         -140.9128         calculate D2E/DX2 analytically  !
 ! D21   D(13,3,4,15)          -18.9397         calculate D2E/DX2 analytically  !
 ! D22   D(2,3,9,7)            177.0622         calculate D2E/DX2 analytically  !
 ! D23   D(2,3,9,8)            112.1016         calculate D2E/DX2 analytically  !
 ! D24   D(2,3,9,19)           -32.5362         calculate D2E/DX2 analytically  !
 ! D25   D(4,3,9,7)             54.7529         calculate D2E/DX2 analytically  !
 ! D26   D(4,3,9,8)            -10.2076         calculate D2E/DX2 analytically  !
 ! D27   D(4,3,9,19)          -154.8454         calculate D2E/DX2 analytically  !
 ! D28   D(13,3,9,7)           -62.5746         calculate D2E/DX2 analytically  !
 ! D29   D(13,3,9,8)          -127.5351         calculate D2E/DX2 analytically  !
 ! D30   D(13,3,9,19)           87.8271         calculate D2E/DX2 analytically  !
 ! D31   D(3,4,5,6)            -59.3369         calculate D2E/DX2 analytically  !
 ! D32   D(3,4,5,8)             37.3886         calculate D2E/DX2 analytically  !
 ! D33   D(3,4,5,16)           174.3985         calculate D2E/DX2 analytically  !
 ! D34   D(14,4,5,6)          -177.9029         calculate D2E/DX2 analytically  !
 ! D35   D(14,4,5,8)           -81.1773         calculate D2E/DX2 analytically  !
 ! D36   D(14,4,5,16)           55.8325         calculate D2E/DX2 analytically  !
 ! D37   D(15,4,5,6)            62.3213         calculate D2E/DX2 analytically  !
 ! D38   D(15,4,5,8)           159.0468         calculate D2E/DX2 analytically  !
 ! D39   D(15,4,5,16)          -63.9433         calculate D2E/DX2 analytically  !
 ! D40   D(4,5,6,7)             99.5042         calculate D2E/DX2 analytically  !
 ! D41   D(8,5,6,7)             -8.373          calculate D2E/DX2 analytically  !
 ! D42   D(16,5,6,7)          -130.9648         calculate D2E/DX2 analytically  !
 ! D43   D(4,5,8,7)           -100.7024         calculate D2E/DX2 analytically  !
 ! D44   D(4,5,8,9)            -41.7548         calculate D2E/DX2 analytically  !
 ! D45   D(4,5,8,18)           115.7216         calculate D2E/DX2 analytically  !
 ! D46   D(6,5,8,7)              8.0456         calculate D2E/DX2 analytically  !
 ! D47   D(6,5,8,9)             66.9931         calculate D2E/DX2 analytically  !
 ! D48   D(6,5,8,18)          -135.5305         calculate D2E/DX2 analytically  !
 ! D49   D(16,5,8,7)           123.5997         calculate D2E/DX2 analytically  !
 ! D50   D(16,5,8,9)          -177.4528         calculate D2E/DX2 analytically  !
 ! D51   D(16,5,8,18)          -19.9764         calculate D2E/DX2 analytically  !
 ! D52   D(5,6,7,8)              8.6922         calculate D2E/DX2 analytically  !
 ! D53   D(5,6,7,9)            -51.7012         calculate D2E/DX2 analytically  !
 ! D54   D(5,6,7,17)           154.124          calculate D2E/DX2 analytically  !
 ! D55   D(6,7,8,5)             -8.3078         calculate D2E/DX2 analytically  !
 ! D56   D(6,7,8,18)           132.609          calculate D2E/DX2 analytically  !
 ! D57   D(17,7,8,5)          -144.995          calculate D2E/DX2 analytically  !
 ! D58   D(17,7,8,18)           -4.0781         calculate D2E/DX2 analytically  !
 ! D59   D(6,7,9,3)            -15.6637         calculate D2E/DX2 analytically  !
 ! D60   D(6,7,9,19)          -167.1293         calculate D2E/DX2 analytically  !
 ! D61   D(17,7,9,3)           136.2371         calculate D2E/DX2 analytically  !
 ! D62   D(17,7,9,19)          -15.2285         calculate D2E/DX2 analytically  !
 ! D63   D(5,8,9,3)             31.379          calculate D2E/DX2 analytically  !
 ! D64   D(5,8,9,19)           176.545          calculate D2E/DX2 analytically  !
 ! D65   D(18,8,9,3)          -126.469          calculate D2E/DX2 analytically  !
 ! D66   D(18,8,9,19)           18.6969         calculate D2E/DX2 analytically  !
 --------------------------------------------------------------------------------
 Trust Radius=3.00D-01 FncErr=1.00D-07 GrdErr=1.00D-07
 Number of steps in this run=      2 maximum allowed number of steps=      2.
 GradGradGradGradGradGradGradGradGradGradGradGradGradGradGradGradGradGrad

                          Input orientation:                          
 ---------------------------------------------------------------------
 Center     Atomic      Atomic             Coordinates (Angstroms)
 Number     Number       Type             X           Y           Z
 ---------------------------------------------------------------------
      1          8           0        1.304435    0.836734   -0.146271
      2          6           0        0.315318   -0.010860    0.415883
      3          6           0       -0.865811    0.760028    1.008645
      4          6           0       -0.468092    1.655323    2.223049
      5          6           0       -1.605564    1.430771    3.212496
      6          8           0       -2.852890    1.843167    2.555533
      7          6           0       -3.123067    0.471136    2.267234
      8          6           0       -2.001837   -0.058585    3.100680
      9          6           0       -1.931736   -0.176776    1.587781
     10          1           0        1.682809    1.362355    0.565672
     11          1           0       -0.028592   -0.646203   -0.407525
     12          1           0        0.745657   -0.676103    1.183528
     13          1           0       -1.290948    1.384139    0.215865
     14          1           0        0.478777    1.320382    2.671510
     15          1           0       -0.367388    2.711614    1.959550
     16          1           0       -1.504055    1.888975    4.197537
     17          1           0       -4.156511    0.171193    2.138952
     18          1           0       -1.933125   -0.845037    3.838618
     19          1           0       -2.104631   -1.147436    1.133677
 ---------------------------------------------------------------------
                    Distance matrix (angstroms):
                    1          2          3          4          5
     1  O    0.000000
     2  C    1.418727   0.000000
     3  C    2.459610   1.529935   0.000000
     4  C    3.070116   2.579873   1.560291   0.000000
     5  C    4.483558   3.686344   2.419523   1.524228   0.000000
     6  O    5.059249   4.248890   2.741265   2.415180   1.468842
     7  C    5.055832   3.934757   2.600521   2.907429   2.029098
     8  C    4.719717   3.546776   2.517399   2.461726   1.545224
     9  C    3.808798   2.539710   1.532709   2.429486   2.308743
    10  H    0.962448   1.943756   2.656028   2.731136   4.221819
    11  H    2.011049   1.095416   2.164246   3.522797   4.461526
    12  H    2.090282   1.103185   2.165615   2.826541   3.752848
    13  H    2.677089   2.136848   1.094877   2.186189   3.013463
    14  H    2.975822   2.624267   2.210664   1.099938   2.156231
    15  H    3.277903   3.203258   2.227405   1.093309   2.177961
    16  H    5.278588   4.606560   3.442515   2.241967   1.091128
    17  H    5.957107   4.795766   3.528885   3.976701   3.040784
    18  H    5.402730   4.179290   3.424053   3.317858   2.382987
    19  H    4.146918   2.768246   2.277878   3.423514   3.349286
                    6          7          8          9         10
     6  O    0.000000
     7  C    1.427788   0.000000
     8  C    2.153634   1.494120   0.000000
     9  C    2.421825   1.516811   1.519127   0.000000
    10  H    4.976274   5.175522   4.692756   4.059380   0.000000
    11  H    4.790964   4.240113   4.067738   2.797064   2.812527
    12  H    4.602028   4.178229   3.406688   2.753394   2.327082
    13  H    2.850337   2.897991   3.302874   2.174677   2.994340
    14  H    3.374428   3.722626   2.870399   3.037519   2.426110
    15  H    2.699466   3.564853   3.412859   3.305782   2.822535
    16  H    2.125473   2.890941   2.289951   3.355751   4.860440
    17  H    2.160663   1.083711   2.370725   2.318296   6.163744
    18  H    3.117486   2.370132   1.080639   2.347944   5.353479
    19  H    3.394890   2.223048   2.250615   1.085489   4.578906
                   11         12         13         14         15
    11  H    0.000000
    12  H    1.769690   0.000000
    13  H    2.470718   3.054297   0.000000
    14  H    3.688541   2.504250   3.027571   0.000000
    15  H    4.122228   3.649343   2.378149   1.777191   0.000000
    16  H    5.459919   4.552481   4.019203   2.565868   2.641464
    17  H    4.918577   5.065767   3.657999   4.805222   4.565455
    18  H    4.657951   3.775436   4.301855   3.445062   4.316503
    19  H    2.633719   2.889425   2.813064   3.889609   4.311885
                   16         17         18         19
    16  H    0.000000
    17  H    3.771482   0.000000
    18  H    2.790653   2.977421   0.000000
    19  H    4.355196   2.638100   2.727191   0.000000
 Stoichiometry    C7H10O2
 Framework group  C1[X(C7H10O2)]
 Deg. of freedom    51
 Full point group                 C1      NOp   1
 Largest Abelian subgroup         C1      NOp   1
 Largest concise Abelian subgroup C1      NOp   1
                         Standard orientation:                         
 ---------------------------------------------------------------------
 Center     Atomic      Atomic             Coordinates (Angstroms)
 Number     Number       Type             X           Y           Z
 ---------------------------------------------------------------------
      1          8           0        3.101606    0.233421   -0.209159
      2          6           0        2.037645   -0.628642    0.161812
      3          6           0        0.683539   -0.178733   -0.390168
      4          6           0        0.212038    1.194128    0.182062
      5          6           0       -1.270848    0.970497    0.454658
      6          8           0       -1.906602    0.609627   -0.819346
      7          6           0       -1.850380   -0.762290   -0.427856
      8          6           0       -1.412077   -0.478655    0.972085
      9          6           0       -0.445430   -1.137853    0.003169
     10          1           0        2.941233    1.091999    0.195107
     11          1           0        2.300051   -1.610603   -0.246641
     12          1           0        1.972713   -0.737827    1.257659
     13          1           0        0.770624   -0.112188   -1.479545
     14          1           0        0.726211    1.430120    1.125353
     15          1           0        0.372385    2.023460   -0.512073
     16          1           0       -1.810463    1.776309    0.954702
     17          1           0       -2.578217   -1.443736   -0.852490
     18          1           0       -1.739558   -0.834185    1.938592
     19          1           0       -0.241939   -2.198445    0.112804
 ---------------------------------------------------------------------
 Rotational constants (GHZ):      3.9529903      1.1811690      1.0659014
 Standard basis: 6-31G(2df,p) (6D, 7F)
 There are   329 symmetry adapted cartesian basis functions of A   symmetry.
 There are   302 symmetry adapted basis functions of A   symmetry.
   302 basis functions,   466 primitive gaussians,   329 cartesian basis functions
    34 alpha electrons       34 beta electrons
       nuclear repulsion energy       471.3493125496 Hartrees.
 NAtoms=   19 NActive=   19 NUniq=   19 SFac= 1.00D+00 NAtFMM=   60 NAOKFM=F Big=F
 Integral buffers will be    131072 words long.
 Raffenetti 2 integral format.
 Two-electron integral symmetry is turned on.
 One-electron integrals computed using PRISM.
 NBasis=   302 RedAO= T EigKep=  4.29D-04  NBF=   302
 NBsUse=   302 1.00D-06 EigRej= -1.00D+00 NBFU=   302
 Initial guess from the checkpoint file:  "/scratch/puck/g09_0b29f2b1-536b-4486-b83c-f690bf8b3fde/Gau-175721.chk"
 B after Tr=     0.000000    0.000000    0.000000
         Rot=    1.000000    0.000000    0.000000    0.000000 Ang=   0.00 deg.
 Requested convergence on RMS density matrix=1.00D-08 within 128 cycles.
 Requested convergence on MAX density matrix=1.00D-06.
 Requested convergence on             energy=1.00D-06.
 No special actions if energy rises.
 SCF Done:  E(RB3LYP) =  -423.143659532     A.U. after    1 cycles
            NFock=  1  Conv=0.21D-08     -V/T= 2.0074
 DoSCS=F DFT=T ScalE2(SS,OS)=  1.000000  1.000000
 Range of M.O.s used for correlation:     1   302
 NBasis=   302 NAE=    34 NBE=    34 NFC=     0 NFV=     0
 NROrb=    302 NOA=    34 NOB=    34 NVA=   268 NVB=   268

 **** Warning!!: The largest alpha MO coefficient is  0.18475159D+02

 Symmetrizing basis deriv contribution to polar:
 IMax=3 JMax=2 DiffMx= 0.00D+00
 G2DrvN: will do    20 centers at a time, making    1 passes.
 Calling FoFCou, ICntrl=  3107 FMM=F I1Cent=   0 AccDes= 0.00D+00.
 End of G2Drv F.D. properties file   721 does not exist.
 End of G2Drv F.D. properties file   722 does not exist.
 End of G2Drv F.D. properties file   788 does not exist.
          IDoAtm=1111111111111111111
          Differentiating once with respect to electric field.
                with respect to dipole field.
          Differentiating once with respect to nuclear coordinates.
          There are    60 degrees of freedom in the 1st order CPHF.  IDoFFX=6 NUNeed=     3.
     57 vectors produced by pass  0 Test12= 1.52D-14 1.67D-09 XBig12= 4.85D+01 1.56D+00.
 AX will form    57 AO Fock derivatives at one time.
