 Entering Gaussian System, Link 0=/home/puck/opt/gaussian_09/g09
 Input=dsC7O2H10nsd_5777.com
 Output=dsC7O2H10nsd_5777.log
 Initial command:
 /home/puck/opt/gaussian_09/l1.exe "/scratch/puck/g09_98df58df-934a-40e4-8aca-0773adcf0020/Gau-175147.inp" -scrdir="/scratch/puck/g09_98df58df-934a-40e4-8aca-0773adcf0020/"
 Entering Link 1 = /home/puck/opt/gaussian_09/l1.exe PID=    175148.
  
 Copyright (c) 1988,1990,1992,1993,1995,1998,2003,2009,2013,
            Gaussian, Inc.  All Rights Reserved.
  
 This is part of the Gaussian(R) 09 program.  It is based on
 the Gaussian(R) 03 system (copyright 2003, Gaussian, Inc.),
 the Gaussian(R) 98 system (copyright 1998, Gaussian, Inc.),
 the Gaussian(R) 94 system (copyright 1995, Gaussian, Inc.),
 the Gaussian 92(TM) system (copyright 1992, Gaussian, Inc.),
 the Gaussian 90(TM) system (copyright 1990, Gaussian, Inc.),
 the Gaussian 88(TM) system (copyright 1988, Gaussian, Inc.),
 the Gaussian 86(TM) system (copyright 1986, Carnegie Mellon
 University), and the Gaussian 82(TM) system (copyright 1983,
 Carnegie Mellon University). Gaussian is a federally registered
 trademark of Gaussian, Inc.
  
 This software contains proprietary and confidential information,
 including trade secrets, belonging to Gaussian, Inc.
  
 This software is provided under written license and may be
 used, copied, transmitted, or stored only in accord with that
 written license.
  
 The following legend is applicable only to US Government
 contracts under FAR:
  
                    RESTRICTED RIGHTS LEGEND
  
 Use, reproduction and disclosure by the US Government is
 subject to restrictions as set forth in subparagraphs (a)
 and (c) of the Commercial Computer Software - Restricted
 Rights clause in FAR 52.227-19.
  
 Gaussian, Inc.
 340 Quinnipiac St., Bldg. 40, Wallingford CT 06492
  
  
 ---------------------------------------------------------------
 Warning -- This program may not be used in any manner that
 competes with the business of Gaussian, Inc. or will provide
 assistance to any competitor of Gaussian, Inc.  The licensee
 of this program is prohibited from giving any competitor of
 Gaussian, Inc. access to this program.  By using this program,
 the user acknowledges that Gaussian, Inc. is engaged in the
 business of creating and licensing software in the field of
 computational chemistry and represents and warrants to the
 licensee that it is not a competitor of Gaussian, Inc. and that
 it will not use this program in any manner prohibited above.
 ---------------------------------------------------------------
  

 Cite this work as:
 Gaussian 09, Revision D.01,
 M. J. Frisch, G. W. Trucks, H. B. Schlegel, G. E. Scuseria, 
 M. A. Robb, J. R. Cheeseman, G. Scalmani, V. Barone, B. Mennucci, 
 G. A. Petersson, H. Nakatsuji, M. Caricato, X. Li, H. P. Hratchian, 
 A. F. Izmaylov, J. Bloino, G. Zheng, J. L. Sonnenberg, M. Hada, 
 M. Ehara, K. Toyota, R. Fukuda, J. Hasegawa, M. Ishida, T. Nakajima, 
 Y. Honda, O. Kitao, H. Nakai, T. Vreven, J. A. Montgomery, Jr., 
 J. E. Peralta, F. Ogliaro, M. Bearpark, J. J. Heyd, E. Brothers, 
 K. N. Kudin, V. N. Staroverov, T. Keith, R. Kobayashi, J. Normand, 
 K. Raghavachari, A. Rendell, J. C. Burant, S. S. Iyengar, J. Tomasi, 
 M. Cossi, N. Rega, J. M. Millam, M. Klene, J. E. Knox, J. B. Cross, 
 V. Bakken, C. Adamo, J. Jaramillo, R. Gomperts, R. E. Stratmann, 
 O. Yazyev, A. J. Austin, R. Cammi, C. Pomelli, J. W. Ochterski, 
 R. L. Martin, K. Morokuma, V. G. Zakrzewski, G. A. Voth, 
 P. Salvador, J. J. Dannenberg, S. Dapprich, A. D. Daniels, 
 O. Farkas, J. B. Foresman, J. V. Ortiz, J. Cioslowski, 
 and D. J. Fox, Gaussian, Inc., Wallingford CT, 2013.
 
 ******************************************
 Gaussian 09:  ES64L-G09RevD.01 24-Apr-2013
                31-Jan-2020 
 ******************************************
 -----------------------------
 # b3lyp 6-31G(2df,p) opt Freq
 -----------------------------
 1/14=-1,18=20,19=15,26=3,38=1/1,3;
 2/9=110,12=2,17=6,18=5,40=1/2;
 3/5=1,6=6,7=104,11=2,16=1,25=1,30=1,71=1,74=-5/1,2,3;
 4//1;
 5/5=2,38=5/2;
 6/7=2,8=2,9=2,10=2,28=1/1;
 7//1,2,3,16;
 1/14=-1,18=20,19=15,26=3/3(2);
 2/9=110/2;
 99//99;
 2/9=110/2;
 3/5=1,6=6,7=104,11=2,16=1,25=1,30=1,71=1,74=-5/1,2,3;
 4/5=5,16=3,69=1/1;
 5/5=2,38=5/2;
 7//1,2,3,16;
 1/14=-1,18=20,19=15,26=3/3(-5);
 2/9=110/2;
 6/7=2,8=2,9=2,10=2,19=2,28=1/1;
 99/9=1/99;
 -----
 titel
 -----
 Symbolic Z-matrix:
 Charge =  0 Multiplicity = 1
 O                     1.42663   0.58364  -0.45363 
 C                     0.08457   0.35353  -0.04545 
 C                    -0.80387   0.39759  -1.2818 
 C                    -0.46785  -0.72622  -2.30819 
 C                    -1.81174  -1.52328  -2.32759 
 O                    -2.21998  -1.41417  -0.95578 
 C                    -2.28557   0.01789  -0.93088 
 C                    -3.13037   0.32253  -2.16277 
 C                    -2.83857  -0.6428   -3.03394 
 H                     1.99594   0.47563   0.31377 
 H                    -0.02682  -0.62853   0.43829 
 H                    -0.24443   1.12187   0.6737 
 H                    -0.73881   1.39377  -1.72724 
 H                    -0.18684  -0.34503  -3.29163 
 H                     0.34824  -1.35154  -1.94017 
 H                    -1.74679  -2.56831  -2.62786 
 H                    -2.65092   0.3699    0.03429 
 H                    -3.74007   1.20472  -2.30208 
 H                    -3.15264  -0.74621  -4.06364 
 

 GradGradGradGradGradGradGradGradGradGradGradGradGradGradGradGradGradGrad
 Berny optimization.
 Initialization pass.
                           ----------------------------
                           !    Initial Parameters    !
                           ! (Angstroms and Degrees)  !
 --------------------------                            --------------------------
 ! Name  Definition              Value          Derivative Info.                !
 --------------------------------------------------------------------------------
 ! R1    R(1,2)                  1.4215         estimate D2E/DX2                !
 ! R2    R(1,10)                 0.9616         estimate D2E/DX2                !
 ! R3    R(2,3)                  1.5231         estimate D2E/DX2                !
 ! R4    R(2,11)                 1.1004         estimate D2E/DX2                !
 ! R5    R(2,12)                 1.1026         estimate D2E/DX2                !
 ! R6    R(3,4)                  1.5586         estimate D2E/DX2                !
 ! R7    R(3,7)                  1.5693         estimate D2E/DX2                !
 ! R8    R(3,13)                 1.0932         estimate D2E/DX2                !
 ! R9    R(4,5)                  1.5626         estimate D2E/DX2                !
 ! R10   R(4,14)                 1.0915         estimate D2E/DX2                !
 ! R11   R(4,15)                 1.092          estimate D2E/DX2                !
 ! R12   R(5,6)                  1.4354         estimate D2E/DX2                !
 ! R13   R(5,9)                  1.526          estimate D2E/DX2                !
 ! R14   R(5,16)                 1.0892         estimate D2E/DX2                !
 ! R15   R(6,7)                  1.4338         estimate D2E/DX2                !
 ! R16   R(7,8)                  1.5245         estimate D2E/DX2                !
 ! R17   R(7,17)                 1.0904         estimate D2E/DX2                !
 ! R18   R(8,9)                  1.3326         estimate D2E/DX2                !
 ! R19   R(8,18)                 1.0814         estimate D2E/DX2                !
 ! R20   R(9,19)                 1.0815         estimate D2E/DX2                !
 ! A1    A(2,1,10)             108.1567         estimate D2E/DX2                !
 ! A2    A(1,2,3)              108.237          estimate D2E/DX2                !
 ! A3    A(1,2,11)             111.4858         estimate D2E/DX2                !
 ! A4    A(1,2,12)             110.8657         estimate D2E/DX2                !
 ! A5    A(3,2,11)             108.8818         estimate D2E/DX2                !
 ! A6    A(3,2,12)             109.5863         estimate D2E/DX2                !
 ! A7    A(11,2,12)            107.7563         estimate D2E/DX2                !
 ! A8    A(2,3,4)              112.8259         estimate D2E/DX2                !
 ! A9    A(2,3,7)              111.2372         estimate D2E/DX2                !
 ! A10   A(2,3,13)             108.8082         estimate D2E/DX2                !
 ! A11   A(4,3,7)              100.1576         estimate D2E/DX2                !
 ! A12   A(4,3,13)             112.0795         estimate D2E/DX2                !
 ! A13   A(7,3,13)             111.5795         estimate D2E/DX2                !
 ! A14   A(3,4,5)              100.985          estimate D2E/DX2                !
 ! A15   A(3,4,14)             113.3916         estimate D2E/DX2                !
 ! A16   A(3,4,15)             110.6138         estimate D2E/DX2                !
 ! A17   A(5,4,14)             112.8525         estimate D2E/DX2                !
 ! A18   A(5,4,15)             110.7825         estimate D2E/DX2                !
 ! A19   A(14,4,15)            108.1332         estimate D2E/DX2                !
 ! A20   A(4,5,6)              101.1836         estimate D2E/DX2                !
 ! A21   A(4,5,9)              106.8669         estimate D2E/DX2                !
 ! A22   A(4,5,16)             116.2012         estimate D2E/DX2                !
 ! A23   A(6,5,9)              101.9547         estimate D2E/DX2                !
 ! A24   A(6,5,16)             110.6915         estimate D2E/DX2                !
 ! A25   A(9,5,16)             117.7811         estimate D2E/DX2                !
 ! A26   A(5,6,7)               96.0579         estimate D2E/DX2                !
 ! A27   A(3,7,6)              101.2201         estimate D2E/DX2                !
 ! A28   A(3,7,8)              107.1078         estimate D2E/DX2                !
 ! A29   A(3,7,17)             115.861          estimate D2E/DX2                !
 ! A30   A(6,7,8)              102.1754         estimate D2E/DX2                !
 ! A31   A(6,7,17)             110.6796         estimate D2E/DX2                !
 ! A32   A(8,7,17)             117.7159         estimate D2E/DX2                !
 ! A33   A(7,8,9)              105.1986         estimate D2E/DX2                !
 ! A34   A(7,8,18)             125.4193         estimate D2E/DX2                !
 ! A35   A(9,8,18)             129.063          estimate D2E/DX2                !
 ! A36   A(5,9,8)              105.2305         estimate D2E/DX2                !
 ! A37   A(5,9,19)             125.5189         estimate D2E/DX2                !
 ! A38   A(8,9,19)             128.9089         estimate D2E/DX2                !
 ! D1    D(10,1,2,3)          -174.8749         estimate D2E/DX2                !
 ! D2    D(10,1,2,11)          -55.1473         estimate D2E/DX2                !
 ! D3    D(10,1,2,12)           64.9048         estimate D2E/DX2                !
 ! D4    D(1,2,3,4)             63.008          estimate D2E/DX2                !
 ! D5    D(1,2,3,7)            174.6527         estimate D2E/DX2                !
 ! D6    D(1,2,3,13)           -62.0347         estimate D2E/DX2                !
 ! D7    D(11,2,3,4)           -58.3423         estimate D2E/DX2                !
 ! D8    D(11,2,3,7)            53.3024         estimate D2E/DX2                !
 ! D9    D(11,2,3,13)          176.615          estimate D2E/DX2                !
 ! D10   D(12,2,3,4)          -175.9752         estimate D2E/DX2                !
 ! D11   D(12,2,3,7)           -64.3305         estimate D2E/DX2                !
 ! D12   D(12,2,3,13)           58.9821         estimate D2E/DX2                !
 ! D13   D(2,3,4,5)            117.8776         estimate D2E/DX2                !
 ! D14   D(2,3,4,14)          -121.1251         estimate D2E/DX2                !
 ! D15   D(2,3,4,15)             0.5433         estimate D2E/DX2                !
 ! D16   D(7,3,4,5)             -0.4606         estimate D2E/DX2                !
 ! D17   D(7,3,4,14)           120.5368         estimate D2E/DX2                !
 ! D18   D(7,3,4,15)          -117.7949         estimate D2E/DX2                !
 ! D19   D(13,3,4,5)          -118.8782         estimate D2E/DX2                !
 ! D20   D(13,3,4,14)            2.1191         estimate D2E/DX2                !
 ! D21   D(13,3,4,15)          123.7875         estimate D2E/DX2                !
 ! D22   D(2,3,7,6)            -82.9659         estimate D2E/DX2                !
 ! D23   D(2,3,7,8)            170.414          estimate D2E/DX2                !
 ! D24   D(2,3,7,17)            36.7862         estimate D2E/DX2                !
 ! D25   D(4,3,7,6)             36.536          estimate D2E/DX2                !
 ! D26   D(4,3,7,8)            -70.0842         estimate D2E/DX2                !
 ! D27   D(4,3,7,17)           156.288          estimate D2E/DX2                !
 ! D28   D(13,3,7,6)           155.3209         estimate D2E/DX2                !
 ! D29   D(13,3,7,8)            48.7008         estimate D2E/DX2                !
 ! D30   D(13,3,7,17)          -84.927          estimate D2E/DX2                !
 ! D31   D(3,4,5,6)            -35.6638         estimate D2E/DX2                !
 ! D32   D(3,4,5,9)             70.6312         estimate D2E/DX2                !
 ! D33   D(3,4,5,16)          -155.5786         estimate D2E/DX2                !
 ! D34   D(14,4,5,6)          -157.0414         estimate D2E/DX2                !
 ! D35   D(14,4,5,9)           -50.7464         estimate D2E/DX2                !
 ! D36   D(14,4,5,16)           83.0438         estimate D2E/DX2                !
 ! D37   D(15,4,5,6)            81.5469         estimate D2E/DX2                !
 ! D38   D(15,4,5,9)          -172.1582         estimate D2E/DX2                !
 ! D39   D(15,4,5,16)          -38.3679         estimate D2E/DX2                !
 ! D40   D(4,5,6,7)             59.7929         estimate D2E/DX2                !
 ! D41   D(9,5,6,7)            -50.3391         estimate D2E/DX2                !
 ! D42   D(16,5,6,7)          -176.4427         estimate D2E/DX2                !
 ! D43   D(4,5,9,8)            -73.2883         estimate D2E/DX2                !
 ! D44   D(4,5,9,19)           100.4879         estimate D2E/DX2                !
 ! D45   D(6,5,9,8)             32.457          estimate D2E/DX2                !
 ! D46   D(6,5,9,19)          -153.7668         estimate D2E/DX2                !
 ! D47   D(16,5,9,8)           153.7735         estimate D2E/DX2                !
 ! D48   D(16,5,9,19)          -32.4503         estimate D2E/DX2                !
 ! D49   D(5,6,7,3)            -60.2256         estimate D2E/DX2                !
 ! D50   D(5,6,7,8)             50.2374         estimate D2E/DX2                !
 ! D51   D(5,6,7,17)           176.3942         estimate D2E/DX2                !
 ! D52   D(3,7,8,9)             73.9644         estimate D2E/DX2                !
 ! D53   D(3,7,8,18)          -100.0311         estimate D2E/DX2                !
 ! D54   D(6,7,8,9)            -31.9786         estimate D2E/DX2                !
 ! D55   D(6,7,8,18)           154.0259         estimate D2E/DX2                !
 ! D56   D(17,7,8,9)          -153.4077         estimate D2E/DX2                !
 ! D57   D(17,7,8,18)           32.5968         estimate D2E/DX2                !
 ! D58   D(7,8,9,5)             -0.3147         estimate D2E/DX2                !
 ! D59   D(7,8,9,19)          -173.8035         estimate D2E/DX2                !
 ! D60   D(18,8,9,5)           173.3821         estimate D2E/DX2                !
 ! D61   D(18,8,9,19)           -0.1068         estimate D2E/DX2                !
 --------------------------------------------------------------------------------
 Trust Radius=3.00D-01 FncErr=1.00D-07 GrdErr=1.00D-06
 Number of steps in this run=    114 maximum allowed number of steps=    114.
 GradGradGradGradGradGradGradGradGradGradGradGradGradGradGradGradGradGrad

                          Input orientation:                          
 ---------------------------------------------------------------------
 Center     Atomic      Atomic             Coordinates (Angstroms)
 Number     Number       Type             X           Y           Z
 ---------------------------------------------------------------------
      1          8           0        1.426634    0.583638   -0.453625
      2          6           0        0.084569    0.353528   -0.045455
      3          6           0       -0.803869    0.397587   -1.281802
      4          6           0       -0.467851   -0.726218   -2.308190
      5          6           0       -1.811738   -1.523283   -2.327594
      6          8           0       -2.219978   -1.414168   -0.955781
      7          6           0       -2.285572    0.017894   -0.930879
      8          6           0       -3.130367    0.322526   -2.162770
      9          6           0       -2.838569   -0.642804   -3.033945
     10          1           0        1.995936    0.475630    0.313774
     11          1           0       -0.026823   -0.628535    0.438293
     12          1           0       -0.244429    1.121874    0.673702
     13          1           0       -0.738807    1.393768   -1.727237
     14          1           0       -0.186843   -0.345026   -3.291631
     15          1           0        0.348236   -1.351535   -1.940170
     16          1           0       -1.746792   -2.568311   -2.627861
     17          1           0       -2.650924    0.369899    0.034286
     18          1           0       -3.740074    1.204716   -2.302077
     19          1           0       -3.152637   -0.746206   -4.063637
 ---------------------------------------------------------------------
                    Distance matrix (angstroms):
                    1          2          3          4          5
     1  O    0.000000
     2  C    1.421511   0.000000
     3  C    2.386554   1.523095   0.000000
     4  C    2.957060   2.567293   1.558627   0.000000
     5  C    4.293941   3.510920   2.408157   1.562601   0.000000
     6  O    4.188218   3.043745   2.322522   2.317809   1.435423
     7  C    3.785276   2.552292   1.569317   2.398916   2.133204
     8  C    4.873973   3.849649   2.488841   2.865310   2.274414
     9  C    5.133631   4.297498   2.879656   2.480723   1.525961
    10  H    0.961598   1.948660   3.223486   3.793333   5.046866
    11  H    2.092228   1.100394   2.148360   2.783382   3.411250
    12  H    2.086389   1.102625   2.159065   3.515259   4.296637
    13  H    2.639609   2.142064   1.093171   2.214783   3.165564
    14  H    3.394113   3.331561   2.229709   1.091525   2.226643
    15  H    2.667893   2.562559   2.195501   1.091998   2.201155
    16  H    4.973200   4.308115   3.390800   2.265213   1.089249
    17  H    4.112204   2.736704   2.268141   3.384446   3.141154
    18  H    5.522444   4.521589   3.211498   3.799472   3.340824
    19  H    5.980836   5.275861   3.816226   3.207814   2.327166
                    6          7          8          9         10
     6  O    0.000000
     7  C    1.433779   0.000000
     8  C    2.302550   1.524478   0.000000
     9  C    2.301396   2.272711   1.332649   0.000000
    10  H    4.791350   4.482186   5.695234   5.985863   0.000000
    11  H    2.714883   2.719274   4.159571   4.467947   2.307864
    12  H    3.604097   2.821297   4.124702   4.856984   2.359326
    13  H    3.267034   2.218039   2.656464   3.203765   3.533769
    14  H    3.276110   3.179547   3.222465   2.680807   4.293826
    15  H    2.751122   3.135435   3.866874   3.443018   3.336721
    16  H    2.086098   3.139823   3.238445   2.250435   5.650381
    17  H    2.085387   1.090382   2.249258   3.236482   4.656458
    18  H    3.313873   2.324716   1.081392   2.182125   6.346342
    19  H    3.312823   3.339135   2.180821   1.081479   6.867490
                   11         12         13         14         15
    11  H    0.000000
    12  H    1.779523   0.000000
    13  H    3.047318   2.466342   0.000000
    14  H    3.744104   4.228354   2.403205   0.000000
    15  H    2.514057   3.647100   2.960354   1.767998   0.000000
    16  H    4.015262   5.174445   4.186314   2.795895   2.518453
    17  H    2.836547   2.601065   2.794183   4.200539   3.982057
    18  H    4.965750   4.591477   3.061664   4.000795   4.835254
    19  H    5.481964   5.864280   3.983068   3.090773   4.139040
                   16         17         18         19
    16  H    0.000000
    17  H    4.066639   0.000000
    18  H    4.279607   2.709568   0.000000
    19  H    2.712548   4.276725   2.693375   0.000000
 Stoichiometry    C7H10O2
 Framework group  C1[X(C7H10O2)]
 Deg. of freedom    51
 Full point group                 C1      NOp   1
 Largest Abelian subgroup         C1      NOp   1
 Largest concise Abelian subgroup C1      NOp   1
                         Standard orientation:                         
 ---------------------------------------------------------------------
 Center     Atomic      Atomic             Coordinates (Angstroms)
 Number     Number       Type             X           Y           Z
 ---------------------------------------------------------------------
      1          8           0       -2.930761    0.298709   -0.353833
      2          6           0       -1.939183   -0.521849    0.249616
      3          6           0       -0.615154   -0.269120   -0.459533
      4          6           0       -0.114347    1.198232   -0.300190
      5          6           0        1.230630    0.972634    0.462611
      6          8           0        0.890246   -0.139206    1.304270
      7          6           0        0.559939   -1.039987    0.238806
      8          6           0        1.777258   -0.921711   -0.671237
      9          6           0        2.199790    0.334047   -0.528091
     10          1           0       -3.746528    0.199216    0.145463
     11          1           0       -1.820394   -0.290241    1.318782
     12          1           0       -2.206589   -1.588143    0.164224
     13          1           0       -0.717023   -0.556837   -1.509229
     14          1           0        0.019640    1.716128   -1.251640
     15          1           0       -0.811757    1.778646    0.307425
     16          1           0        1.591931    1.809890    1.058368
     17          1           0        0.314244   -2.027133    0.631373
     18          1           0        2.125348   -1.684131   -1.354579
     19          1           0        2.981639    0.853095   -1.065584
 ---------------------------------------------------------------------
 Rotational constants (GHZ):      3.7488582      1.2225457      1.1570303
 Standard basis: 6-31G(2df,p) (6D, 7F)
 There are   329 symmetry adapted cartesian basis functions of A   symmetry.
 There are   302 symmetry adapted basis functions of A   symmetry.
   302 basis functions,   466 primitive gaussians,   329 cartesian basis functions
    34 alpha electrons       34 beta electrons
       nuclear repulsion energy       472.7204897781 Hartrees.
 NAtoms=   19 NActive=   19 NUniq=   19 SFac= 1.00D+00 NAtFMM=   60 NAOKFM=F Big=F
 Integral buffers will be    131072 words long.
 Raffenetti 2 integral format.
 Two-electron integral symmetry is turned on.
 One-electron integrals computed using PRISM.
 NBasis=   302 RedAO= T EigKep=  2.63D-04  NBF=   302
 NBsUse=   302 1.00D-06 EigRej= -1.00D+00 NBFU=   302
 ExpMin= 1.61D-01 ExpMax= 5.48D+03 ExpMxC= 8.25D+02 IAcc=1 IRadAn=         1 AccDes= 0.00D+00
 Harris functional with IExCor=  402 and IRadAn=       1 diagonalized for initial guess.
 HarFok:  IExCor=  402 AccDes= 0.00D+00 IRadAn=         1 IDoV= 1 UseB2=F ITyADJ=14
 ICtDFT=  3500011 ScaDFX=  1.000000  1.000000  1.000000  1.000000
 FoFCou: FMM=F IPFlag=           0 FMFlag=      100000 FMFlg1=           0
         NFxFlg=           0 DoJE=T BraDBF=F KetDBF=T FulRan=T
         wScrn=  0.000000 ICntrl=     500 IOpCl=  0 I1Cent=   200000004 NGrid=           0
         NMat0=    1 NMatS0=      1 NMatT0=    0 NMatD0=    1 NMtDS0=    0 NMtDT0=    0
 Petite list used in FoFCou.
 Requested convergence on RMS density matrix=1.00D-08 within 128 cycles.
 Requested convergence on MAX density matrix=1.00D-06.
 Requested convergence on             energy=1.00D-06.
 No special actions if energy rises.
 Integral accuracy reduced to 1.0D-05 until final iterations.
 Initial convergence to 1.0D-05 achieved.  Increase integral accuracy.
 SCF Done:  E(RB3LYP) =  -423.177215206     A.U. after   14 cycles
            NFock= 14  Conv=0.42D-08     -V/T= 2.0074

 **********************************************************************

            Population analysis using the SCF density.

 **********************************************************************

 Orbital symmetries:
       Occupied  (A) (A) (A) (A) (A) (A) (A) (A) (A) (A) (A) (A)
                 (A) (A) (A) (A) (A) (A) (A) (A) (A) (A) (A) (A)
                 (A) (A) (A) (A) (A) (A) (A) (A) (A) (A)
       Virtual   (A) (A) (A) (A) (A) (A) (A) (A) (A) (A) (A) (A)
                 (A) (A) (A) (A) (A) (A) (A) (A) (A) (A) (A) (A)
                 (A) (A) (A) (A) (A) (A) (A) (A) (A) (A) (A) (A)
                 (A) (A) (A) (A) (A) (A) (A) (A) (A) (A) (A) (A)
                 (A) (A) (A) (A) (A) (A) (A) (A) (A) (A) (A) (A)
                 (A) (A) (A) (A) (A) (A) (A) (A) (A) (A) (A) (A)
                 (A) (A) (A) (A) (A) (A) (A) (A) (A) (A) (A) (A)
                 (A) (A) (A) (A) (A) (A) (A) (A) (A) (A) (A) (A)
                 (A) (A) (A) (A) (A) (A) (A) (A) (A) (A) (A) (A)
                 (A) (A) (A) (A) (A) (A) (A) (A) (A) (A) (A) (A)
                 (A) (A) (A) (A) (A) (A) (A) (A) (A) (A) (A) (A)
                 (A) (A) (A) (A) (A) (A) (A) (A) (A) (A) (A) (A)
                 (A) (A) (A) (A) (A) (A) (A) (A) (A) (A) (A) (A)
                 (A) (A) (A) (A) (A) (A) (A) (A) (A) (A) (A) (A)
                 (A) (A) (A) (A) (A) (A) (A) (A) (A) (A) (A) (A)
                 (A) (A) (A) (A) (A) (A) (A) (A) (A) (A) (A) (A)
                 (A) (A) (A) (A) (A) (A) (A) (A) (A) (A) (A) (A)
                 (A) (A) (A) (A) (A) (A) (A) (A) (A) (A) (A) (A)
                 (A) (A) (A) (A) (A) (A) (A) (A) (A) (A) (A) (A)
                 (A) (A) (A) (A) (A) (A) (A) (A) (A) (A) (A) (A)
                 (A) (A) (A) (A) (A) (A) (A) (A) (A) (A) (A) (A)
                 (A) (A) (A) (A) (A) (A) (A) (A) (A) (A) (A) (A)
                 (A) (A) (A) (A)
 The electronic state is 1-A.
 Alpha  occ. eigenvalues --  -19.13220 -19.13197 -10.23207 -10.23063 -10.22233
 Alpha  occ. eigenvalues --  -10.18490 -10.18155 -10.18065 -10.17641  -1.04471
 Alpha  occ. eigenvalues --   -1.01206  -0.80222  -0.76437  -0.73513  -0.66032
 Alpha  occ. eigenvalues --   -0.57727  -0.56237  -0.54844  -0.52097  -0.50977
 Alpha  occ. eigenvalues --   -0.47417  -0.44549  -0.42121  -0.40533  -0.38979
 Alpha  occ. eigenvalues --   -0.38125  -0.35873  -0.33979  -0.33570  -0.32605
 Alpha  occ. eigenvalues --   -0.31023  -0.26583  -0.25323  -0.24399
 Alpha virt. eigenvalues --    0.01270   0.07806   0.10025   0.12261   0.13215
 Alpha virt. eigenvalues --    0.14203   0.15077   0.15775   0.16153   0.17134
 Alpha virt. eigenvalues --    0.18367   0.19040   0.20410   0.20432   0.21910
 Alpha virt. eigenvalues --    0.23903   0.26423   0.27272   0.29779   0.33375
 Alpha virt. eigenvalues --    0.38897   0.40691   0.44987   0.45827   0.46974
 Alpha virt. eigenvalues --    0.47880   0.50228   0.51509   0.53130   0.53620
 Alpha virt. eigenvalues --    0.54168   0.57517   0.59232   0.59665   0.60166
 Alpha virt. eigenvalues --    0.63193   0.64559   0.65761   0.66768   0.68942
 Alpha virt. eigenvalues --    0.71423   0.72497   0.73638   0.75582   0.76168
 Alpha virt. eigenvalues --    0.77458   0.78387   0.79008   0.81568   0.82516
 Alpha virt. eigenvalues --    0.84112   0.84853   0.86378   0.88493   0.89760
 Alpha virt. eigenvalues --    0.90760   0.91257   0.92524   0.93816   0.96628
 Alpha virt. eigenvalues --    0.98792   1.01974   1.05549   1.07230   1.09317
 Alpha virt. eigenvalues --    1.12293   1.13972   1.15225   1.19002   1.20433
 Alpha virt. eigenvalues --    1.22622   1.25921   1.29845   1.33702   1.34526
 Alpha virt. eigenvalues --    1.36675   1.39015   1.40787   1.42098   1.42441
 Alpha virt. eigenvalues --    1.43940   1.44675   1.47393   1.48313   1.50450
 Alpha virt. eigenvalues --    1.50997   1.53167   1.54055   1.57900   1.60932
 Alpha virt. eigenvalues --    1.62019   1.63404   1.66005   1.67763   1.68471
 Alpha virt. eigenvalues --    1.69740   1.72613   1.76007   1.77411   1.81511
 Alpha virt. eigenvalues --    1.83898   1.86705   1.89714   1.91811   1.94359
 Alpha virt. eigenvalues --    1.96289   1.98217   2.01110   2.10029   2.15316
 Alpha virt. eigenvalues --    2.19388   2.26243   2.29346   2.30815   2.32892
 Alpha virt. eigenvalues --    2.35439   2.38314   2.39748   2.41950   2.46899
 Alpha virt. eigenvalues --    2.49009   2.50745   2.53121   2.55114   2.59232
 Alpha virt. eigenvalues --    2.63293   2.65055   2.67463   2.69370   2.72643
 Alpha virt. eigenvalues --    2.76530   2.78784   2.80855   2.82484   2.84423
 Alpha virt. eigenvalues --    2.87407   2.88045   2.90541   2.91452   2.93648
 Alpha virt. eigenvalues --    2.95633   2.97896   3.00292   3.02468   3.05887
 Alpha virt. eigenvalues --    3.06782   3.09880   3.11201   3.13196   3.14964
 Alpha virt. eigenvalues --    3.18215   3.20328   3.21957   3.23047   3.26782
 Alpha virt. eigenvalues --    3.28426   3.30431   3.31963   3.34947   3.36142
 Alpha virt. eigenvalues --    3.38769   3.40068   3.42487   3.45700   3.48824
 Alpha virt. eigenvalues --    3.50509   3.52886   3.53436   3.57535   3.58516
 Alpha virt. eigenvalues --    3.59544   3.66407   3.69813   3.72442   3.78384
 Alpha virt. eigenvalues --    3.80642   3.85787   3.87753   3.91086   3.97187
 Alpha virt. eigenvalues --    4.03454   4.07720   4.13269   4.15900   4.17267
 Alpha virt. eigenvalues --    4.20477   4.22401   4.26408   4.27650   4.32648
 Alpha virt. eigenvalues --    4.33694   4.35492   4.37324   4.41339   4.43171
 Alpha virt. eigenvalues --    4.46133   4.46943   4.49247   4.50745   4.51516
 Alpha virt. eigenvalues --    4.53219   4.54591   4.55868   4.56592   4.58286
 Alpha virt. eigenvalues --    4.61643   4.63497   4.64633   4.66913   4.68380
 Alpha virt. eigenvalues --    4.69655   4.72109   4.73048   4.75814   4.77149
 Alpha virt. eigenvalues --    4.77534   4.82242   4.83215   4.86607   4.88709
 Alpha virt. eigenvalues --    4.90994   4.92683   4.96539   4.99663   5.00985
 Alpha virt. eigenvalues --    5.04225   5.09361   5.13951   5.16173   5.19124
 Alpha virt. eigenvalues --    5.20463   5.25233   5.28423   5.30696   5.34153
 Alpha virt. eigenvalues --    5.35984   5.41061   5.43179   5.47031   5.48209
 Alpha virt. eigenvalues --    5.52230   5.55004   5.59474   5.64094   5.71857
 Alpha virt. eigenvalues --    5.82273   5.87102   5.91305   5.94524   5.98980
 Alpha virt. eigenvalues --    6.01941   6.09127   6.11667   6.17681   6.25006
 Alpha virt. eigenvalues --    6.62905   7.06948   7.13876   7.42587  10.36132
 Alpha virt. eigenvalues --   11.31938  11.43281  11.80845  12.20886  12.28230
 Alpha virt. eigenvalues --   12.97224  13.21603  13.58968
          Condensed to atoms (all electrons):
               1          2          3          4          5          6
     1  O    7.860360   0.346375  -0.037851   0.001837   0.000434   0.000022
     2  C    0.346375   4.818145   0.401469  -0.021732  -0.002655  -0.004320
     3  C   -0.037851   0.401469   4.814276   0.397808  -0.032748  -0.058686
     4  C    0.001837  -0.021732   0.397808   5.027099   0.325612  -0.060447
     5  C    0.000434  -0.002655  -0.032748   0.325612   4.806820   0.374816
     6  O    0.000022  -0.004320  -0.058686  -0.060447   0.374816   7.773130
     7  C    0.001118  -0.019785   0.307512  -0.016075  -0.144629   0.353800
     8  C   -0.000012  -0.001291  -0.006186  -0.042188   0.025325  -0.046802
     9  C   -0.000021   0.002209  -0.036757  -0.006324   0.317887  -0.059892
    10  H    0.303893  -0.050696   0.006017   0.000199  -0.000027   0.000012
    11  H   -0.030940   0.348322  -0.028931  -0.009574   0.000840   0.008183
    12  H   -0.028070   0.349037  -0.032652   0.005580   0.000361   0.000332
    13  H    0.001694  -0.049019   0.355882  -0.039019   0.003027   0.002993
    14  H   -0.000223   0.003299  -0.016327   0.349702  -0.021299   0.003290
    15  H    0.006218  -0.011682  -0.026807   0.355869  -0.012891  -0.000166
    16  H    0.000001  -0.000057   0.003698  -0.048579   0.373356  -0.020737
    17  H    0.000006  -0.001102  -0.055199   0.005282   0.006635  -0.021603
    18  H    0.000000  -0.000237   0.002030  -0.000086   0.007674   0.002545
    19  H    0.000000   0.000013   0.000208   0.002695  -0.046425   0.002377
               7          8          9         10         11         12
     1  O    0.001118  -0.000012  -0.000021   0.303893  -0.030940  -0.028070
     2  C   -0.019785  -0.001291   0.002209  -0.050696   0.348322   0.349037
     3  C    0.307512  -0.006186  -0.036757   0.006017  -0.028931  -0.032652
     4  C   -0.016075  -0.042188  -0.006324   0.000199  -0.009574   0.005580
     5  C   -0.144629   0.025325   0.317887  -0.000027   0.000840   0.000361
     6  O    0.353800  -0.046802  -0.059892   0.000012   0.008183   0.000332
     7  C    4.853735   0.340564   0.024085  -0.000296   0.001668  -0.001143
     8  C    0.340564   4.857519   0.667376   0.000001   0.000325   0.000269
     9  C    0.024085   0.667376   4.891897   0.000002   0.000175  -0.000080
    10  H   -0.000296   0.000001   0.000002   0.462363  -0.004644  -0.002188
    11  H    0.001668   0.000325   0.000175  -0.004644   0.660735  -0.055915
    12  H   -0.001143   0.000269  -0.000080  -0.002188  -0.055915   0.685974
    13  H   -0.031147  -0.000910   0.001555  -0.000113   0.007626  -0.006016
    14  H    0.001596   0.002021  -0.004819   0.000035   0.000054  -0.000205
    15  H   -0.003032   0.002573   0.000432  -0.000295   0.002512   0.000621
    16  H    0.007496   0.004334  -0.043833   0.000000  -0.000106   0.000008
    17  H    0.372859  -0.043697   0.004532   0.000003   0.000230   0.003816
    18  H   -0.047215   0.372868  -0.051640   0.000000  -0.000006   0.000013
    19  H    0.006594  -0.048871   0.372437   0.000000  -0.000001   0.000000
              13         14         15         16         17         18
     1  O    0.001694  -0.000223   0.006218   0.000001   0.000006   0.000000
     2  C   -0.049019   0.003299  -0.011682  -0.000057  -0.001102  -0.000237
     3  C    0.355882  -0.016327  -0.026807   0.003698  -0.055199   0.002030
     4  C   -0.039019   0.349702   0.355869  -0.048579   0.005282  -0.000086
     5  C    0.003027  -0.021299  -0.012891   0.373356   0.006635   0.007674
     6  O    0.002993   0.003290  -0.000166  -0.020737  -0.021603   0.002545
     7  C   -0.031147   0.001596  -0.003032   0.007496   0.372859  -0.047215
     8  C   -0.000910   0.002021   0.002573   0.004334  -0.043697   0.372868
     9  C    0.001555  -0.004819   0.000432  -0.043833   0.004532  -0.051640
    10  H   -0.000113   0.000035  -0.000295   0.000000   0.000003   0.000000
    11  H    0.007626   0.000054   0.002512  -0.000106   0.000230  -0.000006
    12  H   -0.006016  -0.000205   0.000621   0.000008   0.003816   0.000013
    13  H    0.674652  -0.006680   0.004879  -0.000146   0.002597   0.000793
    14  H   -0.006680   0.626279  -0.040780   0.003065  -0.000144  -0.000062
    15  H    0.004879  -0.040780   0.613024  -0.002295  -0.000138   0.000032
    16  H   -0.000146   0.003065  -0.002295   0.646765  -0.000264  -0.000156
    17  H    0.002597  -0.000144  -0.000138  -0.000264   0.652154  -0.000789
    18  H    0.000793  -0.000062   0.000032  -0.000156  -0.000789   0.614396
    19  H   -0.000039   0.000431  -0.000215  -0.000759  -0.000163  -0.004059
              19
     1  O    0.000000
     2  C    0.000013
     3  C    0.000208
     4  C    0.002695
     5  C   -0.046425
     6  O    0.002377
     7  C    0.006594
     8  C   -0.048871
     9  C    0.372437
    10  H    0.000000
    11  H   -0.000001
    12  H    0.000000
    13  H   -0.000039
    14  H    0.000431
    15  H   -0.000215
    16  H   -0.000759
    17  H   -0.000163
    18  H   -0.004059
    19  H    0.611958
 Mulliken charges:
               1
     1  O   -0.424842
     2  C   -0.106296
     3  C    0.043244
     4  C   -0.227657
     5  C    0.017888
     6  O   -0.248848
     7  C   -0.007704
     8  C   -0.083216
     9  C   -0.079221
    10  H    0.285734
    11  H    0.099448
    12  H    0.080258
    13  H    0.077390
    14  H    0.100768
    15  H    0.112142
    16  H    0.078210
    17  H    0.074985
    18  H    0.103899
    19  H    0.103821
 Sum of Mulliken charges =   0.00000
 Mulliken charges with hydrogens summed into heavy atoms:
               1
     1  O   -0.139109
     2  C    0.073410
     3  C    0.120634
     4  C   -0.014748
     5  C    0.096098
     6  O   -0.248848
     7  C    0.067281
     8  C    0.020682
     9  C    0.024600
 Electronic spatial extent (au):  <R**2>=           1117.6339
 Charge=              0.0000 electrons
 Dipole moment (field-independent basis, Debye):
    X=             -0.4868    Y=             -0.4156    Z=             -0.4705  Tot=              0.7944
 Quadrupole moment (field-independent basis, Debye-Ang):
   XX=            -48.6043   YY=            -49.7828   ZZ=            -55.8288
   XY=              3.2017   XZ=             -6.5370   YZ=              1.5031
 Traceless Quadrupole moment (field-independent basis, Debye-Ang):
   XX=              2.8010   YY=              1.6225   ZZ=             -4.4235
   XY=              3.2017   XZ=             -6.5370   YZ=              1.5031
 Octapole moment (field-independent basis, Debye-Ang**2):
  XXX=            -38.0185  YYY=             -1.6367  ZZZ=             -0.5869  XYY=              1.2558
  XXY=              0.9875  XXZ=              9.3987  XZZ=             -3.7851  YZZ=              1.0450
  YYZ=              2.0519  XYZ=              0.8177
 Hexadecapole moment (field-independent basis, Debye-Ang**3):
 XXXX=           -779.0746 YYYY=           -278.5313 ZZZZ=           -203.2141 XXXY=             13.2975
 XXXZ=            -49.8586 YYYX=             -3.1420 YYYZ=              2.0830 ZZZX=              2.0063
 ZZZY=              2.2728 XXYY=           -198.2455 XXZZ=           -190.3541 YYZZ=            -74.5579
 XXYZ=              6.4128 YYXZ=              0.0624 ZZXY=             -0.3476
 N-N= 4.727204897781D+02 E-N=-1.932867903369D+03  KE= 4.200852966488D+02
 Calling FoFJK, ICntrl=      2127 FMM=F ISym2X=0 I1Cent= 0 IOpClX= 0 NMat=1 NMatS=1 NMatT=0.
 ***** Axes restored to original set *****
 -------------------------------------------------------------------
 Center     Atomic                   Forces (Hartrees/Bohr)
 Number     Number              X              Y              Z
 -------------------------------------------------------------------
      1        8           0.000044327   -0.000013707   -0.000015816
      2        6          -0.000038792    0.000010071   -0.000005426
      3        6          -0.000036992   -0.000017034    0.000000656
      4        6           0.000005992    0.000003643    0.000021718
      5        6          -0.000002478   -0.000000641   -0.000027770
      6        8           0.000001561    0.000000485    0.000003525
      7        6           0.000023420    0.000014934   -0.000035221
      8        6          -0.000024228   -0.000047484    0.000045552
      9        6           0.000033592    0.000022629    0.000003656
     10        1          -0.000004723    0.000024260   -0.000000698
     11        1           0.000000950   -0.000000585   -0.000003958
     12        1          -0.000010582   -0.000013868    0.000008094
     13        1           0.000008697    0.000011862    0.000024850
     14        1          -0.000006864    0.000003757   -0.000006505
     15        1           0.000005595    0.000008221   -0.000010043
     16        1           0.000010202   -0.000005049   -0.000014005
     17        1          -0.000004448   -0.000003828    0.000009514
     18        1          -0.000012458    0.000003759    0.000019684
     19        1           0.000007231   -0.000001424   -0.000017807
 -------------------------------------------------------------------
 Cartesian Forces:  Max     0.000047484 RMS     0.000018309

 GradGradGradGradGradGradGradGradGradGradGradGradGradGradGradGradGradGrad
 Berny optimization.
 FormGI is forming the generalized inverse of G from B-inverse, IUseBI=4.
 Internal  Forces:  Max     0.000045641 RMS     0.000008501
 Search for a local minimum.
 Step number   1 out of a maximum of  114
 All quantities printed in internal units (Hartrees-Bohrs-Radians)
 Mixed Optimization -- En-DIIS/RFO-DIIS
 Second derivative matrix not updated -- first step.
 ITU=  0
     Eigenvalues ---    0.00441   0.00460   0.01121   0.01407   0.01598
     Eigenvalues ---    0.02006   0.02447   0.03402   0.04130   0.04181
     Eigenvalues ---    0.04570   0.04997   0.05348   0.05594   0.05907
     Eigenvalues ---    0.06066   0.06397   0.06881   0.07762   0.07953
     Eigenvalues ---    0.10903   0.11016   0.11046   0.12503   0.13646
     Eigenvalues ---    0.14735   0.15705   0.15896   0.16000   0.16968
     Eigenvalues ---    0.21984   0.23122   0.24802   0.26392   0.26700
     Eigenvalues ---    0.29286   0.30070   0.33394   0.33639   0.33652
     Eigenvalues ---    0.34310   0.34449   0.34583   0.34637   0.34769
     Eigenvalues ---    0.34900   0.35816   0.35827   0.42234   0.53121
     Eigenvalues ---    0.55131
 RFO step:  Lambda=-1.89050829D-07 EMin= 4.41364963D-03
 Linear search not attempted -- first point.
 Iteration  1 RMS(Cart)=  0.00052830 RMS(Int)=  0.00000017
 Iteration  2 RMS(Cart)=  0.00000021 RMS(Int)=  0.00000005
 Variable       Old X    -DE/DX   Delta X   Delta X   Delta X     New X
                                 (Linear)    (Quad)   (Total)
    R1        2.68627   0.00005   0.00000   0.00011   0.00011   2.68637
    R2        1.81716   0.00000   0.00000  -0.00001  -0.00001   1.81715
    R3        2.87823  -0.00002   0.00000  -0.00007  -0.00007   2.87816
    R4        2.07944   0.00000   0.00000  -0.00001  -0.00001   2.07943
    R5        2.08366   0.00000   0.00000   0.00000   0.00000   2.08365
    R6        2.94538   0.00000   0.00000  -0.00001  -0.00001   2.94536
    R7        2.96558  -0.00001   0.00000  -0.00001  -0.00001   2.96557
    R8        2.06579   0.00000   0.00000   0.00000   0.00000   2.06580
    R9        2.95289  -0.00001   0.00000  -0.00010  -0.00010   2.95279
   R10        2.06268   0.00000   0.00000   0.00000   0.00000   2.06268
   R11        2.06358   0.00000   0.00000   0.00000   0.00000   2.06358
   R12        2.71256   0.00001   0.00000   0.00005   0.00005   2.71260
   R13        2.88365  -0.00001   0.00000   0.00000   0.00000   2.88365
   R14        2.05838   0.00001   0.00000   0.00002   0.00002   2.05841
   R15        2.70945   0.00000   0.00000  -0.00001  -0.00001   2.70944
   R16        2.88085  -0.00003   0.00000  -0.00013  -0.00013   2.88072
   R17        2.06052   0.00001   0.00000   0.00003   0.00003   2.06055
   R18        2.51834   0.00001   0.00000   0.00002   0.00002   2.51836
   R19        2.04353   0.00001   0.00000   0.00003   0.00003   2.04356
   R20        2.04370   0.00001   0.00000   0.00004   0.00004   2.04374
    A1        1.88769   0.00000   0.00000   0.00002   0.00002   1.88771
    A2        1.88909  -0.00001   0.00000  -0.00001  -0.00001   1.88908
    A3        1.94579   0.00000   0.00000   0.00001   0.00001   1.94580
    A4        1.93497   0.00001   0.00000   0.00009   0.00009   1.93506
    A5        1.90035   0.00001   0.00000   0.00002   0.00002   1.90037
    A6        1.91264  -0.00001   0.00000  -0.00006  -0.00006   1.91259
    A7        1.88070   0.00000   0.00000  -0.00005  -0.00005   1.88065
    A8        1.96918   0.00000   0.00000  -0.00004  -0.00004   1.96914
    A9        1.94146   0.00001   0.00000   0.00001   0.00001   1.94147
   A10        1.89906  -0.00001   0.00000  -0.00024  -0.00024   1.89882
   A11        1.74808   0.00000   0.00000   0.00010   0.00010   1.74818
   A12        1.95616   0.00001   0.00000   0.00010   0.00010   1.95625
   A13        1.94743   0.00000   0.00000   0.00011   0.00011   1.94754
   A14        1.76252   0.00000   0.00000  -0.00007  -0.00007   1.76245
   A15        1.97906   0.00000   0.00000   0.00005   0.00005   1.97911
   A16        1.93057   0.00000   0.00000   0.00008   0.00008   1.93066
   A17        1.96965  -0.00001   0.00000  -0.00013  -0.00013   1.96952
   A18        1.93352   0.00000   0.00000   0.00006   0.00006   1.93358
   A19        1.88728   0.00000   0.00000   0.00000   0.00000   1.88729
   A20        1.76599  -0.00001   0.00000  -0.00010  -0.00010   1.76589
   A21        1.86518   0.00000   0.00000  -0.00008  -0.00008   1.86510
   A22        2.02809   0.00000   0.00000  -0.00001  -0.00001   2.02809
   A23        1.77944   0.00000   0.00000   0.00010   0.00010   1.77954
   A24        1.93193   0.00000   0.00000   0.00004   0.00004   1.93197
   A25        2.05567   0.00000   0.00000   0.00004   0.00004   2.05571
   A26        1.67653   0.00000   0.00000   0.00002   0.00002   1.67654
   A27        1.76662   0.00000   0.00000   0.00006   0.00006   1.76669
   A28        1.86938   0.00001   0.00000   0.00012   0.00012   1.86951
   A29        2.02216   0.00000   0.00000  -0.00001  -0.00001   2.02215
   A30        1.78330   0.00000   0.00000  -0.00016  -0.00016   1.78314
   A31        1.93172   0.00000   0.00000   0.00005   0.00005   1.93177
   A32        2.05453  -0.00001   0.00000  -0.00007  -0.00007   2.05446
   A33        1.83606   0.00000   0.00000  -0.00004  -0.00004   1.83602
   A34        2.18898  -0.00001   0.00000  -0.00010  -0.00010   2.18888
   A35        2.25257   0.00001   0.00000   0.00005   0.00005   2.25263
   A36        1.83662   0.00000   0.00000   0.00007   0.00007   1.83668
   A37        2.19072  -0.00001   0.00000  -0.00006  -0.00006   2.19066
   A38        2.24989   0.00001   0.00000   0.00006   0.00006   2.24995
    D1       -3.05214  -0.00001   0.00000  -0.00077  -0.00077  -3.05291
    D2       -0.96250  -0.00001   0.00000  -0.00075  -0.00075  -0.96325
    D3        1.13280  -0.00001   0.00000  -0.00074  -0.00074   1.13206
    D4        1.09970   0.00000   0.00000  -0.00029  -0.00029   1.09941
    D5        3.04826   0.00000   0.00000  -0.00019  -0.00019   3.04808
    D6       -1.08271   0.00000   0.00000  -0.00020  -0.00020  -1.08291
    D7       -1.01827   0.00000   0.00000  -0.00031  -0.00031  -1.01857
    D8        0.93030   0.00000   0.00000  -0.00020  -0.00020   0.93010
    D9        3.08251   0.00000   0.00000  -0.00022  -0.00022   3.08229
   D10       -3.07135   0.00000   0.00000  -0.00023  -0.00023  -3.07157
   D11       -1.12278   0.00000   0.00000  -0.00012  -0.00012  -1.12290
   D12        1.02943   0.00000   0.00000  -0.00014  -0.00014   1.02929
   D13        2.05735   0.00001   0.00000   0.00072   0.00072   2.05807
   D14       -2.11403   0.00000   0.00000   0.00055   0.00055  -2.11349
   D15        0.00948   0.00001   0.00000   0.00065   0.00065   0.01013
   D16       -0.00804   0.00000   0.00000   0.00066   0.00066  -0.00737
   D17        2.10376   0.00000   0.00000   0.00049   0.00049   2.10426
   D18       -2.05591   0.00000   0.00000   0.00059   0.00059  -2.05531
   D19       -2.07482   0.00000   0.00000   0.00044   0.00044  -2.07438
   D20        0.03699  -0.00001   0.00000   0.00027   0.00027   0.03726
   D21        2.16050  -0.00001   0.00000   0.00037   0.00037   2.16087
   D22       -1.44803   0.00000   0.00000  -0.00059  -0.00059  -1.44861
   D23        2.97429   0.00000   0.00000  -0.00048  -0.00048   2.97381
   D24        0.64204   0.00000   0.00000  -0.00049  -0.00049   0.64155
   D25        0.63767   0.00000   0.00000  -0.00058  -0.00058   0.63710
   D26       -1.22320   0.00000   0.00000  -0.00047  -0.00047  -1.22367
   D27        2.72774   0.00000   0.00000  -0.00048  -0.00048   2.72726
   D28        2.71086   0.00001   0.00000  -0.00036  -0.00036   2.71050
   D29        0.84999   0.00001   0.00000  -0.00026  -0.00026   0.84973
   D30       -1.48226   0.00001   0.00000  -0.00027  -0.00027  -1.48253
   D31       -0.62245   0.00000   0.00000  -0.00057  -0.00057  -0.62302
   D32        1.23275  -0.00001   0.00000  -0.00052  -0.00052   1.23222
   D33       -2.71536   0.00000   0.00000  -0.00054  -0.00054  -2.71590
   D34       -2.74089   0.00000   0.00000  -0.00052  -0.00052  -2.74141
   D35       -0.88569  -0.00001   0.00000  -0.00048  -0.00048  -0.88617
   D36        1.44939   0.00000   0.00000  -0.00050  -0.00050   1.44889
   D37        1.42326   0.00000   0.00000  -0.00048  -0.00048   1.42278
   D38       -3.00473   0.00000   0.00000  -0.00044  -0.00044  -3.00516
   D39       -0.66965   0.00000   0.00000  -0.00046  -0.00046  -0.67011
   D40        1.04358   0.00000   0.00000   0.00024   0.00024   1.04382
   D41       -0.87858   0.00000   0.00000   0.00032   0.00032  -0.87826
   D42       -3.07951   0.00000   0.00000   0.00019   0.00019  -3.07932
   D43       -1.27912  -0.00001   0.00000  -0.00090  -0.00090  -1.28002
   D44        1.75385   0.00000   0.00000  -0.00031  -0.00031   1.75353
   D45        0.56648  -0.00002   0.00000  -0.00099  -0.00099   0.56549
   D46       -2.68374  -0.00001   0.00000  -0.00041  -0.00041  -2.68414
   D47        2.68385  -0.00001   0.00000  -0.00085  -0.00085   2.68301
   D48       -0.56636   0.00000   0.00000  -0.00026  -0.00026  -0.56663
   D49       -1.05114   0.00000   0.00000   0.00025   0.00025  -1.05088
   D50        0.87681   0.00001   0.00000   0.00036   0.00036   0.87716
   D51        3.07866   0.00000   0.00000   0.00020   0.00020   3.07886
   D52        1.29092  -0.00002   0.00000  -0.00096  -0.00096   1.28997
   D53       -1.74587   0.00000   0.00000  -0.00019  -0.00019  -1.74606
   D54       -0.55813  -0.00002   0.00000  -0.00100  -0.00100  -0.55913
   D55        2.68826   0.00000   0.00000  -0.00024  -0.00024   2.68802
   D56       -2.67747  -0.00001   0.00000  -0.00091  -0.00091  -2.67838
   D57        0.56892   0.00000   0.00000  -0.00014  -0.00014   0.56878
   D58       -0.00549   0.00002   0.00000   0.00115   0.00115  -0.00434
   D59       -3.03344   0.00001   0.00000   0.00055   0.00055  -3.03289
   D60        3.02609   0.00000   0.00000   0.00034   0.00034   3.02642
   D61       -0.00186   0.00000   0.00000  -0.00026  -0.00026  -0.00213
         Item               Value     Threshold  Converged?
 Maximum Force            0.000046     0.000450     YES
 RMS     Force            0.000009     0.000300     YES
 Maximum Displacement     0.002218     0.001800     NO 
 RMS     Displacement     0.000528     0.001200     YES
 Predicted change in Energy=-9.452698D-08
 GradGradGradGradGradGradGradGradGradGradGradGradGradGradGradGradGradGrad

                          Input orientation:                          
 ---------------------------------------------------------------------
 Center     Atomic      Atomic             Coordinates (Angstroms)
 Number     Number       Type             X           Y           Z
 ---------------------------------------------------------------------
      1          8           0        1.426650    0.583571   -0.453990
      2          6           0        0.084546    0.353726   -0.045600
      3          6           0       -0.803946    0.397318   -1.281880
      4          6           0       -0.467753   -0.726716   -2.307948
      5          6           0       -1.811857   -1.523303   -2.327833
      6          8           0       -2.220176   -1.414431   -0.955997
      7          6           0       -2.285597    0.017629   -0.930769
      8          6           0       -3.130698    0.322377   -2.162336
      9          6           0       -2.838188   -0.642194   -3.034130
     10          1           0        1.995942    0.476540    0.313548
     11          1           0       -0.026883   -0.628104    0.438600
     12          1           0       -0.244435    1.122377    0.673235
     13          1           0       -0.738835    1.393442   -1.727442
     14          1           0       -0.186312   -0.345793   -3.291368
     15          1           0        0.348016   -1.352227   -1.939551
     16          1           0       -1.747199   -2.568271   -2.628419
     17          1           0       -2.650773    0.369516    0.034521
     18          1           0       -3.740561    1.204546   -2.301212
     19          1           0       -3.151840   -0.745032   -4.064028
 ---------------------------------------------------------------------
                    Distance matrix (angstroms):
                    1          2          3          4          5
     1  O    0.000000
     2  C    1.421568   0.000000
     3  C    2.386556   1.523059   0.000000
     4  C    2.956819   2.567218   1.558619   0.000000
     5  C    4.293966   3.511150   2.408047   1.562550   0.000000
     6  O    4.188480   3.044166   2.322573   2.317695   1.435448
     7  C    3.785286   2.552266   1.569310   2.399006   2.133235
     8  C    4.874022   3.849590   2.488894   2.865846   2.274481
     9  C    5.133076   4.297155   2.879080   2.480614   1.525963
    10  H    0.961594   1.948719   3.223513   3.793397   5.047336
    11  H    2.092280   1.100390   2.148341   2.783454   3.411842
    12  H    2.086498   1.102622   2.158990   3.515177   4.296841
    13  H    2.639488   2.141859   1.093173   2.214846   3.165320
    14  H    3.393535   3.331322   2.229737   1.091525   2.226506
    15  H    2.667894   2.562566   2.195553   1.091998   2.201155
    16  H    4.973487   4.308632   3.390813   2.265173   1.089262
    17  H    4.112158   2.736537   2.268139   3.384444   3.141220
    18  H    5.522492   4.521407   3.211598   3.800144   3.340923
    19  H    5.979978   5.275342   3.815484   3.207565   2.327151
                    6          7          8          9         10
     6  O    0.000000
     7  C    1.433776   0.000000
     8  C    2.302348   1.524410   0.000000
     9  C    2.301506   2.272631   1.332660   0.000000
    10  H    4.791990   4.482242   5.695279   5.985593   0.000000
    11  H    2.715464   2.719178   4.159561   4.468052   2.308181
    12  H    3.604628   2.821283   4.124436   4.856523   2.359188
    13  H    3.267056   2.218113   2.656562   3.202894   3.533462
    14  H    3.276057   3.179859   3.223441   2.680759   4.293470
    15  H    2.750792   3.135293   3.867218   3.442985   3.337140
    16  H    2.086157   3.139868   3.238387   2.250474   5.651296
    17  H    2.085428   1.090396   2.249162   3.236557   4.656314
    18  H    3.313641   2.324609   1.081408   2.182177   6.346214
    19  H    3.312997   3.339063   2.180881   1.081500   6.866955
                   11         12         13         14         15
    11  H    0.000000
    12  H    1.779485   0.000000
    13  H    3.047173   2.466001   0.000000
    14  H    3.744033   4.228118   2.403349   0.000000
    15  H    2.514062   3.647097   2.960563   1.768001   0.000000
    16  H    4.016260   5.174950   4.186135   2.795582   2.518576
    17  H    2.836075   2.601003   2.794360   4.200806   3.981720
    18  H    4.965539   4.590968   3.061904   4.002081   4.835737
    19  H    5.482033   5.863607   3.981872   3.090429   4.138970
                   16         17         18         19
    16  H    0.000000
    17  H    4.066730   0.000000
    18  H    4.279569   2.709347   0.000000
    19  H    2.712598   4.276844   2.693506   0.000000
 Stoichiometry    C7H10O2
 Framework group  C1[X(C7H10O2)]
 Deg. of freedom    51
 Full point group                 C1      NOp   1
 Largest Abelian subgroup         C1      NOp   1
 Largest concise Abelian subgroup C1      NOp   1
                         Standard orientation:                         
 ---------------------------------------------------------------------
 Center     Atomic      Atomic             Coordinates (Angstroms)
 Number     Number       Type             X           Y           Z
 ---------------------------------------------------------------------
      1          8           0       -2.930684    0.298766   -0.353842
      2          6           0       -1.939161   -0.522077    0.249444
      3          6           0       -0.615055   -0.269018   -0.459366
      4          6           0       -0.114567    1.198389   -0.299614
      5          6           0        1.230757    0.972723    0.462451
      6          8           0        0.890609   -0.139095    1.304277
      7          6           0        0.559993   -1.039942    0.238970
      8          6           0        1.777322   -0.921968   -0.670985
      9          6           0        2.199286    0.334108   -0.528855
     10          1           0       -3.746727    0.198525    0.144844
     11          1           0       -1.820566   -0.290954    1.318731
     12          1           0       -2.206448   -1.588359    0.163569
     13          1           0       -0.716936   -0.556547   -1.509117
     14          1           0        0.019028    1.716724   -1.250881
     15          1           0       -0.811838    1.778445    0.308503
     16          1           0        1.592420    1.809973    1.058020
     17          1           0        0.314204   -2.027038    0.631643
     18          1           0        2.125348   -1.684661   -1.354081
     19          1           0        2.980672    0.853244   -1.066978
 ---------------------------------------------------------------------
 Rotational constants (GHZ):      3.7484418      1.2226157      1.1570393
 Standard basis: 6-31G(2df,p) (6D, 7F)
 There are   329 symmetry adapted cartesian basis functions of A   symmetry.
 There are   302 symmetry adapted basis functions of A   symmetry.
   302 basis functions,   466 primitive gaussians,   329 cartesian basis functions
    34 alpha electrons       34 beta electrons
       nuclear repulsion energy       472.7211907349 Hartrees.
 NAtoms=   19 NActive=   19 NUniq=   19 SFac= 1.00D+00 NAtFMM=   60 NAOKFM=F Big=F
 Integral buffers will be    131072 words long.
 Raffenetti 2 integral format.
 Two-electron integral symmetry is turned on.
 One-electron integrals computed using PRISM.
 NBasis=   302 RedAO= T EigKep=  2.63D-04  NBF=   302
 NBsUse=   302 1.00D-06 EigRej= -1.00D+00 NBFU=   302
 Initial guess from the checkpoint file:  "/scratch/puck/g09_98df58df-934a-40e4-8aca-0773adcf0020/Gau-175148.chk"
 B after Tr=     0.000000    0.000000    0.000000
         Rot=    1.000000   -0.000005   -0.000032   -0.000017 Ang=   0.00 deg.
 Requested convergence on RMS density matrix=1.00D-08 within 128 cycles.
 Requested convergence on MAX density matrix=1.00D-06.
 Requested convergence on             energy=1.00D-06.
 No special actions if energy rises.
 SCF Done:  E(RB3LYP) =  -423.177215205     A.U. after    6 cycles
            NFock=  6  Conv=0.83D-08     -V/T= 2.0074
 Calling FoFJK, ICntrl=      2127 FMM=F ISym2X=0 I1Cent= 0 IOpClX= 0 NMat=1 NMatS=1 NMatT=0.
 ***** Axes restored to original set *****
 -------------------------------------------------------------------
 Center     Atomic                   Forces (Hartrees/Bohr)
 Number     Number              X              Y              Z
 -------------------------------------------------------------------
      1        8           0.000001999   -0.000010886   -0.000007800
      2        6          -0.000013893    0.000004241    0.000007922
      3        6           0.000001532   -0.000004443    0.000015165
      4        6          -0.000011871    0.000026977   -0.000010616
      5        6           0.000032296    0.000024073   -0.000019653
      6        8           0.000009081   -0.000019483    0.000006765
      7        6          -0.000023653   -0.000023256   -0.000004114
      8        6           0.000043642    0.000025317   -0.000025624
      9        6          -0.000045871   -0.000033193    0.000024639
     10        1          -0.000004635    0.000020148    0.000005602
     11        1           0.000008969   -0.000008489   -0.000001434
     12        1           0.000003083   -0.000009254    0.000008964
     13        1          -0.000009606    0.000003526    0.000006823
     14        1           0.000004746    0.000013754   -0.000004261
     15        1           0.000000461    0.000009995   -0.000005778
     16        1           0.000002990    0.000004512   -0.000012341
     17        1           0.000003942   -0.000014896    0.000008465
     18        1          -0.000003344   -0.000003421    0.000005667
     19        1           0.000000133   -0.000005223    0.000001608
 -------------------------------------------------------------------
 Cartesian Forces:  Max     0.000045871 RMS     0.000015794

 GradGradGradGradGradGradGradGradGradGradGradGradGradGradGradGradGradGrad
 Berny optimization.
 Using GEDIIS/GDIIS optimizer.
 FormGI is forming the generalized inverse of G from B-inverse, IUseBI=4.
 Internal  Forces:  Max     0.000024214 RMS     0.000006278
 Search for a local minimum.
 Step number   2 out of a maximum of  114
 All quantities printed in internal units (Hartrees-Bohrs-Radians)
 Mixed Optimization -- En-DIIS/RFO-DIIS
 Swapping is turned off.
 Update second derivatives using D2CorX and points    1    2
 DE=  1.40D-10 DEPred=-9.45D-08 R=-1.48D-03
 Trust test=-1.48D-03 RLast= 4.14D-03 DXMaxT set to 1.50D-01
 ITU= -1  0
     Eigenvalues ---    0.00456   0.00536   0.01109   0.01170   0.01754
     Eigenvalues ---    0.02429   0.03183   0.03494   0.04129   0.04183
     Eigenvalues ---    0.04599   0.04934   0.05351   0.05567   0.05897
     Eigenvalues ---    0.06081   0.06391   0.07143   0.07782   0.08155
     Eigenvalues ---    0.10895   0.11028   0.11178   0.12456   0.13593
     Eigenvalues ---    0.14701   0.15702   0.15779   0.16020   0.16952
     Eigenvalues ---    0.21954   0.23123   0.24800   0.26282   0.26772
     Eigenvalues ---    0.29099   0.30088   0.33392   0.33641   0.33688
     Eigenvalues ---    0.34320   0.34448   0.34586   0.34642   0.34738
     Eigenvalues ---    0.34894   0.35748   0.35825   0.41743   0.53106
     Eigenvalues ---    0.55128
 En-DIIS/RFO-DIIS IScMMF=        0 using points:     2    1
 RFO step:  Lambda=-2.08138836D-08.
 DidBck=T Rises=F RFO-DIIS coefs:    0.55355    0.44645
 Iteration  1 RMS(Cart)=  0.00025177 RMS(Int)=  0.00000004
 Iteration  2 RMS(Cart)=  0.00000005 RMS(Int)=  0.00000001
 Variable       Old X    -DE/DX   Delta X   Delta X   Delta X     New X
                                 (Linear)    (Quad)   (Total)
    R1        2.68637   0.00000  -0.00005   0.00007   0.00003   2.68640
    R2        1.81715   0.00000   0.00000   0.00000   0.00000   1.81715
    R3        2.87816   0.00001   0.00003  -0.00003   0.00000   2.87816
    R4        2.07943   0.00000   0.00000   0.00000   0.00001   2.07944
    R5        2.08365   0.00000   0.00000  -0.00001   0.00000   2.08365
    R6        2.94536   0.00000   0.00001  -0.00002  -0.00001   2.94535
    R7        2.96557  -0.00001   0.00001  -0.00007  -0.00006   2.96551
    R8        2.06580   0.00000   0.00000   0.00000   0.00000   2.06580
    R9        2.95279   0.00000   0.00004  -0.00002   0.00002   2.95281
   R10        2.06268   0.00000   0.00000   0.00001   0.00001   2.06269
   R11        2.06358   0.00000   0.00000  -0.00001  -0.00001   2.06357
   R12        2.71260   0.00001  -0.00002   0.00003   0.00001   2.71261
   R13        2.88365  -0.00001   0.00000  -0.00004  -0.00004   2.88361
   R14        2.05841   0.00000  -0.00001   0.00001   0.00000   2.05841
   R15        2.70944   0.00000   0.00000   0.00001   0.00001   2.70946
   R16        2.88072   0.00001   0.00006  -0.00005   0.00001   2.88072
   R17        2.06055   0.00000  -0.00001   0.00002   0.00001   2.06056
   R18        2.51836   0.00000  -0.00001   0.00001   0.00000   2.51836
   R19        2.04356   0.00000  -0.00001   0.00002   0.00001   2.04357
   R20        2.04374   0.00000  -0.00002   0.00002   0.00001   2.04375
    A1        1.88771  -0.00001  -0.00001  -0.00001  -0.00001   1.88769
    A2        1.88908  -0.00001   0.00001  -0.00003  -0.00002   1.88906
    A3        1.94580   0.00000   0.00000  -0.00002  -0.00002   1.94578
    A4        1.93506   0.00000  -0.00004   0.00004   0.00000   1.93506
    A5        1.90037   0.00001  -0.00001   0.00006   0.00005   1.90041
    A6        1.91259   0.00000   0.00002  -0.00002   0.00001   1.91259
    A7        1.88065   0.00000   0.00002  -0.00003  -0.00001   1.88064
    A8        1.96914   0.00000   0.00002   0.00001   0.00003   1.96917
    A9        1.94147   0.00000  -0.00001   0.00004   0.00004   1.94150
   A10        1.89882   0.00000   0.00011  -0.00014  -0.00003   1.89879
   A11        1.74818   0.00000  -0.00004   0.00001  -0.00004   1.74814
   A12        1.95625   0.00000  -0.00004   0.00005   0.00001   1.95626
   A13        1.94754   0.00000  -0.00005   0.00005   0.00000   1.94754
   A14        1.76245   0.00000   0.00003   0.00001   0.00004   1.76249
   A15        1.97911   0.00000  -0.00002   0.00006   0.00004   1.97915
   A16        1.93066   0.00000  -0.00004   0.00000  -0.00004   1.93062
   A17        1.96952   0.00000   0.00006  -0.00004   0.00002   1.96954
   A18        1.93358   0.00000  -0.00003  -0.00002  -0.00005   1.93353
   A19        1.88729   0.00000   0.00000  -0.00001  -0.00001   1.88727
   A20        1.76589   0.00000   0.00004  -0.00001   0.00003   1.76592
   A21        1.86510   0.00001   0.00003   0.00002   0.00005   1.86516
   A22        2.02809   0.00001   0.00000   0.00002   0.00003   2.02811
   A23        1.77954   0.00000  -0.00004  -0.00002  -0.00006   1.77948
   A24        1.93197   0.00000  -0.00002   0.00001  -0.00001   1.93196
   A25        2.05571  -0.00001  -0.00002  -0.00003  -0.00004   2.05566
   A26        1.67654  -0.00001  -0.00001  -0.00001  -0.00002   1.67652
   A27        1.76669   0.00000  -0.00003  -0.00002  -0.00004   1.76664
   A28        1.86951  -0.00001  -0.00006   0.00002  -0.00004   1.86947
   A29        2.02215  -0.00001   0.00000  -0.00004  -0.00004   2.02211
   A30        1.78314   0.00001   0.00007   0.00002   0.00009   1.78323
   A31        1.93177   0.00000  -0.00002   0.00003   0.00001   1.93178
   A32        2.05446   0.00001   0.00003   0.00000   0.00003   2.05449
   A33        1.83602   0.00000   0.00002   0.00001   0.00002   1.83605
   A34        2.18888   0.00000   0.00004  -0.00005  -0.00001   2.18888
   A35        2.25263   0.00000  -0.00002   0.00004   0.00002   2.25265
   A36        1.83668   0.00000  -0.00003   0.00000  -0.00003   1.83666
   A37        2.19066  -0.00001   0.00003  -0.00007  -0.00005   2.19061
   A38        2.24995   0.00001  -0.00003   0.00006   0.00003   2.24998
    D1       -3.05291  -0.00001   0.00034  -0.00087  -0.00053  -3.05344
    D2       -0.96325  -0.00001   0.00033  -0.00083  -0.00050  -0.96374
    D3        1.13206  -0.00001   0.00033  -0.00086  -0.00052   1.13153
    D4        1.09941   0.00000   0.00013  -0.00019  -0.00006   1.09935
    D5        3.04808   0.00000   0.00008  -0.00015  -0.00006   3.04801
    D6       -1.08291   0.00000   0.00009  -0.00016  -0.00006  -1.08298
    D7       -1.01857   0.00000   0.00014  -0.00018  -0.00005  -1.01862
    D8        0.93010   0.00000   0.00009  -0.00015  -0.00006   0.93004
    D9        3.08229   0.00000   0.00010  -0.00015  -0.00006   3.08224
   D10       -3.07157   0.00000   0.00010  -0.00017  -0.00007  -3.07164
   D11       -1.12290   0.00000   0.00005  -0.00013  -0.00008  -1.12298
   D12        1.02929   0.00000   0.00006  -0.00014  -0.00007   1.02922
   D13        2.05807   0.00000  -0.00032  -0.00001  -0.00033   2.05774
   D14       -2.11349   0.00000  -0.00024  -0.00002  -0.00026  -2.11375
   D15        0.01013   0.00000  -0.00029   0.00001  -0.00028   0.00985
   D16       -0.00737  -0.00001  -0.00030  -0.00007  -0.00036  -0.00774
   D17        2.10426   0.00000  -0.00022  -0.00008  -0.00030   2.10396
   D18       -2.05531   0.00000  -0.00027  -0.00005  -0.00031  -2.05563
   D19       -2.07438   0.00000  -0.00020  -0.00015  -0.00034  -2.07472
   D20        0.03726   0.00000  -0.00012  -0.00016  -0.00028   0.03698
   D21        2.16087   0.00000  -0.00017  -0.00013  -0.00029   2.16058
   D22       -1.44861   0.00000   0.00026   0.00004   0.00030  -1.44831
   D23        2.97381   0.00000   0.00021   0.00003   0.00024   2.97405
   D24        0.64155   0.00000   0.00022   0.00004   0.00026   0.64181
   D25        0.63710   0.00001   0.00026   0.00007   0.00033   0.63743
   D26       -1.22367   0.00001   0.00021   0.00006   0.00026  -1.22340
   D27        2.72726   0.00001   0.00021   0.00007   0.00029   2.72755
   D28        2.71050   0.00000   0.00016   0.00016   0.00032   2.71082
   D29        0.84973   0.00000   0.00011   0.00014   0.00025   0.84999
   D30       -1.48253   0.00000   0.00012   0.00016   0.00028  -1.48225
   D31       -0.62302   0.00000   0.00025   0.00005   0.00030  -0.62271
   D32        1.23222   0.00001   0.00023   0.00003   0.00026   1.23249
   D33       -2.71590   0.00000   0.00024   0.00003   0.00028  -2.71563
   D34       -2.74141   0.00000   0.00023  -0.00001   0.00022  -2.74119
   D35       -0.88617   0.00000   0.00021  -0.00003   0.00018  -0.88599
   D36        1.44889   0.00000   0.00022  -0.00003   0.00019   1.44908
   D37        1.42278   0.00000   0.00022   0.00005   0.00026   1.42304
   D38       -3.00516   0.00000   0.00020   0.00002   0.00022  -3.00494
   D39       -0.67011   0.00000   0.00021   0.00003   0.00023  -0.66987
   D40        1.04382   0.00000  -0.00011  -0.00002  -0.00012   1.04370
   D41       -0.87826  -0.00001  -0.00014  -0.00003  -0.00017  -0.87843
   D42       -3.07932   0.00001  -0.00009   0.00001  -0.00007  -3.07939
   D43       -1.28002   0.00002   0.00040   0.00010   0.00050  -1.27952
   D44        1.75353   0.00000   0.00014  -0.00003   0.00011   1.75364
   D45        0.56549   0.00002   0.00044   0.00009   0.00053   0.56602
   D46       -2.68414   0.00001   0.00018  -0.00004   0.00014  -2.68401
   D47        2.68301   0.00001   0.00038   0.00007   0.00045   2.68345
   D48       -0.56663   0.00000   0.00012  -0.00006   0.00006  -0.56657
   D49       -1.05088   0.00000  -0.00011  -0.00004  -0.00015  -1.05104
   D50        0.87716  -0.00001  -0.00016  -0.00002  -0.00018   0.87699
   D51        3.07886   0.00000  -0.00009   0.00001  -0.00008   3.07878
   D52        1.28997   0.00002   0.00043   0.00007   0.00049   1.29046
   D53       -1.74606   0.00001   0.00008   0.00007   0.00015  -1.74591
   D54       -0.55913   0.00002   0.00045   0.00007   0.00052  -0.55862
   D55        2.68802   0.00000   0.00011   0.00007   0.00018   2.68820
   D56       -2.67838   0.00001   0.00041   0.00003   0.00043  -2.67795
   D57        0.56878   0.00000   0.00006   0.00003   0.00009   0.56887
   D58       -0.00434  -0.00002  -0.00051  -0.00010  -0.00061  -0.00495
   D59       -3.03289  -0.00001  -0.00025   0.00005  -0.00019  -3.03309
   D60        3.02642  -0.00001  -0.00015  -0.00010  -0.00025   3.02617
   D61       -0.00213   0.00001   0.00012   0.00004   0.00016  -0.00197
         Item               Value     Threshold  Converged?
 Maximum Force            0.000024     0.000450     YES
 RMS     Force            0.000006     0.000300     YES
 Maximum Displacement     0.001129     0.001800     YES
 RMS     Displacement     0.000252     0.001200     YES
 Predicted change in Energy=-5.422800D-08
 Optimization completed.
    -- Stationary point found.
                           ----------------------------
                           !   Optimized Parameters   !
                           ! (Angstroms and Degrees)  !
 --------------------------                            --------------------------
 ! Name  Definition              Value          Derivative Info.                !
 --------------------------------------------------------------------------------
 ! R1    R(1,2)                  1.4216         -DE/DX =    0.0                 !
 ! R2    R(1,10)                 0.9616         -DE/DX =    0.0                 !
 ! R3    R(2,3)                  1.5231         -DE/DX =    0.0                 !
 ! R4    R(2,11)                 1.1004         -DE/DX =    0.0                 !
 ! R5    R(2,12)                 1.1026         -DE/DX =    0.0                 !
 ! R6    R(3,4)                  1.5586         -DE/DX =    0.0                 !
 ! R7    R(3,7)                  1.5693         -DE/DX =    0.0                 !
 ! R8    R(3,13)                 1.0932         -DE/DX =    0.0                 !
 ! R9    R(4,5)                  1.5626         -DE/DX =    0.0                 !
 ! R10   R(4,14)                 1.0915         -DE/DX =    0.0                 !
 ! R11   R(4,15)                 1.092          -DE/DX =    0.0                 !
 ! R12   R(5,6)                  1.4354         -DE/DX =    0.0                 !
 ! R13   R(5,9)                  1.526          -DE/DX =    0.0                 !
 ! R14   R(5,16)                 1.0893         -DE/DX =    0.0                 !
 ! R15   R(6,7)                  1.4338         -DE/DX =    0.0                 !
 ! R16   R(7,8)                  1.5244         -DE/DX =    0.0                 !
 ! R17   R(7,17)                 1.0904         -DE/DX =    0.0                 !
 ! R18   R(8,9)                  1.3327         -DE/DX =    0.0                 !
 ! R19   R(8,18)                 1.0814         -DE/DX =    0.0                 !
 ! R20   R(9,19)                 1.0815         -DE/DX =    0.0                 !
 ! A1    A(2,1,10)             108.1577         -DE/DX =    0.0                 !
 ! A2    A(1,2,3)              108.2362         -DE/DX =    0.0                 !
 ! A3    A(1,2,11)             111.4863         -DE/DX =    0.0                 !
 ! A4    A(1,2,12)             110.8707         -DE/DX =    0.0                 !
 ! A5    A(3,2,11)             108.8831         -DE/DX =    0.0                 !
 ! A6    A(3,2,12)             109.5831         -DE/DX =    0.0                 !
 ! A7    A(11,2,12)            107.7535         -DE/DX =    0.0                 !
 ! A8    A(2,3,4)              112.8234         -DE/DX =    0.0                 !
 ! A9    A(2,3,7)              111.2379         -DE/DX =    0.0                 !
 ! A10   A(2,3,13)             108.7945         -DE/DX =    0.0                 !
 ! A11   A(4,3,7)              100.1633         -DE/DX =    0.0                 !
 ! A12   A(4,3,13)             112.0849         -DE/DX =    0.0                 !
 ! A13   A(7,3,13)             111.5858         -DE/DX =    0.0                 !
 ! A14   A(3,4,5)              100.9812         -DE/DX =    0.0                 !
 ! A15   A(3,4,14)             113.3944         -DE/DX =    0.0                 !
 ! A16   A(3,4,15)             110.6185         -DE/DX =    0.0                 !
 ! A17   A(5,4,14)             112.8451         -DE/DX =    0.0                 !
 ! A18   A(5,4,15)             110.786          -DE/DX =    0.0                 !
 ! A19   A(14,4,15)            108.1335         -DE/DX =    0.0                 !
 ! A20   A(4,5,6)              101.1781         -DE/DX =    0.0                 !
 ! A21   A(4,5,9)              106.8626         -DE/DX =    0.0                 !
 ! A22   A(4,5,16)             116.2009         -DE/DX =    0.0                 !
 ! A23   A(6,5,9)              101.9601         -DE/DX =    0.0                 !
 ! A24   A(6,5,16)             110.6936         -DE/DX =    0.0                 !
 ! A25   A(9,5,16)             117.7834         -DE/DX =    0.0                 !
 ! A26   A(5,6,7)               96.0588         -DE/DX =    0.0                 !
 ! A27   A(3,7,6)              101.2237         -DE/DX =    0.0                 !
 ! A28   A(3,7,8)              107.1149         -DE/DX =    0.0                 !
 ! A29   A(3,7,17)             115.8605         -DE/DX =    0.0                 !
 ! A30   A(6,7,8)              102.1665         -DE/DX =    0.0                 !
 ! A31   A(6,7,17)             110.6824         -DE/DX =    0.0                 !
 ! A32   A(8,7,17)             117.712          -DE/DX =    0.0                 !
 ! A33   A(7,8,9)              105.1965         -DE/DX =    0.0                 !
 ! A34   A(7,8,18)             125.4137         -DE/DX =    0.0                 !
 ! A35   A(9,8,18)             129.066          -DE/DX =    0.0                 !
 ! A36   A(5,9,8)              105.2343         -DE/DX =    0.0                 !
 ! A37   A(5,9,19)             125.5154         -DE/DX =    0.0                 !
 ! A38   A(8,9,19)             128.9124         -DE/DX =    0.0                 !
 ! D1    D(10,1,2,3)          -174.919          -DE/DX =    0.0                 !
 ! D2    D(10,1,2,11)          -55.1901         -DE/DX =    0.0                 !
 ! D3    D(10,1,2,12)           64.8622         -DE/DX =    0.0                 !
 ! D4    D(1,2,3,4)             62.9913         -DE/DX =    0.0                 !
 ! D5    D(1,2,3,7)            174.642          -DE/DX =    0.0                 !
 ! D6    D(1,2,3,13)           -62.0464         -DE/DX =    0.0                 !
 ! D7    D(11,2,3,4)           -58.3598         -DE/DX =    0.0                 !
 ! D8    D(11,2,3,7)            53.2909         -DE/DX =    0.0                 !
 ! D9    D(11,2,3,13)          176.6025         -DE/DX =    0.0                 !
 ! D10   D(12,2,3,4)          -175.9883         -DE/DX =    0.0                 !
 ! D11   D(12,2,3,7)           -64.3375         -DE/DX =    0.0                 !
 ! D12   D(12,2,3,13)           58.974          -DE/DX =    0.0                 !
 ! D13   D(2,3,4,5)            117.9186         -DE/DX =    0.0                 !
 ! D14   D(2,3,4,14)          -121.0938         -DE/DX =    0.0                 !
 ! D15   D(2,3,4,15)             0.5803         -DE/DX =    0.0                 !
 ! D16   D(7,3,4,5)             -0.4225         -DE/DX =    0.0                 !
 ! D17   D(7,3,4,14)           120.565          -DE/DX =    0.0                 !
 ! D18   D(7,3,4,15)          -117.7608         -DE/DX =    0.0                 !
 ! D19   D(13,3,4,5)          -118.853          -DE/DX =    0.0                 !
 ! D20   D(13,3,4,14)            2.1346         -DE/DX =    0.0                 !
 ! D21   D(13,3,4,15)          123.8087         -DE/DX =    0.0                 !
 ! D22   D(2,3,7,6)            -82.9994         -DE/DX =    0.0                 !
 ! D23   D(2,3,7,8)            170.3867         -DE/DX =    0.0                 !
 ! D24   D(2,3,7,17)            36.7581         -DE/DX =    0.0                 !
 ! D25   D(4,3,7,6)             36.5029         -DE/DX =    0.0                 !
 ! D26   D(4,3,7,8)            -70.111          -DE/DX =    0.0                 !
 ! D27   D(4,3,7,17)           156.2605         -DE/DX =    0.0                 !
 ! D28   D(13,3,7,6)           155.3            -DE/DX =    0.0                 !
 ! D29   D(13,3,7,8)            48.6861         -DE/DX =    0.0                 !
 ! D30   D(13,3,7,17)          -84.9424         -DE/DX =    0.0                 !
 ! D31   D(3,4,5,6)            -35.6963         -DE/DX =    0.0                 !
 ! D32   D(3,4,5,9)             70.6012         -DE/DX =    0.0                 !
 ! D33   D(3,4,5,16)          -155.6098         -DE/DX =    0.0                 !
 ! D34   D(14,4,5,6)          -157.0714         -DE/DX =    0.0                 !
 ! D35   D(14,4,5,9)           -50.7738         -DE/DX =    0.0                 !
 ! D36   D(14,4,5,16)           83.0151         -DE/DX =    0.0                 !
 ! D37   D(15,4,5,6)            81.5192         -DE/DX =    0.0                 !
[...]
 C,0,-0.8039457712,0.39731829,-1.2818804911
 C,0,-0.4677527412,-0.7267157977,-2.3079483287
 C,0,-1.8118573579,-1.5233030198,-2.3278331681
 O,0,-2.2201757521,-1.4144313215,-0.9559968729
 C,0,-2.285596935,0.0176290216,-0.9307688404
 C,0,-3.1306975175,0.3223772332,-2.1623361711
 C,0,-2.8381876133,-0.6421935362,-3.0341302285
 H,0,1.9959415709,0.4765403696,0.3135481063
 H,0,-0.0268834683,-0.6281040188,0.4386001247
 H,0,-0.244435167,1.1223770395,0.6732351891
 H,0,-0.738834805,1.3934423157,-1.7274421874
 H,0,-0.1863118592,-0.3457929363,-3.2913683353
 H,0,0.3480157945,-1.3522269734,-1.9395509393
 H,0,-1.7471988863,-2.5682710087,-2.62841923
 H,0,-2.650772781,0.3695162778,0.0345210052
 H,0,-3.7405613844,1.204546285,-2.3012115747
 H,0,-3.151839624,-0.7450324848,-4.0640281579
 Recover connectivity data from disk.

 GradGradGradGradGradGradGradGradGradGradGradGradGradGradGradGradGradGrad
 Berny optimization.
 Initialization pass.
                           ----------------------------
                           !    Initial Parameters    !
                           ! (Angstroms and Degrees)  !
 --------------------------                            --------------------------
 ! Name  Definition              Value          Derivative Info.                !
 --------------------------------------------------------------------------------
 ! R1    R(1,2)                  1.4216         calculate D2E/DX2 analytically  !
 ! R2    R(1,10)                 0.9616         calculate D2E/DX2 analytically  !
 ! R3    R(2,3)                  1.5231         calculate D2E/DX2 analytically  !
 ! R4    R(2,11)                 1.1004         calculate D2E/DX2 analytically  !
 ! R5    R(2,12)                 1.1026         calculate D2E/DX2 analytically  !
 ! R6    R(3,4)                  1.5586         calculate D2E/DX2 analytically  !
 ! R7    R(3,7)                  1.5693         calculate D2E/DX2 analytically  !
 ! R8    R(3,13)                 1.0932         calculate D2E/DX2 analytically  !
 ! R9    R(4,5)                  1.5626         calculate D2E/DX2 analytically  !
 ! R10   R(4,14)                 1.0915         calculate D2E/DX2 analytically  !
 ! R11   R(4,15)                 1.092          calculate D2E/DX2 analytically  !
 ! R12   R(5,6)                  1.4354         calculate D2E/DX2 analytically  !
 ! R13   R(5,9)                  1.526          calculate D2E/DX2 analytically  !
 ! R14   R(5,16)                 1.0893         calculate D2E/DX2 analytically  !
 ! R15   R(6,7)                  1.4338         calculate D2E/DX2 analytically  !
 ! R16   R(7,8)                  1.5244         calculate D2E/DX2 analytically  !
 ! R17   R(7,17)                 1.0904         calculate D2E/DX2 analytically  !
 ! R18   R(8,9)                  1.3327         calculate D2E/DX2 analytically  !
 ! R19   R(8,18)                 1.0814         calculate D2E/DX2 analytically  !
 ! R20   R(9,19)                 1.0815         calculate D2E/DX2 analytically  !
 ! A1    A(2,1,10)             108.1577         calculate D2E/DX2 analytically  !
 ! A2    A(1,2,3)              108.2362         calculate D2E/DX2 analytically  !
 ! A3    A(1,2,11)             111.4863         calculate D2E/DX2 analytically  !
 ! A4    A(1,2,12)             110.8707         calculate D2E/DX2 analytically  !
 ! A5    A(3,2,11)             108.8831         calculate D2E/DX2 analytically  !
 ! A6    A(3,2,12)             109.5831         calculate D2E/DX2 analytically  !
 ! A7    A(11,2,12)            107.7535         calculate D2E/DX2 analytically  !
 ! A8    A(2,3,4)              112.8234         calculate D2E/DX2 analytically  !
 ! A9    A(2,3,7)              111.2379         calculate D2E/DX2 analytically  !
 ! A10   A(2,3,13)             108.7945         calculate D2E/DX2 analytically  !
 ! A11   A(4,3,7)              100.1633         calculate D2E/DX2 analytically  !
 ! A12   A(4,3,13)             112.0849         calculate D2E/DX2 analytically  !
 ! A13   A(7,3,13)             111.5858         calculate D2E/DX2 analytically  !
 ! A14   A(3,4,5)              100.9812         calculate D2E/DX2 analytically  !
 ! A15   A(3,4,14)             113.3944         calculate D2E/DX2 analytically  !
 ! A16   A(3,4,15)             110.6185         calculate D2E/DX2 analytically  !
 ! A17   A(5,4,14)             112.8451         calculate D2E/DX2 analytically  !
 ! A18   A(5,4,15)             110.786          calculate D2E/DX2 analytically  !
 ! A19   A(14,4,15)            108.1335         calculate D2E/DX2 analytically  !
 ! A20   A(4,5,6)              101.1781         calculate D2E/DX2 analytically  !
 ! A21   A(4,5,9)              106.8626         calculate D2E/DX2 analytically  !
 ! A22   A(4,5,16)             116.2009         calculate D2E/DX2 analytically  !
 ! A23   A(6,5,9)              101.9601         calculate D2E/DX2 analytically  !
 ! A24   A(6,5,16)             110.6936         calculate D2E/DX2 analytically  !
 ! A25   A(9,5,16)             117.7834         calculate D2E/DX2 analytically  !
 ! A26   A(5,6,7)               96.0588         calculate D2E/DX2 analytically  !
 ! A27   A(3,7,6)              101.2237         calculate D2E/DX2 analytically  !
 ! A28   A(3,7,8)              107.1149         calculate D2E/DX2 analytically  !
 ! A29   A(3,7,17)             115.8605         calculate D2E/DX2 analytically  !
 ! A30   A(6,7,8)              102.1665         calculate D2E/DX2 analytically  !
 ! A31   A(6,7,17)             110.6824         calculate D2E/DX2 analytically  !
 ! A32   A(8,7,17)             117.712          calculate D2E/DX2 analytically  !
 ! A33   A(7,8,9)              105.1965         calculate D2E/DX2 analytically  !
 ! A34   A(7,8,18)             125.4137         calculate D2E/DX2 analytically  !
 ! A35   A(9,8,18)             129.066          calculate D2E/DX2 analytically  !
 ! A36   A(5,9,8)              105.2343         calculate D2E/DX2 analytically  !
 ! A37   A(5,9,19)             125.5154         calculate D2E/DX2 analytically  !
 ! A38   A(8,9,19)             128.9124         calculate D2E/DX2 analytically  !
 ! D1    D(10,1,2,3)          -174.919          calculate D2E/DX2 analytically  !
 ! D2    D(10,1,2,11)          -55.1901         calculate D2E/DX2 analytically  !
 ! D3    D(10,1,2,12)           64.8622         calculate D2E/DX2 analytically  !
 ! D4    D(1,2,3,4)             62.9913         calculate D2E/DX2 analytically  !
 ! D5    D(1,2,3,7)            174.642          calculate D2E/DX2 analytically  !
 ! D6    D(1,2,3,13)           -62.0464         calculate D2E/DX2 analytically  !
 ! D7    D(11,2,3,4)           -58.3598         calculate D2E/DX2 analytically  !
 ! D8    D(11,2,3,7)            53.2909         calculate D2E/DX2 analytically  !
 ! D9    D(11,2,3,13)          176.6025         calculate D2E/DX2 analytically  !
 ! D10   D(12,2,3,4)          -175.9883         calculate D2E/DX2 analytically  !
 ! D11   D(12,2,3,7)           -64.3375         calculate D2E/DX2 analytically  !
 ! D12   D(12,2,3,13)           58.974          calculate D2E/DX2 analytically  !
 ! D13   D(2,3,4,5)            117.9186         calculate D2E/DX2 analytically  !
 ! D14   D(2,3,4,14)          -121.0938         calculate D2E/DX2 analytically  !
 ! D15   D(2,3,4,15)             0.5803         calculate D2E/DX2 analytically  !
 ! D16   D(7,3,4,5)             -0.4225         calculate D2E/DX2 analytically  !
 ! D17   D(7,3,4,14)           120.565          calculate D2E/DX2 analytically  !
 ! D18   D(7,3,4,15)          -117.7608         calculate D2E/DX2 analytically  !
 ! D19   D(13,3,4,5)          -118.853          calculate D2E/DX2 analytically  !
 ! D20   D(13,3,4,14)            2.1346         calculate D2E/DX2 analytically  !
 ! D21   D(13,3,4,15)          123.8087         calculate D2E/DX2 analytically  !
 ! D22   D(2,3,7,6)            -82.9994         calculate D2E/DX2 analytically  !
 ! D23   D(2,3,7,8)            170.3867         calculate D2E/DX2 analytically  !
 ! D24   D(2,3,7,17)            36.7581         calculate D2E/DX2 analytically  !
 ! D25   D(4,3,7,6)             36.5029         calculate D2E/DX2 analytically  !
 ! D26   D(4,3,7,8)            -70.111          calculate D2E/DX2 analytically  !
 ! D27   D(4,3,7,17)           156.2605         calculate D2E/DX2 analytically  !
 ! D28   D(13,3,7,6)           155.3            calculate D2E/DX2 analytically  !
 ! D29   D(13,3,7,8)            48.6861         calculate D2E/DX2 analytically  !
 ! D30   D(13,3,7,17)          -84.9424         calculate D2E/DX2 analytically  !
 ! D31   D(3,4,5,6)            -35.6963         calculate D2E/DX2 analytically  !
 ! D32   D(3,4,5,9)             70.6012         calculate D2E/DX2 analytically  !
 ! D33   D(3,4,5,16)          -155.6098         calculate D2E/DX2 analytically  !
 ! D34   D(14,4,5,6)          -157.0714         calculate D2E/DX2 analytically  !
 ! D35   D(14,4,5,9)           -50.7738         calculate D2E/DX2 analytically  !
 ! D36   D(14,4,5,16)           83.0151         calculate D2E/DX2 analytically  !
 ! D37   D(15,4,5,6)            81.5192         calculate D2E/DX2 analytically  !
 ! D38   D(15,4,5,9)          -172.1832         calculate D2E/DX2 analytically  !
 ! D39   D(15,4,5,16)          -38.3943         calculate D2E/DX2 analytically  !
 ! D40   D(4,5,6,7)             59.8065         calculate D2E/DX2 analytically  !
 ! D41   D(9,5,6,7)            -50.3208         calculate D2E/DX2 analytically  !
 ! D42   D(16,5,6,7)          -176.4318         calculate D2E/DX2 analytically  !
 ! D43   D(4,5,9,8)            -73.3396         calculate D2E/DX2 analytically  !
 ! D44   D(4,5,9,19)           100.47           calculate D2E/DX2 analytically  !
 ! D45   D(6,5,9,8)             32.4003         calculate D2E/DX2 analytically  !
 ! D46   D(6,5,9,19)          -153.79           calculate D2E/DX2 analytically  !
 ! D47   D(16,5,9,8)           153.7249         calculate D2E/DX2 analytically  !
 ! D48   D(16,5,9,19)          -32.4654         calculate D2E/DX2 analytically  !
 ! D49   D(5,6,7,3)            -60.2113         calculate D2E/DX2 analytically  !
 ! D50   D(5,6,7,8)             50.2578         calculate D2E/DX2 analytically  !
 ! D51   D(5,6,7,17)           176.4058         calculate D2E/DX2 analytically  !
 ! D52   D(3,7,8,9)             73.9096         calculate D2E/DX2 analytically  !
 ! D53   D(3,7,8,18)          -100.042          calculate D2E/DX2 analytically  !
 ! D54   D(6,7,8,9)            -32.036          calculate D2E/DX2 analytically  !
 ! D55   D(6,7,8,18)           154.0123         calculate D2E/DX2 analytically  !
 ! D56   D(17,7,8,9)          -153.4597         calculate D2E/DX2 analytically  !
 ! D57   D(17,7,8,18)           32.5887         calculate D2E/DX2 analytically  !
 ! D58   D(7,8,9,5)             -0.2486         calculate D2E/DX2 analytically  !
 ! D59   D(7,8,9,19)          -173.7719         calculate D2E/DX2 analytically  !
 ! D60   D(18,8,9,5)           173.4013         calculate D2E/DX2 analytically  !
 ! D61   D(18,8,9,19)           -0.1219         calculate D2E/DX2 analytically  !
 --------------------------------------------------------------------------------
 Trust Radius=3.00D-01 FncErr=1.00D-07 GrdErr=1.00D-07
 Number of steps in this run=      2 maximum allowed number of steps=      2.
 GradGradGradGradGradGradGradGradGradGradGradGradGradGradGradGradGradGrad

                          Input orientation:                          
 ---------------------------------------------------------------------
 Center     Atomic      Atomic             Coordinates (Angstroms)
 Number     Number       Type             X           Y           Z
 ---------------------------------------------------------------------
      1          8           0        1.426650    0.583571   -0.453990
      2          6           0        0.084546    0.353726   -0.045600
      3          6           0       -0.803946    0.397318   -1.281880
      4          6           0       -0.467753   -0.726716   -2.307948
      5          6           0       -1.811857   -1.523303   -2.327833
      6          8           0       -2.220176   -1.414431   -0.955997
      7          6           0       -2.285597    0.017629   -0.930769
      8          6           0       -3.130698    0.322377   -2.162336
      9          6           0       -2.838188   -0.642194   -3.034130
     10          1           0        1.995942    0.476540    0.313548
     11          1           0       -0.026883   -0.628104    0.438600
     12          1           0       -0.244435    1.122377    0.673235
     13          1           0       -0.738835    1.393442   -1.727442
     14          1           0       -0.186312   -0.345793   -3.291368
     15          1           0        0.348016   -1.352227   -1.939551
     16          1           0       -1.747199   -2.568271   -2.628419
     17          1           0       -2.650773    0.369516    0.034521
     18          1           0       -3.740561    1.204546   -2.301212
     19          1           0       -3.151840   -0.745032   -4.064028
 ---------------------------------------------------------------------
                    Distance matrix (angstroms):
                    1          2          3          4          5
     1  O    0.000000
     2  C    1.421568   0.000000
     3  C    2.386556   1.523059   0.000000
     4  C    2.956819   2.567218   1.558619   0.000000
     5  C    4.293966   3.511150   2.408047   1.562550   0.000000
     6  O    4.188480   3.044166   2.322573   2.317695   1.435448
     7  C    3.785286   2.552266   1.569310   2.399006   2.133235
     8  C    4.874022   3.849590   2.488894   2.865846   2.274481
     9  C    5.133076   4.297155   2.879080   2.480614   1.525963
    10  H    0.961594   1.948719   3.223513   3.793397   5.047336
    11  H    2.092280   1.100390   2.148341   2.783454   3.411842
    12  H    2.086498   1.102622   2.158990   3.515177   4.296841
    13  H    2.639488   2.141859   1.093173   2.214846   3.165320
    14  H    3.393535   3.331322   2.229737   1.091525   2.226506
    15  H    2.667894   2.562566   2.195553   1.091998   2.201155
    16  H    4.973487   4.308632   3.390813   2.265173   1.089262
    17  H    4.112158   2.736537   2.268139   3.384444   3.141220
    18  H    5.522492   4.521407   3.211598   3.800144   3.340923
    19  H    5.979978   5.275342   3.815484   3.207565   2.327151
                    6          7          8          9         10
     6  O    0.000000
     7  C    1.433776   0.000000
     8  C    2.302348   1.524410   0.000000
     9  C    2.301506   2.272631   1.332660   0.000000
    10  H    4.791990   4.482242   5.695279   5.985593   0.000000
    11  H    2.715464   2.719178   4.159561   4.468052   2.308181
    12  H    3.604628   2.821283   4.124436   4.856523   2.359188
    13  H    3.267056   2.218113   2.656562   3.202894   3.533462
    14  H    3.276057   3.179859   3.223441   2.680759   4.293470
    15  H    2.750792   3.135293   3.867218   3.442985   3.337140
    16  H    2.086157   3.139868   3.238387   2.250474   5.651296
    17  H    2.085428   1.090396   2.249162   3.236557   4.656314
    18  H    3.313641   2.324609   1.081408   2.182177   6.346214
    19  H    3.312997   3.339063   2.180881   1.081500   6.866955
                   11         12         13         14         15
    11  H    0.000000
    12  H    1.779485   0.000000
    13  H    3.047173   2.466001   0.000000
    14  H    3.744033   4.228118   2.403349   0.000000
    15  H    2.514062   3.647097   2.960563   1.768001   0.000000
    16  H    4.016260   5.174950   4.186135   2.795582   2.518576
    17  H    2.836075   2.601003   2.794360   4.200806   3.981720
    18  H    4.965539   4.590968   3.061904   4.002081   4.835737
    19  H    5.482033   5.863607   3.981872   3.090429   4.138970
                   16         17         18         19
    16  H    0.000000
    17  H    4.066730   0.000000
    18  H    4.279569   2.709347   0.000000
    19  H    2.712598   4.276844   2.693506   0.000000
 Stoichiometry    C7H10O2
 Framework group  C1[X(C7H10O2)]
 Deg. of freedom    51
 Full point group                 C1      NOp   1
 Largest Abelian subgroup         C1      NOp   1
 Largest concise Abelian subgroup C1      NOp   1
                         Standard orientation:                         
 ---------------------------------------------------------------------
 Center     Atomic      Atomic             Coordinates (Angstroms)
 Number     Number       Type             X           Y           Z
 ---------------------------------------------------------------------
      1          8           0       -2.930684    0.298766   -0.353842
      2          6           0       -1.939161   -0.522077    0.249444
      3          6           0       -0.615055   -0.269018   -0.459366
      4          6           0       -0.114567    1.198389   -0.299614
      5          6           0        1.230757    0.972723    0.462451
      6          8           0        0.890609   -0.139095    1.304277
      7          6           0        0.559993   -1.039942    0.238970
      8          6           0        1.777322   -0.921968   -0.670985
      9          6           0        2.199286    0.334108   -0.528855
     10          1           0       -3.746727    0.198525    0.144844
     11          1           0       -1.820566   -0.290954    1.318731
     12          1           0       -2.206448   -1.588359    0.163569
     13          1           0       -0.716936   -0.556547   -1.509117
     14          1           0        0.019028    1.716724   -1.250881
     15          1           0       -0.811838    1.778445    0.308503
     16          1           0        1.592420    1.809973    1.058020
     17          1           0        0.314204   -2.027038    0.631643
     18          1           0        2.125348   -1.684661   -1.354081
     19          1           0        2.980672    0.853244   -1.066978
 ---------------------------------------------------------------------
 Rotational constants (GHZ):      3.7484418      1.2226157      1.1570393
 Standard basis: 6-31G(2df,p) (6D, 7F)
 There are   329 symmetry adapted cartesian basis functions of A   symmetry.
 There are   302 symmetry adapted basis functions of A   symmetry.
   302 basis functions,   466 primitive gaussians,   329 cartesian basis functions
    34 alpha electrons       34 beta electrons
       nuclear repulsion energy       472.7211907349 Hartrees.
 NAtoms=   19 NActive=   19 NUniq=   19 SFac= 1.00D+00 NAtFMM=   60 NAOKFM=F Big=F
 Integral buffers will be    131072 words long.
 Raffenetti 2 integral format.
 Two-electron integral symmetry is turned on.
 One-electron integrals computed using PRISM.
 NBasis=   302 RedAO= T EigKep=  2.63D-04  NBF=   302
 NBsUse=   302 1.00D-06 EigRej= -1.00D+00 NBFU=   302
 Initial guess from the checkpoint file:  "/scratch/puck/g09_98df58df-934a-40e4-8aca-0773adcf0020/Gau-175148.chk"
 B after Tr=     0.000000    0.000000    0.000000
         Rot=    1.000000    0.000000    0.000000    0.000000 Ang=   0.00 deg.
 Requested convergence on RMS density matrix=1.00D-08 within 128 cycles.
 Requested convergence on MAX density matrix=1.00D-06.
 Requested convergence on             energy=1.00D-06.
 No special actions if energy rises.
 SCF Done:  E(RB3LYP) =  -423.177215205     A.U. after    1 cycles
            NFock=  1  Conv=0.80D-08     -V/T= 2.0074
 DoSCS=F DFT=T ScalE2(SS,OS)=  1.000000  1.000000
 Range of M.O.s used for correlation:     1   302
 NBasis=   302 NAE=    34 NBE=    34 NFC=     0 NFV=     0
 NROrb=    302 NOA=    34 NOB=    34 NVA=   268 NVB=   268

 **** Warning!!: The largest alpha MO coefficient is  0.18987316D+02

 Symmetrizing basis deriv contribution to polar:
 IMax=3 JMax=2 DiffMx= 0.00D+00
 G2DrvN: will do    20 centers at a time, making    1 passes.
 Calling FoFCou, ICntrl=  3107 FMM=F I1Cent=   0 AccDes= 0.00D+00.
