 Entering Gaussian System, Link 0=/home/puck/opt/gaussian_09/g09
 Input=dsC7O2H10nsd_5516.com
 Output=dsC7O2H10nsd_5516.log
 Initial command:
 /home/puck/opt/gaussian_09/l1.exe "/scratch/puck/g09_f09ffea0-4600-44f3-a685-5cb081709265/Gau-175111.inp" -scrdir="/scratch/puck/g09_f09ffea0-4600-44f3-a685-5cb081709265/"
 Entering Link 1 = /home/puck/opt/gaussian_09/l1.exe PID=    175118.
  
 Copyright (c) 1988,1990,1992,1993,1995,1998,2003,2009,2013,
            Gaussian, Inc.  All Rights Reserved.
  
 This is part of the Gaussian(R) 09 program.  It is based on
 the Gaussian(R) 03 system (copyright 2003, Gaussian, Inc.),
 the Gaussian(R) 98 system (copyright 1998, Gaussian, Inc.),
 the Gaussian(R) 94 system (copyright 1995, Gaussian, Inc.),
 the Gaussian 92(TM) system (copyright 1992, Gaussian, Inc.),
 the Gaussian 90(TM) system (copyright 1990, Gaussian, Inc.),
 the Gaussian 88(TM) system (copyright 1988, Gaussian, Inc.),
 the Gaussian 86(TM) system (copyright 1986, Carnegie Mellon
 University), and the Gaussian 82(TM) system (copyright 1983,
 Carnegie Mellon University). Gaussian is a federally registered
 trademark of Gaussian, Inc.
  
 This software contains proprietary and confidential information,
 including trade secrets, belonging to Gaussian, Inc.
  
 This software is provided under written license and may be
 used, copied, transmitted, or stored only in accord with that
 written license.
  
 The following legend is applicable only to US Government
 contracts under FAR:
  
                    RESTRICTED RIGHTS LEGEND
  
 Use, reproduction and disclosure by the US Government is
 subject to restrictions as set forth in subparagraphs (a)
 and (c) of the Commercial Computer Software - Restricted
 Rights clause in FAR 52.227-19.
  
 Gaussian, Inc.
 340 Quinnipiac St., Bldg. 40, Wallingford CT 06492
  
  
 ---------------------------------------------------------------
 Warning -- This program may not be used in any manner that
 competes with the business of Gaussian, Inc. or will provide
 assistance to any competitor of Gaussian, Inc.  The licensee
 of this program is prohibited from giving any competitor of
 Gaussian, Inc. access to this program.  By using this program,
 the user acknowledges that Gaussian, Inc. is engaged in the
 business of creating and licensing software in the field of
 computational chemistry and represents and warrants to the
 licensee that it is not a competitor of Gaussian, Inc. and that
 it will not use this program in any manner prohibited above.
 ---------------------------------------------------------------
  

 Cite this work as:
 Gaussian 09, Revision D.01,
 M. J. Frisch, G. W. Trucks, H. B. Schlegel, G. E. Scuseria, 
 M. A. Robb, J. R. Cheeseman, G. Scalmani, V. Barone, B. Mennucci, 
 G. A. Petersson, H. Nakatsuji, M. Caricato, X. Li, H. P. Hratchian, 
 A. F. Izmaylov, J. Bloino, G. Zheng, J. L. Sonnenberg, M. Hada, 
 M. Ehara, K. Toyota, R. Fukuda, J. Hasegawa, M. Ishida, T. Nakajima, 
 Y. Honda, O. Kitao, H. Nakai, T. Vreven, J. A. Montgomery, Jr., 
 J. E. Peralta, F. Ogliaro, M. Bearpark, J. J. Heyd, E. Brothers, 
 K. N. Kudin, V. N. Staroverov, T. Keith, R. Kobayashi, J. Normand, 
 K. Raghavachari, A. Rendell, J. C. Burant, S. S. Iyengar, J. Tomasi, 
 M. Cossi, N. Rega, J. M. Millam, M. Klene, J. E. Knox, J. B. Cross, 
 V. Bakken, C. Adamo, J. Jaramillo, R. Gomperts, R. E. Stratmann, 
 O. Yazyev, A. J. Austin, R. Cammi, C. Pomelli, J. W. Ochterski, 
 R. L. Martin, K. Morokuma, V. G. Zakrzewski, G. A. Voth, 
 P. Salvador, J. J. Dannenberg, S. Dapprich, A. D. Daniels, 
 O. Farkas, J. B. Foresman, J. V. Ortiz, J. Cioslowski, 
 and D. J. Fox, Gaussian, Inc., Wallingford CT, 2013.
 
 ******************************************
 Gaussian 09:  ES64L-G09RevD.01 24-Apr-2013
                31-Jan-2020 
 ******************************************
 -----------------------------
 # b3lyp 6-31G(2df,p) opt Freq
 -----------------------------
 1/14=-1,18=20,19=15,26=3,38=1/1,3;
 2/9=110,12=2,17=6,18=5,40=1/2;
 3/5=1,6=6,7=104,11=2,16=1,25=1,30=1,71=1,74=-5/1,2,3;
 4//1;
 5/5=2,38=5/2;
 6/7=2,8=2,9=2,10=2,28=1/1;
 7//1,2,3,16;
 1/14=-1,18=20,19=15,26=3/3(2);
 2/9=110/2;
 99//99;
 2/9=110/2;
 3/5=1,6=6,7=104,11=2,16=1,25=1,30=1,71=1,74=-5/1,2,3;
 4/5=5,16=3,69=1/1;
 5/5=2,38=5/2;
 7//1,2,3,16;
 1/14=-1,18=20,19=15,26=3/3(-5);
 2/9=110/2;
 6/7=2,8=2,9=2,10=2,19=2,28=1/1;
 99/9=1/99;
 -----
 titel
 -----
 Symbolic Z-matrix:
 Charge =  0 Multiplicity = 1
 C                     1.50315  -0.30888   0.06762 
 O                     0.1653    0.1284   -0.06679 
 C                    -0.38275   0.64332   1.10115 
 C                    -1.92087   0.90129   1.00758 
 O                    -1.62904   2.11506   0.25729 
 C                    -0.4972    2.23488   1.18509 
 C                     0.57682   3.18856   0.75198 
 C                    -1.21349   2.35238   2.53514 
 C                    -2.18556   1.44083   2.41663 
 H                     1.59854  -1.08288   0.84389 
 H                     1.79914  -0.73353  -0.89417 
 H                     2.18654   0.51576   0.31461 
 H                    -0.00947   0.12343   1.99364 
 H                    -2.61156   0.21433   0.52196 
 H                     1.37703   3.23886   1.49738 
 H                     1.00033   2.86939  -0.20388 
 H                     0.16289   4.19385   0.62421 
 H                    -0.93241   2.98214   3.36735 
 H                    -2.93391   1.10695   3.1202 
 

 GradGradGradGradGradGradGradGradGradGradGradGradGradGradGradGradGradGrad
 Berny optimization.
 Initialization pass.
                           ----------------------------
                           !    Initial Parameters    !
                           ! (Angstroms and Degrees)  !
 --------------------------                            --------------------------
 ! Name  Definition              Value          Derivative Info.                !
 --------------------------------------------------------------------------------
 ! R1    R(1,2)                  1.4139         estimate D2E/DX2                !
 ! R2    R(1,10)                 1.1003         estimate D2E/DX2                !
 ! R3    R(1,11)                 1.0922         estimate D2E/DX2                !
 ! R4    R(1,12)                 1.0991         estimate D2E/DX2                !
 ! R5    R(2,3)                  1.3891         estimate D2E/DX2                !
 ! R6    R(3,4)                  1.5624         estimate D2E/DX2                !
 ! R7    R(3,6)                  1.5979         estimate D2E/DX2                !
 ! R8    R(3,13)                 1.0982         estimate D2E/DX2                !
 ! R9    R(4,5)                  1.4565         estimate D2E/DX2                !
 ! R10   R(4,9)                  1.5319         estimate D2E/DX2                !
 ! R11   R(4,14)                 1.0885         estimate D2E/DX2                !
 ! R12   R(5,6)                  1.4684         estimate D2E/DX2                !
 ! R13   R(6,7)                  1.5002         estimate D2E/DX2                !
 ! R14   R(6,8)                  1.5328         estimate D2E/DX2                !
 ! R15   R(7,15)                 1.0948         estimate D2E/DX2                !
 ! R16   R(7,16)                 1.0931         estimate D2E/DX2                !
 ! R17   R(7,17)                 1.0947         estimate D2E/DX2                !
 ! R18   R(8,9)                  1.3379         estimate D2E/DX2                !
 ! R19   R(8,18)                 1.0808         estimate D2E/DX2                !
 ! R20   R(9,19)                 1.0801         estimate D2E/DX2                !
 ! A1    A(2,1,10)             111.5083         estimate D2E/DX2                !
 ! A2    A(2,1,11)             107.0343         estimate D2E/DX2                !
 ! A3    A(2,1,12)             112.1875         estimate D2E/DX2                !
 ! A4    A(10,1,11)            108.9201         estimate D2E/DX2                !
 ! A5    A(10,1,12)            108.3804         estimate D2E/DX2                !
 ! A6    A(11,1,12)            108.7289         estimate D2E/DX2                !
 ! A7    A(1,2,3)              114.081          estimate D2E/DX2                !
 ! A8    A(2,3,4)              113.5316         estimate D2E/DX2                !
 ! A9    A(2,3,6)              116.2091         estimate D2E/DX2                !
 ! A10   A(2,3,13)             111.9437         estimate D2E/DX2                !
 ! A11   A(4,3,6)               76.5954         estimate D2E/DX2                !
 ! A12   A(4,3,13)             117.4793         estimate D2E/DX2                !
 ! A13   A(6,3,13)             116.9467         estimate D2E/DX2                !
 ! A14   A(3,4,5)               88.3492         estimate D2E/DX2                !
 ! A15   A(3,4,9)               99.9721         estimate D2E/DX2                !
 ! A16   A(3,4,14)             123.1745         estimate D2E/DX2                !
 ! A17   A(5,4,9)              102.4123         estimate D2E/DX2                !
 ! A18   A(5,4,14)             115.0406         estimate D2E/DX2                !
 ! A19   A(9,4,14)             121.5357         estimate D2E/DX2                !
 ! A20   A(4,5,6)               84.0855         estimate D2E/DX2                !
 ! A21   A(3,6,5)               86.6027         estimate D2E/DX2                !
 ! A22   A(3,6,7)              124.5235         estimate D2E/DX2                !
 ! A23   A(3,6,8)               98.9805         estimate D2E/DX2                !
 ! A24   A(5,6,7)              114.9153         estimate D2E/DX2                !
 ! A25   A(5,6,8)              101.687          estimate D2E/DX2                !
 ! A26   A(7,6,8)              122.6903         estimate D2E/DX2                !
 ! A27   A(6,7,15)             110.8507         estimate D2E/DX2                !
 ! A28   A(6,7,16)             110.1337         estimate D2E/DX2                !
 ! A29   A(6,7,17)             110.2913         estimate D2E/DX2                !
 ! A30   A(15,7,16)            109.002          estimate D2E/DX2                !
 ! A31   A(15,7,17)            108.2809         estimate D2E/DX2                !
 ! A32   A(16,7,17)            108.215          estimate D2E/DX2                !
 ! A33   A(6,8,9)              102.0805         estimate D2E/DX2                !
 ! A34   A(6,8,18)             126.9638         estimate D2E/DX2                !
 ! A35   A(9,8,18)             130.8559         estimate D2E/DX2                !
 ! A36   A(4,9,8)              101.2982         estimate D2E/DX2                !
 ! A37   A(4,9,19)             127.5923         estimate D2E/DX2                !
 ! A38   A(8,9,19)             131.0227         estimate D2E/DX2                !
 ! D1    D(10,1,2,3)            58.1828         estimate D2E/DX2                !
 ! D2    D(11,1,2,3)           177.2116         estimate D2E/DX2                !
 ! D3    D(12,1,2,3)           -63.6032         estimate D2E/DX2                !
 ! D4    D(1,2,3,4)           -170.4108         estimate D2E/DX2                !
 ! D5    D(1,2,3,6)            103.4577         estimate D2E/DX2                !
 ! D6    D(1,2,3,13)           -34.5183         estimate D2E/DX2                !
 ! D7    D(2,3,4,5)            -77.9217         estimate D2E/DX2                !
 ! D8    D(2,3,4,9)            179.7644         estimate D2E/DX2                !
 ! D9    D(2,3,4,14)            41.2252         estimate D2E/DX2                !
 ! D10   D(6,3,4,5)             35.121          estimate D2E/DX2                !
 ! D11   D(6,3,4,9)            -67.1929         estimate D2E/DX2                !
 ! D12   D(6,3,4,14)           154.2679         estimate D2E/DX2                !
 ! D13   D(13,3,4,5)           148.7706         estimate D2E/DX2                !
 ! D14   D(13,3,4,9)            46.4568         estimate D2E/DX2                !
 ! D15   D(13,3,4,14)          -92.0824         estimate D2E/DX2                !
 ! D16   D(2,3,6,5)             75.0386         estimate D2E/DX2                !
 ! D17   D(2,3,6,7)            -43.086          estimate D2E/DX2                !
 ! D18   D(2,3,6,8)            176.3451         estimate D2E/DX2                !
 ! D19   D(4,3,6,5)            -34.8477         estimate D2E/DX2                !
 ! D20   D(4,3,6,7)           -152.9723         estimate D2E/DX2                !
 ! D21   D(4,3,6,8)             66.4588         estimate D2E/DX2                !
 ! D22   D(13,3,6,5)          -149.1138         estimate D2E/DX2                !
 ! D23   D(13,3,6,7)            92.7616         estimate D2E/DX2                !
 ! D24   D(13,3,6,8)           -47.8073         estimate D2E/DX2                !
 ! D25   D(3,4,5,6)            -37.751          estimate D2E/DX2                !
 ! D26   D(9,4,5,6)             62.0975         estimate D2E/DX2                !
 ! D27   D(14,4,5,6)          -163.9609         estimate D2E/DX2                !
 ! D28   D(3,4,9,8)             48.337          estimate D2E/DX2                !
 ! D29   D(3,4,9,19)          -128.5572         estimate D2E/DX2                !
 ! D30   D(5,4,9,8)            -42.1641         estimate D2E/DX2                !
 ! D31   D(5,4,9,19)           140.9416         estimate D2E/DX2                !
 ! D32   D(14,4,9,8)          -172.2209         estimate D2E/DX2                !
 ! D33   D(14,4,9,19)           10.8848         estimate D2E/DX2                !
 ! D34   D(4,5,6,3)             36.8304         estimate D2E/DX2                !
 ! D35   D(4,5,6,7)            163.5877         estimate D2E/DX2                !
 ! D36   D(4,5,6,8)            -61.6461         estimate D2E/DX2                !
 ! D37   D(3,6,7,15)           -77.0497         estimate D2E/DX2                !
 ! D38   D(3,6,7,16)            43.6628         estimate D2E/DX2                !
 ! D39   D(3,6,7,17)           163.0368         estimate D2E/DX2                !
 ! D40   D(5,6,7,15)           179.0507         estimate D2E/DX2                !
 ! D41   D(5,6,7,16)           -60.2368         estimate D2E/DX2                !
 ! D42   D(5,6,7,17)            59.1372         estimate D2E/DX2                !
 ! D43   D(8,6,7,15)            54.7533         estimate D2E/DX2                !
 ! D44   D(8,6,7,16)           175.4658         estimate D2E/DX2                !
 ! D45   D(8,6,7,17)           -65.1601         estimate D2E/DX2                !
 ! D46   D(3,6,8,9)            -46.5756         estimate D2E/DX2                !
 ! D47   D(3,6,8,18)           130.0968         estimate D2E/DX2                !
 ! D48   D(5,6,8,9)             41.787          estimate D2E/DX2                !
 ! D49   D(5,6,8,18)          -141.5406         estimate D2E/DX2                !
 ! D50   D(7,6,8,9)            171.8711         estimate D2E/DX2                !
 ! D51   D(7,6,8,18)           -11.4565         estimate D2E/DX2                !
 ! D52   D(6,8,9,4)             -0.0964         estimate D2E/DX2                !
 ! D53   D(6,8,9,19)           176.6416         estimate D2E/DX2                !
 ! D54   D(18,8,9,4)          -176.5808         estimate D2E/DX2                !
 ! D55   D(18,8,9,19)            0.1572         estimate D2E/DX2                !
 --------------------------------------------------------------------------------
 Trust Radius=3.00D-01 FncErr=1.00D-07 GrdErr=1.00D-06
 Number of steps in this run=    114 maximum allowed number of steps=    114.
 GradGradGradGradGradGradGradGradGradGradGradGradGradGradGradGradGradGrad

                          Input orientation:                          
 ---------------------------------------------------------------------
 Center     Atomic      Atomic             Coordinates (Angstroms)
 Number     Number       Type             X           Y           Z
 ---------------------------------------------------------------------
      1          6           0        1.503152   -0.308884    0.067622
      2          8           0        0.165304    0.128400   -0.066791
      3          6           0       -0.382747    0.643318    1.101154
      4          6           0       -1.920872    0.901290    1.007584
      5          8           0       -1.629037    2.115057    0.257289
      6          6           0       -0.497200    2.234879    1.185093
      7          6           0        0.576818    3.188561    0.751979
      8          6           0       -1.213491    2.352384    2.535138
      9          6           0       -2.185556    1.440831    2.416631
     10          1           0        1.598536   -1.082884    0.843888
     11          1           0        1.799136   -0.733533   -0.894166
     12          1           0        2.186543    0.515760    0.314615
     13          1           0       -0.009471    0.123435    1.993638
     14          1           0       -2.611559    0.214326    0.521960
     15          1           0        1.377032    3.238861    1.497377
     16          1           0        1.000333    2.869391   -0.203875
     17          1           0        0.162893    4.193853    0.624207
     18          1           0       -0.932412    2.982143    3.367345
     19          1           0       -2.933908    1.106953    3.120202
 ---------------------------------------------------------------------
                    Distance matrix (angstroms):
                    1          2          3          4          5
     1  C    0.000000
     2  O    1.413903   0.000000
     3  C    2.351913   1.389099   0.000000
     4  C    3.751265   2.470581   1.562412   0.000000
     5  O    3.965107   2.696571   2.105079   1.456482   0.000000
     6  C    3.423577   2.538381   1.597876   1.958778   1.468412
     7  C    3.682195   3.194419   2.742435   3.396380   2.502584
     8  C    4.533335   3.690151   2.380620   2.222495   2.327573
     9  C    4.710192   3.662841   2.369942   1.531853   2.329603
    10  H    1.100347   2.085833   2.640349   4.043510   4.581283
    11  H    1.092231   2.024076   3.261539   4.486397   4.603551
    12  H    1.099120   2.093066   2.690012   4.183264   4.137594
    13  H    2.486858   2.067834   1.098245   2.287098   3.099106
    14  H    4.172652   2.839891   2.342457   1.088485   2.155963
    15  H    3.827088   3.686445   3.160800   4.071892   3.440524
    16  H    3.229237   2.868641   2.927697   3.724848   2.774037
    17  H    4.730827   4.123760   3.623741   3.915358   2.768942
    18  H    5.258422   4.598056   3.302704   3.297798   3.302964
    19  H    5.568693   4.551879   3.286325   2.351955   3.303820
                    6          7          8          9         10
     6  C    0.000000
     7  C    1.500204   0.000000
     8  C    1.532808   2.661588   0.000000
     9  C    2.235564   3.668288   1.337866   0.000000
    10  H    3.939045   4.392903   4.750672   4.812692   0.000000
    11  H    4.290448   4.425684   5.509893   5.618452   1.784129
    12  H    3.303873   3.150614   4.456920   4.938570   1.783688
    13  H    2.312968   3.358638   2.590580   2.578721   2.315775
    14  H    2.998815   4.366318   3.252502   2.296861   4.417159
    15  H    2.149010   1.094756   2.928070   4.095115   4.376482
    16  H    2.138795   1.093111   3.559565   4.365516   4.132328
    17  H    2.141938   1.094656   2.989497   4.038209   5.472960
    18  H    2.347347   3.026636   1.080819   2.202242   5.412761
    19  H    3.309745   4.718768   2.203006   1.080054   5.524494
                   11         12         13         14         15
    11  H    0.000000
    12  H    1.781002   0.000000
    13  H    3.513525   2.792044   0.000000
    14  H    4.728433   4.812030   2.990813   0.000000
    15  H    4.655917   3.077258   3.445946   5.099814   0.000000
    16  H    3.754417   2.686169   3.659104   4.541142   1.781199
    17  H    5.409425   4.209439   4.298064   4.852285   1.774421
    18  H    6.279178   5.012992   3.303196   4.310053   2.982652
    19  H    6.473348   5.868547   3.284629   2.766144   5.075706
                   16         17         18         19
    16  H    0.000000
    17  H    1.772351   0.000000
    18  H    4.062245   3.192607   0.000000
    19  H    5.443706   5.034791   2.753798   0.000000
 Stoichiometry    C7H10O2
 Framework group  C1[X(C7H10O2)]
 Deg. of freedom    51
 Full point group                 C1      NOp   1
 Largest Abelian subgroup         C1      NOp   1
 Largest concise Abelian subgroup C1      NOp   1
                         Standard orientation:                         
 ---------------------------------------------------------------------
 Center     Atomic      Atomic             Coordinates (Angstroms)
 Number     Number       Type             X           Y           Z
 ---------------------------------------------------------------------
      1          6           0       -2.745708   -0.211434   -0.430593
      2          8           0       -1.635576   -0.580248    0.363576
      3          6           0       -0.421516   -0.550958   -0.310810
      4          6           0        0.756678   -1.182619    0.497890
      5          8           0        0.822498    0.044611    1.279499
      6          6           0        0.527173    0.697255   -0.002325
      7          6           0        0.055714    2.117375    0.105355
      8          6           0        1.740746    0.289503   -0.845223
      9          6           0        1.898220   -0.995092   -0.506248
     10          1           0       -2.844553   -0.861757   -1.312678
     11          1           0       -3.635840   -0.322192    0.192597
     12          1           0       -2.682599    0.830836   -0.773749
     13          1           0       -0.529383   -0.845992   -1.363171
     14          1           0        0.656237   -2.095808    1.081666
     15          1           0       -0.128218    2.543139   -0.886303
     16          1           0       -0.867013    2.164229    0.689539
     17          1           0        0.810342    2.730827    0.607835
     18          1           0        2.267090    0.900484   -1.564830
     19          1           0        2.590721   -1.742844   -0.863774
 ---------------------------------------------------------------------
 Rotational constants (GHZ):      2.7360831      1.5070000      1.2420843
 Standard basis: 6-31G(2df,p) (6D, 7F)
 There are   329 symmetry adapted cartesian basis functions of A   symmetry.
 There are   302 symmetry adapted basis functions of A   symmetry.
   302 basis functions,   466 primitive gaussians,   329 cartesian basis functions
    34 alpha electrons       34 beta electrons
       nuclear repulsion energy       474.2511262052 Hartrees.
 NAtoms=   19 NActive=   19 NUniq=   19 SFac= 1.00D+00 NAtFMM=   60 NAOKFM=F Big=F
 Integral buffers will be    131072 words long.
 Raffenetti 2 integral format.
 Two-electron integral symmetry is turned on.
 One-electron integrals computed using PRISM.
 NBasis=   302 RedAO= T EigKep=  2.16D-04  NBF=   302
 NBsUse=   302 1.00D-06 EigRej= -1.00D+00 NBFU=   302
 ExpMin= 1.61D-01 ExpMax= 5.48D+03 ExpMxC= 8.25D+02 IAcc=1 IRadAn=         1 AccDes= 0.00D+00
 Harris functional with IExCor=  402 and IRadAn=       1 diagonalized for initial guess.
 HarFok:  IExCor=  402 AccDes= 0.00D+00 IRadAn=         1 IDoV= 1 UseB2=F ITyADJ=14
 ICtDFT=  3500011 ScaDFX=  1.000000  1.000000  1.000000  1.000000
 FoFCou: FMM=F IPFlag=           0 FMFlag=      100000 FMFlg1=           0
         NFxFlg=           0 DoJE=T BraDBF=F KetDBF=T FulRan=T
         wScrn=  0.000000 ICntrl=     500 IOpCl=  0 I1Cent=   200000004 NGrid=           0
         NMat0=    1 NMatS0=      1 NMatT0=    0 NMatD0=    1 NMtDS0=    0 NMtDT0=    0
 Petite list used in FoFCou.
 Requested convergence on RMS density matrix=1.00D-08 within 128 cycles.
 Requested convergence on MAX density matrix=1.00D-06.
 Requested convergence on             energy=1.00D-06.
 No special actions if energy rises.
 Integral accuracy reduced to 1.0D-05 until final iterations.
 Initial convergence to 1.0D-05 achieved.  Increase integral accuracy.
 SCF Done:  E(RB3LYP) =  -423.127195242     A.U. after   13 cycles
            NFock= 13  Conv=0.63D-08     -V/T= 2.0073

 **********************************************************************

            Population analysis using the SCF density.

 **********************************************************************

 Orbital symmetries:
       Occupied  (A) (A) (A) (A) (A) (A) (A) (A) (A) (A) (A) (A)
                 (A) (A) (A) (A) (A) (A) (A) (A) (A) (A) (A) (A)
                 (A) (A) (A) (A) (A) (A) (A) (A) (A) (A)
       Virtual   (A) (A) (A) (A) (A) (A) (A) (A) (A) (A) (A) (A)
                 (A) (A) (A) (A) (A) (A) (A) (A) (A) (A) (A) (A)
                 (A) (A) (A) (A) (A) (A) (A) (A) (A) (A) (A) (A)
                 (A) (A) (A) (A) (A) (A) (A) (A) (A) (A) (A) (A)
                 (A) (A) (A) (A) (A) (A) (A) (A) (A) (A) (A) (A)
                 (A) (A) (A) (A) (A) (A) (A) (A) (A) (A) (A) (A)
                 (A) (A) (A) (A) (A) (A) (A) (A) (A) (A) (A) (A)
                 (A) (A) (A) (A) (A) (A) (A) (A) (A) (A) (A) (A)
                 (A) (A) (A) (A) (A) (A) (A) (A) (A) (A) (A) (A)
                 (A) (A) (A) (A) (A) (A) (A) (A) (A) (A) (A) (A)
                 (A) (A) (A) (A) (A) (A) (A) (A) (A) (A) (A) (A)
                 (A) (A) (A) (A) (A) (A) (A) (A) (A) (A) (A) (A)
                 (A) (A) (A) (A) (A) (A) (A) (A) (A) (A) (A) (A)
                 (A) (A) (A) (A) (A) (A) (A) (A) (A) (A) (A) (A)
                 (A) (A) (A) (A) (A) (A) (A) (A) (A) (A) (A) (A)
                 (A) (A) (A) (A) (A) (A) (A) (A) (A) (A) (A) (A)
                 (A) (A) (A) (A) (A) (A) (A) (A) (A) (A) (A) (A)
                 (A) (A) (A) (A) (A) (A) (A) (A) (A) (A) (A) (A)
                 (A) (A) (A) (A) (A) (A) (A) (A) (A) (A) (A) (A)
                 (A) (A) (A) (A) (A) (A) (A) (A) (A) (A) (A) (A)
                 (A) (A) (A) (A) (A) (A) (A) (A) (A) (A) (A) (A)
                 (A) (A) (A) (A) (A) (A) (A) (A) (A) (A) (A) (A)
                 (A) (A) (A) (A)
 The electronic state is 1-A.
 Alpha  occ. eigenvalues --  -19.14771 -19.12124 -10.23963 -10.23796 -10.23498
 Alpha  occ. eigenvalues --  -10.23008 -10.18438 -10.18308 -10.17957  -1.05859
 Alpha  occ. eigenvalues --   -1.02434  -0.80313  -0.75090  -0.72555  -0.65767
 Alpha  occ. eigenvalues --   -0.64251  -0.55124  -0.54124  -0.50122  -0.49256
 Alpha  occ. eigenvalues --   -0.46884  -0.46257  -0.42999  -0.42134  -0.41013
 Alpha  occ. eigenvalues --   -0.38085  -0.37761  -0.35069  -0.34705  -0.33974
 Alpha  occ. eigenvalues --   -0.30704  -0.25876  -0.24305  -0.23469
 Alpha virt. eigenvalues --    0.00381   0.08618   0.10628   0.12132   0.12430
 Alpha virt. eigenvalues --    0.13839   0.14316   0.15098   0.16022   0.16463
 Alpha virt. eigenvalues --    0.17639   0.17920   0.18157   0.19095   0.21926
 Alpha virt. eigenvalues --    0.23454   0.24256   0.27753   0.29484   0.30109
 Alpha virt. eigenvalues --    0.38740   0.41101   0.42357   0.44429   0.46230
 Alpha virt. eigenvalues --    0.46755   0.49687   0.50580   0.52381   0.53421
 Alpha virt. eigenvalues --    0.54109   0.56237   0.56440   0.58125   0.59805
 Alpha virt. eigenvalues --    0.61980   0.64519   0.65116   0.68164   0.68911
 Alpha virt. eigenvalues --    0.70029   0.71601   0.72457   0.73715   0.73990
 Alpha virt. eigenvalues --    0.74453   0.76265   0.77527   0.78754   0.80640
 Alpha virt. eigenvalues --    0.81428   0.82904   0.84779   0.86529   0.88112
 Alpha virt. eigenvalues --    0.88729   0.89192   0.91895   0.93100   0.95966
 Alpha virt. eigenvalues --    0.97704   0.99382   1.01415   1.09443   1.11082
 Alpha virt. eigenvalues --    1.13401   1.15655   1.16765   1.20212   1.22072
 Alpha virt. eigenvalues --    1.24691   1.27651   1.29891   1.31408   1.33509
 Alpha virt. eigenvalues --    1.35541   1.37056   1.40880   1.40947   1.42911
 Alpha virt. eigenvalues --    1.44980   1.46213   1.47706   1.48533   1.52187
 Alpha virt. eigenvalues --    1.52825   1.54935   1.55209   1.57233   1.59067
 Alpha virt. eigenvalues --    1.61570   1.64025   1.66085   1.67926   1.69663
 Alpha virt. eigenvalues --    1.71592   1.75390   1.76696   1.78329   1.80828
 Alpha virt. eigenvalues --    1.82574   1.83641   1.87852   1.89147   1.93282
 Alpha virt. eigenvalues --    1.94334   1.95269   1.97973   1.99007   2.09176
 Alpha virt. eigenvalues --    2.15903   2.17821   2.21913   2.29765   2.31330
 Alpha virt. eigenvalues --    2.33431   2.34785   2.36718   2.40653   2.41788
 Alpha virt. eigenvalues --    2.42990   2.48270   2.49494   2.51182   2.55500
 Alpha virt. eigenvalues --    2.58696   2.64227   2.68291   2.73151   2.74282
 Alpha virt. eigenvalues --    2.75040   2.76954   2.78604   2.79519   2.83058
 Alpha virt. eigenvalues --    2.83964   2.86290   2.87350   2.88307   2.91543
 Alpha virt. eigenvalues --    2.92699   2.94159   2.95115   2.98899   3.00743
 Alpha virt. eigenvalues --    3.02849   3.04824   3.07165   3.10347   3.12911
 Alpha virt. eigenvalues --    3.14207   3.15929   3.16465   3.18309   3.20197
 Alpha virt. eigenvalues --    3.24226   3.26193   3.27763   3.32372   3.35231
 Alpha virt. eigenvalues --    3.39026   3.39869   3.42111   3.45163   3.47134
 Alpha virt. eigenvalues --    3.50329   3.50907   3.52024   3.54157   3.55994
 Alpha virt. eigenvalues --    3.65646   3.66607   3.67709   3.72813   3.75621
 Alpha virt. eigenvalues --    3.79169   3.80397   3.86982   3.88276   3.89426
 Alpha virt. eigenvalues --    3.92077   3.94034   3.98491   4.03539   4.07692
 Alpha virt. eigenvalues --    4.12312   4.14594   4.17828   4.19393   4.21264
 Alpha virt. eigenvalues --    4.28322   4.31628   4.33911   4.35848   4.36874
 Alpha virt. eigenvalues --    4.39805   4.40791   4.44001   4.44975   4.48430
 Alpha virt. eigenvalues --    4.49383   4.50823   4.50975   4.53468   4.54931
 Alpha virt. eigenvalues --    4.56584   4.59016   4.61036   4.62474   4.64168
 Alpha virt. eigenvalues --    4.65070   4.68241   4.70382   4.70647   4.73048
 Alpha virt. eigenvalues --    4.73228   4.74826   4.77009   4.78445   4.80560
 Alpha virt. eigenvalues --    4.82755   4.86903   4.88224   4.88709   4.92170
 Alpha virt. eigenvalues --    4.94303   4.99701   5.02961   5.08308   5.12705
 Alpha virt. eigenvalues --    5.16984   5.23896   5.25613   5.29845   5.34101
 Alpha virt. eigenvalues --    5.35413   5.39593   5.42432   5.49245   5.52732
 Alpha virt. eigenvalues --    5.53579   5.62697   5.67780   5.69099   5.73163
 Alpha virt. eigenvalues --    5.84562   5.88299   5.92468   5.95593   6.02605
 Alpha virt. eigenvalues --    6.04805   6.11969   6.15077   6.21010   6.26929
 Alpha virt. eigenvalues --    6.55351   7.18382   7.26365   7.42898  10.38017
 Alpha virt. eigenvalues --   11.22155  11.26738  11.34296  11.81606  12.37952
 Alpha virt. eigenvalues --   12.73254  13.55558  13.81124
          Condensed to atoms (all electrons):
               1          2          3          4          5          6
     1  C    4.843351   0.373425  -0.088437   0.005128  -0.000012   0.000339
     2  O    0.373425   7.652759   0.377598  -0.005422  -0.002434  -0.030812
     3  C   -0.088437   0.377598   4.881445   0.321029  -0.088732   0.330022
     4  C    0.005128  -0.005422   0.321029   4.892396   0.305181  -0.118461
     5  O   -0.000012  -0.002434  -0.088732   0.305181   7.954441   0.302967
     6  C    0.000339  -0.030812   0.330022  -0.118461   0.302967   4.605700
     7  C    0.000932   0.000249  -0.054960   0.008710  -0.043717   0.370644
     8  C   -0.000487   0.001640  -0.062447   0.005167  -0.056559   0.299526
     9  C   -0.000252   0.000431  -0.051843   0.327954  -0.047745   0.007915
    10  H    0.368922  -0.030604  -0.008190   0.000339  -0.000012  -0.001131
    11  H    0.386762  -0.019994   0.003946  -0.000196   0.000015  -0.000019
    12  H    0.367346  -0.034097   0.002830  -0.000428   0.000058   0.003565
    13  H   -0.009740  -0.037979   0.317611  -0.037669   0.007507  -0.044223
    14  H   -0.000073   0.000503  -0.033295   0.369087  -0.023160   0.006413
    15  H   -0.000214  -0.000102   0.000715  -0.000372   0.002303  -0.012342
    16  H    0.000443   0.005915  -0.006669   0.000047   0.000473  -0.011266
    17  H    0.000015  -0.000043   0.004055   0.000284   0.000202  -0.008784
    18  H   -0.000005  -0.000017   0.003435   0.006450   0.002108  -0.040714
    19  H    0.000002  -0.000004   0.003033  -0.042358   0.001979   0.005634
               7          8          9         10         11         12
     1  C    0.000932  -0.000487  -0.000252   0.368922   0.386762   0.367346
     2  O    0.000249   0.001640   0.000431  -0.030604  -0.019994  -0.034097
     3  C   -0.054960  -0.062447  -0.051843  -0.008190   0.003946   0.002830
     4  C    0.008710   0.005167   0.327954   0.000339  -0.000196  -0.000428
     5  O   -0.043717  -0.056559  -0.047745  -0.000012   0.000015   0.000058
     6  C    0.370644   0.299526   0.007915  -0.001131  -0.000019   0.003565
     7  C    5.229546  -0.067132   0.009703   0.000081  -0.000045   0.000294
     8  C   -0.067132   5.021229   0.643143   0.000043   0.000009  -0.000217
     9  C    0.009703   0.643143   4.920709   0.000010  -0.000002   0.000033
    10  H    0.000081   0.000043   0.000010   0.630322  -0.033144  -0.050272
    11  H   -0.000045   0.000009  -0.000002  -0.033144   0.566310  -0.036598
    12  H    0.000294  -0.000217   0.000033  -0.050272  -0.036598   0.637936
    13  H    0.001548   0.009962   0.010802   0.013524   0.000071  -0.000992
    14  H   -0.000717   0.006637  -0.048749  -0.000024   0.000005   0.000016
    15  H    0.353676  -0.000150  -0.000132   0.000004   0.000001   0.000876
    16  H    0.358419   0.004820   0.000036   0.000145   0.000072  -0.001258
    17  H    0.358600  -0.002652  -0.000418  -0.000002  -0.000001   0.000017
    18  H   -0.003221   0.369253  -0.050042  -0.000001   0.000000   0.000004
    19  H   -0.000160  -0.043522   0.370630   0.000000   0.000000   0.000000
              13         14         15         16         17         18
     1  C   -0.009740  -0.000073  -0.000214   0.000443   0.000015  -0.000005
     2  O   -0.037979   0.000503  -0.000102   0.005915  -0.000043  -0.000017
     3  C    0.317611  -0.033295   0.000715  -0.006669   0.004055   0.003435
     4  C   -0.037669   0.369087  -0.000372   0.000047   0.000284   0.006450
     5  O    0.007507  -0.023160   0.002303   0.000473   0.000202   0.002108
     6  C   -0.044223   0.006413  -0.012342  -0.011266  -0.008784  -0.040714
     7  C    0.001548  -0.000717   0.353676   0.358419   0.358600  -0.003221
     8  C    0.009962   0.006637  -0.000150   0.004820  -0.002652   0.369253
     9  C    0.010802  -0.048749  -0.000132   0.000036  -0.000418  -0.050042
    10  H    0.013524  -0.000024   0.000004   0.000145  -0.000002  -0.000001
    11  H    0.000071   0.000005   0.000001   0.000072  -0.000001   0.000000
    12  H   -0.000992   0.000016   0.000876  -0.001258   0.000017   0.000004
    13  H    0.703610   0.001191   0.000403   0.000427  -0.000144  -0.000104
    14  H    0.001191   0.640336   0.000010  -0.000028   0.000023  -0.000118
    15  H    0.000403   0.000010   0.595839  -0.029974  -0.028952   0.001241
    16  H    0.000427  -0.000028  -0.029974   0.571811  -0.031380  -0.000135
    17  H   -0.000144   0.000023  -0.028952  -0.031380   0.572783   0.000942
    18  H   -0.000104  -0.000118   0.001241  -0.000135   0.000942   0.606404
    19  H   -0.000158  -0.000823  -0.000005   0.000005  -0.000003  -0.002725
              19
     1  C    0.000002
     2  O   -0.000004
     3  C    0.003033
     4  C   -0.042358
     5  O    0.001979
     6  C    0.005634
     7  C   -0.000160
     8  C   -0.043522
     9  C    0.370630
    10  H    0.000000
    11  H    0.000000
    12  H    0.000000
    13  H   -0.000158
    14  H   -0.000823
    15  H   -0.000005
    16  H    0.000005
    17  H   -0.000003
    18  H   -0.002725
    19  H    0.598048
 Mulliken charges:
               1
     1  C   -0.247448
     2  O   -0.251013
     3  C    0.148854
     4  C   -0.036868
     5  O   -0.314864
     6  C    0.335026
     7  C   -0.522449
     8  C   -0.128264
     9  C   -0.092184
    10  H    0.109988
    11  H    0.132810
    12  H    0.110887
    13  H    0.064354
    14  H    0.082766
    15  H    0.117174
    16  H    0.138099
    17  H    0.135459
    18  H    0.107244
    19  H    0.110428
 Sum of Mulliken charges =   0.00000
 Mulliken charges with hydrogens summed into heavy atoms:
               1
     1  C    0.106237
     2  O   -0.251013
     3  C    0.213208
     4  C    0.045898
     5  O   -0.314864
     6  C    0.335026
     7  C   -0.131716
     8  C   -0.021020
     9  C    0.018244
 Electronic spatial extent (au):  <R**2>=           1088.5894
 Charge=              0.0000 electrons
 Dipole moment (field-independent basis, Debye):
    X=             -0.7184    Y=              0.0819    Z=             -2.6202  Tot=              2.7181
 Quadrupole moment (field-independent basis, Debye-Ang):
   XX=            -50.0443   YY=            -49.2589   ZZ=            -55.9207
   XY=             -1.5792   XZ=             -0.6310   YZ=             -0.6665
 Traceless Quadrupole moment (field-independent basis, Debye-Ang):
   XX=              1.6970   YY=              2.4824   ZZ=             -4.1794
   XY=             -1.5792   XZ=             -0.6310   YZ=             -0.6665
 Octapole moment (field-independent basis, Debye-Ang**2):
  XXX=            -19.2590  YYY=             -3.7058  ZZZ=              2.2692  XYY=              4.5498
  XXY=             -2.2162  XXZ=             -5.1009  XZZ=             -3.0035  YZZ=             -0.5669
  YYZ=              3.4680  XYZ=             -2.2001
 Hexadecapole moment (field-independent basis, Debye-Ang**3):
 XXXX=           -754.5691 YYYY=           -419.8710 ZZZZ=           -206.7941 XXXY=              0.6336
 XXXZ=            -10.6469 YYYX=             -0.3885 YYYZ=             -2.4905 ZZZX=             -1.6623
 ZZZY=             -5.6886 XXYY=           -196.0545 XXZZ=           -165.3396 YYZZ=            -97.6209
 XXYZ=              2.4128 YYXZ=              0.9830 ZZXY=              2.7183
 N-N= 4.742511262052D+02 E-N=-1.935457719070D+03  KE= 4.200435823480D+02
 Calling FoFJK, ICntrl=      2127 FMM=F ISym2X=0 I1Cent= 0 IOpClX= 0 NMat=1 NMatS=1 NMatT=0.
 ***** Axes restored to original set *****
 -------------------------------------------------------------------
 Center     Atomic                   Forces (Hartrees/Bohr)
 Number     Number              X              Y              Z
 -------------------------------------------------------------------
      1        6          -0.000041552    0.000014288   -0.000010458
      2        8           0.000013703   -0.000005603    0.000024876
      3        6           0.000029794   -0.000035860   -0.000002455
      4        6           0.000002438    0.000005496   -0.000038307
      5        8          -0.000011078   -0.000012830    0.000011600
      6        6          -0.000002892    0.000024448    0.000000061
      7        6          -0.000013178   -0.000009457   -0.000004476
      8        6           0.000018991    0.000006342   -0.000011708
      9        6          -0.000012743   -0.000003791    0.000017469
     10        1           0.000005877   -0.000004421   -0.000000463
     11        1           0.000006517   -0.000001408   -0.000002999
     12        1           0.000006432   -0.000001169    0.000000799
     13        1          -0.000000093    0.000004660   -0.000003075
     14        1          -0.000000878    0.000011693    0.000011232
     15        1           0.000000263    0.000000045    0.000001277
     16        1           0.000002489    0.000002059   -0.000000498
     17        1          -0.000001134   -0.000000236   -0.000003506
     18        1          -0.000011860   -0.000006098    0.000002521
     19        1           0.000008906    0.000011842    0.000008109
 -------------------------------------------------------------------
 Cartesian Forces:  Max     0.000041552 RMS     0.000013135

 GradGradGradGradGradGradGradGradGradGradGradGradGradGradGradGradGradGrad
 Berny optimization.
 FormGI is forming the generalized inverse of G from B-inverse, IUseBI=4.
 Internal  Forces:  Max     0.000022758 RMS     0.000006161
 Search for a local minimum.
 Step number   1 out of a maximum of  114
 All quantities printed in internal units (Hartrees-Bohrs-Radians)
 Mixed Optimization -- En-DIIS/RFO-DIIS
 Second derivative matrix not updated -- first step.
 ITU=  0
     Eigenvalues ---    0.00763   0.01028   0.01472   0.01508   0.01836
     Eigenvalues ---    0.01855   0.02617   0.02824   0.03253   0.03645
     Eigenvalues ---    0.04968   0.05819   0.05846   0.05938   0.07048
     Eigenvalues ---    0.07703   0.09071   0.10011   0.10530   0.11010
     Eigenvalues ---    0.15207   0.15907   0.15957   0.16000   0.16000
     Eigenvalues ---    0.16000   0.16000   0.16000   0.16000   0.16233
     Eigenvalues ---    0.20299   0.23248   0.25000   0.26118   0.28358
     Eigenvalues ---    0.28985   0.32356   0.32724   0.33644   0.33780
     Eigenvalues ---    0.33877   0.34269   0.34280   0.34456   0.34556
     Eigenvalues ---    0.34988   0.35896   0.35988   0.43392   0.47476
     Eigenvalues ---    0.51367
 RFO step:  Lambda=-2.68716588D-08 EMin= 7.63252576D-03
 Linear search not attempted -- first point.
 Iteration  1 RMS(Cart)=  0.00013074 RMS(Int)=  0.00000002
 Iteration  2 RMS(Cart)=  0.00000002 RMS(Int)=  0.00000000
 Variable       Old X    -DE/DX   Delta X   Delta X   Delta X     New X
                                 (Linear)    (Quad)   (Total)
    R1        2.67189  -0.00002   0.00000  -0.00005  -0.00005   2.67184
    R2        2.07935   0.00000   0.00000   0.00001   0.00001   2.07936
    R3        2.06402   0.00000   0.00000   0.00001   0.00001   2.06403
    R4        2.07704   0.00000   0.00000   0.00001   0.00001   2.07705
    R5        2.62502  -0.00002   0.00000  -0.00003  -0.00003   2.62498
    R6        2.95253   0.00002   0.00000   0.00007   0.00007   2.95260
    R7        3.01955   0.00002   0.00000   0.00009   0.00009   3.01964
    R8        2.07538  -0.00001   0.00000  -0.00002  -0.00002   2.07537
    R9        2.75235  -0.00001   0.00000  -0.00004  -0.00004   2.75231
   R10        2.89478   0.00002   0.00000   0.00006   0.00006   2.89484
   R11        2.05694  -0.00001   0.00000  -0.00003  -0.00003   2.05691
   R12        2.77490   0.00000   0.00000   0.00000   0.00000   2.77490
   R13        2.83497  -0.00001   0.00000  -0.00003  -0.00003   2.83494
   R14        2.89659   0.00000   0.00000  -0.00002  -0.00002   2.89656
   R15        2.06879   0.00000   0.00000   0.00001   0.00001   2.06880
   R16        2.06568   0.00000   0.00000   0.00000   0.00000   2.06568
   R17        2.06860   0.00000   0.00000   0.00000   0.00000   2.06860
   R18        2.52820   0.00000   0.00000  -0.00001  -0.00001   2.52819
   R19        2.04245  -0.00001   0.00000  -0.00002  -0.00002   2.04244
   R20        2.04101   0.00000   0.00000  -0.00001  -0.00001   2.04099
    A1        1.94619   0.00001   0.00000   0.00004   0.00004   1.94622
    A2        1.86810   0.00001   0.00000   0.00004   0.00004   1.86814
    A3        1.95804   0.00001   0.00000   0.00004   0.00004   1.95808
    A4        1.90101  -0.00001   0.00000  -0.00004  -0.00004   1.90098
    A5        1.89160  -0.00001   0.00000  -0.00004  -0.00004   1.89156
    A6        1.89768  -0.00001   0.00000  -0.00005  -0.00005   1.89763
    A7        1.99109   0.00002   0.00000   0.00007   0.00007   1.99116
    A8        1.98150   0.00000   0.00000  -0.00003  -0.00003   1.98147
    A9        2.02823   0.00000   0.00000  -0.00003  -0.00003   2.02820
   A10        1.95379   0.00000   0.00000   0.00004   0.00004   1.95383
   A11        1.33684  -0.00001   0.00000  -0.00005  -0.00005   1.33679
   A12        2.05040   0.00000   0.00000   0.00003   0.00003   2.05043
   A13        2.04110   0.00000   0.00000   0.00001   0.00001   2.04111
   A14        1.54198   0.00001   0.00000   0.00004   0.00004   1.54202
   A15        1.74484   0.00000   0.00000   0.00001   0.00001   1.74485
   A16        2.14980   0.00000   0.00000   0.00007   0.00007   2.14987
   A17        1.78743   0.00000   0.00000  -0.00002  -0.00002   1.78741
   A18        2.00784   0.00000   0.00000  -0.00003  -0.00003   2.00781
   A19        2.12120   0.00000   0.00000  -0.00006  -0.00006   2.12114
   A20        1.46757   0.00000   0.00000   0.00001   0.00001   1.46758
   A21        1.51150   0.00000   0.00000   0.00001   0.00001   1.51151
   A22        2.17334   0.00000   0.00000   0.00000   0.00000   2.17334
   A23        1.72753   0.00000   0.00000   0.00002   0.00002   1.72755
   A24        2.00565   0.00000   0.00000   0.00002   0.00002   2.00567
   A25        1.77477   0.00000   0.00000  -0.00001  -0.00001   1.77476
   A26        2.14135   0.00000   0.00000  -0.00003  -0.00003   2.14132
   A27        1.93471  -0.00001   0.00000  -0.00004  -0.00004   1.93467
   A28        1.92220   0.00001   0.00000   0.00005   0.00005   1.92225
   A29        1.92495   0.00000   0.00000   0.00000   0.00000   1.92495
   A30        1.90244   0.00000   0.00000  -0.00001  -0.00001   1.90243
   A31        1.88986   0.00000   0.00000   0.00000   0.00000   1.88985
   A32        1.88871   0.00000   0.00000   0.00000   0.00000   1.88871
   A33        1.78164   0.00001   0.00000   0.00001   0.00001   1.78166
   A34        2.21594   0.00001   0.00000   0.00009   0.00009   2.21602
   A35        2.28387  -0.00002   0.00000  -0.00010  -0.00010   2.28377
   A36        1.76799   0.00000   0.00000  -0.00002  -0.00002   1.76797
   A37        2.22691   0.00002   0.00000   0.00009   0.00009   2.22700
   A38        2.28678  -0.00001   0.00000  -0.00007  -0.00007   2.28671
    D1        1.01548   0.00000   0.00000   0.00031   0.00031   1.01579
    D2        3.09293   0.00000   0.00000   0.00031   0.00031   3.09323
    D3       -1.11009   0.00000   0.00000   0.00030   0.00030  -1.10978
    D4       -2.97423  -0.00001   0.00000  -0.00009  -0.00009  -2.97432
    D5        1.80568   0.00000   0.00000   0.00000   0.00000   1.80567
    D6       -0.60246   0.00000   0.00000  -0.00003  -0.00003  -0.60249
    D7       -1.35999   0.00000   0.00000   0.00004   0.00004  -1.35995
    D8        3.13748   0.00000   0.00000   0.00005   0.00005   3.13753
    D9        0.71952   0.00000   0.00000   0.00005   0.00005   0.71957
   D10        0.61298   0.00000   0.00000  -0.00001  -0.00001   0.61297
   D11       -1.17274   0.00000   0.00000   0.00001   0.00001  -1.17273
   D12        2.69248   0.00000   0.00000   0.00001   0.00001   2.69249
   D13        2.59654   0.00000   0.00000  -0.00002  -0.00002   2.59651
   D14        0.81082   0.00000   0.00000  -0.00001  -0.00001   0.81081
   D15       -1.60714   0.00000   0.00000  -0.00001  -0.00001  -1.60715
   D16        1.30967   0.00000   0.00000  -0.00004  -0.00004   1.30963
   D17       -0.75199   0.00000   0.00000  -0.00007  -0.00007  -0.75206
   D18        3.07780   0.00000   0.00000  -0.00005  -0.00005   3.07776
   D19       -0.60821   0.00000   0.00000   0.00002   0.00002  -0.60819
   D20       -2.66987   0.00000   0.00000  -0.00001  -0.00001  -2.66988
   D21        1.15992   0.00000   0.00000   0.00001   0.00001   1.15993
   D22       -2.60253   0.00000   0.00000   0.00000   0.00000  -2.60253
   D23        1.61900   0.00000   0.00000  -0.00003  -0.00003   1.61897
   D24       -0.83439   0.00000   0.00000  -0.00001  -0.00001  -0.83440
   D25       -0.65888   0.00000   0.00000  -0.00001  -0.00001  -0.65889
   D26        1.08381   0.00000   0.00000   0.00001   0.00001   1.08382
   D27       -2.86166  -0.00001   0.00000  -0.00010  -0.00010  -2.86176
   D28        0.84364   0.00000   0.00000   0.00002   0.00002   0.84366
   D29       -2.24375   0.00000   0.00000  -0.00004  -0.00004  -2.24378
   D30       -0.73590   0.00000   0.00000  -0.00001  -0.00001  -0.73592
   D31        2.45989   0.00000   0.00000  -0.00007  -0.00007   2.45982
   D32       -3.00582   0.00001   0.00000   0.00009   0.00009  -3.00573
   D33        0.18998   0.00000   0.00000   0.00004   0.00004   0.19001
   D34        0.64281   0.00000   0.00000   0.00000   0.00000   0.64281
   D35        2.85514   0.00000   0.00000   0.00001   0.00001   2.85516
   D36       -1.07593   0.00000   0.00000  -0.00002  -0.00002  -1.07595
   D37       -1.34477   0.00000   0.00000  -0.00013  -0.00013  -1.34490
   D38        0.76206   0.00000   0.00000  -0.00013  -0.00013   0.76193
   D39        2.84553   0.00000   0.00000  -0.00010  -0.00010   2.84543
   D40        3.12502   0.00000   0.00000  -0.00016  -0.00016   3.12486
   D41       -1.05133   0.00000   0.00000  -0.00016  -0.00016  -1.05149
   D42        1.03214   0.00000   0.00000  -0.00013  -0.00013   1.03201
   D43        0.95563   0.00000   0.00000  -0.00014  -0.00014   0.95549
   D44        3.06246   0.00000   0.00000  -0.00014  -0.00014   3.06232
   D45       -1.13726   0.00000   0.00000  -0.00011  -0.00011  -1.13736
   D46       -0.81290   0.00000   0.00000  -0.00002  -0.00002  -0.81292
   D47        2.27062   0.00000   0.00000   0.00005   0.00005   2.27066
   D48        0.72932   0.00000   0.00000  -0.00001  -0.00001   0.72932
   D49       -2.47035   0.00000   0.00000   0.00006   0.00006  -2.47029
   D50        2.99972   0.00000   0.00000  -0.00001  -0.00001   2.99970
   D51       -0.19995   0.00000   0.00000   0.00005   0.00005  -0.19990
   D52       -0.00168   0.00000   0.00000   0.00000   0.00000  -0.00168
   D53        3.08298   0.00000   0.00000   0.00007   0.00007   3.08305
   D54       -3.08192   0.00000   0.00000  -0.00007  -0.00007  -3.08199
   D55        0.00274   0.00000   0.00000  -0.00001  -0.00001   0.00274
         Item               Value     Threshold  Converged?
 Maximum Force            0.000023     0.000450     YES
 RMS     Force            0.000006     0.000300     YES
 Maximum Displacement     0.000573     0.001800     YES
 RMS     Displacement     0.000131     0.001200     YES
 Predicted change in Energy=-1.343566D-08
 Optimization completed.
    -- Stationary point found.
                           ----------------------------
                           !   Optimized Parameters   !
                           ! (Angstroms and Degrees)  !
 --------------------------                            --------------------------
 ! Name  Definition              Value          Derivative Info.                !
 --------------------------------------------------------------------------------
 ! R1    R(1,2)                  1.4139         -DE/DX =    0.0                 !
 ! R2    R(1,10)                 1.1003         -DE/DX =    0.0                 !
 ! R3    R(1,11)                 1.0922         -DE/DX =    0.0                 !
 ! R4    R(1,12)                 1.0991         -DE/DX =    0.0                 !
 ! R5    R(2,3)                  1.3891         -DE/DX =    0.0                 !
 ! R6    R(3,4)                  1.5624         -DE/DX =    0.0                 !
 ! R7    R(3,6)                  1.5979         -DE/DX =    0.0                 !
 ! R8    R(3,13)                 1.0982         -DE/DX =    0.0                 !
 ! R9    R(4,5)                  1.4565         -DE/DX =    0.0                 !
 ! R10   R(4,9)                  1.5319         -DE/DX =    0.0                 !
 ! R11   R(4,14)                 1.0885         -DE/DX =    0.0                 !
 ! R12   R(5,6)                  1.4684         -DE/DX =    0.0                 !
 ! R13   R(6,7)                  1.5002         -DE/DX =    0.0                 !
 ! R14   R(6,8)                  1.5328         -DE/DX =    0.0                 !
 ! R15   R(7,15)                 1.0948         -DE/DX =    0.0                 !
 ! R16   R(7,16)                 1.0931         -DE/DX =    0.0                 !
 ! R17   R(7,17)                 1.0947         -DE/DX =    0.0                 !
 ! R18   R(8,9)                  1.3379         -DE/DX =    0.0                 !
 ! R19   R(8,18)                 1.0808         -DE/DX =    0.0                 !
 ! R20   R(9,19)                 1.0801         -DE/DX =    0.0                 !
 ! A1    A(2,1,10)             111.5083         -DE/DX =    0.0                 !
 ! A2    A(2,1,11)             107.0343         -DE/DX =    0.0                 !
 ! A3    A(2,1,12)             112.1875         -DE/DX =    0.0                 !
 ! A4    A(10,1,11)            108.9201         -DE/DX =    0.0                 !
 ! A5    A(10,1,12)            108.3804         -DE/DX =    0.0                 !
 ! A6    A(11,1,12)            108.7289         -DE/DX =    0.0                 !
 ! A7    A(1,2,3)              114.081          -DE/DX =    0.0                 !
 ! A8    A(2,3,4)              113.5316         -DE/DX =    0.0                 !
 ! A9    A(2,3,6)              116.2091         -DE/DX =    0.0                 !
 ! A10   A(2,3,13)             111.9437         -DE/DX =    0.0                 !
 ! A11   A(4,3,6)               76.5954         -DE/DX =    0.0                 !
 ! A12   A(4,3,13)             117.4793         -DE/DX =    0.0                 !
 ! A13   A(6,3,13)             116.9467         -DE/DX =    0.0                 !
 ! A14   A(3,4,5)               88.3492         -DE/DX =    0.0                 !
 ! A15   A(3,4,9)               99.9721         -DE/DX =    0.0                 !
 ! A16   A(3,4,14)             123.1745         -DE/DX =    0.0                 !
 ! A17   A(5,4,9)              102.4123         -DE/DX =    0.0                 !
 ! A18   A(5,4,14)             115.0406         -DE/DX =    0.0                 !
 ! A19   A(9,4,14)             121.5357         -DE/DX =    0.0                 !
 ! A20   A(4,5,6)               84.0855         -DE/DX =    0.0                 !
 ! A21   A(3,6,5)               86.6027         -DE/DX =    0.0                 !
 ! A22   A(3,6,7)              124.5235         -DE/DX =    0.0                 !
 ! A23   A(3,6,8)               98.9805         -DE/DX =    0.0                 !
 ! A24   A(5,6,7)              114.9153         -DE/DX =    0.0                 !
 ! A25   A(5,6,8)              101.687          -DE/DX =    0.0                 !
 ! A26   A(7,6,8)              122.6903         -DE/DX =    0.0                 !
 ! A27   A(6,7,15)             110.8507         -DE/DX =    0.0                 !
 ! A28   A(6,7,16)             110.1337         -DE/DX =    0.0                 !
 ! A29   A(6,7,17)             110.2913         -DE/DX =    0.0                 !
 ! A30   A(15,7,16)            109.002          -DE/DX =    0.0                 !
 ! A31   A(15,7,17)            108.2809         -DE/DX =    0.0                 !
 ! A32   A(16,7,17)            108.215          -DE/DX =    0.0                 !
 ! A33   A(6,8,9)              102.0805         -DE/DX =    0.0                 !
 ! A34   A(6,8,18)             126.9638         -DE/DX =    0.0                 !
 ! A35   A(9,8,18)             130.8559         -DE/DX =    0.0                 !
 ! A36   A(4,9,8)              101.2982         -DE/DX =    0.0                 !
 ! A37   A(4,9,19)             127.5923         -DE/DX =    0.0                 !
 ! A38   A(8,9,19)             131.0227         -DE/DX =    0.0                 !
 ! D1    D(10,1,2,3)            58.1828         -DE/DX =    0.0                 !
 ! D2    D(11,1,2,3)           177.2116         -DE/DX =    0.0                 !
 ! D3    D(12,1,2,3)           -63.6032         -DE/DX =    0.0                 !
 ! D4    D(1,2,3,4)           -170.4108         -DE/DX =    0.0                 !
 ! D5    D(1,2,3,6)            103.4577         -DE/DX =    0.0                 !
 ! D6    D(1,2,3,13)           -34.5183         -DE/DX =    0.0                 !
 ! D7    D(2,3,4,5)            -77.9217         -DE/DX =    0.0                 !
 ! D8    D(2,3,4,9)            179.7644         -DE/DX =    0.0                 !
 ! D9    D(2,3,4,14)            41.2252         -DE/DX =    0.0                 !
 ! D10   D(6,3,4,5)             35.121          -DE/DX =    0.0                 !
 ! D11   D(6,3,4,9)            -67.1929         -DE/DX =    0.0                 !
 ! D12   D(6,3,4,14)           154.2679         -DE/DX =    0.0                 !
 ! D13   D(13,3,4,5)           148.7706         -DE/DX =    0.0                 !
 ! D14   D(13,3,4,9)            46.4568         -DE/DX =    0.0                 !
 ! D15   D(13,3,4,14)          -92.0824         -DE/DX =    0.0                 !
 ! D16   D(2,3,6,5)             75.0386         -DE/DX =    0.0                 !
 ! D17   D(2,3,6,7)            -43.086          -DE/DX =    0.0                 !
 ! D18   D(2,3,6,8)            176.3451         -DE/DX =    0.0                 !
 ! D19   D(4,3,6,5)            -34.8477         -DE/DX =    0.0                 !
 ! D20   D(4,3,6,7)           -152.9723         -DE/DX =    0.0                 !
 ! D21   D(4,3,6,8)             66.4588         -DE/DX =    0.0                 !
 ! D22   D(13,3,6,5)          -149.1138         -DE/DX =    0.0                 !
 ! D23   D(13,3,6,7)            92.7616         -DE/DX =    0.0                 !
 ! D24   D(13,3,6,8)           -47.8073         -DE/DX =    0.0                 !
 ! D25   D(3,4,5,6)            -37.751          -DE/DX =    0.0                 !
 ! D26   D(9,4,5,6)             62.0975         -DE/DX =    0.0                 !
 ! D27   D(14,4,5,6)          -163.9609         -DE/DX =    0.0                 !
 ! D28   D(3,4,9,8)             48.337          -DE/DX =    0.0                 !
 ! D29   D(3,4,9,19)          -128.5572         -DE/DX =    0.0                 !
 ! D30   D(5,4,9,8)            -42.1641         -DE/DX =    0.0                 !
 ! D31   D(5,4,9,19)           140.9416         -DE/DX =    0.0                 !
 ! D32   D(14,4,9,8)          -172.2209         -DE/DX =    0.0                 !
 ! D33   D(14,4,9,19)           10.8848         -DE/DX =    0.0                 !
 ! D34   D(4,5,6,3)             36.8304         -DE/DX =    0.0                 !
 ! D35   D(4,5,6,7)            163.5877         -DE/DX =    0.0                 !
 ! D36   D(4,5,6,8)            -61.6461         -DE/DX =    0.0                 !
 ! D37   D(3,6,7,15)           -77.0497         -DE/DX =    0.0                 !
 ! D38   D(3,6,7,16)            43.6628         -DE/DX =    0.0                 !
 ! D39   D(3,6,7,17)           163.0368         -DE/DX =    0.0                 !
 ! D40   D(5,6,7,15)           179.0507         -DE/DX =    0.0                 !
 ! D41   D(5,6,7,16)           -60.2368         -DE/DX =    0.0                 !
 ! D42   D(5,6,7,17)            59.1372         -DE/DX =    0.0                 !
 ! D43   D(8,6,7,15)            54.7533         -DE/DX =    0.0                 !
 ! D44   D(8,6,7,16)           175.4658         -DE/DX =    0.0                 !
 ! D45   D(8,6,7,17)           -65.1601         -DE/DX =    0.0                 !
 ! D46   D(3,6,8,9)            -46.5756         -DE/DX =    0.0                 !
 ! D47   D(3,6,8,18)           130.0968         -DE/DX =    0.0                 !
 ! D48   D(5,6,8,9)             41.787          -DE/DX =    0.0                 !
 ! D49   D(5,6,8,18)          -141.5406         -DE/DX =    0.0                 !
 ! D50   D(7,6,8,9)            171.8711         -DE/DX =    0.0                 !
 ! D51   D(7,6,8,18)           -11.4565         -DE/DX =    0.0                 !
 ! D52   D(6,8,9,4)             -0.0964         -DE/DX =    0.0                 !
 ! D53   D(6,8,9,19)           176.6416         -DE/DX =    0.0                 !
 ! D54   D(18,8,9,4)          -176.5808         -DE/DX =    0.0                 !
 ! D55   D(18,8,9,19)            0.1572         -DE/DX =    0.0                 !
 --------------------------------------------------------------------------------
 GradGradGradGradGradGradGradGradGradGradGradGradGradGradGradGradGradGrad

                          Input orientation:                          
 ---------------------------------------------------------------------
 Center     Atomic      Atomic             Coordinates (Angstroms)
 Number     Number       Type             X           Y           Z
 ---------------------------------------------------------------------
      1          6           0        1.503152   -0.308884    0.067622
      2          8           0        0.165304    0.128400   -0.066791
      3          6           0       -0.382747    0.643318    1.101154
      4          6           0       -1.920872    0.901290    1.007584
      5          8           0       -1.629037    2.115057    0.257289
      6          6           0       -0.497200    2.234879    1.185093
      7          6           0        0.576818    3.188561    0.751979
      8          6           0       -1.213491    2.352384    2.535138
      9          6           0       -2.185556    1.440831    2.416631
     10          1           0        1.598536   -1.082884    0.843888
     11          1           0        1.799136   -0.733533   -0.894166
     12          1           0        2.186543    0.515760    0.314615
     13          1           0       -0.009471    0.123435    1.993638
     14          1           0       -2.611559    0.214326    0.521960
     15          1           0        1.377032    3.238861    1.497377
     16          1           0        1.000333    2.869391   -0.203875
     17          1           0        0.162893    4.193853    0.624207
     18          1           0       -0.932412    2.982143    3.367345
     19          1           0       -2.933908    1.106953    3.120202
 ---------------------------------------------------------------------
                    Distance matrix (angstroms):
                    1          2          3          4          5
     1  C    0.000000
     2  O    1.413903   0.000000
     3  C    2.351913   1.389099   0.000000
     4  C    3.751265   2.470581   1.562412   0.000000
     5  O    3.965107   2.696571   2.105079   1.456482   0.000000
     6  C    3.423577   2.538381   1.597876   1.958778   1.468412
     7  C    3.682195   3.194419   2.742435   3.396380   2.502584
     8  C    4.533335   3.690151   2.380620   2.222495   2.327573
     9  C    4.710192   3.662841   2.369942   1.531853   2.329603
    10  H    1.100347   2.085833   2.640349   4.043510   4.581283
    11  H    1.092231   2.024076   3.261539   4.486397   4.603551
    12  H    1.099120   2.093066   2.690012   4.183264   4.137594
    13  H    2.486858   2.067834   1.098245   2.287098   3.099106
    14  H    4.172652   2.839891   2.342457   1.088485   2.155963
    15  H    3.827088   3.686445   3.160800   4.071892   3.440524
    16  H    3.229237   2.868641   2.927697   3.724848   2.774037
    17  H    4.730827   4.123760   3.623741   3.915358   2.768942
    18  H    5.258422   4.598056   3.302704   3.297798   3.302964
    19  H    5.568693   4.551879   3.286325   2.351955   3.303820
                    6          7          8          9         10
     6  C    0.000000
     7  C    1.500204   0.000000
     8  C    1.532808   2.661588   0.000000
     9  C    2.235564   3.668288   1.337866   0.000000
    10  H    3.939045   4.392903   4.750672   4.812692   0.000000
    11  H    4.290448   4.425684   5.509893   5.618452   1.784129
    12  H    3.303873   3.150614   4.456920   4.938570   1.783688
    13  H    2.312968   3.358638   2.590580   2.578721   2.315775
    14  H    2.998815   4.366318   3.252502   2.296861   4.417159
    15  H    2.149010   1.094756   2.928070   4.095115   4.376482
    16  H    2.138795   1.093111   3.559565   4.365516   4.132328
    17  H    2.141938   1.094656   2.989497   4.038209   5.472960
    18  H    2.347347   3.026636   1.080819   2.202242   5.412761
    19  H    3.309745   4.718768   2.203006   1.080054   5.524494
                   11         12         13         14         15
    11  H    0.000000
    12  H    1.781002   0.000000
    13  H    3.513525   2.792044   0.000000
    14  H    4.728433   4.812030   2.990813   0.000000
    15  H    4.655917   3.077258   3.445946   5.099814   0.000000
    16  H    3.754417   2.686169   3.659104   4.541142   1.781199
    17  H    5.409425   4.209439   4.298064   4.852285   1.774421
    18  H    6.279178   5.012992   3.303196   4.310053   2.982652
    19  H    6.473348   5.868547   3.284629   2.766144   5.075706
                   16         17         18         19
    16  H    0.000000
    17  H    1.772351   0.000000
    18  H    4.062245   3.192607   0.000000
    19  H    5.443706   5.034791   2.753798   0.000000
 Stoichiometry    C7H10O2
 Framework group  C1[X(C7H10O2)]
 Deg. of freedom    51
 Full point group                 C1      NOp   1
 Largest Abelian subgroup         C1      NOp   1
 Largest concise Abelian subgroup C1      NOp   1
                         Standard orientation:                         
 ---------------------------------------------------------------------
 Center     Atomic      Atomic             Coordinates (Angstroms)
 Number     Number       Type             X           Y           Z
 ---------------------------------------------------------------------
      1          6           0       -2.745708   -0.211434   -0.430593
      2          8           0       -1.635576   -0.580248    0.363576
      3          6           0       -0.421516   -0.550958   -0.310810
      4          6           0        0.756678   -1.182619    0.497890
      5          8           0        0.822498    0.044611    1.279499
      6          6           0        0.527173    0.697255   -0.002325
      7          6           0        0.055714    2.117375    0.105355
      8          6           0        1.740746    0.289503   -0.845223
      9          6           0        1.898220   -0.995092   -0.506248
     10          1           0       -2.844553   -0.861757   -1.312678
     11          1           0       -3.635840   -0.322192    0.192597
     12          1           0       -2.682599    0.830836   -0.773749
     13          1           0       -0.529383   -0.845992   -1.363171
     14          1           0        0.656237   -2.095808    1.081666
     15          1           0       -0.128218    2.543139   -0.886303
     16          1           0       -0.867013    2.164229    0.689539
     17          1           0        0.810342    2.730827    0.607835
     18          1           0        2.267090    0.900484   -1.564830
     19          1           0        2.590721   -1.742844   -0.863774
 ---------------------------------------------------------------------
 Rotational constants (GHZ):      2.7360831      1.5070000      1.2420843
 1\1\GINC-ALCHEMY-AL\FOpt\RB3LYP\6-31G(2df,p)\C7H10O2\PUCK\31-Jan-2020\
 0\\# b3lyp 6-31G(2df,p) opt Freq\\titel\\0,1\C,1.5031521131,-0.3088841
 233,0.0676219043\O,0.1653038181,0.1283997691,-0.0667911907\C,-0.382747
 4143,0.6433184805,1.1011536411\C,-1.9208721096,0.9012901908,1.00758394
 31\O,-1.6290371866,2.1150565476,0.2572891886\C,-0.4971996478,2.2348787
 529,1.1850929975\C,0.5768176615,3.1885610929,0.7519786666\C,-1.2134905
 08,2.3523842977,2.5351375425\C,-2.1855556002,1.440830569,2.4166310964\
 H,1.5985357657,-1.0828841426,0.8438879638\H,1.7991358198,-0.7335330083
 ,-0.8941656137\H,2.1865425549,0.5157596724,0.3146148309\H,-0.009470650
 7,0.123434618,1.9936377555\H,-2.6115594919,0.2143264531,0.5219601439\H
 ,1.3770316411,3.2388607082,1.4973772272\H,1.0003330997,2.8693911238,-0
 .2038753348\H,0.162892862,4.193853277,0.6242070838\H,-0.9324121848,2.9
 821427889,3.367345223\H,-2.9339078718,1.1069528324,3.120201881\\Versio
 n=ES64L-G09RevD.01\State=1-A\HF=-423.1271952\RMSD=6.260e-09\RMSF=1.313
 e-05\Dipole=0.6690366,-0.3352054,0.7639636\Quadrupole=1.4760322,0.1881
 766,-1.6642088,1.3150871,-2.0451461,0.8757391\PG=C01 [X(C7H10O2)]\\@


 IT IS WELL TO REMEMBER THAT MAN IS A PART OF NATURE AND THAT HIS WORKS,
 WHATEVER THEY MAY BE, ARE NO MORE "UNNATURAL" THAN 
 THE FLIGHT OF AN EAGLE OR THE PASSAGE OF A TORNADO.

                                    -- CHARLES MCCARRY IN "THE GREAT SOUTHWEST"
 Job cpu time:       0 days  0 hours  5 minutes 51.6 seconds.
 File lengths (MBytes):  RWF=     52 Int=      0 D2E=      0 Chk=      7 Scr=      1
 Normal termination of Gaussian 09 at Fri Jan 31 16:03:28 2020.
 Link1:  Proceeding to internal job step number  2.
 ----------------------------------------------------------------------
 #N Geom=AllCheck Guess=TCheck SCRF=Check GenChk RB3LYP/6-31G(2df,p) Fr
 eq
 ----------------------------------------------------------------------
 1/10=4,29=7,30=1,38=1,40=1/1,3;
 2/12=2,40=1/2;
 3/5=1,6=6,7=104,11=2,14=-4,16=1,25=1,30=1,70=2,71=2,74=-5,116=1,140=1/1,2,3;
 4/5=101/1;
 5/5=2,98=1/2;
 8/6=4,10=90,11=11/1;
 11/6=1,8=1,9=11,15=111,16=1/1,2,10;
 10/6=1/2;
 6/7=2,8=2,9=2,10=2,18=1,28=1/1;
 7/8=1,10=1,25=1/1,2,3,16;
 1/10=4,30=1/3;
 99//99;
 Structure from the checkpoint file:  "/scratch/puck/g09_f09ffea0-4600-44f3-a685-5cb081709265/Gau-175118.chk"
 -----
 titel
 -----
 Charge =  0 Multiplicity = 1
 Redundant internal coordinates found in file.
 C,0,1.5031521131,-0.3088841233,0.0676219043
 O,0,0.1653038181,0.1283997691,-0.0667911907
 C,0,-0.3827474143,0.6433184805,1.1011536411
 C,0,-1.9208721096,0.9012901908,1.0075839431
 O,0,-1.6290371866,2.1150565476,0.2572891886
 C,0,-0.4971996478,2.2348787529,1.1850929975
 C,0,0.5768176615,3.1885610929,0.7519786666
 C,0,-1.213490508,2.3523842977,2.5351375425
 C,0,-2.1855556002,1.440830569,2.4166310964
 H,0,1.5985357657,-1.0828841426,0.8438879638
 H,0,1.7991358198,-0.7335330083,-0.8941656137
 H,0,2.1865425549,0.5157596724,0.3146148309
 H,0,-0.0094706507,0.123434618,1.9936377555
 H,0,-2.6115594919,0.2143264531,0.5219601439
 H,0,1.3770316411,3.2388607082,1.4973772272
 H,0,1.0003330997,2.8693911238,-0.2038753348
 H,0,0.162892862,4.193853277,0.6242070838
 H,0,-0.9324121848,2.9821427889,3.367345223
 H,0,-2.9339078718,1.1069528324,3.120201881
 Recover connectivity data from disk.

 GradGradGradGradGradGradGradGradGradGradGradGradGradGradGradGradGradGrad
 Berny optimization.
 Initialization pass.
                           ----------------------------
                           !    Initial Parameters    !
                           ! (Angstroms and Degrees)  !
 --------------------------                            --------------------------
 ! Name  Definition              Value          Derivative Info.                !
 --------------------------------------------------------------------------------
 ! R1    R(1,2)                  1.4139         calculate D2E/DX2 analytically  !
 ! R2    R(1,10)                 1.1003         calculate D2E/DX2 analytically  !
 ! R3    R(1,11)                 1.0922         calculate D2E/DX2 analytically  !
 ! R4    R(1,12)                 1.0991         calculate D2E/DX2 analytically  !
 ! R5    R(2,3)                  1.3891         calculate D2E/DX2 analytically  !
 ! R6    R(3,4)                  1.5624         calculate D2E/DX2 analytically  !
 ! R7    R(3,6)                  1.5979         calculate D2E/DX2 analytically  !
 ! R8    R(3,13)                 1.0982         calculate D2E/DX2 analytically  !
 ! R9    R(4,5)                  1.4565         calculate D2E/DX2 analytically  !
 ! R10   R(4,9)                  1.5319         calculate D2E/DX2 analytically  !
 ! R11   R(4,14)                 1.0885         calculate D2E/DX2 analytically  !
 ! R12   R(5,6)                  1.4684         calculate D2E/DX2 analytically  !
 ! R13   R(6,7)                  1.5002         calculate D2E/DX2 analytically  !
 ! R14   R(6,8)                  1.5328         calculate D2E/DX2 analytically  !
 ! R15   R(7,15)                 1.0948         calculate D2E/DX2 analytically  !
 ! R16   R(7,16)                 1.0931         calculate D2E/DX2 analytically  !
 ! R17   R(7,17)                 1.0947         calculate D2E/DX2 analytically  !
 ! R18   R(8,9)                  1.3379         calculate D2E/DX2 analytically  !
 ! R19   R(8,18)                 1.0808         calculate D2E/DX2 analytically  !
 ! R20   R(9,19)                 1.0801         calculate D2E/DX2 analytically  !
 ! A1    A(2,1,10)             111.5083         calculate D2E/DX2 analytically  !
 ! A2    A(2,1,11)             107.0343         calculate D2E/DX2 analytically  !
 ! A3    A(2,1,12)             112.1875         calculate D2E/DX2 analytically  !
 ! A4    A(10,1,11)            108.9201         calculate D2E/DX2 analytically  !
 ! A5    A(10,1,12)            108.3804         calculate D2E/DX2 analytically  !
 ! A6    A(11,1,12)            108.7289         calculate D2E/DX2 analytically  !
 ! A7    A(1,2,3)              114.081          calculate D2E/DX2 analytically  !
 ! A8    A(2,3,4)              113.5316         calculate D2E/DX2 analytically  !
 ! A9    A(2,3,6)              116.2091         calculate D2E/DX2 analytically  !
 ! A10   A(2,3,13)             111.9437         calculate D2E/DX2 analytically  !
 ! A11   A(4,3,6)               76.5954         calculate D2E/DX2 analytically  !
 ! A12   A(4,3,13)             117.4793         calculate D2E/DX2 analytically  !
 ! A13   A(6,3,13)             116.9467         calculate D2E/DX2 analytically  !
 ! A14   A(3,4,5)               88.3492         calculate D2E/DX2 analytically  !
 ! A15   A(3,4,9)               99.9721         calculate D2E/DX2 analytically  !
 ! A16   A(3,4,14)             123.1745         calculate D2E/DX2 analytically  !
 ! A17   A(5,4,9)              102.4123         calculate D2E/DX2 analytically  !
 ! A18   A(5,4,14)             115.0406         calculate D2E/DX2 analytically  !
 ! A19   A(9,4,14)             121.5357         calculate D2E/DX2 analytically  !
 ! A20   A(4,5,6)               84.0855         calculate D2E/DX2 analytically  !
 ! A21   A(3,6,5)               86.6027         calculate D2E/DX2 analytically  !
 ! A22   A(3,6,7)              124.5235         calculate D2E/DX2 analytically  !
 ! A23   A(3,6,8)               98.9805         calculate D2E/DX2 analytically  !
 ! A24   A(5,6,7)              114.9153         calculate D2E/DX2 analytically  !
 ! A25   A(5,6,8)              101.687          calculate D2E/DX2 analytically  !
 ! A26   A(7,6,8)              122.6903         calculate D2E/DX2 analytically  !
 ! A27   A(6,7,15)             110.8507         calculate D2E/DX2 analytically  !
 ! A28   A(6,7,16)             110.1337         calculate D2E/DX2 analytically  !
 ! A29   A(6,7,17)             110.2913         calculate D2E/DX2 analytically  !
 ! A30   A(15,7,16)            109.002          calculate D2E/DX2 analytically  !
 ! A31   A(15,7,17)            108.2809         calculate D2E/DX2 analytically  !
 ! A32   A(16,7,17)            108.215          calculate D2E/DX2 analytically  !
 ! A33   A(6,8,9)              102.0805         calculate D2E/DX2 analytically  !
 ! A34   A(6,8,18)             126.9638         calculate D2E/DX2 analytically  !
 ! A35   A(9,8,18)             130.8559         calculate D2E/DX2 analytically  !
 ! A36   A(4,9,8)              101.2982         calculate D2E/DX2 analytically  !
 ! A37   A(4,9,19)             127.5923         calculate D2E/DX2 analytically  !
 ! A38   A(8,9,19)             131.0227         calculate D2E/DX2 analytically  !
 ! D1    D(10,1,2,3)            58.1828         calculate D2E/DX2 analytically  !
 ! D2    D(11,1,2,3)           177.2116         calculate D2E/DX2 analytically  !
 ! D3    D(12,1,2,3)           -63.6032         calculate D2E/DX2 analytically  !
 ! D4    D(1,2,3,4)           -170.4108         calculate D2E/DX2 analytically  !
 ! D5    D(1,2,3,6)            103.4577         calculate D2E/DX2 analytically  !
 ! D6    D(1,2,3,13)           -34.5183         calculate D2E/DX2 analytically  !
 ! D7    D(2,3,4,5)            -77.9217         calculate D2E/DX2 analytically  !
 ! D8    D(2,3,4,9)            179.7644         calculate D2E/DX2 analytically  !
 ! D9    D(2,3,4,14)            41.2252         calculate D2E/DX2 analytically  !
 ! D10   D(6,3,4,5)             35.121          calculate D2E/DX2 analytically  !
 ! D11   D(6,3,4,9)            -67.1929         calculate D2E/DX2 analytically  !
 ! D12   D(6,3,4,14)           154.2679         calculate D2E/DX2 analytically  !
 ! D13   D(13,3,4,5)           148.7706         calculate D2E/DX2 analytically  !
 ! D14   D(13,3,4,9)            46.4568         calculate D2E/DX2 analytically  !
 ! D15   D(13,3,4,14)          -92.0824         calculate D2E/DX2 analytically  !
 ! D16   D(2,3,6,5)             75.0386         calculate D2E/DX2 analytically  !
 ! D17   D(2,3,6,7)            -43.086          calculate D2E/DX2 analytically  !
 ! D18   D(2,3,6,8)            176.3451         calculate D2E/DX2 analytically  !
 ! D19   D(4,3,6,5)            -34.8477         calculate D2E/DX2 analytically  !
 ! D20   D(4,3,6,7)           -152.9723         calculate D2E/DX2 analytically  !
 ! D21   D(4,3,6,8)             66.4588         calculate D2E/DX2 analytically  !
 ! D22   D(13,3,6,5)          -149.1138         calculate D2E/DX2 analytically  !
 ! D23   D(13,3,6,7)            92.7616         calculate D2E/DX2 analytically  !
 ! D24   D(13,3,6,8)           -47.8073         calculate D2E/DX2 analytically  !
 ! D25   D(3,4,5,6)            -37.751          calculate D2E/DX2 analytically  !
 ! D26   D(9,4,5,6)             62.0975         calculate D2E/DX2 analytically  !
 ! D27   D(14,4,5,6)          -163.9609         calculate D2E/DX2 analytically  !
 ! D28   D(3,4,9,8)             48.337          calculate D2E/DX2 analytically  !
 ! D29   D(3,4,9,19)          -128.5572         calculate D2E/DX2 analytically  !
 ! D30   D(5,4,9,8)            -42.1641         calculate D2E/DX2 analytically  !
 ! D31   D(5,4,9,19)           140.9416         calculate D2E/DX2 analytically  !
 ! D32   D(14,4,9,8)          -172.2209         calculate D2E/DX2 analytically  !
 ! D33   D(14,4,9,19)           10.8848         calculate D2E/DX2 analytically  !
 ! D34   D(4,5,6,3)             36.8304         calculate D2E/DX2 analytically  !
 ! D35   D(4,5,6,7)            163.5877         calculate D2E/DX2 analytically  !
 ! D36   D(4,5,6,8)            -61.6461         calculate D2E/DX2 analytically  !
 ! D37   D(3,6,7,15)           -77.0497         calculate D2E/DX2 analytically  !
 ! D38   D(3,6,7,16)            43.6628         calculate D2E/DX2 analytically  !
 ! D39   D(3,6,7,17)           163.0368         calculate D2E/DX2 analytically  !
 ! D40   D(5,6,7,15)           179.0507         calculate D2E/DX2 analytically  !
 ! D41   D(5,6,7,16)           -60.2368         calculate D2E/DX2 analytically  !
 ! D42   D(5,6,7,17)            59.1372         calculate D2E/DX2 analytically  !
 ! D43   D(8,6,7,15)            54.7533         calculate D2E/DX2 analytically  !
 ! D44   D(8,6,7,16)           175.4658         calculate D2E/DX2 analytically  !
 ! D45   D(8,6,7,17)           -65.1601         calculate D2E/DX2 analytically  !
 ! D46   D(3,6,8,9)            -46.5756         calculate D2E/DX2 analytically  !
 ! D47   D(3,6,8,18)           130.0968         calculate D2E/DX2 analytically  !
 ! D48   D(5,6,8,9)             41.787          calculate D2E/DX2 analytically  !
 ! D49   D(5,6,8,18)          -141.5406         calculate D2E/DX2 analytically  !
 ! D50   D(7,6,8,9)            171.8711         calculate D2E/DX2 analytically  !
 ! D51   D(7,6,8,18)           -11.4565         calculate D2E/DX2 analytically  !
 ! D52   D(6,8,9,4)             -0.0964         calculate D2E/DX2 analytically  !
 ! D53   D(6,8,9,19)           176.6416         calculate D2E/DX2 analytically  !
 ! D54   D(18,8,9,4)          -176.5808         calculate D2E/DX2 analytically  !
 ! D55   D(18,8,9,19)            0.1572         calculate D2E/DX2 analytically  !
 --------------------------------------------------------------------------------
 Trust Radius=3.00D-01 FncErr=1.00D-07 GrdErr=1.00D-07
 Number of steps in this run=      2 maximum allowed number of steps=      2.
 GradGradGradGradGradGradGradGradGradGradGradGradGradGradGradGradGradGrad

                          Input orientation:                          
 ---------------------------------------------------------------------
 Center     Atomic      Atomic             Coordinates (Angstroms)
 Number     Number       Type             X           Y           Z
 ---------------------------------------------------------------------
      1          6           0        1.503152   -0.308884    0.067622
      2          8           0        0.165304    0.128400   -0.066791
      3          6           0       -0.382747    0.643318    1.101154
      4          6           0       -1.920872    0.901290    1.007584
      5          8           0       -1.629037    2.115057    0.257289
      6          6           0       -0.497200    2.234879    1.185093
      7          6           0        0.576818    3.188561    0.751979
      8          6           0       -1.213491    2.352384    2.535138
      9          6           0       -2.185556    1.440831    2.416631
     10          1           0        1.598536   -1.082884    0.843888
     11          1           0        1.799136   -0.733533   -0.894166
     12          1           0        2.186543    0.515760    0.314615
     13          1           0       -0.009471    0.123435    1.993638
     14          1           0       -2.611559    0.214326    0.521960
     15          1           0        1.377032    3.238861    1.497377
     16          1           0        1.000333    2.869391   -0.203875
     17          1           0        0.162893    4.193853    0.624207
     18          1           0       -0.932412    2.982143    3.367345
     19          1           0       -2.933908    1.106953    3.120202
 ---------------------------------------------------------------------
                    Distance matrix (angstroms):
                    1          2          3          4          5
     1  C    0.000000
     2  O    1.413903   0.000000
     3  C    2.351913   1.389099   0.000000
     4  C    3.751265   2.470581   1.562412   0.000000
     5  O    3.965107   2.696571   2.105079   1.456482   0.000000
     6  C    3.423577   2.538381   1.597876   1.958778   1.468412
     7  C    3.682195   3.194419   2.742435   3.396380   2.502584
     8  C    4.533335   3.690151   2.380620   2.222495   2.327573
     9  C    4.710192   3.662841   2.369942   1.531853   2.329603
    10  H    1.100347   2.085833   2.640349   4.043510   4.581283
    11  H    1.092231   2.024076   3.261539   4.486397   4.603551
    12  H    1.099120   2.093066   2.690012   4.183264   4.137594
    13  H    2.486858   2.067834   1.098245   2.287098   3.099106
    14  H    4.172652   2.839891   2.342457   1.088485   2.155963
    15  H    3.827088   3.686445   3.160800   4.071892   3.440524
    16  H    3.229237   2.868641   2.927697   3.724848   2.774037
    17  H    4.730827   4.123760   3.623741   3.915358   2.768942
    18  H    5.258422   4.598056   3.302704   3.297798   3.302964
    19  H    5.568693   4.551879   3.286325   2.351955   3.303820
                    6          7          8          9         10
     6  C    0.000000
     7  C    1.500204   0.000000
     8  C    1.532808   2.661588   0.000000
     9  C    2.235564   3.668288   1.337866   0.000000
    10  H    3.939045   4.392903   4.750672   4.812692   0.000000
    11  H    4.290448   4.425684   5.509893   5.618452   1.784129
    12  H    3.303873   3.150614   4.456920   4.938570   1.783688
    13  H    2.312968   3.358638   2.590580   2.578721   2.315775
    14  H    2.998815   4.366318   3.252502   2.296861   4.417159
    15  H    2.149010   1.094756   2.928070   4.095115   4.376482
    16  H    2.138795   1.093111   3.559565   4.365516   4.132328
    17  H    2.141938   1.094656   2.989497   4.038209   5.472960
    18  H    2.347347   3.026636   1.080819   2.202242   5.412761
    19  H    3.309745   4.718768   2.203006   1.080054   5.524494
                   11         12         13         14         15
    11  H    0.000000
    12  H    1.781002   0.000000
    13  H    3.513525   2.792044   0.000000
    14  H    4.728433   4.812030   2.990813   0.000000
    15  H    4.655917   3.077258   3.445946   5.099814   0.000000
    16  H    3.754417   2.686169   3.659104   4.541142   1.781199
    17  H    5.409425   4.209439   4.298064   4.852285   1.774421
    18  H    6.279178   5.012992   3.303196   4.310053   2.982652
    19  H    6.473348   5.868547   3.284629   2.766144   5.075706
                   16         17         18         19
    16  H    0.000000
    17  H    1.772351   0.000000
    18  H    4.062245   3.192607   0.000000
    19  H    5.443706   5.034791   2.753798   0.000000
 Stoichiometry    C7H10O2
 Framework group  C1[X(C7H10O2)]
 Deg. of freedom    51
 Full point group                 C1      NOp   1
 Largest Abelian subgroup         C1      NOp   1
 Largest concise Abelian subgroup C1      NOp   1
                         Standard orientation:                         
 ---------------------------------------------------------------------
 Center     Atomic      Atomic             Coordinates (Angstroms)
 Number     Number       Type             X           Y           Z
 ---------------------------------------------------------------------
      1          6           0       -2.745708   -0.211434   -0.430593
      2          8           0       -1.635576   -0.580248    0.363576
      3          6           0       -0.421516   -0.550958   -0.310810
      4          6           0        0.756678   -1.182619    0.497890
      5          8           0        0.822498    0.044611    1.279499
      6          6           0        0.527173    0.697255   -0.002325
      7          6           0        0.055714    2.117375    0.105355
      8          6           0        1.740746    0.289503   -0.845223
      9          6           0        1.898220   -0.995092   -0.506248
     10          1           0       -2.844553   -0.861757   -1.312678
     11          1           0       -3.635840   -0.322192    0.192597
     12          1           0       -2.682599    0.830836   -0.773749
     13          1           0       -0.529383   -0.845992   -1.363171
     14          1           0        0.656237   -2.095808    1.081666
     15          1           0       -0.128218    2.543139   -0.886303
     16          1           0       -0.867013    2.164229    0.689539
     17          1           0        0.810342    2.730827    0.607835
     18          1           0        2.267090    0.900484   -1.564830
     19          1           0        2.590721   -1.742844   -0.863774
 ---------------------------------------------------------------------
 Rotational constants (GHZ):      2.7360831      1.5070000      1.2420843
 Standard basis: 6-31G(2df,p) (6D, 7F)
 There are   329 symmetry adapted cartesian basis functions of A   symmetry.
 There are   302 symmetry adapted basis functions of A   symmetry.
   302 basis functions,   466 primitive gaussians,   329 cartesian basis functions
    34 alpha electrons       34 beta electrons
       nuclear repulsion energy       474.2511262052 Hartrees.
 NAtoms=   19 NActive=   19 NUniq=   19 SFac= 1.00D+00 NAtFMM=   60 NAOKFM=F Big=F
 Integral buffers will be    131072 words long.
 Raffenetti 2 integral format.
 Two-electron integral symmetry is turned on.
 One-electron integrals computed using PRISM.
 NBasis=   302 RedAO= T EigKep=  2.16D-04  NBF=   302
 NBsUse=   302 1.00D-06 EigRej= -1.00D+00 NBFU=   302
 Initial guess from the checkpoint file:  "/scratch/puck/g09_f09ffea0-4600-44f3-a685-5cb081709265/Gau-175118.chk"
 B after Tr=     0.000000    0.000000    0.000000
         Rot=    1.000000    0.000000    0.000000    0.000000 Ang=   0.00 deg.
 Requested convergence on RMS density matrix=1.00D-08 within 128 cycles.
 Requested convergence on MAX density matrix=1.00D-06.
 Requested convergence on             energy=1.00D-06.
 No special actions if energy rises.
 SCF Done:  E(RB3LYP) =  -423.127195242     A.U. after    1 cycles
            NFock=  1  Conv=0.42D-08     -V/T= 2.0073
 DoSCS=F DFT=T ScalE2(SS,OS)=  1.000000  1.000000
 Range of M.O.s used for correlation:     1   302
 NBasis=   302 NAE=    34 NBE=    34 NFC=     0 NFV=     0
 NROrb=    302 NOA=    34 NOB=    34 NVA=   268 NVB=   268

 **** Warning!!: The largest alpha MO coefficient is  0.18282446D+02

 Symmetrizing basis deriv contribution to polar:
 IMax=3 JMax=2 DiffMx= 0.00D+00
 G2DrvN: will do    20 centers at a time, making    1 passes.
 Calling FoFCou, ICntrl=  3107 FMM=F I1Cent=   0 AccDes= 0.00D+00.
 End of G2Drv F.D. properties file   721 does not exist.
 End of G2Drv F.D. properties file   722 does not exist.
 End of G2Drv F.D. properties file   788 does not exist.
          IDoAtm=1111111111111111111
          Differentiating once with respect to electric field.
                with respect to dipole field.
          Differentiating once with respect to nuclear coordinates.
          There are    60 degrees of freedom in the 1st order CPHF.  IDoFFX=6 NUNeed=     3.
     57 vectors produced by pass  0 Test12= 1.52D-14 1.67D-09 XBig12= 6.58D+01 2.82D+00.
 AX will form    57 AO Fock derivatives at one time.
