 Entering Gaussian System, Link 0=/home/puck/opt/gaussian_09/g09
 Input=dsC7O2H10nsd_5524.com
 Output=dsC7O2H10nsd_5524.log
 Initial command:
 /home/puck/opt/gaussian_09/l1.exe "/scratch/puck/g09_63e9589c-5752-43db-ad75-0f457671dc4b/Gau-175117.inp" -scrdir="/scratch/puck/g09_63e9589c-5752-43db-ad75-0f457671dc4b/"
 Entering Link 1 = /home/puck/opt/gaussian_09/l1.exe PID=    175120.
  
 Copyright (c) 1988,1990,1992,1993,1995,1998,2003,2009,2013,
            Gaussian, Inc.  All Rights Reserved.
  
 This is part of the Gaussian(R) 09 program.  It is based on
 the Gaussian(R) 03 system (copyright 2003, Gaussian, Inc.),
 the Gaussian(R) 98 system (copyright 1998, Gaussian, Inc.),
 the Gaussian(R) 94 system (copyright 1995, Gaussian, Inc.),
 the Gaussian 92(TM) system (copyright 1992, Gaussian, Inc.),
 the Gaussian 90(TM) system (copyright 1990, Gaussian, Inc.),
 the Gaussian 88(TM) system (copyright 1988, Gaussian, Inc.),
 the Gaussian 86(TM) system (copyright 1986, Carnegie Mellon
 University), and the Gaussian 82(TM) system (copyright 1983,
 Carnegie Mellon University). Gaussian is a federally registered
 trademark of Gaussian, Inc.
  
 This software contains proprietary and confidential information,
 including trade secrets, belonging to Gaussian, Inc.
  
 This software is provided under written license and may be
 used, copied, transmitted, or stored only in accord with that
 written license.
  
 The following legend is applicable only to US Government
 contracts under FAR:
  
                    RESTRICTED RIGHTS LEGEND
  
 Use, reproduction and disclosure by the US Government is
 subject to restrictions as set forth in subparagraphs (a)
 and (c) of the Commercial Computer Software - Restricted
 Rights clause in FAR 52.227-19.
  
 Gaussian, Inc.
 340 Quinnipiac St., Bldg. 40, Wallingford CT 06492
  
  
 ---------------------------------------------------------------
 Warning -- This program may not be used in any manner that
 competes with the business of Gaussian, Inc. or will provide
 assistance to any competitor of Gaussian, Inc.  The licensee
 of this program is prohibited from giving any competitor of
 Gaussian, Inc. access to this program.  By using this program,
 the user acknowledges that Gaussian, Inc. is engaged in the
 business of creating and licensing software in the field of
 computational chemistry and represents and warrants to the
 licensee that it is not a competitor of Gaussian, Inc. and that
 it will not use this program in any manner prohibited above.
 ---------------------------------------------------------------
  

 Cite this work as:
 Gaussian 09, Revision D.01,
 M. J. Frisch, G. W. Trucks, H. B. Schlegel, G. E. Scuseria, 
 M. A. Robb, J. R. Cheeseman, G. Scalmani, V. Barone, B. Mennucci, 
 G. A. Petersson, H. Nakatsuji, M. Caricato, X. Li, H. P. Hratchian, 
 A. F. Izmaylov, J. Bloino, G. Zheng, J. L. Sonnenberg, M. Hada, 
 M. Ehara, K. Toyota, R. Fukuda, J. Hasegawa, M. Ishida, T. Nakajima, 
 Y. Honda, O. Kitao, H. Nakai, T. Vreven, J. A. Montgomery, Jr., 
 J. E. Peralta, F. Ogliaro, M. Bearpark, J. J. Heyd, E. Brothers, 
 K. N. Kudin, V. N. Staroverov, T. Keith, R. Kobayashi, J. Normand, 
 K. Raghavachari, A. Rendell, J. C. Burant, S. S. Iyengar, J. Tomasi, 
 M. Cossi, N. Rega, J. M. Millam, M. Klene, J. E. Knox, J. B. Cross, 
 V. Bakken, C. Adamo, J. Jaramillo, R. Gomperts, R. E. Stratmann, 
 O. Yazyev, A. J. Austin, R. Cammi, C. Pomelli, J. W. Ochterski, 
 R. L. Martin, K. Morokuma, V. G. Zakrzewski, G. A. Voth, 
 P. Salvador, J. J. Dannenberg, S. Dapprich, A. D. Daniels, 
 O. Farkas, J. B. Foresman, J. V. Ortiz, J. Cioslowski, 
 and D. J. Fox, Gaussian, Inc., Wallingford CT, 2013.
 
 ******************************************
 Gaussian 09:  ES64L-G09RevD.01 24-Apr-2013
                31-Jan-2020 
 ******************************************
 -----------------------------
 # b3lyp 6-31G(2df,p) opt Freq
 -----------------------------
 1/14=-1,18=20,19=15,26=3,38=1/1,3;
 2/9=110,12=2,17=6,18=5,40=1/2;
 3/5=1,6=6,7=104,11=2,16=1,25=1,30=1,71=1,74=-5/1,2,3;
 4//1;
 5/5=2,38=5/2;
 6/7=2,8=2,9=2,10=2,28=1/1;
 7//1,2,3,16;
 1/14=-1,18=20,19=15,26=3/3(2);
 2/9=110/2;
 99//99;
 2/9=110/2;
 3/5=1,6=6,7=104,11=2,16=1,25=1,30=1,71=1,74=-5/1,2,3;
 4/5=5,16=3,69=1/1;
 5/5=2,38=5/2;
 7//1,2,3,16;
 1/14=-1,18=20,19=15,26=3/3(-5);
 2/9=110/2;
 6/7=2,8=2,9=2,10=2,19=2,28=1/1;
 99/9=1/99;
 -----
 titel
 -----
 Symbolic Z-matrix:
 Charge =  0 Multiplicity = 1
 O                     0.7177   -2.05004   0.88279 
 C                     0.79435  -0.67471   0.54218 
 C                    -0.31267   0.13916   1.20069 
 C                    -0.26661   1.69473   1.05553 
 C                     0.72405   1.70869   2.25612 
 C                    -0.13235   0.48694   2.73003 
 C                    -1.46339   1.1844    2.98263 
 O                    -2.22751   1.05736   3.89962 
 C                    -1.58554   2.10217   1.74142 
 H                     0.86267  -2.12875   1.83113 
 H                     1.79142  -0.26635   0.76054 
 H                     0.6643   -0.63444  -0.54533 
 H                    -1.26804  -0.33256   0.94408 
 H                    -0.024     2.17099   0.10551 
 H                     1.74376   1.43229   1.99014 
 H                     0.74013   2.595     2.89669 
 H                     0.19581  -0.22707   3.48424 
 H                    -2.48384   1.86595   1.16302 
 H                    -1.62928   3.15669   2.03095 
 

 GradGradGradGradGradGradGradGradGradGradGradGradGradGradGradGradGradGrad
 Berny optimization.
 Initialization pass.
                           ----------------------------
                           !    Initial Parameters    !
                           ! (Angstroms and Degrees)  !
 --------------------------                            --------------------------
 ! Name  Definition              Value          Derivative Info.                !
 --------------------------------------------------------------------------------
 ! R1    R(1,2)                  1.4189         estimate D2E/DX2                !
 ! R2    R(1,10)                 0.9626         estimate D2E/DX2                !
 ! R3    R(2,3)                  1.5236         estimate D2E/DX2                !
 ! R4    R(2,11)                 1.0994         estimate D2E/DX2                !
 ! R5    R(2,12)                 1.096          estimate D2E/DX2                !
 ! R6    R(3,4)                  1.563          estimate D2E/DX2                !
 ! R7    R(3,6)                  1.5787         estimate D2E/DX2                !
 ! R8    R(3,13)                 1.096          estimate D2E/DX2                !
 ! R9    R(4,5)                  1.5566         estimate D2E/DX2                !
 ! R10   R(4,9)                  1.5414         estimate D2E/DX2                !
 ! R11   R(4,14)                 1.0901         estimate D2E/DX2                !
 ! R12   R(5,6)                  1.5655         estimate D2E/DX2                !
 ! R13   R(5,15)                 1.0895         estimate D2E/DX2                !
 ! R14   R(5,16)                 1.0937         estimate D2E/DX2                !
 ! R15   R(6,7)                  1.5238         estimate D2E/DX2                !
 ! R16   R(6,17)                 1.0892         estimate D2E/DX2                !
 ! R17   R(7,8)                  1.2004         estimate D2E/DX2                !
 ! R18   R(7,9)                  1.5485         estimate D2E/DX2                !
 ! R19   R(9,18)                 1.0942         estimate D2E/DX2                !
 ! R20   R(9,19)                 1.0944         estimate D2E/DX2                !
 ! A1    A(2,1,10)             107.9158         estimate D2E/DX2                !
 ! A2    A(1,2,3)              112.0089         estimate D2E/DX2                !
 ! A3    A(1,2,11)             111.1827         estimate D2E/DX2                !
 ! A4    A(1,2,12)             105.5087         estimate D2E/DX2                !
 ! A5    A(3,2,11)             112.0056         estimate D2E/DX2                !
 ! A6    A(3,2,12)             108.845          estimate D2E/DX2                !
 ! A7    A(11,2,12)            106.9211         estimate D2E/DX2                !
 ! A8    A(2,3,4)              118.0389         estimate D2E/DX2                !
 ! A9    A(2,3,6)              116.9594         estimate D2E/DX2                !
 ! A10   A(2,3,13)             107.5926         estimate D2E/DX2                !
 ! A11   A(4,3,6)               82.3778         estimate D2E/DX2                !
 ! A12   A(4,3,13)             115.6148         estimate D2E/DX2                !
 ! A13   A(6,3,13)             114.9109         estimate D2E/DX2                !
 ! A14   A(3,4,5)               87.4812         estimate D2E/DX2                !
 ! A15   A(3,4,9)              101.3339         estimate D2E/DX2                !
 ! A16   A(3,4,14)             121.489          estimate D2E/DX2                !
 ! A17   A(5,4,9)              101.4778         estimate D2E/DX2                !
 ! A18   A(5,4,14)             121.7787         estimate D2E/DX2                !
 ! A19   A(9,4,14)             117.5649         estimate D2E/DX2                !
 ! A20   A(4,5,6)               83.0118         estimate D2E/DX2                !
 ! A21   A(4,5,15)             113.897          estimate D2E/DX2                !
 ! A22   A(4,5,16)             117.9291         estimate D2E/DX2                !
 ! A23   A(6,5,15)             112.8261         estimate D2E/DX2                !
 ! A24   A(6,5,16)             117.5936         estimate D2E/DX2                !
 ! A25   A(15,5,16)            109.5616         estimate D2E/DX2                !
 ! A26   A(3,6,5)               86.6257         estimate D2E/DX2                !
 ! A27   A(3,6,7)               99.3022         estimate D2E/DX2                !
 ! A28   A(3,6,17)             124.111          estimate D2E/DX2                !
 ! A29   A(5,6,7)               99.8355         estimate D2E/DX2                !
 ! A30   A(5,6,17)             123.8082         estimate D2E/DX2                !
 ! A31   A(7,6,17)             116.6441         estimate D2E/DX2                !
 ! A32   A(6,7,8)              129.3635         estimate D2E/DX2                !
 ! A33   A(6,7,9)              101.9652         estimate D2E/DX2                !
 ! A34   A(8,7,9)              128.6707         estimate D2E/DX2                !
 ! A35   A(4,9,7)               97.6146         estimate D2E/DX2                !
 ! A36   A(4,9,18)             114.2162         estimate D2E/DX2                !
 ! A37   A(4,9,19)             113.9912         estimate D2E/DX2                !
 ! A38   A(7,9,18)             111.1321         estimate D2E/DX2                !
 ! A39   A(7,9,19)             111.234          estimate D2E/DX2                !
 ! A40   A(18,9,19)            108.3637         estimate D2E/DX2                !
 ! D1    D(10,1,2,3)           -63.9093         estimate D2E/DX2                !
 ! D2    D(10,1,2,11)           62.2531         estimate D2E/DX2                !
 ! D3    D(10,1,2,12)          177.8142         estimate D2E/DX2                !
 ! D4    D(1,2,3,4)            173.0947         estimate D2E/DX2                !
 ! D5    D(1,2,3,6)             77.2239         estimate D2E/DX2                !
 ! D6    D(1,2,3,13)           -53.8495         estimate D2E/DX2                !
 ! D7    D(11,2,3,4)            47.3817         estimate D2E/DX2                !
 ! D8    D(11,2,3,6)           -48.4892         estimate D2E/DX2                !
 ! D9    D(11,2,3,13)         -179.5626         estimate D2E/DX2                !
 ! D10   D(12,2,3,4)           -70.6292         estimate D2E/DX2                !
 ! D11   D(12,2,3,6)          -166.5001         estimate D2E/DX2                !
 ! D12   D(12,2,3,13)           62.4265         estimate D2E/DX2                !
 ! D13   D(2,3,4,5)            -83.2526         estimate D2E/DX2                !
 ! D14   D(2,3,4,9)            175.5421         estimate D2E/DX2                !
 ! D15   D(2,3,4,14)            42.9922         estimate D2E/DX2                !
 ! D16   D(6,3,4,5)             33.2958         estimate D2E/DX2                !
 ! D17   D(6,3,4,9)            -67.9095         estimate D2E/DX2                !
 ! D18   D(6,3,4,14)           159.5406         estimate D2E/DX2                !
 ! D19   D(13,3,4,5)           147.3199         estimate D2E/DX2                !
 ! D20   D(13,3,4,9)            46.1146         estimate D2E/DX2                !
 ! D21   D(13,3,4,14)          -86.4353         estimate D2E/DX2                !
 ! D22   D(2,3,6,5)             84.5352         estimate D2E/DX2                !
 ! D23   D(2,3,6,7)           -176.0408         estimate D2E/DX2                !
 ! D24   D(2,3,6,17)           -44.7565         estimate D2E/DX2                !
 ! D25   D(4,3,6,5)            -33.1114         estimate D2E/DX2                !
 ! D26   D(4,3,6,7)             66.3125         estimate D2E/DX2                !
 ! D27   D(4,3,6,17)          -162.4031         estimate D2E/DX2                !
 ! D28   D(13,3,6,5)          -147.8682         estimate D2E/DX2                !
 ! D29   D(13,3,6,7)           -48.4442         estimate D2E/DX2                !
 ! D30   D(13,3,6,17)           82.8402         estimate D2E/DX2                !
 ! D31   D(3,4,5,6)            -33.5609         estimate D2E/DX2                !
 ! D32   D(3,4,5,15)            78.3506         estimate D2E/DX2                !
 ! D33   D(3,4,5,16)          -151.1548         estimate D2E/DX2                !
 ! D34   D(9,4,5,6)             67.4968         estimate D2E/DX2                !
 ! D35   D(9,4,5,15)           179.4084         estimate D2E/DX2                !
 ! D36   D(9,4,5,16)           -50.0971         estimate D2E/DX2                !
 ! D37   D(14,4,5,6)          -159.5612         estimate D2E/DX2                !
 ! D38   D(14,4,5,15)          -47.6497         estimate D2E/DX2                !
 ! D39   D(14,4,5,16)           82.8449         estimate D2E/DX2                !
 ! D40   D(3,4,9,7)             44.9314         estimate D2E/DX2                !
 ! D41   D(3,4,9,18)           -72.3878         estimate D2E/DX2                !
 ! D42   D(3,4,9,19)           162.283          estimate D2E/DX2                !
 ! D43   D(5,4,9,7)            -44.7799         estimate D2E/DX2                !
 ! D44   D(5,4,9,18)          -162.0992         estimate D2E/DX2                !
 ! D45   D(5,4,9,19)            72.5716         estimate D2E/DX2                !
 ! D46   D(14,4,9,7)           179.8067         estimate D2E/DX2                !
 ! D47   D(14,4,9,18)           62.4875         estimate D2E/DX2                !
 ! D48   D(14,4,9,19)          -62.8417         estimate D2E/DX2                !
 ! D49   D(4,5,6,3)             33.2121         estimate D2E/DX2                !
 ! D50   D(4,5,6,7)            -65.6534         estimate D2E/DX2                !
 ! D51   D(4,5,6,17)           162.7519         estimate D2E/DX2                !
 ! D52   D(15,5,6,3)           -79.8178         estimate D2E/DX2                !
 ! D53   D(15,5,6,7)          -178.6833         estimate D2E/DX2                !
 ! D54   D(15,5,6,17)           49.722          estimate D2E/DX2                !
 ! D55   D(16,5,6,3)           151.1415         estimate D2E/DX2                !
 ! D56   D(16,5,6,7)            52.276          estimate D2E/DX2                !
 ! D57   D(16,5,6,17)          -79.3187         estimate D2E/DX2                !
 ! D58   D(3,6,7,8)            135.2117         estimate D2E/DX2                !
 ! D59   D(3,6,7,9)            -44.5109         estimate D2E/DX2                !
 ! D60   D(5,6,7,8)           -136.6298         estimate D2E/DX2                !
 ! D61   D(5,6,7,9)             43.6475         estimate D2E/DX2                !
 ! D62   D(17,6,7,8)            -0.6751         estimate D2E/DX2                !
 ! D63   D(17,6,7,9)           179.6022         estimate D2E/DX2                !
 ! D64   D(6,7,9,4)              0.2857         estimate D2E/DX2                !
 ! D65   D(6,7,9,18)           119.9777         estimate D2E/DX2                !
 ! D66   D(6,7,9,19)          -119.1888         estimate D2E/DX2                !
 ! D67   D(8,7,9,4)           -179.4396         estimate D2E/DX2                !
 ! D68   D(8,7,9,18)           -59.7476         estimate D2E/DX2                !
 ! D69   D(8,7,9,19)            61.0859         estimate D2E/DX2                !
 --------------------------------------------------------------------------------
 Trust Radius=3.00D-01 FncErr=1.00D-07 GrdErr=1.00D-06
 Number of steps in this run=    114 maximum allowed number of steps=    114.
 GradGradGradGradGradGradGradGradGradGradGradGradGradGradGradGradGradGrad

                          Input orientation:                          
 ---------------------------------------------------------------------
 Center     Atomic      Atomic             Coordinates (Angstroms)
 Number     Number       Type             X           Y           Z
 ---------------------------------------------------------------------
      1          8           0        0.717702   -2.050036    0.882791
      2          6           0        0.794347   -0.674711    0.542183
      3          6           0       -0.312668    0.139164    1.200691
      4          6           0       -0.266605    1.694728    1.055533
      5          6           0        0.724046    1.708692    2.256118
      6          6           0       -0.132352    0.486939    2.730035
      7          6           0       -1.463393    1.184401    2.982625
      8          8           0       -2.227513    1.057360    3.899621
      9          6           0       -1.585542    2.102168    1.741421
     10          1           0        0.862672   -2.128753    1.831133
     11          1           0        1.791424   -0.266351    0.760544
     12          1           0        0.664301   -0.634443   -0.545330
     13          1           0       -1.268040   -0.332558    0.944075
     14          1           0       -0.023997    2.170988    0.105515
     15          1           0        1.743755    1.432293    1.990137
     16          1           0        0.740133    2.594999    2.896690
     17          1           0        0.195810   -0.227068    3.484242
     18          1           0       -2.483841    1.865950    1.163016
     19          1           0       -1.629276    3.156695    2.030954
 ---------------------------------------------------------------------
                    Distance matrix (angstroms):
                    1          2          3          4          5
     1  O    0.000000
     2  C    1.418946   0.000000
     3  C    2.440352   1.523649   0.000000
     4  C    3.875817   2.646391   1.563000   0.000000
     5  C    4.001762   2.936515   2.156876   1.556594   0.000000
     6  C    3.251329   2.644786   1.578719   2.068993   1.565469
     7  C    4.430357   3.809126   2.364737   2.325170   2.363806
     8  O    5.237505   4.837778   3.434231   3.512866   3.440499
     9  C    4.825244   3.848779   2.401246   1.541442   2.398736
    10  H    0.962582   1.944299   2.631032   4.061505   3.863394
    11  H    2.085510   1.099364   2.187549   2.858030   2.697560
    12  H    2.011538   1.096001   2.145117   2.975632   3.652665
    13  H    2.626149   2.128855   1.095952   2.263886   3.139516
    14  H    4.355608   2.993053   2.326166   1.090054   2.323441
    15  H    3.795473   2.727161   2.554267   2.232466   1.089472
    16  H    5.062869   4.029596   3.164795   2.283390   1.093679
    17  H    3.219182   3.035514   2.367970   3.131414   2.352549
    18  H    5.065901   4.193675   2.774383   2.226433   3.392660
    19  H    5.825515   4.771797   3.395332   2.223885   2.772279
                    6          7          8          9         10
     6  C    0.000000
     7  C    1.523787   0.000000
     8  O    2.466377   1.200375   0.000000
     9  C    2.387066   1.548484   2.482252   0.000000
    10  H    2.939378   4.208741   4.896856   4.889018   0.000000
    11  H    2.854339   4.199543   5.268574   4.239800   2.340359
    12  H    3.552487   4.503526   5.566181   4.216642   2.814230
    13  H    2.269584   2.548532   3.404072   2.581561   2.924572
    14  H    3.120235   3.364963   4.526686   2.262598   4.717172
    15  H    2.227312   3.366345   4.422406   3.405116   3.671871
    16  H    2.287558   2.617766   3.489575   2.643160   4.843993
    17  H    1.089185   2.235356   2.773948   3.411155   2.606508
    18  H    3.144316   2.194721   2.865052   1.094209   5.253873
    19  H    3.139600   2.196164   2.873501   1.094426   5.846853
                   11         12         13         14         15
    11  H    0.000000
    12  H    1.763860   0.000000
    13  H    3.065679   2.458334   0.000000
    14  H    3.108929   2.961047   2.918659   0.000000
    15  H    2.097514   3.444592   3.644153   2.687456   0.000000
    16  H    3.722319   4.720440   4.051673   2.924781   1.783531
    17  H    3.156907   4.077118   2.933672   4.149070   2.716977
    18  H    4.794433   4.368205   2.521814   2.694845   4.329522
    19  H    5.003236   5.125472   3.672421   2.693669   3.788478
                   16         17         18         19
    16  H    0.000000
    17  H    2.933525   0.000000
    18  H    3.732446   4.116958   0.000000
    19  H    2.584396   4.110089   1.774717   0.000000
 Stoichiometry    C7H10O2
 Framework group  C1[X(C7H10O2)]
 Deg. of freedom    51
 Full point group                 C1      NOp   1
 Largest Abelian subgroup         C1      NOp   1
 Largest concise Abelian subgroup C1      NOp   1
                         Standard orientation:                         
 ---------------------------------------------------------------------
 Center     Atomic      Atomic             Coordinates (Angstroms)
 Number     Number       Type             X           Y           Z
 ---------------------------------------------------------------------
      1          8           0        2.856437   -0.948315   -0.201266
      2          6           0        2.148048    0.280695   -0.167690
      3          6           0        0.664670    0.092928   -0.460673
      4          6           0       -0.278424    1.328769   -0.298688
      5          6           0       -0.338005    0.997583    1.221099
      6          6           0       -0.229244   -0.477685    0.708803
      7          6           0       -1.556507   -0.595024   -0.030473
      8          8           0       -2.349622   -1.496060   -0.032766
      9          6           0       -1.620520    0.752258   -0.791090
     10          1           0        2.517379   -1.504967    0.507072
     11          1           0        2.316775    0.810680    0.780597
     12          1           0        2.590305    0.895594   -0.959855
     13          1           0        0.580394   -0.446022   -1.411221
     14          1           0        0.009506    2.315984   -0.660239
     15          1           0        0.542299    1.317785    1.777414
     16          1           0       -1.240766    1.277506    1.771370
     17          1           0        0.054466   -1.318961    1.339745
     18          1           0       -1.670762    0.592779   -1.872447
     19          1           0       -2.494227    1.337479   -0.487909
 ---------------------------------------------------------------------
 Rotational constants (GHZ):      3.0316223      1.1889401      1.0369385
 Standard basis: 6-31G(2df,p) (6D, 7F)
 There are   329 symmetry adapted cartesian basis functions of A   symmetry.
 There are   302 symmetry adapted basis functions of A   symmetry.
   302 basis functions,   466 primitive gaussians,   329 cartesian basis functions
    34 alpha electrons       34 beta electrons
       nuclear repulsion energy       460.2135060342 Hartrees.
 NAtoms=   19 NActive=   19 NUniq=   19 SFac= 1.00D+00 NAtFMM=   60 NAOKFM=F Big=F
 Integral buffers will be    131072 words long.
 Raffenetti 2 integral format.
 Two-electron integral symmetry is turned on.
 One-electron integrals computed using PRISM.
 NBasis=   302 RedAO= T EigKep=  4.44D-04  NBF=   302
 NBsUse=   302 1.00D-06 EigRej= -1.00D+00 NBFU=   302
 ExpMin= 1.61D-01 ExpMax= 5.48D+03 ExpMxC= 8.25D+02 IAcc=1 IRadAn=         1 AccDes= 0.00D+00
 Harris functional with IExCor=  402 and IRadAn=       1 diagonalized for initial guess.
 HarFok:  IExCor=  402 AccDes= 0.00D+00 IRadAn=         1 IDoV= 1 UseB2=F ITyADJ=14
 ICtDFT=  3500011 ScaDFX=  1.000000  1.000000  1.000000  1.000000
 FoFCou: FMM=F IPFlag=           0 FMFlag=      100000 FMFlg1=           0
         NFxFlg=           0 DoJE=T BraDBF=F KetDBF=T FulRan=T
         wScrn=  0.000000 ICntrl=     500 IOpCl=  0 I1Cent=   200000004 NGrid=           0
         NMat0=    1 NMatS0=      1 NMatT0=    0 NMatD0=    1 NMtDS0=    0 NMtDT0=    0
 Petite list used in FoFCou.
 Requested convergence on RMS density matrix=1.00D-08 within 128 cycles.
 Requested convergence on MAX density matrix=1.00D-06.
 Requested convergence on             energy=1.00D-06.
 No special actions if energy rises.
 Integral accuracy reduced to 1.0D-05 until final iterations.
 Initial convergence to 1.0D-05 achieved.  Increase integral accuracy.
 SCF Done:  E(RB3LYP) =  -423.185570663     A.U. after   14 cycles
            NFock= 14  Conv=0.42D-08     -V/T= 2.0074

 **********************************************************************

            Population analysis using the SCF density.

 **********************************************************************

 Orbital symmetries:
       Occupied  (A) (A) (A) (A) (A) (A) (A) (A) (A) (A) (A) (A)
                 (A) (A) (A) (A) (A) (A) (A) (A) (A) (A) (A) (A)
                 (A) (A) (A) (A) (A) (A) (A) (A) (A) (A)
       Virtual   (A) (A) (A) (A) (A) (A) (A) (A) (A) (A) (A) (A)
                 (A) (A) (A) (A) (A) (A) (A) (A) (A) (A) (A) (A)
                 (A) (A) (A) (A) (A) (A) (A) (A) (A) (A) (A) (A)
                 (A) (A) (A) (A) (A) (A) (A) (A) (A) (A) (A) (A)
                 (A) (A) (A) (A) (A) (A) (A) (A) (A) (A) (A) (A)
                 (A) (A) (A) (A) (A) (A) (A) (A) (A) (A) (A) (A)
                 (A) (A) (A) (A) (A) (A) (A) (A) (A) (A) (A) (A)
                 (A) (A) (A) (A) (A) (A) (A) (A) (A) (A) (A) (A)
                 (A) (A) (A) (A) (A) (A) (A) (A) (A) (A) (A) (A)
                 (A) (A) (A) (A) (A) (A) (A) (A) (A) (A) (A) (A)
                 (A) (A) (A) (A) (A) (A) (A) (A) (A) (A) (A) (A)
                 (A) (A) (A) (A) (A) (A) (A) (A) (A) (A) (A) (A)
                 (A) (A) (A) (A) (A) (A) (A) (A) (A) (A) (A) (A)
                 (A) (A) (A) (A) (A) (A) (A) (A) (A) (A) (A) (A)
                 (A) (A) (A) (A) (A) (A) (A) (A) (A) (A) (A) (A)
                 (A) (A) (A) (A) (A) (A) (A) (A) (A) (A) (A) (A)
                 (A) (A) (A) (A) (A) (A) (A) (A) (A) (A) (A) (A)
                 (A) (A) (A) (A) (A) (A) (A) (A) (A) (A) (A) (A)
                 (A) (A) (A) (A) (A) (A) (A) (A) (A) (A) (A) (A)
                 (A) (A) (A) (A) (A) (A) (A) (A) (A) (A) (A) (A)
                 (A) (A) (A) (A) (A) (A) (A) (A) (A) (A) (A) (A)
                 (A) (A) (A) (A) (A) (A) (A) (A) (A) (A) (A) (A)
                 (A) (A) (A) (A)
 The electronic state is 1-A.
 Alpha  occ. eigenvalues --  -19.14112 -19.13053 -10.26840 -10.23633 -10.20983
 Alpha  occ. eigenvalues --  -10.20655 -10.20599 -10.20387 -10.19458  -1.04210
 Alpha  occ. eigenvalues --   -1.02258  -0.90435  -0.74299  -0.71396  -0.68110
 Alpha  occ. eigenvalues --   -0.63717  -0.55824  -0.53660  -0.51632  -0.49801
 Alpha  occ. eigenvalues --   -0.47016  -0.45578  -0.43912  -0.40983  -0.39732
 Alpha  occ. eigenvalues --   -0.39401  -0.38606  -0.36754  -0.34390  -0.33084
 Alpha  occ. eigenvalues --   -0.32591  -0.31739  -0.27428  -0.23658
 Alpha virt. eigenvalues --   -0.00903   0.06528   0.08724   0.10360   0.11890
 Alpha virt. eigenvalues --    0.12231   0.13131   0.13776   0.14317   0.15879
 Alpha virt. eigenvalues --    0.18285   0.19281   0.19561   0.20851   0.22226
 Alpha virt. eigenvalues --    0.22963   0.23713   0.26683   0.27822   0.28804
 Alpha virt. eigenvalues --    0.33254   0.43032   0.44908   0.46697   0.47619
 Alpha virt. eigenvalues --    0.48426   0.49659   0.51429   0.53031   0.53630
 Alpha virt. eigenvalues --    0.56173   0.57690   0.58522   0.60682   0.61241
 Alpha virt. eigenvalues --    0.62116   0.62498   0.64097   0.64724   0.66182
 Alpha virt. eigenvalues --    0.67664   0.71527   0.73158   0.74469   0.75450
 Alpha virt. eigenvalues --    0.75883   0.77269   0.78173   0.80606   0.80779
 Alpha virt. eigenvalues --    0.82229   0.83010   0.84545   0.85071   0.88470
 Alpha virt. eigenvalues --    0.90139   0.92249   0.94238   0.94639   0.96766
 Alpha virt. eigenvalues --    0.97923   0.99077   1.01156   1.04929   1.05920
 Alpha virt. eigenvalues --    1.08493   1.12635   1.14198   1.18085   1.21328
 Alpha virt. eigenvalues --    1.22882   1.23991   1.26852   1.27855   1.33348
 Alpha virt. eigenvalues --    1.34853   1.35254   1.36483   1.37191   1.39298
 Alpha virt. eigenvalues --    1.39693   1.43284   1.45189   1.46103   1.46507
 Alpha virt. eigenvalues --    1.49304   1.51822   1.52853   1.53653   1.57129
 Alpha virt. eigenvalues --    1.58706   1.60518   1.64113   1.65610   1.67342
 Alpha virt. eigenvalues --    1.69894   1.71145   1.72031   1.73938   1.77306
 Alpha virt. eigenvalues --    1.79269   1.84096   1.86180   1.86588   1.89716
 Alpha virt. eigenvalues --    1.97927   1.99938   2.03391   2.11120   2.12119
 Alpha virt. eigenvalues --    2.15101   2.19870   2.22732   2.29574   2.30070
 Alpha virt. eigenvalues --    2.31757   2.32905   2.37778   2.39375   2.43705
 Alpha virt. eigenvalues --    2.47653   2.51249   2.51752   2.55073   2.56738
 Alpha virt. eigenvalues --    2.58873   2.60191   2.64919   2.72540   2.73079
 Alpha virt. eigenvalues --    2.76043   2.79096   2.80039   2.81992   2.83978
 Alpha virt. eigenvalues --    2.86974   2.87506   2.88566   2.91095   2.92187
 Alpha virt. eigenvalues --    2.93943   2.97653   3.00545   3.01650   3.03381
 Alpha virt. eigenvalues --    3.07676   3.09095   3.10802   3.11681   3.14424
 Alpha virt. eigenvalues --    3.15971   3.17562   3.21189   3.22030   3.23542
 Alpha virt. eigenvalues --    3.28385   3.31853   3.35279   3.35852   3.38099
 Alpha virt. eigenvalues --    3.42127   3.43128   3.44618   3.46240   3.49290
 Alpha virt. eigenvalues --    3.53141   3.54444   3.58211   3.63798   3.66153
 Alpha virt. eigenvalues --    3.69557   3.74417   3.76975   3.80340   3.80889
 Alpha virt. eigenvalues --    3.86006   3.88270   3.92517   3.95481   3.98901
 Alpha virt. eigenvalues --    4.01480   4.06710   4.12796   4.15073   4.16693
 Alpha virt. eigenvalues --    4.17792   4.19316   4.24598   4.26523   4.27762
 Alpha virt. eigenvalues --    4.30383   4.32351   4.32922   4.37899   4.39636
 Alpha virt. eigenvalues --    4.41560   4.43521   4.46641   4.48355   4.49553
 Alpha virt. eigenvalues --    4.50476   4.53106   4.54758   4.57539   4.59482
 Alpha virt. eigenvalues --    4.60191   4.62022   4.64043   4.65522   4.67667
 Alpha virt. eigenvalues --    4.70510   4.72356   4.74719   4.75984   4.77369
 Alpha virt. eigenvalues --    4.79578   4.79776   4.83268   4.84501   4.88116
 Alpha virt. eigenvalues --    4.88339   4.90337   4.90990   4.94801   5.00409
 Alpha virt. eigenvalues --    5.01231   5.03974   5.06047   5.09352   5.10404
 Alpha virt. eigenvalues --    5.11171   5.15396   5.23883   5.25483   5.36295
 Alpha virt. eigenvalues --    5.37705   5.38747   5.41294   5.45827   5.47571
 Alpha virt. eigenvalues --    5.52246   5.53493   5.55843   5.59766   5.61051
 Alpha virt. eigenvalues --    5.66932   5.67172   5.78517   5.94009   5.97833
 Alpha virt. eigenvalues --    6.06198   6.07129   6.17422   6.40227   6.55314
 Alpha virt. eigenvalues --    6.76306   6.89626   7.06417   7.07585  11.11127
 Alpha virt. eigenvalues --   11.63025  11.64178  11.87739  12.25074  12.69201
 Alpha virt. eigenvalues --   12.80841  13.18132  13.32810
          Condensed to atoms (all electrons):
               1          2          3          4          5          6
     1  O    7.824022   0.365526  -0.050796   0.003341  -0.000158   0.001401
     2  C    0.365526   4.816427   0.391225  -0.018838  -0.006145  -0.027540
     3  C   -0.050796   0.391225   4.900315   0.277763  -0.038600   0.313860
     4  C    0.003341  -0.018838   0.277763   4.916013   0.334198  -0.003108
     5  C   -0.000158  -0.006145  -0.038600   0.334198   5.023268   0.295255
     6  C    0.001401  -0.027540   0.313860  -0.003108   0.295255   5.168306
     7  C    0.000048   0.000418  -0.016783  -0.024777  -0.012821   0.367361
     8  O    0.000000  -0.000029  -0.001866   0.003051  -0.001297  -0.060450
     9  C   -0.000088   0.000950  -0.002919   0.324432  -0.014257  -0.175628
    10  H    0.312732  -0.069158  -0.002417   0.000003  -0.000217   0.005561
    11  H   -0.027499   0.353589  -0.037693   0.000246   0.002917  -0.011864
    12  H   -0.016223   0.346500  -0.020498  -0.001055  -0.000522   0.004621
    13  H    0.002695  -0.039628   0.361375  -0.043860   0.011566  -0.052407
    14  H    0.000019  -0.002599  -0.039414   0.373254  -0.039542   0.005472
    15  H   -0.000013   0.001706  -0.008893  -0.022941   0.370480  -0.019662
    16  H   -0.000002   0.000179   0.005593  -0.025478   0.364001  -0.026083
    17  H    0.000708  -0.000867  -0.039469   0.007025  -0.038684   0.352318
    18  H   -0.000002   0.000170  -0.004264  -0.028743   0.004819   0.003746
    19  H    0.000000  -0.000099   0.002496  -0.023811  -0.005657   0.003866
               7          8          9         10         11         12
     1  O    0.000048   0.000000  -0.000088   0.312732  -0.027499  -0.016223
     2  C    0.000418  -0.000029   0.000950  -0.069158   0.353589   0.346500
     3  C   -0.016783  -0.001866  -0.002919  -0.002417  -0.037693  -0.020498
     4  C   -0.024777   0.003051   0.324432   0.000003   0.000246  -0.001055
     5  C   -0.012821  -0.001297  -0.014257  -0.000217   0.002917  -0.000522
     6  C    0.367361  -0.060450  -0.175628   0.005561  -0.011864   0.004621
     7  C    4.188384   0.831723   0.288752   0.000072   0.000046   0.000028
     8  O    0.831723   7.633005  -0.070616   0.000001  -0.000001   0.000000
     9  C    0.288752  -0.070616   5.303009   0.000012   0.000003  -0.000083
    10  H    0.000072   0.000001   0.000012   0.463494  -0.004350   0.007457
    11  H    0.000046  -0.000001   0.000003  -0.004350   0.665962  -0.045263
    12  H    0.000028   0.000000  -0.000083   0.007457  -0.045263   0.612079
    13  H   -0.002620   0.000254  -0.000320  -0.000065   0.007569  -0.004577
    14  H    0.005580  -0.000036  -0.040053   0.000012  -0.000021   0.002634
    15  H    0.001604  -0.000035   0.002762  -0.000091   0.005610  -0.000198
    16  H   -0.005170   0.000296  -0.001827  -0.000003  -0.000226  -0.000001
    17  H   -0.029050   0.000488   0.010844   0.001866   0.000065  -0.000038
    18  H   -0.015143  -0.000254   0.358358  -0.000001   0.000004  -0.000036
    19  H   -0.014010  -0.000319   0.354531   0.000000   0.000006   0.000001
              13         14         15         16         17         18
     1  O    0.002695   0.000019  -0.000013  -0.000002   0.000708  -0.000002
     2  C   -0.039628  -0.002599   0.001706   0.000179  -0.000867   0.000170
     3  C    0.361375  -0.039414  -0.008893   0.005593  -0.039469  -0.004264
     4  C   -0.043860   0.373254  -0.022941  -0.025478   0.007025  -0.028743
     5  C    0.011566  -0.039542   0.370480   0.364001  -0.038684   0.004819
     6  C   -0.052407   0.005472  -0.019662  -0.026083   0.352318   0.003746
     7  C   -0.002620   0.005580   0.001604  -0.005170  -0.029050  -0.015143
     8  O    0.000254  -0.000036  -0.000035   0.000296   0.000488  -0.000254
     9  C   -0.000320  -0.040053   0.002762  -0.001827   0.010844   0.358358
    10  H   -0.000065   0.000012  -0.000091  -0.000003   0.001866  -0.000001
    11  H    0.007569  -0.000021   0.005610  -0.000226   0.000065   0.000004
    12  H   -0.004577   0.002634  -0.000198  -0.000001  -0.000038  -0.000036
    13  H    0.669603   0.001312  -0.000167  -0.000549   0.000893   0.004047
    14  H    0.001312   0.662294  -0.002306   0.001613  -0.000471  -0.000476
    15  H   -0.000167  -0.002306   0.596981  -0.037416  -0.001169  -0.000179
    16  H   -0.000549   0.001613  -0.037416   0.614026   0.001348  -0.000095
    17  H    0.000893  -0.000471  -0.001169   0.001348   0.661608  -0.000114
    18  H    0.004047  -0.000476  -0.000179  -0.000095  -0.000114   0.583653
    19  H   -0.000074   0.000003   0.000123   0.003374  -0.000090  -0.031679
              19
     1  O    0.000000
     2  C   -0.000099
     3  C    0.002496
     4  C   -0.023811
     5  C   -0.005657
     6  C    0.003866
     7  C   -0.014010
     8  O   -0.000319
     9  C    0.354531
    10  H    0.000000
    11  H    0.000006
    12  H    0.000001
    13  H   -0.000074
    14  H    0.000003
    15  H    0.000123
    16  H    0.003374
    17  H   -0.000090
    18  H   -0.031679
    19  H    0.587106
 Mulliken charges:
               1
     1  O   -0.415714
     2  C   -0.111788
     3  C    0.010986
     4  C   -0.046714
     5  C   -0.248606
     6  C   -0.145026
     7  C    0.436356
     8  O   -0.333915
     9  C   -0.337860
    10  H    0.285092
    11  H    0.090898
    12  H    0.115174
    13  H    0.084953
    14  H    0.072724
    15  H    0.113805
    16  H    0.106422
    17  H    0.072790
    18  H    0.126190
    19  H    0.124232
 Sum of Mulliken charges =   0.00000
 Mulliken charges with hydrogens summed into heavy atoms:
               1
     1  O   -0.130622
     2  C    0.094285
     3  C    0.095939
     4  C    0.026010
     5  C   -0.028379
     6  C   -0.072236
     7  C    0.436356
     8  O   -0.333915
     9  C   -0.087438
 Electronic spatial extent (au):  <R**2>=           1200.5725
 Charge=              0.0000 electrons
 Dipole moment (field-independent basis, Debye):
    X=              0.9141    Y=              2.5182    Z=              0.9090  Tot=              2.8290
 Quadrupole moment (field-independent basis, Debye-Ang):
   XX=            -64.4404   YY=            -54.6441   ZZ=            -50.7775
   XY=             -4.4930   XZ=              2.7228   YZ=             -2.0512
 Traceless Quadrupole moment (field-independent basis, Debye-Ang):
   XX=             -7.8197   YY=              1.9765   ZZ=              5.8432
   XY=             -4.4930   XZ=              2.7228   YZ=             -2.0512
 Octapole moment (field-independent basis, Debye-Ang**2):
  XXX=             -4.3261  YYY=             -6.7225  ZZZ=             -2.0108  XYY=             13.0482
  XXY=             19.7639  XXZ=              7.4563  XZZ=              1.8860  YZZ=             -3.4947
  YYZ=              2.7764  XYZ=             -5.4220
 Hexadecapole moment (field-independent basis, Debye-Ang**3):
 XXXX=          -1060.1469 YYYY=           -343.4591 ZZZZ=           -207.7857 XXXY=            -14.6693
 XXXZ=             13.0025 YYYX=            -22.9976 YYYZ=             -6.4323 ZZZX=              1.6243
 ZZZY=              0.2808 XXYY=           -228.2142 XXZZ=           -181.7964 YYZZ=            -89.8102
 XXYZ=            -14.2839 YYXZ=              6.8238 ZZXY=              0.1231
 N-N= 4.602135060342D+02 E-N=-1.907006768054D+03  KE= 4.200936723585D+02
 Calling FoFJK, ICntrl=      2127 FMM=F ISym2X=0 I1Cent= 0 IOpClX= 0 NMat=1 NMatS=1 NMatT=0.
 ***** Axes restored to original set *****
 -------------------------------------------------------------------
 Center     Atomic                   Forces (Hartrees/Bohr)
 Number     Number              X              Y              Z
 -------------------------------------------------------------------
      1        8           0.000026508   -0.000060460    0.000014923
      2        6           0.000001935    0.000029506   -0.000042586
      3        6          -0.000040971    0.000008783    0.000042811
      4        6           0.000014262    0.000047130    0.000067067
      5        6           0.000012364   -0.000071483   -0.000035674
      6        6          -0.000014388    0.000074821   -0.000018488
      7        6           0.000047737   -0.000011902   -0.000077446
      8        8          -0.000057527    0.000003794    0.000075620
      9        6           0.000034717   -0.000039054   -0.000042603
     10        1          -0.000027618    0.000007869   -0.000008342
     11        1          -0.000000785    0.000000138    0.000001940
     12        1           0.000009339    0.000003289    0.000015921
     13        1          -0.000002490    0.000013484   -0.000000255
     14        1           0.000001283    0.000011628   -0.000034697
     15        1           0.000009641   -0.000002102    0.000016755
     16        1          -0.000002520    0.000011022    0.000008804
     17        1          -0.000009076   -0.000027593    0.000018119
     18        1          -0.000012324    0.000004259    0.000009821
     19        1           0.000009916   -0.000003128   -0.000011689
 -------------------------------------------------------------------
 Cartesian Forces:  Max     0.000077446 RMS     0.000031765

 GradGradGradGradGradGradGradGradGradGradGradGradGradGradGradGradGradGrad
 Berny optimization.
 FormGI is forming the generalized inverse of G from B-inverse, IUseBI=4.
 Internal  Forces:  Max     0.000095348 RMS     0.000013571
 Search for a local minimum.
 Step number   1 out of a maximum of  114
 All quantities printed in internal units (Hartrees-Bohrs-Radians)
 Mixed Optimization -- En-DIIS/RFO-DIIS
 Second derivative matrix not updated -- first step.
 ITU=  0
     Eigenvalues ---    0.00341   0.00453   0.00753   0.01441   0.01770
     Eigenvalues ---    0.02453   0.02548   0.02763   0.03133   0.03525
     Eigenvalues ---    0.04037   0.04184   0.04418   0.04772   0.05418
     Eigenvalues ---    0.05502   0.05841   0.05868   0.06624   0.06999
     Eigenvalues ---    0.07411   0.07635   0.08338   0.08718   0.11713
     Eigenvalues ---    0.12835   0.13988   0.14152   0.16000   0.20169
     Eigenvalues ---    0.21244   0.22004   0.22209   0.24526   0.24999
     Eigenvalues ---    0.26799   0.26960   0.29344   0.30018   0.33753
     Eigenvalues ---    0.34128   0.34134   0.34306   0.34331   0.34391
     Eigenvalues ---    0.34806   0.34874   0.34907   0.42619   0.54922
     Eigenvalues ---    1.04635
 RFO step:  Lambda=-1.95367270D-07 EMin= 3.41056252D-03
 Linear search not attempted -- first point.
 Iteration  1 RMS(Cart)=  0.00035601 RMS(Int)=  0.00000012
 Iteration  2 RMS(Cart)=  0.00000012 RMS(Int)=  0.00000002
 Variable       Old X    -DE/DX   Delta X   Delta X   Delta X     New X
                                 (Linear)    (Quad)   (Total)
    R1        2.68142   0.00005   0.00000   0.00011   0.00011   2.68153
    R2        1.81902  -0.00001   0.00000  -0.00002  -0.00002   1.81899
    R3        2.87928   0.00003   0.00000   0.00011   0.00011   2.87938
    R4        2.07750   0.00000   0.00000   0.00000   0.00000   2.07750
    R5        2.07114  -0.00002   0.00000  -0.00004  -0.00004   2.07110
    R6        2.95364  -0.00001   0.00000  -0.00004  -0.00004   2.95360
    R7        2.98335  -0.00001   0.00000   0.00002   0.00002   2.98336
    R8        2.07105   0.00000   0.00000  -0.00001  -0.00001   2.07104
    R9        2.94154  -0.00001   0.00000   0.00001   0.00001   2.94155
   R10        2.91290  -0.00003   0.00000  -0.00011  -0.00011   2.91279
   R11        2.05990   0.00003   0.00000   0.00010   0.00010   2.06000
   R12        2.95831  -0.00001   0.00000  -0.00008  -0.00008   2.95823
   R13        2.05880   0.00000   0.00000   0.00001   0.00001   2.05882
   R14        2.06675   0.00001   0.00000   0.00004   0.00004   2.06680
   R15        2.87954  -0.00002   0.00000  -0.00007  -0.00007   2.87947
   R16        2.05826   0.00003   0.00000   0.00008   0.00008   2.05834
   R17        2.26838   0.00010   0.00000   0.00009   0.00009   2.26847
   R18        2.92621   0.00000   0.00000  -0.00004  -0.00004   2.92617
   R19        2.06775   0.00001   0.00000   0.00002   0.00002   2.06777
   R20        2.06817  -0.00001   0.00000  -0.00003  -0.00003   2.06814
    A1        1.88349  -0.00001   0.00000  -0.00009  -0.00009   1.88340
    A2        1.95492   0.00002   0.00000   0.00011   0.00011   1.95504
    A3        1.94050   0.00000   0.00000  -0.00004  -0.00004   1.94047
    A4        1.84148   0.00000   0.00000   0.00006   0.00006   1.84154
    A5        1.95487  -0.00002   0.00000  -0.00015  -0.00015   1.95472
    A6        1.89970   0.00001   0.00000   0.00008   0.00008   1.89978
    A7        1.86612   0.00000   0.00000  -0.00007  -0.00007   1.86606
    A8        2.06017  -0.00002   0.00000  -0.00024  -0.00024   2.05993
    A9        2.04133   0.00000   0.00000   0.00004   0.00004   2.04136
   A10        1.87784   0.00001   0.00000   0.00014   0.00014   1.87798
   A11        1.43776   0.00000   0.00000   0.00000   0.00000   1.43777
   A12        2.01786   0.00000   0.00000  -0.00003  -0.00003   2.01783
   A13        2.00557   0.00000   0.00000   0.00005   0.00005   2.00562
   A14        1.52684  -0.00001   0.00000  -0.00009  -0.00009   1.52675
   A15        1.76861  -0.00001   0.00000  -0.00024  -0.00024   1.76836
   A16        2.12038   0.00000   0.00000  -0.00005  -0.00005   2.12033
   A17        1.77112   0.00001   0.00000   0.00030   0.00030   1.77142
   A18        2.12544   0.00001   0.00000   0.00014   0.00014   2.12558
   A19        2.05189   0.00000   0.00000  -0.00006  -0.00006   2.05184
   A20        1.44883   0.00000   0.00000   0.00002   0.00002   1.44885
   A21        1.98788   0.00001   0.00000   0.00016   0.00016   1.98804
   A22        2.05825  -0.00001   0.00000  -0.00010  -0.00010   2.05815
   A23        1.96919   0.00001   0.00000   0.00001   0.00001   1.96920
   A24        2.05239  -0.00001   0.00000  -0.00005  -0.00005   2.05235
   A25        1.91221   0.00000   0.00000  -0.00003  -0.00003   1.91218
   A26        1.51190  -0.00001   0.00000  -0.00008  -0.00008   1.51183
   A27        1.73315   0.00000   0.00000   0.00006   0.00006   1.73321
   A28        2.16615   0.00000   0.00000  -0.00005  -0.00005   2.16610
   A29        1.74246   0.00001   0.00000   0.00009   0.00009   1.74255
   A30        2.16086   0.00000   0.00000   0.00006   0.00006   2.16093
   A31        2.03582  -0.00001   0.00000  -0.00007  -0.00007   2.03575
   A32        2.25782   0.00000   0.00000   0.00002   0.00002   2.25784
   A33        1.77963  -0.00001   0.00000  -0.00005  -0.00005   1.77958
   A34        2.24573   0.00001   0.00000   0.00003   0.00003   2.24576
   A35        1.70370   0.00001   0.00000   0.00007   0.00007   1.70377
   A36        1.99345   0.00001   0.00000   0.00020   0.00020   1.99365
   A37        1.98952  -0.00001   0.00000  -0.00012  -0.00012   1.98940
   A38        1.93962  -0.00001   0.00000  -0.00012  -0.00012   1.93950
   A39        1.94140   0.00000   0.00000   0.00001   0.00001   1.94141
   A40        1.89130   0.00000   0.00000  -0.00004  -0.00004   1.89127
    D1       -1.11543   0.00002   0.00000   0.00087   0.00087  -1.11455
    D2        1.08652   0.00001   0.00000   0.00074   0.00074   1.08726
    D3        3.10344   0.00000   0.00000   0.00068   0.00068   3.10412
    D4        3.02107   0.00000   0.00000   0.00006   0.00006   3.02113
    D5        1.34781   0.00000   0.00000   0.00017   0.00017   1.34798
    D6       -0.93985  -0.00001   0.00000  -0.00006  -0.00006  -0.93991
    D7        0.82697   0.00000   0.00000   0.00014   0.00014   0.82710
    D8       -0.84630   0.00000   0.00000   0.00024   0.00024  -0.84605
    D9       -3.13396  -0.00001   0.00000   0.00001   0.00001  -3.13394
   D10       -1.23271   0.00001   0.00000   0.00025   0.00025  -1.23246
   D11       -2.90598   0.00001   0.00000   0.00036   0.00036  -2.90561
   D12        1.08955   0.00000   0.00000   0.00013   0.00013   1.08968
   D13       -1.45303   0.00000   0.00000   0.00008   0.00008  -1.45295
   D14        3.06379  -0.00001   0.00000  -0.00020  -0.00020   3.06358
   D15        0.75036   0.00000   0.00000   0.00017   0.00017   0.75052
   D16        0.58112   0.00000   0.00000   0.00010   0.00010   0.58122
   D17       -1.18524  -0.00001   0.00000  -0.00019  -0.00019  -1.18543
   D18        2.78451   0.00001   0.00000   0.00018   0.00018   2.78469
   D19        2.57122   0.00000   0.00000   0.00015   0.00015   2.57137
   D20        0.80485  -0.00001   0.00000  -0.00014  -0.00014   0.80472
   D21       -1.50858   0.00000   0.00000   0.00024   0.00024  -1.50834
   D22        1.47542  -0.00002   0.00000  -0.00038  -0.00038   1.47504
   D23       -3.07249  -0.00001   0.00000  -0.00030  -0.00030  -3.07279
   D24       -0.78115  -0.00002   0.00000  -0.00038  -0.00038  -0.78153
   D25       -0.57790   0.00000   0.00000  -0.00012  -0.00012  -0.57802
   D26        1.15737   0.00001   0.00000  -0.00004  -0.00004   1.15734
   D27       -2.83447   0.00000   0.00000  -0.00011  -0.00011  -2.83458
   D28       -2.58079   0.00000   0.00000  -0.00009  -0.00009  -2.58088
   D29       -0.84551   0.00001   0.00000  -0.00001  -0.00001  -0.84552
   D30        1.44583   0.00000   0.00000  -0.00009  -0.00009   1.44574
   D31       -0.58575   0.00000   0.00000  -0.00012  -0.00012  -0.58587
   D32        1.36748   0.00000   0.00000  -0.00009  -0.00009   1.36739
   D33       -2.63815   0.00000   0.00000  -0.00006  -0.00006  -2.63821
   D34        1.17804  -0.00002   0.00000  -0.00039  -0.00039   1.17766
   D35        3.13127  -0.00001   0.00000  -0.00035  -0.00035   3.13091
   D36       -0.87436  -0.00001   0.00000  -0.00033  -0.00033  -0.87469
   D37       -2.78487   0.00000   0.00000  -0.00005  -0.00005  -2.78492
   D38       -0.83164   0.00000   0.00000  -0.00002  -0.00002  -0.83166
   D39        1.44592   0.00000   0.00000   0.00001   0.00001   1.44593
   D40        0.78420   0.00001   0.00000   0.00046   0.00046   0.78467
   D41       -1.26341   0.00001   0.00000   0.00049   0.00049  -1.26292
   D42        2.83237   0.00000   0.00000   0.00047   0.00047   2.83284
   D43       -0.78156   0.00001   0.00000   0.00055   0.00055  -0.78101
   D44       -2.82916   0.00001   0.00000   0.00057   0.00057  -2.82859
   D45        1.26661   0.00001   0.00000   0.00055   0.00055   1.26717
   D46        3.13822   0.00000   0.00000   0.00012   0.00012   3.13834
   D47        1.09061   0.00000   0.00000   0.00015   0.00015   1.09076
   D48       -1.09680   0.00000   0.00000   0.00013   0.00013  -1.09667
   D49        0.57966   0.00000   0.00000   0.00010   0.00010   0.57976
   D50       -1.14587   0.00001   0.00000   0.00006   0.00006  -1.14581
   D51        2.84056   0.00000   0.00000   0.00001   0.00001   2.84057
   D52       -1.39308  -0.00001   0.00000  -0.00008  -0.00008  -1.39316
   D53       -3.11861   0.00000   0.00000  -0.00013  -0.00013  -3.11874
   D54        0.86781  -0.00001   0.00000  -0.00017  -0.00017   0.86764
   D55        2.63792   0.00000   0.00000   0.00000   0.00000   2.63791
   D56        0.91239   0.00000   0.00000  -0.00005  -0.00005   0.91234
   D57       -1.38437   0.00000   0.00000  -0.00009  -0.00009  -1.38447
   D58        2.35989   0.00001   0.00000   0.00117   0.00117   2.36106
   D59       -0.77686   0.00000   0.00000   0.00042   0.00042  -0.77645
   D60       -2.38464   0.00000   0.00000   0.00112   0.00112  -2.38352
   D61        0.76179   0.00000   0.00000   0.00036   0.00036   0.76216
   D62       -0.01178   0.00001   0.00000   0.00123   0.00123  -0.01055
   D63        3.13465   0.00000   0.00000   0.00048   0.00048   3.13513
   D64        0.00499  -0.00001   0.00000  -0.00051  -0.00051   0.00448
   D65        2.09401   0.00001   0.00000  -0.00029  -0.00029   2.09372
   D66       -2.08024   0.00000   0.00000  -0.00041  -0.00041  -2.08065
   D67       -3.13181  -0.00001   0.00000  -0.00126  -0.00126  -3.13307
   D68       -1.04279   0.00001   0.00000  -0.00104  -0.00104  -1.04383
   D69        1.06615   0.00000   0.00000  -0.00116  -0.00116   1.06499
         Item               Value     Threshold  Converged?
 Maximum Force            0.000095     0.000450     YES
 RMS     Force            0.000014     0.000300     YES
 Maximum Displacement     0.001928     0.001800     NO 
 RMS     Displacement     0.000356     0.001200     YES
 Predicted change in Energy=-9.769085D-08
 GradGradGradGradGradGradGradGradGradGradGradGradGradGradGradGradGradGrad

                          Input orientation:                          
 ---------------------------------------------------------------------
 Center     Atomic      Atomic             Coordinates (Angstroms)
 Number     Number       Type             X           Y           Z
 ---------------------------------------------------------------------
      1          8           0        0.718012   -2.049989    0.882427
      2          6           0        0.794420   -0.674511    0.542138
      3          6           0       -0.312741    0.139176    1.200761
      4          6           0       -0.266550    1.694714    1.055607
      5          6           0        0.724160    1.708450    2.256151
      6          6           0       -0.132461    0.486932    2.730123
      7          6           0       -1.463379    1.184544    2.982732
      8          8           0       -2.227042    1.058380    3.900293
      9          6           0       -1.585647    2.101861    1.741232
     10          1           0        0.862192   -2.128747    1.830872
     11          1           0        1.791388   -0.266025    0.760764
     12          1           0        0.664607   -0.633954   -0.545369
     13          1           0       -1.268130   -0.332447    0.944051
     14          1           0       -0.024013    2.170931    0.105489
     15          1           0        1.743855    1.431861    1.990285
     16          1           0        0.740371    2.594797    2.896705
     17          1           0        0.195530   -0.227194    3.484355
     18          1           0       -2.483945    1.865216    1.162980
     19          1           0       -1.629663    3.156461    2.030399
 ---------------------------------------------------------------------
                    Distance matrix (angstroms):
                    1          2          3          4          5
     1  O    0.000000
     2  C    1.419004   0.000000
     3  C    2.440539   1.523705   0.000000
     4  C    3.875842   2.646230   1.562978   0.000000
     5  C    4.001627   2.936202   2.156765   1.556599   0.000000
     6  C    3.251654   2.644870   1.578728   2.068990   1.565426
     7  C    4.430796   3.809231   2.364779   2.325184   2.363837
     8  O    5.238589   4.838321   3.434670   3.512931   3.440260
     9  C    4.825168   3.848479   2.400944   1.541385   2.398984
    10  H    0.962569   1.944282   2.630776   4.061274   3.863159
    11  H    2.085537   1.099366   2.187497   2.857716   2.696982
    12  H    2.011619   1.095978   2.145206   2.975377   3.652248
    13  H    2.626501   2.129003   1.095946   2.263844   3.139441
    14  H    4.355502   2.992831   2.326159   1.090107   2.323575
    15  H    3.795126   2.726786   2.554206   2.232587   1.089479
    16  H    5.062791   4.029303   3.164703   2.283349   1.093701
    17  H    3.219565   3.035688   2.367988   3.131463   2.352584
    18  H    5.065577   4.193249   2.773945   2.226531   3.392866
    19  H    5.825508   4.771525   3.395084   2.223736   2.772758
                    6          7          8          9         10
     6  C    0.000000
     7  C    1.523751   0.000000
     8  O    2.466398   1.200423   0.000000
     9  C    2.386976   1.548465   2.482294   0.000000
    10  H    2.939347   4.208677   4.897310   4.888558   0.000000
    11  H    2.854210   4.199381   5.268631   4.239407   2.340571
    12  H    3.552542   4.503638   5.566825   4.216263   2.814244
    13  H    2.269621   2.548648   3.404891   2.581118   2.924281
    14  H    3.120308   3.365006   4.526770   2.262549   4.716942
    15  H    2.227288   3.366373   4.422176   3.405366   3.671603
    16  H    2.287506   2.617772   3.489027   2.643571   4.843832
    17  H    1.089229   2.235310   2.773907   3.411095   2.606597
    18  H    3.144055   2.194622   2.865286   1.094218   5.253043
    19  H    3.139684   2.196144   2.873205   1.094412   5.846587
                   11         12         13         14         15
    11  H    0.000000
    12  H    1.763800   0.000000
    13  H    3.065723   2.458608   0.000000
    14  H    3.108669   2.960607   2.918547   0.000000
    15  H    2.096854   3.444112   3.644097   2.687758   0.000000
    16  H    3.721718   4.720005   4.051629   2.924865   1.783535
    17  H    3.156932   4.077274   2.933688   4.149209   2.716987
    18  H    4.794000   4.367801   2.521083   2.694998   4.329725
    19  H    5.002897   5.124988   3.671967   2.693448   3.788995
                   16         17         18         19
    16  H    0.000000
    17  H    2.933567   0.000000
    18  H    3.732868   4.116618   0.000000
    19  H    2.585153   4.110285   1.774690   0.000000
 Stoichiometry    C7H10O2
 Framework group  C1[X(C7H10O2)]
 Deg. of freedom    51
 Full point group                 C1      NOp   1
 Largest Abelian subgroup         C1      NOp   1
 Largest concise Abelian subgroup C1      NOp   1
                         Standard orientation:                         
 ---------------------------------------------------------------------
 Center     Atomic      Atomic             Coordinates (Angstroms)
 Number     Number       Type             X           Y           Z
 ---------------------------------------------------------------------
      1          8           0        2.856708   -0.948273   -0.201502
      2          6           0        2.148064    0.280644   -0.167438
      3          6           0        0.664677    0.092908   -0.460686
      4          6           0       -0.278204    1.328816   -0.298184
      5          6           0       -0.337746    0.996899    1.221450
      6          6           0       -0.229417   -0.478115    0.708464
      7          6           0       -1.556673   -0.594860   -0.030847
      8          8           0       -2.350506   -1.495328   -0.032741
      9          6           0       -1.620084    0.752540   -0.791266
     10          1           0        2.517066   -1.505549    0.506048
     11          1           0        2.316494    0.810124    0.781186
     12          1           0        2.590390    0.896107   -0.959095
     13          1           0        0.580393   -0.445525   -1.411519
     14          1           0        0.009909    2.316147   -0.659433
     15          1           0        0.542609    1.316563    1.778005
     16          1           0       -1.240472    1.276784    1.771844
     17          1           0        0.054117   -1.319842    1.338958
     18          1           0       -1.670043    0.593106   -1.872653
     19          1           0       -2.493775    1.337902   -0.488358
 ---------------------------------------------------------------------
 Rotational constants (GHZ):      3.0322864      1.1887240      1.0368782
 Standard basis: 6-31G(2df,p) (6D, 7F)
 There are   329 symmetry adapted cartesian basis functions of A   symmetry.
 There are   302 symmetry adapted basis functions of A   symmetry.
   302 basis functions,   466 primitive gaussians,   329 cartesian basis functions
    34 alpha electrons       34 beta electrons
       nuclear repulsion energy       460.2107490780 Hartrees.
 NAtoms=   19 NActive=   19 NUniq=   19 SFac= 1.00D+00 NAtFMM=   60 NAOKFM=F Big=F
 Integral buffers will be    131072 words long.
 Raffenetti 2 integral format.
 Two-electron integral symmetry is turned on.
 One-electron integrals computed using PRISM.
 NBasis=   302 RedAO= T EigKep=  4.44D-04  NBF=   302
 NBsUse=   302 1.00D-06 EigRej= -1.00D+00 NBFU=   302
 Initial guess from the checkpoint file:  "/scratch/puck/g09_63e9589c-5752-43db-ad75-0f457671dc4b/Gau-175120.chk"
 B after Tr=     0.000000    0.000000    0.000000
         Rot=    1.000000   -0.000160    0.000014    0.000069 Ang=  -0.02 deg.
 Requested convergence on RMS density matrix=1.00D-08 within 128 cycles.
 Requested convergence on MAX density matrix=1.00D-06.
 Requested convergence on             energy=1.00D-06.
 No special actions if energy rises.
 SCF Done:  E(RB3LYP) =  -423.185570858     A.U. after    7 cycles
            NFock=  7  Conv=0.36D-08     -V/T= 2.0074
 Calling FoFJK, ICntrl=      2127 FMM=F ISym2X=0 I1Cent= 0 IOpClX= 0 NMat=1 NMatS=1 NMatT=0.
 ***** Axes restored to original set *****
 -------------------------------------------------------------------
 Center     Atomic                   Forces (Hartrees/Bohr)
 Number     Number              X              Y              Z
 -------------------------------------------------------------------
      1        8           0.000014912   -0.000016931   -0.000007354
      2        6          -0.000005036    0.000009460    0.000002609
      3        6           0.000003431   -0.000033483   -0.000000502
      4        6           0.000003103   -0.000007650   -0.000006372
      5        6          -0.000024372    0.000006060    0.000005335
      6        6          -0.000012448   -0.000008113   -0.000013732
      7        6           0.000041975    0.000042829    0.000004285
      8        8          -0.000022098   -0.000013504   -0.000002446
      9        6           0.000027083    0.000017423    0.000006117
     10        1          -0.000021419    0.000001859    0.000004882
     11        1           0.000000185   -0.000008700   -0.000000390
     12        1          -0.000004611   -0.000003472    0.000005760
     13        1           0.000000104    0.000003982   -0.000003121
     14        1           0.000004483   -0.000001527   -0.000000934
     15        1          -0.000005195    0.000002835    0.000006195
     16        1           0.000001989    0.000000858    0.000006902
     17        1          -0.000006197   -0.000003505    0.000000552
     18        1           0.000009900    0.000006762   -0.000013410
     19        1          -0.000005790    0.000004817    0.000005625
 -------------------------------------------------------------------
 Cartesian Forces:  Max     0.000042829 RMS     0.000012996

 GradGradGradGradGradGradGradGradGradGradGradGradGradGradGradGradGradGrad
 Berny optimization.
 Using GEDIIS/GDIIS optimizer.
 FormGI is forming the generalized inverse of G from B-inverse, IUseBI=4.
 Internal  Forces:  Max     0.000018917 RMS     0.000005761
 Search for a local minimum.
 Step number   2 out of a maximum of  114
 All quantities printed in internal units (Hartrees-Bohrs-Radians)
 Mixed Optimization -- En-DIIS/RFO-DIIS
 Swapping is turned off.
 Update second derivatives using D2CorX and points    1    2
 DE= -1.95D-07 DEPred=-9.77D-08 R= 2.00D+00
 Trust test= 2.00D+00 RLast= 3.83D-03 DXMaxT set to 3.00D-01
 ITU=  0  0
     Eigenvalues ---    0.00443   0.00464   0.00693   0.01200   0.01837
     Eigenvalues ---    0.02440   0.02492   0.02765   0.03149   0.03623
     Eigenvalues ---    0.04035   0.04198   0.04421   0.04780   0.05420
     Eigenvalues ---    0.05492   0.05849   0.05859   0.06570   0.06959
     Eigenvalues ---    0.07568   0.08015   0.08438   0.09927   0.11714
     Eigenvalues ---    0.12953   0.13999   0.14141   0.15920   0.20178
     Eigenvalues ---    0.21684   0.21725   0.22320   0.24716   0.25000
     Eigenvalues ---    0.26731   0.26961   0.28943   0.29962   0.33754
     Eigenvalues ---    0.34000   0.34133   0.34295   0.34325   0.34345
     Eigenvalues ---    0.34676   0.34871   0.35015   0.42158   0.54917
     Eigenvalues ---    1.02685
 En-DIIS/RFO-DIIS IScMMF=        0 using points:     2    1
 RFO step:  Lambda=-1.43769587D-08.
 DidBck=T Rises=F RFO-DIIS coefs:    0.79124    0.20876
 Iteration  1 RMS(Cart)=  0.00015071 RMS(Int)=  0.00000007
 Iteration  2 RMS(Cart)=  0.00000006 RMS(Int)=  0.00000004
 Variable       Old X    -DE/DX   Delta X   Delta X   Delta X     New X
                                 (Linear)    (Quad)   (Total)
    R1        2.68153   0.00001  -0.00002   0.00008   0.00005   2.68158
    R2        1.81899   0.00000   0.00001  -0.00001  -0.00001   1.81899
    R3        2.87938   0.00000  -0.00002   0.00006   0.00004   2.87943
    R4        2.07750   0.00000   0.00000   0.00000   0.00000   2.07750
    R5        2.07110   0.00000   0.00001  -0.00003  -0.00002   2.07107
    R6        2.95360   0.00002   0.00001   0.00003   0.00004   2.95364
    R7        2.98336   0.00001   0.00000   0.00001   0.00000   2.98337
    R8        2.07104   0.00000   0.00000  -0.00001  -0.00001   2.07103
    R9        2.94155  -0.00001   0.00000  -0.00002  -0.00002   2.94152
   R10        2.91279  -0.00001   0.00002  -0.00008  -0.00006   2.91273
   R11        2.06000   0.00000  -0.00002   0.00006   0.00003   2.06004
   R12        2.95823   0.00000   0.00002  -0.00005  -0.00004   2.95819
   R13        2.05882  -0.00001   0.00000  -0.00001  -0.00002   2.05880
   R14        2.06680   0.00001  -0.00001   0.00004   0.00003   2.06682
   R15        2.87947  -0.00001   0.00001  -0.00006  -0.00005   2.87943
   R16        2.05834   0.00000  -0.00002   0.00005   0.00003   2.05838
   R17        2.26847   0.00001  -0.00002   0.00006   0.00004   2.26851
   R18        2.92617   0.00000   0.00001  -0.00001   0.00000   2.92617
   R19        2.06777   0.00000   0.00000   0.00001   0.00001   2.06778
   R20        2.06814   0.00000   0.00001  -0.00001   0.00000   2.06814
    A1        1.88340  -0.00001   0.00002  -0.00008  -0.00006   1.88334
    A2        1.95504   0.00001  -0.00002   0.00010   0.00008   1.95511
    A3        1.94047  -0.00001   0.00001  -0.00003  -0.00003   1.94044
    A4        1.84154   0.00000  -0.00001   0.00001  -0.00001   1.84153
    A5        1.95472   0.00000   0.00003  -0.00007  -0.00004   1.95468
    A6        1.89978   0.00000  -0.00002   0.00003   0.00001   1.89979
    A7        1.86606   0.00000   0.00001  -0.00003  -0.00002   1.86604
    A8        2.05993   0.00000   0.00005  -0.00013  -0.00008   2.05984
    A9        2.04136   0.00001  -0.00001   0.00006   0.00005   2.04141
   A10        1.87798   0.00000  -0.00003   0.00007   0.00004   1.87802
   A11        1.43777  -0.00001   0.00000  -0.00002  -0.00003   1.43774
   A12        2.01783   0.00000   0.00001  -0.00002  -0.00002   2.01782
   A13        2.00562   0.00000  -0.00001   0.00003   0.00002   2.00564
   A14        1.52675   0.00000   0.00002   0.00002   0.00004   1.52679
   A15        1.76836   0.00001   0.00005  -0.00009  -0.00004   1.76833
   A16        2.12033   0.00000   0.00001  -0.00004  -0.00003   2.12031
   A17        1.77142  -0.00001  -0.00006   0.00002  -0.00004   1.77138
   A18        2.12558   0.00000  -0.00003   0.00011   0.00008   2.12566
   A19        2.05184   0.00000   0.00001  -0.00004  -0.00002   2.05181
   A20        1.44885   0.00000   0.00000   0.00001   0.00001   1.44885
   A21        1.98804   0.00000  -0.00003   0.00009   0.00005   1.98809
   A22        2.05815   0.00000   0.00002  -0.00005  -0.00003   2.05812
   A23        1.96920   0.00000   0.00000   0.00005   0.00005   1.96925
   A24        2.05235   0.00000   0.00001  -0.00004  -0.00003   2.05231
   A25        1.91218   0.00000   0.00001  -0.00003  -0.00003   1.91216
   A26        1.51183   0.00001   0.00002   0.00004   0.00006   1.51188
   A27        1.73321   0.00001  -0.00001   0.00009   0.00008   1.73329
   A28        2.16610  -0.00001   0.00001  -0.00006  -0.00005   2.16605
   A29        1.74255  -0.00001  -0.00002  -0.00011  -0.00013   1.74242
   A30        2.16093   0.00000  -0.00001   0.00008   0.00006   2.16099
   A31        2.03575   0.00000   0.00002  -0.00003  -0.00002   2.03573
   A32        2.25784   0.00000   0.00000   0.00000   0.00000   2.25784
   A33        1.77958   0.00000   0.00001  -0.00002  -0.00001   1.77956
   A34        2.24576   0.00000  -0.00001   0.00002   0.00001   2.24577
   A35        1.70377   0.00000  -0.00001   0.00003   0.00001   1.70378
   A36        1.99365  -0.00001  -0.00004   0.00000  -0.00004   1.99361
   A37        1.98940   0.00001   0.00003   0.00007   0.00009   1.98949
   A38        1.93950   0.00000   0.00003  -0.00004  -0.00001   1.93949
   A39        1.94141   0.00000   0.00000  -0.00002  -0.00003   1.94138
   A40        1.89127   0.00000   0.00001  -0.00003  -0.00003   1.89124
    D1       -1.11455   0.00001  -0.00018   0.00093   0.00075  -1.11381
    D2        1.08726   0.00001  -0.00015   0.00089   0.00074   1.08800
    D3        3.10412   0.00001  -0.00014   0.00084   0.00070   3.10482
    D4        3.02113   0.00000  -0.00001   0.00004   0.00003   3.02116
    D5        1.34798   0.00000  -0.00004   0.00011   0.00008   1.34806
    D6       -0.93991   0.00000   0.00001  -0.00004  -0.00003  -0.93994
    D7        0.82710   0.00000  -0.00003   0.00006   0.00003   0.82713
    D8       -0.84605   0.00000  -0.00005   0.00013   0.00008  -0.84597
    D9       -3.13394   0.00000   0.00000  -0.00002  -0.00003  -3.13397
   D10       -1.23246   0.00000  -0.00005   0.00012   0.00007  -1.23239
   D11       -2.90561   0.00000  -0.00008   0.00019   0.00012  -2.90549
   D12        1.08968   0.00000  -0.00003   0.00004   0.00001   1.08969
   D13       -1.45295  -0.00001  -0.00002  -0.00008  -0.00010  -1.45305
   D14        3.06358   0.00000   0.00004  -0.00011  -0.00007   3.06351
   D15        0.75052   0.00000  -0.00004   0.00006   0.00002   0.75055
   D16        0.58122  -0.00001  -0.00002  -0.00005  -0.00007   0.58115
   D17       -1.18543   0.00001   0.00004  -0.00008  -0.00004  -1.18547
   D18        2.78469   0.00000  -0.00004   0.00009   0.00006   2.78475
   D19        2.57137  -0.00001  -0.00003  -0.00003  -0.00006   2.57131
   D20        0.80472   0.00000   0.00003  -0.00006  -0.00003   0.80469
   D21       -1.50834   0.00000  -0.00005   0.00011   0.00006  -1.50828
   D22        1.47504   0.00001   0.00008  -0.00012  -0.00004   1.47500
   D23       -3.07279  -0.00001   0.00006  -0.00022  -0.00016  -3.07295
   D24       -0.78153   0.00000   0.00008  -0.00022  -0.00014  -0.78167
   D25       -0.57802   0.00001   0.00002   0.00004   0.00006  -0.57795
   D26        1.15734  -0.00001   0.00001  -0.00006  -0.00006   1.15728
   D27       -2.83458   0.00000   0.00002  -0.00007  -0.00004  -2.83462
   D28       -2.58088   0.00001   0.00002   0.00007   0.00009  -2.58079
   D29       -0.84552   0.00000   0.00000  -0.00003  -0.00003  -0.84555
   D30        1.44574   0.00000   0.00002  -0.00003  -0.00001   1.44573
   D31       -0.58587   0.00000   0.00002   0.00004   0.00006  -0.58580
   D32        1.36739   0.00000   0.00002   0.00010   0.00012   1.36751
   D33       -2.63821   0.00000   0.00001   0.00009   0.00010  -2.63811
   D34        1.17766   0.00001   0.00008  -0.00005   0.00003   1.17769
   D35        3.13091   0.00001   0.00007   0.00001   0.00009   3.13100
   D36       -0.87469   0.00001   0.00007   0.00000   0.00007  -0.87462
   D37       -2.78492   0.00000   0.00001   0.00002   0.00003  -2.78489
   D38       -0.83166   0.00000   0.00000   0.00008   0.00009  -0.83158
   D39        1.44593   0.00000   0.00000   0.00007   0.00007   1.44599
   D40        0.78467   0.00000  -0.00010   0.00026   0.00016   0.78482
   D41       -1.26292   0.00000  -0.00010   0.00028   0.00018  -1.26274
   D42        2.83284   0.00000  -0.00010   0.00027   0.00017   2.83301
   D43       -0.78101   0.00000  -0.00011   0.00024   0.00013  -0.78088
   D44       -2.82859  -0.00001  -0.00012   0.00027   0.00015  -2.82844
   D45        1.26717  -0.00001  -0.00012   0.00025   0.00014   1.26731
   D46        3.13834   0.00000  -0.00003   0.00010   0.00007   3.13841
   D47        1.09076   0.00000  -0.00003   0.00012   0.00009   1.09085
   D48       -1.09667   0.00000  -0.00003   0.00011   0.00008  -1.09659
   D49        0.57976   0.00000  -0.00002  -0.00003  -0.00005   0.57971
   D50       -1.14581  -0.00001  -0.00001  -0.00013  -0.00014  -1.14596
   D51        2.84057   0.00000   0.00000  -0.00004  -0.00004   2.84053
   D52       -1.39316   0.00000   0.00002  -0.00013  -0.00011  -1.39328
   D53       -3.11874  -0.00001   0.00003  -0.00023  -0.00020  -3.11894
   D54        0.86764   0.00000   0.00004  -0.00013  -0.00010   0.86754
   D55        2.63791   0.00000   0.00000  -0.00009  -0.00009   2.63782
   D56        0.91234  -0.00001   0.00001  -0.00019  -0.00018   0.91216
   D57       -1.38447   0.00000   0.00002  -0.00010  -0.00008  -1.38454
   D58        2.36106  -0.00001  -0.00024  -0.00082  -0.00106   2.36000
   D59       -0.77645   0.00000  -0.00009   0.00024   0.00015  -0.77629
   D60       -2.38352  -0.00001  -0.00023  -0.00078  -0.00101  -2.38453
   D61        0.76216   0.00000  -0.00008   0.00028   0.00020   0.76236
   D62       -0.01055  -0.00001  -0.00026  -0.00079  -0.00105  -0.01160
   D63        3.13513   0.00000  -0.00010   0.00026   0.00016   3.13529
   D64        0.00448   0.00000   0.00011  -0.00030  -0.00019   0.00428
   D65        2.09372  -0.00001   0.00006  -0.00029  -0.00023   2.09348
   D66       -2.08065  -0.00001   0.00009  -0.00038  -0.00029  -2.08094
   D67       -3.13307   0.00001   0.00026   0.00075   0.00101  -3.13206
   D68       -1.04383   0.00000   0.00022   0.00075   0.00097  -1.04286
   D69        1.06499   0.00000   0.00024   0.00067   0.00091   1.06590
         Item               Value     Threshold  Converged?
 Maximum Force            0.000019     0.000450     YES
 RMS     Force            0.000006     0.000300     YES
 Maximum Displacement     0.000889     0.001800     YES
 RMS     Displacement     0.000151     0.001200     YES
 Predicted change in Energy=-3.938777D-08
 Optimization completed.
    -- Stationary point found.
                           ----------------------------
                           !   Optimized Parameters   !
                           ! (Angstroms and Degrees)  !
 --------------------------                            --------------------------
 ! Name  Definition              Value          Derivative Info.                !
 --------------------------------------------------------------------------------
 ! R1    R(1,2)                  1.419          -DE/DX =    0.0                 !
 ! R2    R(1,10)                 0.9626         -DE/DX =    0.0                 !
 ! R3    R(2,3)                  1.5237         -DE/DX =    0.0                 !
 ! R4    R(2,11)                 1.0994         -DE/DX =    0.0                 !
 ! R5    R(2,12)                 1.096          -DE/DX =    0.0                 !
 ! R6    R(3,4)                  1.563          -DE/DX =    0.0                 !
 ! R7    R(3,6)                  1.5787         -DE/DX =    0.0                 !
 ! R8    R(3,13)                 1.0959         -DE/DX =    0.0                 !
 ! R9    R(4,5)                  1.5566         -DE/DX =    0.0                 !
 ! R10   R(4,9)                  1.5414         -DE/DX =    0.0                 !
 ! R11   R(4,14)                 1.0901         -DE/DX =    0.0                 !
 ! R12   R(5,6)                  1.5654         -DE/DX =    0.0                 !
 ! R13   R(5,15)                 1.0895         -DE/DX =    0.0                 !
 ! R14   R(5,16)                 1.0937         -DE/DX =    0.0                 !
 ! R15   R(6,7)                  1.5238         -DE/DX =    0.0                 !
 ! R16   R(6,17)                 1.0892         -DE/DX =    0.0                 !
 ! R17   R(7,8)                  1.2004         -DE/DX =    0.0                 !
 ! R18   R(7,9)                  1.5485         -DE/DX =    0.0                 !
 ! R19   R(9,18)                 1.0942         -DE/DX =    0.0                 !
 ! R20   R(9,19)                 1.0944         -DE/DX =    0.0                 !
 ! A1    A(2,1,10)             107.9108         -DE/DX =    0.0                 !
 ! A2    A(1,2,3)              112.0154         -DE/DX =    0.0                 !
 ! A3    A(1,2,11)             111.1806         -DE/DX =    0.0                 !
 ! A4    A(1,2,12)             105.5125         -DE/DX =    0.0                 !
 ! A5    A(3,2,11)             111.9972         -DE/DX =    0.0                 !
 ! A6    A(3,2,12)             108.8495         -DE/DX =    0.0                 !
 ! A7    A(11,2,12)            106.9173         -DE/DX =    0.0                 !
 ! A8    A(2,3,4)              118.0252         -DE/DX =    0.0                 !
 ! A9    A(2,3,6)              116.9615         -DE/DX =    0.0                 !
 ! A10   A(2,3,13)             107.6005         -DE/DX =    0.0                 !
 ! A11   A(4,3,6)               82.3781         -DE/DX =    0.0                 !
 ! A12   A(4,3,13)             115.6133         -DE/DX =    0.0                 !
 ! A13   A(6,3,13)             114.9137         -DE/DX =    0.0                 !
 ! A14   A(3,4,5)               87.4762         -DE/DX =    0.0                 !
 ! A15   A(3,4,9)              101.3199         -DE/DX =    0.0                 !
 ! A16   A(3,4,14)             121.4862         -DE/DX =    0.0                 !
 ! A17   A(5,4,9)              101.4947         -DE/DX =    0.0                 !
 ! A18   A(5,4,14)             121.7866         -DE/DX =    0.0                 !
 ! A19   A(9,4,14)             117.5615         -DE/DX =    0.0                 !
 ! A20   A(4,5,6)               83.0129         -DE/DX =    0.0                 !
 ! A21   A(4,5,15)             113.9062         -DE/DX =    0.0                 !
 ! A22   A(4,5,16)             117.9236         -DE/DX =    0.0                 !
 ! A23   A(6,5,15)             112.8269         -DE/DX =    0.0                 !
 ! A24   A(6,5,16)             117.5909         -DE/DX =    0.0                 !
 ! A25   A(15,5,16)            109.5599         -DE/DX =    0.0                 !
 ! A26   A(3,6,5)               86.6213         -DE/DX =    0.0                 !
 ! A27   A(3,6,7)               99.3058         -DE/DX =    0.0                 !
 ! A28   A(3,6,17)             124.1084         -DE/DX =    0.0                 !
 ! A29   A(5,6,7)               99.8408         -DE/DX =    0.0                 !
 ! A30   A(5,6,17)             123.8119         -DE/DX =    0.0                 !
 ! A31   A(7,6,17)             116.64           -DE/DX =    0.0                 !
 ! A32   A(6,7,8)              129.3647         -DE/DX =    0.0                 !
 ! A33   A(6,7,9)              101.9624         -DE/DX =    0.0                 !
 ! A34   A(8,7,9)              128.6725         -DE/DX =    0.0                 !
 ! A35   A(4,9,7)               97.6186         -DE/DX =    0.0                 !
 ! A36   A(4,9,18)             114.2279         -DE/DX =    0.0                 !
 ! A37   A(4,9,19)             113.9841         -DE/DX =    0.0                 !
 ! A38   A(7,9,18)             111.125          -DE/DX =    0.0                 !
 ! A39   A(7,9,19)             111.2346         -DE/DX =    0.0                 !
 ! A40   A(18,9,19)            108.3617         -DE/DX =    0.0                 !
 ! D1    D(10,1,2,3)           -63.8592         -DE/DX =    0.0                 !
 ! D2    D(10,1,2,11)           62.2955         -DE/DX =    0.0                 !
 ! D3    D(10,1,2,12)          177.8532         -DE/DX =    0.0                 !
 ! D4    D(1,2,3,4)            173.0982         -DE/DX =    0.0                 !
 ! D5    D(1,2,3,6)             77.2336         -DE/DX =    0.0                 !
 ! D6    D(1,2,3,13)           -53.853          -DE/DX =    0.0                 !
 ! D7    D(11,2,3,4)            47.3894         -DE/DX =    0.0                 !
[...]

 GradGradGradGradGradGradGradGradGradGradGradGradGradGradGradGradGradGrad
 Berny optimization.
 Initialization pass.
                           ----------------------------
                           !    Initial Parameters    !
                           ! (Angstroms and Degrees)  !
 --------------------------                            --------------------------
 ! Name  Definition              Value          Derivative Info.                !
 --------------------------------------------------------------------------------
 ! R1    R(1,2)                  1.419          calculate D2E/DX2 analytically  !
 ! R2    R(1,10)                 0.9626         calculate D2E/DX2 analytically  !
 ! R3    R(2,3)                  1.5237         calculate D2E/DX2 analytically  !
 ! R4    R(2,11)                 1.0994         calculate D2E/DX2 analytically  !
 ! R5    R(2,12)                 1.096          calculate D2E/DX2 analytically  !
 ! R6    R(3,4)                  1.563          calculate D2E/DX2 analytically  !
 ! R7    R(3,6)                  1.5787         calculate D2E/DX2 analytically  !
 ! R8    R(3,13)                 1.0959         calculate D2E/DX2 analytically  !
 ! R9    R(4,5)                  1.5566         calculate D2E/DX2 analytically  !
 ! R10   R(4,9)                  1.5414         calculate D2E/DX2 analytically  !
 ! R11   R(4,14)                 1.0901         calculate D2E/DX2 analytically  !
 ! R12   R(5,6)                  1.5654         calculate D2E/DX2 analytically  !
 ! R13   R(5,15)                 1.0895         calculate D2E/DX2 analytically  !
 ! R14   R(5,16)                 1.0937         calculate D2E/DX2 analytically  !
 ! R15   R(6,7)                  1.5238         calculate D2E/DX2 analytically  !
 ! R16   R(6,17)                 1.0892         calculate D2E/DX2 analytically  !
 ! R17   R(7,8)                  1.2004         calculate D2E/DX2 analytically  !
 ! R18   R(7,9)                  1.5485         calculate D2E/DX2 analytically  !
 ! R19   R(9,18)                 1.0942         calculate D2E/DX2 analytically  !
 ! R20   R(9,19)                 1.0944         calculate D2E/DX2 analytically  !
 ! A1    A(2,1,10)             107.9108         calculate D2E/DX2 analytically  !
 ! A2    A(1,2,3)              112.0154         calculate D2E/DX2 analytically  !
 ! A3    A(1,2,11)             111.1806         calculate D2E/DX2 analytically  !
 ! A4    A(1,2,12)             105.5125         calculate D2E/DX2 analytically  !
 ! A5    A(3,2,11)             111.9972         calculate D2E/DX2 analytically  !
 ! A6    A(3,2,12)             108.8495         calculate D2E/DX2 analytically  !
 ! A7    A(11,2,12)            106.9173         calculate D2E/DX2 analytically  !
 ! A8    A(2,3,4)              118.0252         calculate D2E/DX2 analytically  !
 ! A9    A(2,3,6)              116.9615         calculate D2E/DX2 analytically  !
 ! A10   A(2,3,13)             107.6005         calculate D2E/DX2 analytically  !
 ! A11   A(4,3,6)               82.3781         calculate D2E/DX2 analytically  !
 ! A12   A(4,3,13)             115.6133         calculate D2E/DX2 analytically  !
 ! A13   A(6,3,13)             114.9137         calculate D2E/DX2 analytically  !
 ! A14   A(3,4,5)               87.4762         calculate D2E/DX2 analytically  !
 ! A15   A(3,4,9)              101.3199         calculate D2E/DX2 analytically  !
 ! A16   A(3,4,14)             121.4862         calculate D2E/DX2 analytically  !
 ! A17   A(5,4,9)              101.4947         calculate D2E/DX2 analytically  !
 ! A18   A(5,4,14)             121.7866         calculate D2E/DX2 analytically  !
 ! A19   A(9,4,14)             117.5615         calculate D2E/DX2 analytically  !
 ! A20   A(4,5,6)               83.0129         calculate D2E/DX2 analytically  !
 ! A21   A(4,5,15)             113.9062         calculate D2E/DX2 analytically  !
 ! A22   A(4,5,16)             117.9236         calculate D2E/DX2 analytically  !
 ! A23   A(6,5,15)             112.8269         calculate D2E/DX2 analytically  !
 ! A24   A(6,5,16)             117.5909         calculate D2E/DX2 analytically  !
 ! A25   A(15,5,16)            109.5599         calculate D2E/DX2 analytically  !
 ! A26   A(3,6,5)               86.6213         calculate D2E/DX2 analytically  !
 ! A27   A(3,6,7)               99.3058         calculate D2E/DX2 analytically  !
 ! A28   A(3,6,17)             124.1084         calculate D2E/DX2 analytically  !
 ! A29   A(5,6,7)               99.8408         calculate D2E/DX2 analytically  !
 ! A30   A(5,6,17)             123.8119         calculate D2E/DX2 analytically  !
 ! A31   A(7,6,17)             116.64           calculate D2E/DX2 analytically  !
 ! A32   A(6,7,8)              129.3647         calculate D2E/DX2 analytically  !
 ! A33   A(6,7,9)              101.9624         calculate D2E/DX2 analytically  !
 ! A34   A(8,7,9)              128.6725         calculate D2E/DX2 analytically  !
 ! A35   A(4,9,7)               97.6186         calculate D2E/DX2 analytically  !
 ! A36   A(4,9,18)             114.2279         calculate D2E/DX2 analytically  !
 ! A37   A(4,9,19)             113.9841         calculate D2E/DX2 analytically  !
 ! A38   A(7,9,18)             111.125          calculate D2E/DX2 analytically  !
 ! A39   A(7,9,19)             111.2346         calculate D2E/DX2 analytically  !
 ! A40   A(18,9,19)            108.3617         calculate D2E/DX2 analytically  !
 ! D1    D(10,1,2,3)           -63.8592         calculate D2E/DX2 analytically  !
 ! D2    D(10,1,2,11)           62.2955         calculate D2E/DX2 analytically  !
 ! D3    D(10,1,2,12)          177.8532         calculate D2E/DX2 analytically  !
 ! D4    D(1,2,3,4)            173.0982         calculate D2E/DX2 analytically  !
 ! D5    D(1,2,3,6)             77.2336         calculate D2E/DX2 analytically  !
 ! D6    D(1,2,3,13)           -53.853          calculate D2E/DX2 analytically  !
 ! D7    D(11,2,3,4)            47.3894         calculate D2E/DX2 analytically  !
 ! D8    D(11,2,3,6)           -48.4752         calculate D2E/DX2 analytically  !
 ! D9    D(11,2,3,13)         -179.5618         calculate D2E/DX2 analytically  !
 ! D10   D(12,2,3,4)           -70.6146         calculate D2E/DX2 analytically  !
 ! D11   D(12,2,3,6)          -166.4793         calculate D2E/DX2 analytically  !
 ! D12   D(12,2,3,13)           62.4342         calculate D2E/DX2 analytically  !
 ! D13   D(2,3,4,5)            -83.248          calculate D2E/DX2 analytically  !
 ! D14   D(2,3,4,9)            175.5304         calculate D2E/DX2 analytically  !
 ! D15   D(2,3,4,14)            43.0019         calculate D2E/DX2 analytically  !
 ! D16   D(6,3,4,5)             33.3013         calculate D2E/DX2 analytically  !
 ! D17   D(6,3,4,9)            -67.9203         calculate D2E/DX2 analytically  !
 ! D18   D(6,3,4,14)           159.5512         calculate D2E/DX2 analytically  !
 ! D19   D(13,3,4,5)           147.3284         calculate D2E/DX2 analytically  !
 ! D20   D(13,3,4,9)            46.1068         calculate D2E/DX2 analytically  !
 ! D21   D(13,3,4,14)          -86.4217         calculate D2E/DX2 analytically  !
 ! D22   D(2,3,6,5)             84.5135         calculate D2E/DX2 analytically  !
 ! D23   D(2,3,6,7)           -176.058          calculate D2E/DX2 analytically  !
 ! D24   D(2,3,6,17)           -44.7781         calculate D2E/DX2 analytically  !
 ! D25   D(4,3,6,5)            -33.1181         calculate D2E/DX2 analytically  !
 ! D26   D(4,3,6,7)             66.3105         calculate D2E/DX2 analytically  !
 ! D27   D(4,3,6,17)          -162.4096         calculate D2E/DX2 analytically  !
 ! D28   D(13,3,6,5)          -147.8734         calculate D2E/DX2 analytically  !
 ! D29   D(13,3,6,7)           -48.4448         calculate D2E/DX2 analytically  !
 ! D30   D(13,3,6,17)           82.8351         calculate D2E/DX2 analytically  !
 ! D31   D(3,4,5,6)            -33.5676         calculate D2E/DX2 analytically  !
 ! D32   D(3,4,5,15)            78.3457         calculate D2E/DX2 analytically  !
 ! D33   D(3,4,5,16)          -151.1583         calculate D2E/DX2 analytically  !
 ! D34   D(9,4,5,6)             67.4747         calculate D2E/DX2 analytically  !
 ! D35   D(9,4,5,15)           179.388          calculate D2E/DX2 analytically  !
 ! D36   D(9,4,5,16)           -50.1159         calculate D2E/DX2 analytically  !
 ! D37   D(14,4,5,6)          -159.564          calculate D2E/DX2 analytically  !
 ! D38   D(14,4,5,15)          -47.6506         calculate D2E/DX2 analytically  !
 ! D39   D(14,4,5,16)           82.8454         calculate D2E/DX2 analytically  !
 ! D40   D(3,4,9,7)             44.958          calculate D2E/DX2 analytically  !
 ! D41   D(3,4,9,18)           -72.3598         calculate D2E/DX2 analytically  !
 ! D42   D(3,4,9,19)           162.3099         calculate D2E/DX2 analytically  !
 ! D43   D(5,4,9,7)            -44.7486         calculate D2E/DX2 analytically  !
 ! D44   D(5,4,9,18)          -162.0664         calculate D2E/DX2 analytically  !
 ! D45   D(5,4,9,19)            72.6033         calculate D2E/DX2 analytically  !
 ! D46   D(14,4,9,7)           179.8137         calculate D2E/DX2 analytically  !
 ! D47   D(14,4,9,18)           62.4958         calculate D2E/DX2 analytically  !
 ! D48   D(14,4,9,19)          -62.8345         calculate D2E/DX2 analytically  !
 ! D49   D(4,5,6,3)             33.218          calculate D2E/DX2 analytically  !
 ! D50   D(4,5,6,7)            -65.6502         calculate D2E/DX2 analytically  !
 ! D51   D(4,5,6,17)           162.7525         calculate D2E/DX2 analytically  !
 ! D52   D(15,5,6,3)           -79.8223         calculate D2E/DX2 analytically  !
 ! D53   D(15,5,6,7)          -178.6906         calculate D2E/DX2 analytically  !
 ! D54   D(15,5,6,17)           49.7122         calculate D2E/DX2 analytically  !
 ! D55   D(16,5,6,3)           151.1414         calculate D2E/DX2 analytically  !
 ! D56   D(16,5,6,7)            52.2731         calculate D2E/DX2 analytically  !
 ! D57   D(16,5,6,17)          -79.3241         calculate D2E/DX2 analytically  !
 ! D58   D(3,6,7,8)            135.2788         calculate D2E/DX2 analytically  !
 ! D59   D(3,6,7,9)            -44.487          calculate D2E/DX2 analytically  !
 ! D60   D(5,6,7,8)           -136.5658         calculate D2E/DX2 analytically  !
 ! D61   D(5,6,7,9)             43.6683         calculate D2E/DX2 analytically  !
 ! D62   D(17,6,7,8)            -0.6045         calculate D2E/DX2 analytically  !
 ! D63   D(17,6,7,9)           179.6296         calculate D2E/DX2 analytically  !
 ! D64   D(6,7,9,4)              0.2565         calculate D2E/DX2 analytically  !
 ! D65   D(6,7,9,18)           119.9612         calculate D2E/DX2 analytically  !
 ! D66   D(6,7,9,19)          -119.2123         calculate D2E/DX2 analytically  !
 ! D67   D(8,7,9,4)           -179.5117         calculate D2E/DX2 analytically  !
 ! D68   D(8,7,9,18)           -59.807          calculate D2E/DX2 analytically  !
 ! D69   D(8,7,9,19)            61.0195         calculate D2E/DX2 analytically  !
 --------------------------------------------------------------------------------
 Trust Radius=3.00D-01 FncErr=1.00D-07 GrdErr=1.00D-07
 Number of steps in this run=      2 maximum allowed number of steps=      2.
 GradGradGradGradGradGradGradGradGradGradGradGradGradGradGradGradGradGrad

                          Input orientation:                          
 ---------------------------------------------------------------------
 Center     Atomic      Atomic             Coordinates (Angstroms)
 Number     Number       Type             X           Y           Z
 ---------------------------------------------------------------------
      1          8           0        0.718012   -2.049989    0.882427
      2          6           0        0.794420   -0.674511    0.542138
      3          6           0       -0.312741    0.139176    1.200761
      4          6           0       -0.266550    1.694714    1.055607
      5          6           0        0.724160    1.708450    2.256151
      6          6           0       -0.132461    0.486932    2.730123
      7          6           0       -1.463379    1.184544    2.982732
      8          8           0       -2.227042    1.058380    3.900293
      9          6           0       -1.585647    2.101861    1.741232
     10          1           0        0.862192   -2.128747    1.830872
     11          1           0        1.791388   -0.266025    0.760764
     12          1           0        0.664607   -0.633954   -0.545369
     13          1           0       -1.268130   -0.332447    0.944051
     14          1           0       -0.024013    2.170931    0.105489
     15          1           0        1.743855    1.431861    1.990285
     16          1           0        0.740371    2.594797    2.896705
     17          1           0        0.195530   -0.227194    3.484355
     18          1           0       -2.483945    1.865216    1.162980
     19          1           0       -1.629663    3.156461    2.030399
 ---------------------------------------------------------------------
                    Distance matrix (angstroms):
                    1          2          3          4          5
     1  O    0.000000
     2  C    1.419004   0.000000
     3  C    2.440539   1.523705   0.000000
     4  C    3.875842   2.646230   1.562978   0.000000
     5  C    4.001627   2.936202   2.156765   1.556599   0.000000
     6  C    3.251654   2.644870   1.578728   2.068990   1.565426
     7  C    4.430796   3.809231   2.364779   2.325184   2.363837
     8  O    5.238589   4.838321   3.434670   3.512931   3.440260
     9  C    4.825168   3.848479   2.400944   1.541385   2.398984
    10  H    0.962569   1.944282   2.630776   4.061274   3.863159
    11  H    2.085537   1.099366   2.187497   2.857716   2.696982
    12  H    2.011619   1.095978   2.145206   2.975377   3.652248
    13  H    2.626501   2.129003   1.095946   2.263844   3.139441
    14  H    4.355502   2.992831   2.326159   1.090107   2.323575
    15  H    3.795126   2.726786   2.554206   2.232587   1.089479
    16  H    5.062791   4.029303   3.164703   2.283349   1.093701
    17  H    3.219565   3.035688   2.367988   3.131463   2.352584
    18  H    5.065577   4.193249   2.773945   2.226531   3.392866
    19  H    5.825508   4.771525   3.395084   2.223736   2.772758
                    6          7          8          9         10
     6  C    0.000000
     7  C    1.523751   0.000000
     8  O    2.466398   1.200423   0.000000
     9  C    2.386976   1.548465   2.482294   0.000000
    10  H    2.939347   4.208677   4.897310   4.888558   0.000000
    11  H    2.854210   4.199381   5.268631   4.239407   2.340571
    12  H    3.552542   4.503638   5.566825   4.216263   2.814244
    13  H    2.269621   2.548648   3.404891   2.581118   2.924281
    14  H    3.120308   3.365006   4.526770   2.262549   4.716942
    15  H    2.227288   3.366373   4.422176   3.405366   3.671603
    16  H    2.287506   2.617772   3.489027   2.643571   4.843832
    17  H    1.089229   2.235310   2.773907   3.411095   2.606597
    18  H    3.144055   2.194622   2.865286   1.094218   5.253043
    19  H    3.139684   2.196144   2.873205   1.094412   5.846587
                   11         12         13         14         15
    11  H    0.000000
    12  H    1.763800   0.000000
    13  H    3.065723   2.458608   0.000000
    14  H    3.108669   2.960607   2.918547   0.000000
    15  H    2.096854   3.444112   3.644097   2.687758   0.000000
    16  H    3.721718   4.720005   4.051629   2.924865   1.783535
    17  H    3.156932   4.077274   2.933688   4.149209   2.716987
    18  H    4.794000   4.367801   2.521083   2.694998   4.329725
    19  H    5.002897   5.124988   3.671967   2.693448   3.788995
                   16         17         18         19
    16  H    0.000000
    17  H    2.933567   0.000000
    18  H    3.732868   4.116618   0.000000
    19  H    2.585153   4.110285   1.774690   0.000000
 Stoichiometry    C7H10O2
 Framework group  C1[X(C7H10O2)]
 Deg. of freedom    51
 Full point group                 C1      NOp   1
 Largest Abelian subgroup         C1      NOp   1
 Largest concise Abelian subgroup C1      NOp   1
                         Standard orientation:                         
 ---------------------------------------------------------------------
 Center     Atomic      Atomic             Coordinates (Angstroms)
 Number     Number       Type             X           Y           Z
 ---------------------------------------------------------------------
      1          8           0        2.856708   -0.948273   -0.201502
      2          6           0        2.148064    0.280644   -0.167438
      3          6           0        0.664677    0.092908   -0.460686
      4          6           0       -0.278204    1.328816   -0.298184
      5          6           0       -0.337746    0.996899    1.221450
      6          6           0       -0.229417   -0.478115    0.708464
      7          6           0       -1.556673   -0.594860   -0.030847
      8          8           0       -2.350506   -1.495328   -0.032741
      9          6           0       -1.620084    0.752540   -0.791266
     10          1           0        2.517066   -1.505549    0.506048
     11          1           0        2.316494    0.810124    0.781186
     12          1           0        2.590390    0.896107   -0.959095
     13          1           0        0.580393   -0.445525   -1.411519
     14          1           0        0.009909    2.316147   -0.659433
     15          1           0        0.542609    1.316563    1.778005
     16          1           0       -1.240472    1.276784    1.771844
     17          1           0        0.054117   -1.319842    1.338958
     18          1           0       -1.670043    0.593106   -1.872653
     19          1           0       -2.493775    1.337902   -0.488358
 ---------------------------------------------------------------------
 Rotational constants (GHZ):      3.0322864      1.1887240      1.0368782
 Standard basis: 6-31G(2df,p) (6D, 7F)
 There are   329 symmetry adapted cartesian basis functions of A   symmetry.
 There are   302 symmetry adapted basis functions of A   symmetry.
   302 basis functions,   466 primitive gaussians,   329 cartesian basis functions
    34 alpha electrons       34 beta electrons
       nuclear repulsion energy       460.2107490780 Hartrees.
 NAtoms=   19 NActive=   19 NUniq=   19 SFac= 1.00D+00 NAtFMM=   60 NAOKFM=F Big=F
 Integral buffers will be    131072 words long.
 Raffenetti 2 integral format.
 Two-electron integral symmetry is turned on.
 One-electron integrals computed using PRISM.
 NBasis=   302 RedAO= T EigKep=  4.44D-04  NBF=   302
 NBsUse=   302 1.00D-06 EigRej= -1.00D+00 NBFU=   302
 Initial guess from the checkpoint file:  "/scratch/puck/g09_63e9589c-5752-43db-ad75-0f457671dc4b/Gau-175120.chk"
 B after Tr=     0.000000    0.000000    0.000000
         Rot=    1.000000    0.000000    0.000000    0.000000 Ang=   0.00 deg.
 Requested convergence on RMS density matrix=1.00D-08 within 128 cycles.
 Requested convergence on MAX density matrix=1.00D-06.
 Requested convergence on             energy=1.00D-06.
 No special actions if energy rises.
 SCF Done:  E(RB3LYP) =  -423.185570858     A.U. after    1 cycles
            NFock=  1  Conv=0.18D-08     -V/T= 2.0074
 DoSCS=F DFT=T ScalE2(SS,OS)=  1.000000  1.000000
 Range of M.O.s used for correlation:     1   302
 NBasis=   302 NAE=    34 NBE=    34 NFC=     0 NFV=     0
 NROrb=    302 NOA=    34 NOB=    34 NVA=   268 NVB=   268

 **** Warning!!: The largest alpha MO coefficient is  0.18328154D+02

 Symmetrizing basis deriv contribution to polar:
 IMax=3 JMax=2 DiffMx= 0.00D+00
 G2DrvN: will do    20 centers at a time, making    1 passes.
 Calling FoFCou, ICntrl=  3107 FMM=F I1Cent=   0 AccDes= 0.00D+00.
