 Entering Gaussian System, Link 0=/home/puck/opt/gaussian_09/g09
 Input=dsC7O2H10nsd_4818.com
 Output=dsC7O2H10nsd_4818.log
 Initial command:
 /home/puck/opt/gaussian_09/l1.exe "/scratch/puck/g09_b3d8f9af-a5cb-4ce8-bf8b-7a8ad9b25a17/Gau-74415.inp" -scrdir="/scratch/puck/g09_b3d8f9af-a5cb-4ce8-bf8b-7a8ad9b25a17/"
 Entering Link 1 = /home/puck/opt/gaussian_09/l1.exe PID=     74489.
  
 Copyright (c) 1988,1990,1992,1993,1995,1998,2003,2009,2013,
            Gaussian, Inc.  All Rights Reserved.
  
 This is part of the Gaussian(R) 09 program.  It is based on
 the Gaussian(R) 03 system (copyright 2003, Gaussian, Inc.),
 the Gaussian(R) 98 system (copyright 1998, Gaussian, Inc.),
 the Gaussian(R) 94 system (copyright 1995, Gaussian, Inc.),
 the Gaussian 92(TM) system (copyright 1992, Gaussian, Inc.),
 the Gaussian 90(TM) system (copyright 1990, Gaussian, Inc.),
 the Gaussian 88(TM) system (copyright 1988, Gaussian, Inc.),
 the Gaussian 86(TM) system (copyright 1986, Carnegie Mellon
 University), and the Gaussian 82(TM) system (copyright 1983,
 Carnegie Mellon University). Gaussian is a federally registered
 trademark of Gaussian, Inc.
  
 This software contains proprietary and confidential information,
 including trade secrets, belonging to Gaussian, Inc.
  
 This software is provided under written license and may be
 used, copied, transmitted, or stored only in accord with that
 written license.
  
 The following legend is applicable only to US Government
 contracts under FAR:
  
                    RESTRICTED RIGHTS LEGEND
  
 Use, reproduction and disclosure by the US Government is
 subject to restrictions as set forth in subparagraphs (a)
 and (c) of the Commercial Computer Software - Restricted
 Rights clause in FAR 52.227-19.
  
 Gaussian, Inc.
 340 Quinnipiac St., Bldg. 40, Wallingford CT 06492
  
  
 ---------------------------------------------------------------
 Warning -- This program may not be used in any manner that
 competes with the business of Gaussian, Inc. or will provide
 assistance to any competitor of Gaussian, Inc.  The licensee
 of this program is prohibited from giving any competitor of
 Gaussian, Inc. access to this program.  By using this program,
 the user acknowledges that Gaussian, Inc. is engaged in the
 business of creating and licensing software in the field of
 computational chemistry and represents and warrants to the
 licensee that it is not a competitor of Gaussian, Inc. and that
 it will not use this program in any manner prohibited above.
 ---------------------------------------------------------------
  

 Cite this work as:
 Gaussian 09, Revision D.01,
 M. J. Frisch, G. W. Trucks, H. B. Schlegel, G. E. Scuseria, 
 M. A. Robb, J. R. Cheeseman, G. Scalmani, V. Barone, B. Mennucci, 
 G. A. Petersson, H. Nakatsuji, M. Caricato, X. Li, H. P. Hratchian, 
 A. F. Izmaylov, J. Bloino, G. Zheng, J. L. Sonnenberg, M. Hada, 
 M. Ehara, K. Toyota, R. Fukuda, J. Hasegawa, M. Ishida, T. Nakajima, 
 Y. Honda, O. Kitao, H. Nakai, T. Vreven, J. A. Montgomery, Jr., 
 J. E. Peralta, F. Ogliaro, M. Bearpark, J. J. Heyd, E. Brothers, 
 K. N. Kudin, V. N. Staroverov, T. Keith, R. Kobayashi, J. Normand, 
 K. Raghavachari, A. Rendell, J. C. Burant, S. S. Iyengar, J. Tomasi, 
 M. Cossi, N. Rega, J. M. Millam, M. Klene, J. E. Knox, J. B. Cross, 
 V. Bakken, C. Adamo, J. Jaramillo, R. Gomperts, R. E. Stratmann, 
 O. Yazyev, A. J. Austin, R. Cammi, C. Pomelli, J. W. Ochterski, 
 R. L. Martin, K. Morokuma, V. G. Zakrzewski, G. A. Voth, 
 P. Salvador, J. J. Dannenberg, S. Dapprich, A. D. Daniels, 
 O. Farkas, J. B. Foresman, J. V. Ortiz, J. Cioslowski, 
 and D. J. Fox, Gaussian, Inc., Wallingford CT, 2013.
 
 ******************************************
 Gaussian 09:  ES64L-G09RevD.01 24-Apr-2013
                28-Jan-2020 
 ******************************************
 -----------------------------
 # b3lyp 6-31G(2df,p) opt Freq
 -----------------------------
 1/14=-1,18=20,19=15,26=3,38=1/1,3;
 2/9=110,12=2,17=6,18=5,40=1/2;
 3/5=1,6=6,7=104,11=2,16=1,25=1,30=1,71=1,74=-5/1,2,3;
 4//1;
 5/5=2,38=5/2;
 6/7=2,8=2,9=2,10=2,28=1/1;
 7//1,2,3,16;
 1/14=-1,18=20,19=15,26=3/3(2);
 2/9=110/2;
 99//99;
 2/9=110/2;
 3/5=1,6=6,7=104,11=2,16=1,25=1,30=1,71=1,74=-5/1,2,3;
 4/5=5,16=3,69=1/1;
 5/5=2,38=5/2;
 7//1,2,3,16;
 1/14=-1,18=20,19=15,26=3/3(-5);
 2/9=110/2;
 6/7=2,8=2,9=2,10=2,19=2,28=1/1;
 99/9=1/99;
 -----
 titel
 -----
 Symbolic Z-matrix:
 Charge =  0 Multiplicity = 1
 C                     1.22115  -0.60956  -1.11369 
 C                     0.96946   0.2166    0.12481 
 C                     1.95914   1.22106   0.61642 
 O                     1.48163   2.42337   1.12991 
 C                     1.73253  -0.05322   1.4377 
 C                     1.00023   0.15907   2.74967 
 O                     1.83345   0.98748   3.56954 
 C                     2.77223  -1.04259   1.45619 
 C                     3.63606  -1.88061   1.47635 
 H                     0.65103  -1.54403  -1.08835 
 H                     0.92324  -0.0544   -2.00938 
 H                     2.2779   -0.87115  -1.20831 
 H                    -0.06503   0.50672   0.28868 
 H                     2.91345   1.28016   0.09321 
 H                     1.81418   2.48567   2.03659 
 H                     0.03846   0.65166   2.56251 
 H                     0.81008  -0.80572   3.2373 
 H                     1.40406   1.09644   4.42404 
 H                     4.40513  -2.61205   1.49831 
 

 GradGradGradGradGradGradGradGradGradGradGradGradGradGradGradGradGradGrad
 Berny optimization.
 Initialization pass.
                           ----------------------------
                           !    Initial Parameters    !
                           ! (Angstroms and Degrees)  !
 --------------------------                            --------------------------
 ! Name  Definition              Value          Derivative Info.                !
 --------------------------------------------------------------------------------
 ! R1    R(1,2)                  1.5099         estimate D2E/DX2                !
 ! R2    R(1,10)                 1.0949         estimate D2E/DX2                !
 ! R3    R(1,11)                 1.0951         estimate D2E/DX2                !
 ! R4    R(1,12)                 1.0927         estimate D2E/DX2                !
 ! R5    R(2,3)                  1.4934         estimate D2E/DX2                !
 ! R6    R(2,5)                  1.5423         estimate D2E/DX2                !
 ! R7    R(2,13)                 1.0868         estimate D2E/DX2                !
 ! R8    R(3,4)                  1.3918         estimate D2E/DX2                !
 ! R9    R(3,5)                  1.5329         estimate D2E/DX2                !
 ! R10   R(3,14)                 1.0899         estimate D2E/DX2                !
 ! R11   R(4,15)                 0.9678         estimate D2E/DX2                !
 ! R12   R(5,6)                  1.5174         estimate D2E/DX2                !
 ! R13   R(5,8)                  1.4353         estimate D2E/DX2                !
 ! R14   R(6,7)                  1.4327         estimate D2E/DX2                !
 ! R15   R(6,16)                 1.0967         estimate D2E/DX2                !
 ! R16   R(6,17)                 1.0976         estimate D2E/DX2                !
 ! R17   R(7,18)                 0.9625         estimate D2E/DX2                !
 ! R18   R(8,9)                  1.2037         estimate D2E/DX2                !
 ! R19   R(9,19)                 1.0616         estimate D2E/DX2                !
 ! A1    A(2,1,10)             111.1735         estimate D2E/DX2                !
 ! A2    A(2,1,11)             110.3751         estimate D2E/DX2                !
 ! A3    A(2,1,12)             111.2975         estimate D2E/DX2                !
 ! A4    A(10,1,11)            108.0552         estimate D2E/DX2                !
 ! A5    A(10,1,12)            107.5322         estimate D2E/DX2                !
 ! A6    A(11,1,12)            108.277          estimate D2E/DX2                !
 ! A7    A(1,2,3)              121.8432         estimate D2E/DX2                !
 ! A8    A(1,2,5)              121.3352         estimate D2E/DX2                !
 ! A9    A(1,2,13)             115.3667         estimate D2E/DX2                !
 ! A10   A(3,2,13)             113.6794         estimate D2E/DX2                !
 ! A11   A(5,2,13)             112.9092         estimate D2E/DX2                !
 ! A12   A(2,3,4)              118.3669         estimate D2E/DX2                !
 ! A13   A(2,3,14)             117.3029         estimate D2E/DX2                !
 ! A14   A(4,3,5)              118.0163         estimate D2E/DX2                !
 ! A15   A(4,3,14)             115.509          estimate D2E/DX2                !
 ! A16   A(5,3,14)             115.5764         estimate D2E/DX2                !
 ! A17   A(3,4,15)             106.4608         estimate D2E/DX2                !
 ! A18   A(2,5,6)              118.2129         estimate D2E/DX2                !
 ! A19   A(2,5,8)              119.336          estimate D2E/DX2                !
 ! A20   A(3,5,6)              114.7262         estimate D2E/DX2                !
 ! A21   A(3,5,8)              118.2186         estimate D2E/DX2                !
 ! A22   A(6,5,8)              115.7769         estimate D2E/DX2                !
 ! A23   A(5,6,7)              107.1575         estimate D2E/DX2                !
 ! A24   A(5,6,16)             109.7867         estimate D2E/DX2                !
 ! A25   A(5,6,17)             110.1665         estimate D2E/DX2                !
 ! A26   A(7,6,16)             110.3629         estimate D2E/DX2                !
 ! A27   A(7,6,17)             110.7783         estimate D2E/DX2                !
 ! A28   A(16,6,17)            108.5846         estimate D2E/DX2                !
 ! A29   A(6,7,18)             108.3033         estimate D2E/DX2                !
 ! A30   L(5,8,9,10,-1)        179.8559         estimate D2E/DX2                !
 ! A31   L(8,9,19,12,-1)       180.27           estimate D2E/DX2                !
 ! A32   L(5,8,9,10,-2)        180.6194         estimate D2E/DX2                !
 ! A33   L(8,9,19,12,-2)       179.347          estimate D2E/DX2                !
 ! D1    D(10,1,2,3)           155.5187         estimate D2E/DX2                !
 ! D2    D(10,1,2,5)            82.8436         estimate D2E/DX2                !
 ! D3    D(10,1,2,13)          -59.6278         estimate D2E/DX2                !
 ! D4    D(11,1,2,3)           -84.5862         estimate D2E/DX2                !
 ! D5    D(11,1,2,5)          -157.2613         estimate D2E/DX2                !
 ! D6    D(11,1,2,13)           60.2674         estimate D2E/DX2                !
 ! D7    D(12,1,2,3)            35.6688         estimate D2E/DX2                !
 ! D8    D(12,1,2,5)           -37.0063         estimate D2E/DX2                !
 ! D9    D(12,1,2,13)         -179.4776         estimate D2E/DX2                !
 ! D10   D(1,2,3,4)            141.1074         estimate D2E/DX2                !
 ! D11   D(1,2,3,14)            -4.9405         estimate D2E/DX2                !
 ! D12   D(13,2,3,4)            -4.2827         estimate D2E/DX2                !
 ! D13   D(13,2,3,14)         -150.3307         estimate D2E/DX2                !
 ! D14   D(1,2,5,6)           -145.5063         estimate D2E/DX2                !
 ! D15   D(1,2,5,8)              4.6741         estimate D2E/DX2                !
 ! D16   D(13,2,5,6)            -2.2016         estimate D2E/DX2                !
 ! D17   D(13,2,5,8)           147.9788         estimate D2E/DX2                !
 ! D18   D(2,3,4,15)           121.8121         estimate D2E/DX2                !
 ! D19   D(5,3,4,15)            51.1774         estimate D2E/DX2                !
 ! D20   D(14,3,4,15)          -91.5469         estimate D2E/DX2                !
 ! D21   D(4,3,5,6)             -0.2661         estimate D2E/DX2                !
 ! D22   D(4,3,5,8)           -142.4937         estimate D2E/DX2                !
 ! D23   D(14,3,5,6)           142.4336         estimate D2E/DX2                !
 ! D24   D(14,3,5,8)             0.2061         estimate D2E/DX2                !
 ! D25   D(2,5,6,7)           -129.3828         estimate D2E/DX2                !
 ! D26   D(2,5,6,16)            -9.5088         estimate D2E/DX2                !
 ! D27   D(2,5,6,17)           110.0258         estimate D2E/DX2                !
 ! D28   D(3,5,6,7)            -63.7809         estimate D2E/DX2                !
 ! D29   D(3,5,6,16)            56.0931         estimate D2E/DX2                !
 ! D30   D(3,5,6,17)           175.6276         estimate D2E/DX2                !
 ! D31   D(8,5,6,7)             79.3943         estimate D2E/DX2                !
 ! D32   D(8,5,6,16)          -160.7317         estimate D2E/DX2                !
 ! D33   D(8,5,6,17)           -41.1971         estimate D2E/DX2                !
 ! D34   D(5,6,7,18)          -177.1905         estimate D2E/DX2                !
 ! D35   D(16,6,7,18)           63.3048         estimate D2E/DX2                !
 ! D36   D(17,6,7,18)          -56.9885         estimate D2E/DX2                !
 --------------------------------------------------------------------------------
 Trust Radius=3.00D-01 FncErr=1.00D-07 GrdErr=1.00D-06
 Number of steps in this run=     98 maximum allowed number of steps=    114.
 GradGradGradGradGradGradGradGradGradGradGradGradGradGradGradGradGradGrad

                          Input orientation:                          
 ---------------------------------------------------------------------
 Center     Atomic      Atomic             Coordinates (Angstroms)
 Number     Number       Type             X           Y           Z
 ---------------------------------------------------------------------
      1          6           0        1.221150   -0.609564   -1.113688
      2          6           0        0.969460    0.216596    0.124805
      3          6           0        1.959142    1.221063    0.616422
      4          8           0        1.481631    2.423375    1.129912
      5          6           0        1.732529   -0.053221    1.437702
      6          6           0        1.000235    0.159066    2.749665
      7          8           0        1.833449    0.987477    3.569536
      8          6           0        2.772230   -1.042595    1.456190
      9          6           0        3.636058   -1.880606    1.476353
     10          1           0        0.651025   -1.544027   -1.088350
     11          1           0        0.923244   -0.054404   -2.009377
     12          1           0        2.277898   -0.871147   -1.208308
     13          1           0       -0.065027    0.506715    0.288680
     14          1           0        2.913447    1.280157    0.093206
     15          1           0        1.814178    2.485668    2.036595
     16          1           0        0.038464    0.651662    2.562513
     17          1           0        0.810083   -0.805722    3.237303
     18          1           0        1.404057    1.096440    4.424042
     19          1           0        4.405129   -2.612046    1.498311
 ---------------------------------------------------------------------
                    Distance matrix (angstroms):
                    1          2          3          4          5
     1  C    0.000000
     2  C    1.509885   0.000000
     3  C    2.624711   1.493356   0.000000
     4  O    3.781575   2.478393   1.391849   0.000000
     5  C    2.660943   1.542327   1.532858   2.508228   0.000000
     6  C    3.945263   2.625671   2.568670   2.825320   1.517421
     7  O    4.985783   3.634130   2.965003   2.852602   2.374437
     8  C    3.032761   2.570628   2.547640   3.712822   1.435333
     9  C    3.762399   3.651805   3.629308   4.825538   2.638987
    10  H    1.094945   2.161698   3.501876   4.620700   3.126195
    11  H    1.095084   2.151816   3.097535   4.038109   3.540805
    12  H    1.092747   2.161570   2.794385   4.117668   2.822730
    13  H    2.206120   1.086824   2.171397   2.602577   2.205671
    14  H    2.809182   2.216133   1.089929   2.105185   2.231621
    15  H    4.456055   3.084992   1.907126   0.967751   2.609846
    16  H    4.062498   2.645459   2.792936   2.697043   2.152188
    17  H    4.374766   3.279966   3.506738   3.913967   2.157714
    18  H    5.797444   4.409811   3.849886   3.552191   3.216806
    19  H    4.579323   4.657419   4.631771   5.834211   3.700548
                    6          7          8          9         10
     6  C    0.000000
     7  O    1.432723   0.000000
     8  C    2.501407   3.077131   0.000000
     9  C    3.567793   3.982048   1.203688   0.000000
    10  H    4.213411   5.431624   3.350467   3.949862   0.000000
    11  H    4.764450   5.747892   4.050361   4.779612   1.772391
    12  H    4.284777   5.145854   2.715384   3.173486   1.764617
    13  H    2.704087   3.820910   3.437073   4.561567   2.571864
    14  H    3.460347   3.651976   2.696821   3.525008   3.806657
    15  H    2.565940   2.143561   3.701806   4.764185   5.230358
    16  H    1.096667   2.085386   3.401167   4.531534   4.304077
    17  H    1.097618   2.091224   2.660544   3.498921   4.391090
    18  H    1.960938   0.962513   3.905831   4.746946   6.158375
    19  H    4.564894   4.884677   2.265239   1.061583   4.682390
                   11         12         13         14         15
    11  H    0.000000
    12  H    1.773096   0.000000
    13  H    2.563709   3.103027   0.000000
    14  H    3.187917   2.593447   3.083460   0.000000
    15  H    4.859590   4.691763   3.240813   2.537402   0.000000
    16  H    4.709941   4.642532   2.280797   3.841615   2.606401
    17  H    5.301409   4.682117   3.344052   4.319766   3.644606
    18  H    6.553206   6.029790   4.428001   4.590006   2.792500
    19  H    5.564974   3.857671   5.583204   4.398713   5.743645
                   16         17         18         19
    16  H    0.000000
    17  H    1.781771   0.000000
    18  H    2.351161   2.319348   0.000000
    19  H    5.554465   4.383064   5.596356   0.000000
 Stoichiometry    C7H10O2
 Framework group  C1[X(C7H10O2)]
 Deg. of freedom    51
 Full point group                 C1      NOp   1
 Largest Abelian subgroup         C1      NOp   1
 Largest concise Abelian subgroup C1      NOp   1
                         Standard orientation:                         
 ---------------------------------------------------------------------
 Center     Atomic      Atomic             Coordinates (Angstroms)
 Number     Number       Type             X           Y           Z
 ---------------------------------------------------------------------
      1          6           0        2.406693   -0.911727    0.433601
      2          6           0        0.900016   -0.986808    0.497159
      3          6           0        0.057334   -0.964402   -0.735519
      4          8           0       -1.064898   -1.786258   -0.784413
      5          6           0        0.022349    0.246906    0.203182
      6          6           0       -1.270106    0.409697    0.981402
      7          8           0       -2.311262    0.648148    0.026503
      8          6           0        0.644183    1.463820   -0.235708
      9          6           0        1.165316    2.488664   -0.592053
     10          1           0        2.822571   -0.515083    1.365602
     11          1           0        2.831464   -1.907583    0.269137
     12          1           0        2.737686   -0.259608   -0.378359
     13          1           0        0.498036   -1.612904    1.289373
     14          1           0        0.566536   -0.808220   -1.686449
     15          1           0       -1.824079   -1.205100   -0.934215
     16          1           0       -1.477454   -0.503617    1.551967
     17          1           0       -1.185906    1.249214    1.683462
     18          1           0       -3.132404    0.798116    0.505739
     19          1           0        1.618120    3.392765   -0.915361
 ---------------------------------------------------------------------
 Rotational constants (GHZ):      1.8850646      1.5802042      1.0456005
 Standard basis: 6-31G(2df,p) (6D, 7F)
 There are   329 symmetry adapted cartesian basis functions of A   symmetry.
 There are   302 symmetry adapted basis functions of A   symmetry.
   302 basis functions,   466 primitive gaussians,   329 cartesian basis functions
    34 alpha electrons       34 beta electrons
       nuclear repulsion energy       449.4837217573 Hartrees.
 NAtoms=   19 NActive=   19 NUniq=   19 SFac= 1.00D+00 NAtFMM=   60 NAOKFM=F Big=F
 Integral buffers will be    131072 words long.
 Raffenetti 2 integral format.
 Two-electron integral symmetry is turned on.
 One-electron integrals computed using PRISM.
 NBasis=   302 RedAO= T EigKep=  1.10D-04  NBF=   302
 NBsUse=   302 1.00D-06 EigRej= -1.00D+00 NBFU=   302
 ExpMin= 1.61D-01 ExpMax= 5.48D+03 ExpMxC= 8.25D+02 IAcc=1 IRadAn=         1 AccDes= 0.00D+00
 Harris functional with IExCor=  402 and IRadAn=       1 diagonalized for initial guess.
 HarFok:  IExCor=  402 AccDes= 0.00D+00 IRadAn=         1 IDoV= 1 UseB2=F ITyADJ=14
 ICtDFT=  3500011 ScaDFX=  1.000000  1.000000  1.000000  1.000000
 FoFCou: FMM=F IPFlag=           0 FMFlag=      100000 FMFlg1=           0
         NFxFlg=           0 DoJE=T BraDBF=F KetDBF=T FulRan=T
         wScrn=  0.000000 ICntrl=     500 IOpCl=  0 I1Cent=   200000004 NGrid=           0
         NMat0=    1 NMatS0=      1 NMatT0=    0 NMatD0=    1 NMtDS0=    0 NMtDT0=    0
 Petite list used in FoFCou.
 Requested convergence on RMS density matrix=1.00D-08 within 128 cycles.
 Requested convergence on MAX density matrix=1.00D-06.
 Requested convergence on             energy=1.00D-06.
 No special actions if energy rises.
 Integral accuracy reduced to 1.0D-05 until final iterations.
 Initial convergence to 1.0D-05 achieved.  Increase integral accuracy.
 SCF Done:  E(RB3LYP) =  -423.127605714     A.U. after   14 cycles
            NFock= 14  Conv=0.47D-08     -V/T= 2.0074

 **********************************************************************

            Population analysis using the SCF density.

 **********************************************************************

 Orbital symmetries:
       Occupied  (A) (A) (A) (A) (A) (A) (A) (A) (A) (A) (A) (A)
                 (A) (A) (A) (A) (A) (A) (A) (A) (A) (A) (A) (A)
                 (A) (A) (A) (A) (A) (A) (A) (A) (A) (A)
       Virtual   (A) (A) (A) (A) (A) (A) (A) (A) (A) (A) (A) (A)
                 (A) (A) (A) (A) (A) (A) (A) (A) (A) (A) (A) (A)
                 (A) (A) (A) (A) (A) (A) (A) (A) (A) (A) (A) (A)
                 (A) (A) (A) (A) (A) (A) (A) (A) (A) (A) (A) (A)
                 (A) (A) (A) (A) (A) (A) (A) (A) (A) (A) (A) (A)
                 (A) (A) (A) (A) (A) (A) (A) (A) (A) (A) (A) (A)
                 (A) (A) (A) (A) (A) (A) (A) (A) (A) (A) (A) (A)
                 (A) (A) (A) (A) (A) (A) (A) (A) (A) (A) (A) (A)
                 (A) (A) (A) (A) (A) (A) (A) (A) (A) (A) (A) (A)
                 (A) (A) (A) (A) (A) (A) (A) (A) (A) (A) (A) (A)
                 (A) (A) (A) (A) (A) (A) (A) (A) (A) (A) (A) (A)
                 (A) (A) (A) (A) (A) (A) (A) (A) (A) (A) (A) (A)
                 (A) (A) (A) (A) (A) (A) (A) (A) (A) (A) (A) (A)
                 (A) (A) (A) (A) (A) (A) (A) (A) (A) (A) (A) (A)
                 (A) (A) (A) (A) (A) (A) (A) (A) (A) (A) (A) (A)
                 (A) (A) (A) (A) (A) (A) (A) (A) (A) (A) (A) (A)
                 (A) (A) (A) (A) (A) (A) (A) (A) (A) (A) (A) (A)
                 (A) (A) (A) (A) (A) (A) (A) (A) (A) (A) (A) (A)
                 (A) (A) (A) (A) (A) (A) (A) (A) (A) (A) (A) (A)
                 (A) (A) (A) (A) (A) (A) (A) (A) (A) (A) (A) (A)
                 (A) (A) (A) (A) (A) (A) (A) (A) (A) (A) (A) (A)
                 (A) (A) (A) (A) (A) (A) (A) (A) (A) (A) (A) (A)
                 (A) (A) (A) (A)
 The electronic state is 1-A.
 Alpha  occ. eigenvalues --  -19.15163 -19.13495 -10.24052 -10.23600 -10.21392
 Alpha  occ. eigenvalues --  -10.19884 -10.17817 -10.17784 -10.16736  -1.03446
 Alpha  occ. eigenvalues --   -1.01843  -0.86741  -0.74826  -0.72116  -0.68869
 Alpha  occ. eigenvalues --   -0.61051  -0.58207  -0.53318  -0.51438  -0.50176
 Alpha  occ. eigenvalues --   -0.48897  -0.44920  -0.43246  -0.41441  -0.40655
 Alpha  occ. eigenvalues --   -0.37952  -0.36341  -0.35447  -0.33403  -0.31151
 Alpha  occ. eigenvalues --   -0.28131  -0.27538  -0.25272  -0.23415
 Alpha virt. eigenvalues --    0.04468   0.05422   0.06851   0.10383   0.12115
 Alpha virt. eigenvalues --    0.12887   0.13402   0.13938   0.15288   0.16096
 Alpha virt. eigenvalues --    0.17264   0.18184   0.20085   0.20385   0.21339
 Alpha virt. eigenvalues --    0.23576   0.28003   0.28974   0.32427   0.34504
 Alpha virt. eigenvalues --    0.38623   0.41564   0.44315   0.46129   0.47470
 Alpha virt. eigenvalues --    0.47856   0.48521   0.50779   0.52564   0.55576
 Alpha virt. eigenvalues --    0.56776   0.58552   0.59240   0.60359   0.60816
 Alpha virt. eigenvalues --    0.63667   0.66052   0.66823   0.67001   0.69223
 Alpha virt. eigenvalues --    0.70334   0.70851   0.72385   0.73784   0.74787
 Alpha virt. eigenvalues --    0.76053   0.76816   0.77615   0.78805   0.80471
 Alpha virt. eigenvalues --    0.81273   0.83371   0.85218   0.85904   0.88946
 Alpha virt. eigenvalues --    0.89934   0.91457   0.92282   0.93442   0.95114
 Alpha virt. eigenvalues --    0.96277   0.97181   1.00855   1.04405   1.06455
 Alpha virt. eigenvalues --    1.07482   1.09544   1.12432   1.15818   1.16999
 Alpha virt. eigenvalues --    1.18204   1.20177   1.22155   1.22438   1.25014
 Alpha virt. eigenvalues --    1.28493   1.30302   1.30774   1.34065   1.37727
 Alpha virt. eigenvalues --    1.39703   1.40248   1.43054   1.45367   1.46667
 Alpha virt. eigenvalues --    1.48165   1.50658   1.51647   1.53987   1.56719
 Alpha virt. eigenvalues --    1.59097   1.61292   1.62610   1.66943   1.67214
 Alpha virt. eigenvalues --    1.69839   1.72442   1.74718   1.79703   1.82608
 Alpha virt. eigenvalues --    1.83730   1.86048   1.87521   1.96417   1.97428
 Alpha virt. eigenvalues --    1.98528   2.00400   2.05030   2.09677   2.11854
 Alpha virt. eigenvalues --    2.16455   2.25067   2.26134   2.28055   2.33156
 Alpha virt. eigenvalues --    2.36470   2.41443   2.42330   2.47107   2.52399
 Alpha virt. eigenvalues --    2.53373   2.56410   2.57374   2.58955   2.60087
 Alpha virt. eigenvalues --    2.62503   2.64118   2.65455   2.67450   2.67896
 Alpha virt. eigenvalues --    2.70344   2.70769   2.72412   2.76656   2.79277
 Alpha virt. eigenvalues --    2.79981   2.83069   2.83723   2.85255   2.87661
 Alpha virt. eigenvalues --    2.89628   2.92810   2.94783   2.96377   2.97385
 Alpha virt. eigenvalues --    3.01985   3.04467   3.04766   3.08794   3.09552
 Alpha virt. eigenvalues --    3.12909   3.14945   3.16515   3.18531   3.19505
 Alpha virt. eigenvalues --    3.22213   3.27885   3.28871   3.29449   3.30977
 Alpha virt. eigenvalues --    3.34931   3.35248   3.39155   3.40147   3.42984
 Alpha virt. eigenvalues --    3.45326   3.48254   3.49504   3.51939   3.53193
 Alpha virt. eigenvalues --    3.56779   3.58830   3.60374   3.62282   3.68253
 Alpha virt. eigenvalues --    3.68295   3.72381   3.77299   3.80172   3.82508
 Alpha virt. eigenvalues --    3.86292   3.90506   3.93788   3.97421   3.99985
 Alpha virt. eigenvalues --    4.03092   4.12066   4.15095   4.17769   4.21853
 Alpha virt. eigenvalues --    4.22296   4.25004   4.27278   4.27928   4.28435
 Alpha virt. eigenvalues --    4.32588   4.35266   4.36683   4.40597   4.41785
 Alpha virt. eigenvalues --    4.43608   4.45050   4.46444   4.49151   4.50714
 Alpha virt. eigenvalues --    4.53493   4.54742   4.56703   4.58155   4.63130
 Alpha virt. eigenvalues --    4.64412   4.66351   4.68667   4.71787   4.72580
 Alpha virt. eigenvalues --    4.75387   4.76660   4.80017   4.82821   4.86098
 Alpha virt. eigenvalues --    4.86680   4.88287   4.90853   4.93230   4.96097
 Alpha virt. eigenvalues --    4.98766   5.01455   5.09376   5.13822   5.20083
 Alpha virt. eigenvalues --    5.20870   5.22114   5.28539   5.30300   5.33351
 Alpha virt. eigenvalues --    5.35211   5.35578   5.39620   5.44423   5.47000
 Alpha virt. eigenvalues --    5.48802   5.50549   5.52192   5.60992   5.64727
 Alpha virt. eigenvalues --    5.65468   5.73975   5.81629   5.88817   5.94739
 Alpha virt. eigenvalues --    5.98586   6.02711   6.06092   6.17248   6.26999
 Alpha virt. eigenvalues --    6.44106   7.12231   7.18831   7.46396   9.74232
 Alpha virt. eigenvalues --   10.78395  11.47742  11.66531  11.83110  12.30182
 Alpha virt. eigenvalues --   12.78389  13.30214  13.47454
          Condensed to atoms (all electrons):
               1          2          3          4          5          6
     1  C    5.027783   0.369753  -0.009199   0.001442  -0.002805   0.004370
     2  C    0.369753   4.960795   0.258984  -0.010047   0.315494  -0.045100
     3  C   -0.009199   0.258984   4.791182   0.414349   0.277456  -0.024639
     4  O    0.001442  -0.010047   0.414349   7.809235  -0.061533   0.013631
     5  C   -0.002805   0.315494   0.277456  -0.061533   4.846678   0.406080
     6  C    0.004370  -0.045100  -0.024639   0.013631   0.406080   4.949343
     7  O   -0.000033   0.002410  -0.001228  -0.009651  -0.046419   0.303146
     8  C   -0.022405  -0.005149  -0.064978  -0.001363   0.353865  -0.065445
     9  C   -0.001979  -0.002572  -0.006738  -0.000008  -0.037173  -0.006138
    10  H    0.372186  -0.023084   0.003005  -0.000018  -0.001971   0.000126
    11  H    0.369748  -0.023269  -0.001488   0.000012   0.001964  -0.000049
    12  H    0.367397  -0.015161  -0.006466  -0.000007  -0.009680   0.000089
    13  H   -0.050820   0.358676  -0.022730  -0.002239  -0.020251  -0.014580
    14  H   -0.001534  -0.062413   0.392598  -0.037238  -0.051931   0.005198
    15  H   -0.000204   0.008806  -0.078911   0.313864  -0.005957  -0.002287
    16  H    0.000026  -0.005873  -0.005784   0.004287  -0.018001   0.343419
    17  H   -0.000061   0.002676   0.005337   0.000313  -0.004143   0.347613
    18  H    0.000003  -0.000323   0.000301   0.000200   0.005434  -0.041705
    19  H   -0.000024   0.000018  -0.000014   0.000000  -0.001611  -0.000034
               7          8          9         10         11         12
     1  C   -0.000033  -0.022405  -0.001979   0.372186   0.369748   0.367397
     2  C    0.002410  -0.005149  -0.002572  -0.023084  -0.023269  -0.015161
     3  C   -0.001228  -0.064978  -0.006738   0.003005  -0.001488  -0.006466
     4  O   -0.009651  -0.001363  -0.000008  -0.000018   0.000012  -0.000007
     5  C   -0.046419   0.353865  -0.037173  -0.001971   0.001964  -0.009680
     6  C    0.303146  -0.065445  -0.006138   0.000126  -0.000049   0.000089
     7  O    7.887356   0.009206   0.000633   0.000000   0.000000   0.000000
     8  C    0.009206   4.595419   0.902405   0.001422   0.000401   0.008653
     9  C    0.000633   0.902405   5.223401   0.000399   0.000020   0.005170
    10  H    0.000000   0.001422   0.000399   0.591675  -0.033213  -0.030127
    11  H    0.000000   0.000401   0.000020  -0.033213   0.592621  -0.029256
    12  H    0.000000   0.008653   0.005170  -0.030127  -0.029256   0.568789
    13  H    0.000018   0.006573   0.000180  -0.002659  -0.001037   0.005067
    14  H   -0.000103  -0.007578   0.001112  -0.000130   0.001270   0.002659
    15  H    0.036950  -0.001297  -0.000030   0.000007  -0.000006   0.000001
    16  H   -0.031201   0.009654   0.000197   0.000014  -0.000011  -0.000005
    17  H   -0.025972  -0.022180  -0.001466  -0.000039   0.000001   0.000008
    18  H    0.299116   0.000106   0.000000   0.000000   0.000000   0.000000
    19  H    0.000002  -0.005334   0.383010   0.000004   0.000000   0.000042
              13         14         15         16         17         18
     1  C   -0.050820  -0.001534  -0.000204   0.000026  -0.000061   0.000003
     2  C    0.358676  -0.062413   0.008806  -0.005873   0.002676  -0.000323
     3  C   -0.022730   0.392598  -0.078911  -0.005784   0.005337   0.000301
     4  O   -0.002239  -0.037238   0.313864   0.004287   0.000313   0.000200
     5  C   -0.020251  -0.051931  -0.005957  -0.018001  -0.004143   0.005434
     6  C   -0.014580   0.005198  -0.002287   0.343419   0.347613  -0.041705
     7  O    0.000018  -0.000103   0.036950  -0.031201  -0.025972   0.299116
     8  C    0.006573  -0.007578  -0.001297   0.009654  -0.022180   0.000106
     9  C    0.000180   0.001112  -0.000030   0.000197  -0.001466   0.000000
    10  H   -0.002659  -0.000130   0.000007   0.000014  -0.000039   0.000000
    11  H   -0.001037   0.001270  -0.000006  -0.000011   0.000001   0.000000
    12  H    0.005067   0.002659   0.000001  -0.000005   0.000008   0.000000
    13  H    0.636109   0.003525  -0.000423   0.007290   0.000631  -0.000005
    14  H    0.003525   0.658355  -0.000622  -0.000029  -0.000037   0.000001
    15  H   -0.000423  -0.000622   0.437206  -0.002097   0.000496  -0.001058
    16  H    0.007290  -0.000029  -0.002097   0.646486  -0.049622  -0.002602
    17  H    0.000631  -0.000037   0.000496  -0.049622   0.643028  -0.003410
    18  H   -0.000005   0.000001  -0.001058  -0.002602  -0.003410   0.450747
    19  H    0.000001  -0.000006   0.000000   0.000001  -0.000035   0.000000
              19
     1  C   -0.000024
     2  C    0.000018
     3  C   -0.000014
     4  O    0.000000
     5  C   -0.001611
     6  C   -0.000034
     7  O    0.000002
     8  C   -0.005334
     9  C    0.383010
    10  H    0.000004
    11  H    0.000000
    12  H    0.000042
    13  H    0.000001
    14  H   -0.000006
    15  H    0.000000
    16  H    0.000001
    17  H   -0.000035
    18  H    0.000000
    19  H    0.434851
 Mulliken charges:
               1
     1  C   -0.423644
     2  C   -0.084621
     3  C    0.078962
     4  O   -0.435230
     5  C    0.054504
     6  C   -0.173038
     7  O   -0.424231
     8  C    0.308025
     9  C   -0.460424
    10  H    0.122405
    11  H    0.122291
    12  H    0.132825
    13  H    0.096673
    14  H    0.096904
    15  H    0.295562
    16  H    0.103852
    17  H    0.106862
    18  H    0.293194
    19  H    0.189128
 Sum of Mulliken charges =   0.00000
 Mulliken charges with hydrogens summed into heavy atoms:
               1
     1  C   -0.046123
     2  C    0.012052
     3  C    0.175866
     4  O   -0.139668
     5  C    0.054504
     6  C    0.037676
     7  O   -0.131037
     8  C    0.308025
     9  C   -0.271295
 Electronic spatial extent (au):  <R**2>=           1211.7147
 Charge=              0.0000 electrons
 Dipole moment (field-independent basis, Debye):
    X=             -0.7303    Y=              0.8101    Z=              1.5420  Tot=              1.8888
 Quadrupole moment (field-independent basis, Debye-Ang):
   XX=            -45.5086   YY=            -55.5197   ZZ=            -51.6543
   XY=             -1.3812   XZ=             -4.0375   YZ=             -1.3549
 Traceless Quadrupole moment (field-independent basis, Debye-Ang):
   XX=              5.3856   YY=             -4.6255   ZZ=             -0.7601
   XY=             -1.3812   XZ=             -4.0375   YZ=             -1.3549
 Octapole moment (field-independent basis, Debye-Ang**2):
  XXX=            -46.5364  YYY=             18.0323  ZZZ=             -1.1675  XYY=              7.6831
  XXY=              3.8190  XXZ=              5.6909  XZZ=             -8.0355  YZZ=             -1.8898
  YYZ=             -0.9039  XYZ=             -6.0473
 Hexadecapole moment (field-independent basis, Debye-Ang**3):
 XXXX=           -632.8616 YYYY=           -564.9655 ZZZZ=           -201.5230 XXXY=            -14.7090
 XXXZ=            -21.5693 YYYX=             24.7938 YYYZ=            -28.7636 ZZZX=              1.9602
 ZZZY=              7.8558 XXYY=           -204.1214 XXZZ=           -146.7378 YYZZ=           -133.8447
 XXYZ=              6.1833 YYXZ=            -19.1840 ZZXY=             -0.1695
 N-N= 4.494837217573D+02 E-N=-1.885967580378D+03  KE= 4.200087067357D+02
 Calling FoFJK, ICntrl=      2127 FMM=F ISym2X=0 I1Cent= 0 IOpClX= 0 NMat=1 NMatS=1 NMatT=0.
 ***** Axes restored to original set *****
 -------------------------------------------------------------------
 Center     Atomic                   Forces (Hartrees/Bohr)
 Number     Number              X              Y              Z
 -------------------------------------------------------------------
      1        6          -0.000011554    0.000034174    0.000042962
      2        6          -0.000006910   -0.000019074   -0.000005860
      3        6          -0.000024560    0.000065080    0.000041377
      4        8           0.000027408   -0.000036134   -0.000017018
      5        6           0.000060985   -0.000032075   -0.000000691
      6        6          -0.000035889    0.000004260   -0.000033819
      7        8           0.000009395    0.000019901    0.000007974
      8        6          -0.000024550   -0.000001258   -0.000001866
      9        6           0.000001702   -0.000013252   -0.000006642
     10        1          -0.000004288   -0.000007861   -0.000007834
     11        1           0.000006772   -0.000002695   -0.000006579
     12        1           0.000002369   -0.000011725   -0.000009233
     13        1          -0.000001368   -0.000002526   -0.000012386
     14        1           0.000002168   -0.000007477   -0.000003892
     15        1           0.000001891   -0.000000687   -0.000005371
     16        1           0.000003862    0.000008035   -0.000003963
     17        1          -0.000001640    0.000009187    0.000005993
     18        1           0.000002562   -0.000007029    0.000005583
     19        1          -0.000008355    0.000001155    0.000011265
 -------------------------------------------------------------------
 Cartesian Forces:  Max     0.000065080 RMS     0.000019782

 GradGradGradGradGradGradGradGradGradGradGradGradGradGradGradGradGradGrad
 Berny optimization.
 FormGI is forming the generalized inverse of G from B-inverse, IUseBI=4.
 Internal  Forces:  Max     0.000046049 RMS     0.000009499
 Search for a local minimum.
 Step number   1 out of a maximum of   98
 All quantities printed in internal units (Hartrees-Bohrs-Radians)
 Mixed Optimization -- En-DIIS/RFO-DIIS
 Second derivative matrix not updated -- first step.
 ITU=  0
     Eigenvalues ---    0.00535   0.00611   0.00611   0.00635   0.01259
     Eigenvalues ---    0.01800   0.01839   0.02207   0.02368   0.03167
     Eigenvalues ---    0.04396   0.04481   0.04686   0.04686   0.05495
     Eigenvalues ---    0.05679   0.05747   0.06002   0.09592   0.10983
     Eigenvalues ---    0.11005   0.13547   0.13813   0.15745   0.16000
     Eigenvalues ---    0.16000   0.16000   0.16000   0.16000   0.19843
     Eigenvalues ---    0.21441   0.21987   0.25144   0.26345   0.30616
     Eigenvalues ---    0.30644   0.31362   0.33947   0.34053   0.34232
     Eigenvalues ---    0.34247   0.34497   0.34821   0.35182   0.38314
     Eigenvalues ---    0.40232   0.40600   0.46999   0.53839   0.54936
     Eigenvalues ---    1.02991
 RFO step:  Lambda=-9.86675804D-08 EMin= 5.35496697D-03
 Linear search not attempted -- first point.
 Iteration  1 RMS(Cart)=  0.00065261 RMS(Int)=  0.00000090
 Iteration  2 RMS(Cart)=  0.00000090 RMS(Int)=  0.00000000
 Variable       Old X    -DE/DX   Delta X   Delta X   Delta X     New X
                                 (Linear)    (Quad)   (Total)
    R1        2.85327  -0.00002   0.00000  -0.00008  -0.00008   2.85319
    R2        2.06915   0.00001   0.00000   0.00003   0.00003   2.06917
    R3        2.06941   0.00000   0.00000   0.00001   0.00001   2.06942
    R4        2.06499   0.00001   0.00000   0.00002   0.00002   2.06501
    R5        2.82203   0.00002   0.00000   0.00004   0.00004   2.82208
    R6        2.91458   0.00000   0.00000  -0.00001  -0.00001   2.91457
    R7        2.05380   0.00000   0.00000   0.00000   0.00000   2.05380
    R8        2.63021  -0.00005   0.00000  -0.00010  -0.00010   2.63011
    R9        2.89668   0.00000   0.00000   0.00001   0.00001   2.89669
   R10        2.05967   0.00000   0.00000   0.00000   0.00000   2.05967
   R11        1.82878   0.00000   0.00000  -0.00001  -0.00001   1.82877
   R12        2.86751   0.00000   0.00000  -0.00001  -0.00001   2.86750
   R13        2.71239  -0.00001   0.00000  -0.00003  -0.00003   2.71236
   R14        2.70745   0.00002   0.00000   0.00005   0.00005   2.70751
   R15        2.07240   0.00000   0.00000   0.00000   0.00000   2.07240
   R16        2.07420   0.00000   0.00000  -0.00001  -0.00001   2.07419
   R17        1.81889   0.00000   0.00000   0.00001   0.00001   1.81889
   R18        2.27464   0.00000   0.00000   0.00000   0.00000   2.27465
   R19        2.00610  -0.00001   0.00000  -0.00002  -0.00002   2.00608
    A1        1.94034   0.00001   0.00000   0.00005   0.00005   1.94039
    A2        1.92641   0.00000   0.00000   0.00003   0.00003   1.92644
    A3        1.94251   0.00001   0.00000   0.00009   0.00009   1.94260
    A4        1.88592  -0.00001   0.00000  -0.00005  -0.00005   1.88587
    A5        1.87679  -0.00001   0.00000  -0.00006  -0.00006   1.87673
    A6        1.88979  -0.00001   0.00000  -0.00007  -0.00007   1.88972
    A7        2.12656   0.00001   0.00000   0.00001   0.00001   2.12658
    A8        2.11770   0.00000   0.00000   0.00002   0.00002   2.11772
    A9        2.01353  -0.00001   0.00000  -0.00008  -0.00008   2.01345
   A10        1.98408   0.00000   0.00000   0.00003   0.00003   1.98411
   A11        1.97064   0.00001   0.00000   0.00007   0.00007   1.97070
   A12        2.06589   0.00000   0.00000   0.00002   0.00002   2.06591
   A13        2.04732   0.00000   0.00000  -0.00006  -0.00006   2.04726
   A14        2.05977   0.00001   0.00000   0.00004   0.00004   2.05981
   A15        2.01601   0.00000   0.00000   0.00001   0.00001   2.01602
   A16        2.01719  -0.00001   0.00000   0.00000   0.00000   2.01718
   A17        1.85809   0.00000   0.00000   0.00000   0.00000   1.85809
   A18        2.06320  -0.00002   0.00000  -0.00013  -0.00013   2.06307
   A19        2.08281   0.00000   0.00000   0.00000   0.00000   2.08281
   A20        2.00235  -0.00003   0.00000  -0.00013  -0.00013   2.00222
   A21        2.06330   0.00001   0.00000   0.00011   0.00011   2.06342
   A22        2.02069   0.00002   0.00000   0.00009   0.00009   2.02078
   A23        1.87025   0.00000   0.00000   0.00000   0.00000   1.87026
   A24        1.91614   0.00000   0.00000   0.00002   0.00002   1.91616
   A25        1.92277   0.00000   0.00000   0.00002   0.00002   1.92279
   A26        1.92620   0.00000   0.00000   0.00001   0.00001   1.92620
   A27        1.93345  -0.00001   0.00000  -0.00008  -0.00008   1.93336
   A28        1.89516   0.00000   0.00000   0.00003   0.00003   1.89519
   A29        1.89025   0.00000   0.00000  -0.00001  -0.00001   1.89024
   A30        3.13908   0.00002   0.00000   0.00036   0.00036   3.13944
   A31        3.14630   0.00002   0.00000   0.00256   0.00256   3.14887
   A32        3.15240  -0.00001   0.00000  -0.00012  -0.00012   3.15229
   A33        3.13020  -0.00001   0.00000  -0.00102  -0.00102   3.12917
    D1        2.71431   0.00000   0.00000   0.00024   0.00024   2.71456
    D2        1.44589   0.00000   0.00000   0.00023   0.00023   1.44613
    D3       -1.04070   0.00000   0.00000   0.00019   0.00019  -1.04051
    D4       -1.47631   0.00000   0.00000   0.00023   0.00023  -1.47608
    D5       -2.74473   0.00000   0.00000   0.00022   0.00022  -2.74450
    D6        1.05186   0.00000   0.00000   0.00018   0.00018   1.05205
    D7        0.62254   0.00000   0.00000   0.00022   0.00022   0.62276
    D8       -0.64588   0.00000   0.00000   0.00022   0.00022  -0.64567
    D9       -3.13248   0.00000   0.00000   0.00018   0.00018  -3.13230
   D10        2.46279   0.00000   0.00000  -0.00005  -0.00005   2.46274
   D11       -0.08623   0.00000   0.00000   0.00000   0.00000  -0.08623
   D12       -0.07475   0.00000   0.00000   0.00003   0.00003  -0.07472
   D13       -2.62377   0.00000   0.00000   0.00008   0.00008  -2.62369
   D14       -2.53956   0.00000   0.00000  -0.00008  -0.00008  -2.53964
   D15        0.08158   0.00000   0.00000  -0.00014  -0.00014   0.08144
   D16       -0.03843  -0.00001   0.00000  -0.00008  -0.00008  -0.03851
   D17        2.58272  -0.00001   0.00000  -0.00015  -0.00015   2.58257
   D18        2.12602   0.00000   0.00000  -0.00002  -0.00002   2.12600
   D19        0.89321   0.00000   0.00000  -0.00003  -0.00003   0.89318
   D20       -1.59779   0.00000   0.00000  -0.00009  -0.00009  -1.59789
   D21       -0.00465   0.00000   0.00000   0.00010   0.00010  -0.00455
   D22       -2.48698   0.00000   0.00000  -0.00005  -0.00005  -2.48703
   D23        2.48594   0.00001   0.00000   0.00016   0.00016   2.48610
   D24        0.00360   0.00000   0.00000   0.00002   0.00002   0.00362
   D25       -2.25816   0.00000   0.00000  -0.00020  -0.00020  -2.25835
   D26       -0.16596   0.00000   0.00000  -0.00017  -0.00017  -0.16613
   D27        1.92031   0.00000   0.00000  -0.00011  -0.00011   1.92020
   D28       -1.11319  -0.00001   0.00000  -0.00026  -0.00026  -1.11344
   D29        0.97901  -0.00001   0.00000  -0.00023  -0.00023   0.97877
   D30        3.06528   0.00000   0.00000  -0.00017  -0.00017   3.06511
   D31        1.38569   0.00000   0.00000  -0.00011  -0.00011   1.38558
   D32       -2.80530   0.00000   0.00000  -0.00008  -0.00008  -2.80538
   D33       -0.71902   0.00000   0.00000  -0.00002  -0.00002  -0.71905
   D34       -3.09256   0.00001   0.00000   0.00054   0.00054  -3.09202
   D35        1.10488   0.00001   0.00000   0.00051   0.00051   1.10538
   D36       -0.99464   0.00001   0.00000   0.00052   0.00052  -0.99412
         Item               Value     Threshold  Converged?
 Maximum Force            0.000046     0.000450     YES
 RMS     Force            0.000009     0.000300     YES
 Maximum Displacement     0.004759     0.001800     NO 
 RMS     Displacement     0.000653     0.001200     YES
 Predicted change in Energy=-4.933359D-08
 GradGradGradGradGradGradGradGradGradGradGradGradGradGradGradGradGradGrad

                          Input orientation:                          
 ---------------------------------------------------------------------
 Center     Atomic      Atomic             Coordinates (Angstroms)
 Number     Number       Type             X           Y           Z
 ---------------------------------------------------------------------
      1          6           0        1.220825   -0.609382   -1.113846
      2          6           0        0.969333    0.216634    0.124734
      3          6           0        1.959113    1.221045    0.616340
      4          8           0        1.481739    2.423300    1.129949
      5          6           0        1.732550   -0.053321    1.437511
      6          6           0        1.000287    0.159020    2.749479
      7          8           0        1.833714    0.987138    3.569475
      8          6           0        2.772096   -1.042839    1.455827
      9          6           0        3.636049   -1.880720    1.476117
     10          1           0        0.650504   -1.543746   -1.088688
     11          1           0        0.923036   -0.054051   -2.009472
     12          1           0        2.277505   -0.871227   -1.208605
     13          1           0       -0.065138    0.506764    0.288687
     14          1           0        2.913335    1.280129    0.092969
     15          1           0        1.814360    2.485498    2.036606
     16          1           0        0.038637    0.651866    2.562378
     17          1           0        0.809940   -0.805750    3.237069
     18          1           0        1.404550    1.095716    4.424149
     19          1           0        4.405948   -2.611189    1.500830
 ---------------------------------------------------------------------
                    Distance matrix (angstroms):
                    1          2          3          4          5
     1  C    0.000000
     2  C    1.509845   0.000000
     3  C    2.624704   1.493379   0.000000
     4  O    3.781514   2.478385   1.391797   0.000000
     5  C    2.660919   1.542323   1.532861   2.508217   0.000000
     6  C    3.945169   2.625560   2.568566   2.825179   1.517418
     7  O    4.985780   3.634153   2.965037   2.852671   2.374460
     8  C    3.032745   2.570610   2.547715   3.712861   1.435318
     9  C    3.762648   3.651918   3.629363   4.825502   2.638975
    10  H    1.094959   2.161708   3.501949   4.620688   3.126320
    11  H    1.095087   2.151801   3.097452   4.037992   3.540763
    12  H    1.092755   2.161608   2.794530   4.117765   2.822743
    13  H    2.206033   1.086824   2.171439   2.602625   2.205714
    14  H    2.809136   2.216117   1.089930   2.105145   2.231622
    15  H    4.455997   3.084974   1.907079   0.967746   2.609829
    16  H    4.062380   2.645322   2.792716   2.696734   2.152198
    17  H    4.374683   3.279833   3.506668   3.913826   2.157723
    18  H    5.797456   4.409894   3.850020   3.552490   3.216811
    19  H    4.581350   4.658385   4.631991   5.833921   3.700508
                    6          7          8          9         10
     6  C    0.000000
     7  O    1.432751   0.000000
     8  C    2.501461   3.077155   0.000000
     9  C    3.567805   3.981856   1.203691   0.000000
    10  H    4.213465   5.431744   3.350614   3.950349   0.000000
    11  H    4.764345   5.747874   4.050311   4.779800   1.772374
    12  H    4.284755   5.145923   2.715376   3.173713   1.764594
    13  H    2.703989   3.820990   3.437060   4.561673   2.571750
    14  H    3.460302   3.652057   2.696945   3.525107   3.806703
    15  H    2.565815   2.143629   3.701855   4.764091   5.230376
    16  H    1.096665   2.085414   3.401217   4.531592   4.304111
    17  H    1.097614   2.091185   2.660656   3.499059   4.391154
    18  H    1.960955   0.962516   3.905706   4.746541   6.158466
    19  H    4.564177   4.882995   2.265220   1.061574   4.684912
                   11         12         13         14         15
    11  H    0.000000
    12  H    1.773062   0.000000
    13  H    2.563696   3.103017   0.000000
    14  H    3.187723   2.593589   3.083456   0.000000
    15  H    4.859476   4.691854   3.240852   2.537397   0.000000
    16  H    4.709808   4.642483   2.280678   3.841430   2.606116
    17  H    5.301324   4.682099   3.343862   4.319783   3.644487
    18  H    6.553265   6.029828   4.428192   4.590159   2.792812
    19  H    5.567032   3.859894   5.584043   4.399127   5.742787
                   16         17         18         19
    16  H    0.000000
    17  H    1.781785   0.000000
    18  H    2.351363   2.319114   0.000000
    19  H    5.554081   4.382399   5.594223   0.000000
 Stoichiometry    C7H10O2
 Framework group  C1[X(C7H10O2)]
 Deg. of freedom    51
 Full point group                 C1      NOp   1
 Largest Abelian subgroup         C1      NOp   1
 Largest concise Abelian subgroup C1      NOp   1
                         Standard orientation:                         
 ---------------------------------------------------------------------
 Center     Atomic      Atomic             Coordinates (Angstroms)
 Number     Number       Type             X           Y           Z
 ---------------------------------------------------------------------
      1          6           0        2.407054   -0.910947    0.433515
      2          6           0        0.900443   -0.986524    0.497091
      3          6           0        0.057708   -0.964364   -0.735584
      4          8           0       -1.064183   -1.786596   -0.784517
      5          6           0        0.022344    0.246892    0.203175
      6          6           0       -1.270161    0.408982    0.981453
      7          8           0       -2.311432    0.647363    0.026622
      8          6           0        0.643758    1.464076   -0.235510
      9          6           0        1.164202    2.489231   -0.591973
     10          1           0        2.822888   -0.514420    1.365601
     11          1           0        2.832166   -1.906617    0.268782
     12          1           0        2.737918   -0.258532   -0.378273
     13          1           0        0.498759   -1.612828    1.289290
     14          1           0        0.566888   -0.807982   -1.686493
     15          1           0       -1.823578   -1.205707   -0.934249
     16          1           0       -1.477185   -0.504563    1.551761
     17          1           0       -1.186307    1.248359    1.683714
     18          1           0       -3.132522    0.797369    0.505941
     19          1           0        1.613798    3.394696   -0.915914
 ---------------------------------------------------------------------
 Rotational constants (GHZ):      1.8849070      1.5803081      1.0456070
 Standard basis: 6-31G(2df,p) (6D, 7F)
 There are   329 symmetry adapted cartesian basis functions of A   symmetry.
 There are   302 symmetry adapted basis functions of A   symmetry.
   302 basis functions,   466 primitive gaussians,   329 cartesian basis functions
    34 alpha electrons       34 beta electrons
       nuclear repulsion energy       449.4844474020 Hartrees.
 NAtoms=   19 NActive=   19 NUniq=   19 SFac= 1.00D+00 NAtFMM=   60 NAOKFM=F Big=F
 Integral buffers will be    131072 words long.
 Raffenetti 2 integral format.
 Two-electron integral symmetry is turned on.
 One-electron integrals computed using PRISM.
 NBasis=   302 RedAO= T EigKep=  1.10D-04  NBF=   302
 NBsUse=   302 1.00D-06 EigRej= -1.00D+00 NBFU=   302
 Initial guess from the checkpoint file:  "/scratch/puck/g09_b3d8f9af-a5cb-4ce8-bf8b-7a8ad9b25a17/Gau-74489.chk"
 B after Tr=     0.000000    0.000000    0.000000
         Rot=    1.000000   -0.000039   -0.000023   -0.000209 Ang=  -0.02 deg.
 Requested convergence on RMS density matrix=1.00D-08 within 128 cycles.
 Requested convergence on MAX density matrix=1.00D-06.
 Requested convergence on             energy=1.00D-06.
 No special actions if energy rises.
 SCF Done:  E(RB3LYP) =  -423.127605640     A.U. after    7 cycles
            NFock=  7  Conv=0.26D-08     -V/T= 2.0074
 Calling FoFJK, ICntrl=      2127 FMM=F ISym2X=0 I1Cent= 0 IOpClX= 0 NMat=1 NMatS=1 NMatT=0.
 ***** Axes restored to original set *****
 -------------------------------------------------------------------
 Center     Atomic                   Forces (Hartrees/Bohr)
 Number     Number              X              Y              Z
 -------------------------------------------------------------------
      1        6          -0.000002491    0.000010985    0.000013199
      2        6          -0.000011466    0.000002328    0.000003259
      3        6          -0.000010175    0.000024109    0.000005274
      4        8           0.000017639   -0.000015526   -0.000001652
      5        6           0.000015129   -0.000036794   -0.000036930
      6        6          -0.000012603   -0.000009491   -0.000008008
      7        8           0.000000049    0.000017437   -0.000000875
      8        6           0.000005041    0.000020289    0.000019625
      9        6           0.000004579    0.000009163    0.000083349
     10        1          -0.000002793   -0.000000340   -0.000002820
     11        1           0.000004334   -0.000000605   -0.000004017
     12        1           0.000000915   -0.000007046   -0.000001905
     13        1          -0.000000886    0.000000655   -0.000007936
     14        1           0.000004619   -0.000007582   -0.000002651
     15        1           0.000003166    0.000005711    0.000000307
     16        1           0.000006990    0.000007547   -0.000004858
     17        1          -0.000007132    0.000005355    0.000001872
     18        1           0.000003291   -0.000004185    0.000001032
     19        1          -0.000018204   -0.000022010   -0.000056266
 -------------------------------------------------------------------
 Cartesian Forces:  Max     0.000083349 RMS     0.000017610

 GradGradGradGradGradGradGradGradGradGradGradGradGradGradGradGradGradGrad
 Berny optimization.
 Using GEDIIS/GDIIS optimizer.
 FormGI is forming the generalized inverse of G from B-inverse, IUseBI=4.
 Internal  Forces:  Max     0.000123486 RMS     0.000016797
 Search for a local minimum.
 Step number   2 out of a maximum of   98
 All quantities printed in internal units (Hartrees-Bohrs-Radians)
 Mixed Optimization -- En-DIIS/RFO-DIIS
 Swapping is turned off.
 Update second derivatives using D2CorX and points    1    2
 DE=  7.44D-08 DEPred=-4.93D-08 R=-1.51D+00
 Trust test=-1.51D+00 RLast= 3.08D-03 DXMaxT set to 1.50D-01
 ITU= -1  0
     Eigenvalues ---    0.00518   0.00581   0.00622   0.01080   0.01797
     Eigenvalues ---    0.01838   0.02165   0.02364   0.02662   0.03128
     Eigenvalues ---    0.04283   0.04410   0.04658   0.05469   0.05676
     Eigenvalues ---    0.05746   0.05970   0.08919   0.09382   0.10941
     Eigenvalues ---    0.10997   0.13394   0.13654   0.15121   0.15821
     Eigenvalues ---    0.16000   0.16000   0.16000   0.16051   0.19783
     Eigenvalues ---    0.21162   0.21994   0.24564   0.25446   0.30175
     Eigenvalues ---    0.30619   0.31112   0.33940   0.34054   0.34189
     Eigenvalues ---    0.34234   0.34479   0.34821   0.35182   0.38284
     Eigenvalues ---    0.39909   0.40391   0.45562   0.53829   0.54932
     Eigenvalues ---    1.02976
 En-DIIS/RFO-DIIS IScMMF=        0 using points:     2    1
 RFO step:  Lambda=-8.93486246D-08.
 DidBck=T Rises=F RFO-DIIS coefs:    0.21813    0.78187
 Iteration  1 RMS(Cart)=  0.00054891 RMS(Int)=  0.00000072
 Iteration  2 RMS(Cart)=  0.00000070 RMS(Int)=  0.00000000
 Variable       Old X    -DE/DX   Delta X   Delta X   Delta X     New X
                                 (Linear)    (Quad)   (Total)
    R1        2.85319  -0.00001   0.00006  -0.00012  -0.00006   2.85313
    R2        2.06917   0.00000  -0.00002   0.00004   0.00002   2.06919
    R3        2.06942   0.00000  -0.00001   0.00001   0.00001   2.06942
    R4        2.06501   0.00000  -0.00001   0.00003   0.00001   2.06502
    R5        2.82208   0.00001  -0.00004   0.00007   0.00004   2.82211
    R6        2.91457   0.00000   0.00001  -0.00001   0.00000   2.91457
    R7        2.05380   0.00000   0.00000   0.00000   0.00000   2.05380
    R8        2.63011  -0.00001   0.00008  -0.00015  -0.00008   2.63004
    R9        2.89669   0.00000   0.00000   0.00001   0.00001   2.89669
   R10        2.05967   0.00000   0.00000   0.00000   0.00000   2.05967
   R11        1.82877   0.00000   0.00001  -0.00001  -0.00001   1.82877
   R12        2.86750   0.00000   0.00000  -0.00001  -0.00001   2.86750
   R13        2.71236  -0.00001   0.00002  -0.00005  -0.00003   2.71233
   R14        2.70751   0.00001  -0.00004   0.00008   0.00004   2.70755
   R15        2.07240   0.00000   0.00000  -0.00001  -0.00001   2.07239
   R16        2.07419   0.00000   0.00001  -0.00001  -0.00001   2.07418
   R17        1.81889   0.00000   0.00000   0.00001   0.00000   1.81890
   R18        2.27465   0.00000   0.00000   0.00001   0.00000   2.27465
   R19        2.00608   0.00000   0.00001  -0.00002  -0.00001   2.00607
    A1        1.94039   0.00000  -0.00004   0.00008   0.00004   1.94043
    A2        1.92644   0.00000  -0.00002   0.00004   0.00002   1.92646
    A3        1.94260   0.00001  -0.00007   0.00015   0.00008   1.94268
    A4        1.88587   0.00000   0.00004  -0.00008  -0.00004   1.88583
    A5        1.87673   0.00000   0.00005  -0.00010  -0.00005   1.87668
    A6        1.88972   0.00000   0.00005  -0.00011  -0.00005   1.88967
    A7        2.12658   0.00000  -0.00001   0.00001   0.00001   2.12658
    A8        2.11772   0.00000  -0.00002   0.00003   0.00001   2.11773
    A9        2.01345   0.00000   0.00006  -0.00012  -0.00006   2.01339
   A10        1.98411   0.00000  -0.00002   0.00005   0.00003   1.98414
   A11        1.97070   0.00001  -0.00005   0.00011   0.00006   1.97076
   A12        2.06591   0.00000  -0.00002   0.00004   0.00003   2.06594
   A13        2.04726   0.00000   0.00005  -0.00010  -0.00005   2.04721
   A14        2.05981   0.00000  -0.00003   0.00006   0.00003   2.05984
   A15        2.01602   0.00000  -0.00001   0.00001   0.00001   2.01603
   A16        2.01718   0.00000   0.00000  -0.00001  -0.00001   2.01718
   A17        1.85809   0.00001   0.00000   0.00002   0.00002   1.85811
   A18        2.06307  -0.00001   0.00010  -0.00022  -0.00011   2.06296
   A19        2.08281   0.00001   0.00000   0.00002   0.00002   2.08283
   A20        2.00222  -0.00001   0.00010  -0.00020  -0.00010   2.00212
   A21        2.06342   0.00001  -0.00009   0.00017   0.00008   2.06350
   A22        2.02078   0.00000  -0.00007   0.00013   0.00006   2.02084
   A23        1.87026   0.00000   0.00000   0.00000   0.00000   1.87025
   A24        1.91616   0.00000  -0.00001   0.00002   0.00001   1.91617
   A25        1.92279   0.00000  -0.00002   0.00004   0.00003   1.92282
   A26        1.92620   0.00000  -0.00001   0.00000   0.00000   1.92620
   A27        1.93336   0.00000   0.00007  -0.00012  -0.00006   1.93331
   A28        1.89519   0.00000  -0.00002   0.00005   0.00003   1.89522
   A29        1.89024   0.00000   0.00001  -0.00002  -0.00001   1.89022
   A30        3.13944  -0.00009  -0.00028   0.00014  -0.00014   3.13929
   A31        3.14887  -0.00012  -0.00201  -0.00055  -0.00255   3.14632
   A32        3.15229  -0.00001   0.00009  -0.00021  -0.00012   3.15217
   A33        3.12917   0.00002   0.00080  -0.00068   0.00012   3.12930
    D1        2.71456   0.00000  -0.00019   0.00040   0.00021   2.71477
    D2        1.44613   0.00000  -0.00018   0.00039   0.00021   1.44634
    D3       -1.04051   0.00000  -0.00015   0.00032   0.00017  -1.04034
    D4       -1.47608   0.00000  -0.00018   0.00039   0.00021  -1.47587
    D5       -2.74450   0.00000  -0.00018   0.00038   0.00020  -2.74430
    D6        1.05205   0.00000  -0.00014   0.00031   0.00016   1.05221
    D7        0.62276   0.00000  -0.00018   0.00038   0.00020   0.62296
    D8       -0.64567   0.00000  -0.00017   0.00037   0.00020  -0.64547
    D9       -3.13230   0.00000  -0.00014   0.00030   0.00016  -3.13214
   D10        2.46274   0.00000   0.00004  -0.00007  -0.00003   2.46270
   D11       -0.08623   0.00000   0.00000  -0.00001   0.00000  -0.08623
   D12       -0.07472   0.00000  -0.00002   0.00006   0.00004  -0.07468
   D13       -2.62369   0.00000  -0.00006   0.00013   0.00007  -2.62362
   D14       -2.53964   0.00000   0.00006  -0.00013  -0.00007  -2.53971
   D15        0.08144   0.00000   0.00011  -0.00021  -0.00010   0.08134
   D16       -0.03851   0.00000   0.00007  -0.00013  -0.00007  -0.03858
   D17        2.58257   0.00000   0.00012  -0.00022  -0.00010   2.58247
   D18        2.12600   0.00000   0.00002  -0.00003  -0.00001   2.12598
   D19        0.89318   0.00000   0.00002  -0.00005  -0.00002   0.89316
   D20       -1.59789   0.00000   0.00007  -0.00014  -0.00006  -1.59795
   D21       -0.00455   0.00000  -0.00008   0.00017   0.00010  -0.00445
   D22       -2.48703   0.00001   0.00004  -0.00002   0.00001  -2.48702
   D23        2.48610   0.00000  -0.00013   0.00027   0.00014   2.48624
   D24        0.00362   0.00001  -0.00002   0.00007   0.00006   0.00368
   D25       -2.25835   0.00001   0.00015  -0.00027  -0.00012  -2.25847
   D26       -0.16613   0.00000   0.00013  -0.00025  -0.00012  -0.16625
   D27        1.92020   0.00000   0.00008  -0.00015  -0.00006   1.92014
   D28       -1.11344   0.00000   0.00020  -0.00037  -0.00017  -1.11361
   D29        0.97877   0.00000   0.00018  -0.00035  -0.00017   0.97861
   D30        3.06511   0.00000   0.00013  -0.00025  -0.00012   3.06499
   D31        1.38558   0.00000   0.00008  -0.00016  -0.00008   1.38551
   D32       -2.80538   0.00000   0.00007  -0.00014  -0.00008  -2.80546
   D33       -0.71905   0.00000   0.00002  -0.00004  -0.00002  -0.71907
   D34       -3.09202   0.00000  -0.00042   0.00088   0.00046  -3.09156
   D35        1.10538   0.00001  -0.00040   0.00085   0.00045   1.10583
   D36       -0.99412   0.00001  -0.00040   0.00086   0.00046  -0.99366
         Item               Value     Threshold  Converged?
 Maximum Force            0.000123     0.000450     YES
 RMS     Force            0.000017     0.000300     YES
 Maximum Displacement     0.004457     0.001800     NO 
 RMS     Displacement     0.000549     0.001200     YES
 Predicted change in Energy=-1.740358D-07
 GradGradGradGradGradGradGradGradGradGradGradGradGradGradGradGradGradGrad

                          Input orientation:                          
 ---------------------------------------------------------------------
 Center     Atomic      Atomic             Coordinates (Angstroms)
 Number     Number       Type             X           Y           Z
 ---------------------------------------------------------------------
      1          6           0        1.221047   -0.609559   -1.113623
      2          6           0        0.969439    0.216514    0.124857
      3          6           0        1.959133    1.221043    0.616452
      4          8           0        1.481693    2.423293    1.129902
      5          6           0        1.732590   -0.053277    1.437705
      6          6           0        1.000117    0.159254    2.749521
      7          8           0        1.833489    0.987391    3.569595
      8          6           0        2.772118   -1.042790    1.456234
      9          6           0        3.636074   -1.880671    1.476485
     10          1           0        0.650632   -1.543881   -1.088563
     11          1           0        0.923468   -0.054251   -2.009337
     12          1           0        2.277707   -0.871554   -1.208269
     13          1           0       -0.065072    0.506590    0.288655
     14          1           0        2.913366    1.280114    0.093097
     15          1           0        1.814232    2.485596    2.036578
     16          1           0        0.038546    0.652166    2.562211
     17          1           0        0.809635   -0.805432    3.237216
     18          1           0        1.404374    1.095744    4.424324
     19          1           0        4.405796   -2.611405    1.498471
 ---------------------------------------------------------------------
                    Distance matrix (angstroms):
                    1          2          3          4          5
     1  C    0.000000
     2  C    1.509813   0.000000
     3  C    2.624697   1.493398   0.000000
     4  O    3.781472   2.478385   1.391756   0.000000
     5  C    2.660902   1.542323   1.532863   2.508205   0.000000
     6  C    3.945094   2.625468   2.568481   2.825059   1.517415
     7  O    4.985766   3.634151   2.965036   2.852662   2.374473
     8  C    3.032767   2.570616   2.547767   3.712872   1.435304
     9  C    3.762544   3.651853   3.629383   4.825514   2.638963
    10  H    1.094969   2.161716   3.502008   4.620684   3.126431
    11  H    1.095091   2.151792   3.097377   4.037903   3.540731
    12  H    1.092762   2.161639   2.794648   4.117851   2.822749
    13  H    2.205963   1.086824   2.171474   2.602678   2.205755
    14  H    2.809089   2.216101   1.089931   2.105115   2.231621
    15  H    4.455965   3.084977   1.907052   0.967742   2.609826
    16  H    4.062267   2.645194   2.792536   2.696493   2.152197
    17  H    4.374634   3.279740   3.506616   3.913707   2.157736
    18  H    5.797458   4.409947   3.850110   3.552687   3.216810
    19  H    4.579634   4.657521   4.631607   5.833902   3.700506
                    6          7          8          9         10
     6  C    0.000000
     7  O    1.432773   0.000000
     8  C    2.501497   3.077166   0.000000
     9  C    3.567938   3.981985   1.203693   0.000000
    10  H    4.213514   5.431844   3.350789   3.950413   0.000000
    11  H    4.764262   5.747837   4.050296   4.779643   1.772360
    12  H    4.284729   5.145968   2.715390   3.173544   1.764575
    13  H    2.703911   3.821030   3.437072   4.561626   2.571652
    14  H    3.460265   3.652103   2.697031   3.525143   3.806735
    15  H    2.565724   2.143626   3.701871   4.764148   5.230407
    16  H    1.096662   2.085430   3.401247   4.531697   4.304117
    17  H    1.097610   2.091163   2.660748   3.499296   4.391237
    18  H    1.960969   0.962518   3.905586   4.746503   6.158545
    19  H    4.565121   4.884429   2.265225   1.061569   4.683334
                   11         12         13         14         15
    11  H    0.000000
    12  H    1.773035   0.000000
    13  H    2.563693   3.103010   0.000000
    14  H    3.187546   2.593702   3.083452   0.000000
    15  H    4.859394   4.691940   3.240908   2.537400   0.000000
    16  H    4.709688   4.642422   2.280567   3.841280   2.605920
    17  H    5.301278   4.682088   3.343729   4.319800   3.644395
    18  H    6.553301   6.029849   4.428333   4.590270   2.793028
    19  H    5.565102   3.857757   5.583387   4.398448   5.743274
                   16         17         18         19
    16  H    0.000000
    17  H    1.781797   0.000000
    18  H    2.351534   2.318924   0.000000
    19  H    5.554756   4.383737   5.595722   0.000000
 Stoichiometry    C7H10O2
 Framework group  C1[X(C7H10O2)]
 Deg. of freedom    51
 Full point group                 C1      NOp   1
 Largest Abelian subgroup         C1      NOp   1
 Largest concise Abelian subgroup C1      NOp   1
                         Standard orientation:                         
 ---------------------------------------------------------------------
 Center     Atomic      Atomic             Coordinates (Angstroms)
 Number     Number       Type             X           Y           Z
 ---------------------------------------------------------------------
      1          6           0        2.406727   -0.911545    0.433578
      2          6           0        0.900125   -0.986696    0.497125
      3          6           0        0.057405   -0.964359   -0.735580
      4          8           0       -1.064667   -1.786273   -0.784538
      5          6           0        0.022359    0.246940    0.203140
      6          6           0       -1.270124    0.409217    0.981408
      7          8           0       -2.311331    0.647985    0.026570
      8          6           0        0.644078    1.463979   -0.235472
      9          6           0        1.164968    2.488913   -0.591925
     10          1           0        2.822709   -0.515293    1.365727
     11          1           0        2.831577   -1.907306    0.268693
     12          1           0        2.737869   -0.259112   -0.378091
     13          1           0        0.498312   -1.612897    1.289340
     14          1           0        0.566693   -0.808160   -1.686462
     15          1           0       -1.823913   -1.205201   -0.934292
     16          1           0       -1.477380   -0.504358    1.551578
     17          1           0       -1.186137    1.248499    1.683762
     18          1           0       -3.132312    0.798522    0.505913
     19          1           0        1.617339    3.392912   -0.916078
 ---------------------------------------------------------------------
 Rotational constants (GHZ):      1.8850173      1.5802422      1.0456096
 Standard basis: 6-31G(2df,p) (6D, 7F)
 There are   329 symmetry adapted cartesian basis functions of A   symmetry.
 There are   302 symmetry adapted basis functions of A   symmetry.
   302 basis functions,   466 primitive gaussians,   329 cartesian basis functions
    34 alpha electrons       34 beta electrons
       nuclear repulsion energy       449.4858279255 Hartrees.
 NAtoms=   19 NActive=   19 NUniq=   19 SFac= 1.00D+00 NAtFMM=   60 NAOKFM=F Big=F
 Integral buffers will be    131072 words long.
 Raffenetti 2 integral format.
 Two-electron integral symmetry is turned on.
 One-electron integrals computed using PRISM.
 NBasis=   302 RedAO= T EigKep=  1.10D-04  NBF=   302
 NBsUse=   302 1.00D-06 EigRej= -1.00D+00 NBFU=   302
 Initial guess from the checkpoint file:  "/scratch/puck/g09_b3d8f9af-a5cb-4ce8-bf8b-7a8ad9b25a17/Gau-74489.chk"
 B after Tr=     0.000000    0.000000    0.000000
         Rot=    1.000000    0.000001    0.000020    0.000154 Ang=   0.02 deg.
 Requested convergence on RMS density matrix=1.00D-08 within 128 cycles.
 Requested convergence on MAX density matrix=1.00D-06.
 Requested convergence on             energy=1.00D-06.
 No special actions if energy rises.
 SCF Done:  E(RB3LYP) =  -423.127605766     A.U. after    6 cycles
            NFock=  6  Conv=0.83D-08     -V/T= 2.0074
 Calling FoFJK, ICntrl=      2127 FMM=F ISym2X=0 I1Cent= 0 IOpClX= 0 NMat=1 NMatS=1 NMatT=0.
 ***** Axes restored to original set *****
 -------------------------------------------------------------------
 Center     Atomic                   Forces (Hartrees/Bohr)
 Number     Number              X              Y              Z
 -------------------------------------------------------------------
      1        6           0.000004706   -0.000006463   -0.000011758
      2        6          -0.000005632    0.000008055    0.000006803
      3        6           0.000001113   -0.000006387   -0.000013390
      4        8           0.000009035    0.000003555    0.000005447
      5        6          -0.000004539   -0.000018809    0.000000244
      6        6          -0.000002025   -0.000008889    0.000009498
      7        8          -0.000006992    0.000012961   -0.000007165
      8        6           0.000011253    0.000011366    0.000010547
      9        6          -0.000001837    0.000013872   -0.000012198
     10        1          -0.000002089    0.000005680    0.000001456
     11        1           0.000002179    0.000000883   -0.000001980
     12        1          -0.000001204   -0.000002052    0.000004329
     13        1           0.000000358    0.000000456   -0.000000643
     14        1           0.000006194   -0.000007956   -0.000001670
     15        1           0.000003669    0.000007982    0.000004439
     16        1           0.000005819    0.000006885   -0.000003077
     17        1          -0.000010180    0.000002712   -0.000001608
     18        1           0.000004400   -0.000001807   -0.000002033
     19        1          -0.000014227   -0.000022045    0.000012761
 -------------------------------------------------------------------
 Cartesian Forces:  Max     0.000022045 RMS     0.000007919

 GradGradGradGradGradGradGradGradGradGradGradGradGradGradGradGradGradGrad
 Berny optimization.
 Using GEDIIS/GDIIS optimizer.
 FormGI is forming the generalized inverse of G from B-inverse, IUseBI=4.
 Internal  Forces:  Max     0.000028737 RMS     0.000006185
 Search for a local minimum.
 Step number   3 out of a maximum of   98
 All quantities printed in internal units (Hartrees-Bohrs-Radians)
 Mixed Optimization -- En-DIIS/RFO-DIIS
 Swapping is turned off.
 Update second derivatives using D2CorX and points    1    2    3
 DE= -1.26D-07 DEPred=-1.74D-07 R= 7.22D-01
 Trust test= 7.22D-01 RLast= 2.79D-03 DXMaxT set to 1.50D-01
 ITU=  0 -1  0
     Eigenvalues ---    0.00363   0.00554   0.00801   0.01208   0.01800
     Eigenvalues ---    0.01838   0.02252   0.02364   0.03014   0.03133
     Eigenvalues ---    0.04061   0.04406   0.05309   0.05671   0.05745
     Eigenvalues ---    0.05915   0.06406   0.08625   0.09532   0.10965
     Eigenvalues ---    0.11001   0.13348   0.13622   0.14873   0.15837
     Eigenvalues ---    0.16000   0.16000   0.16001   0.16506   0.19873
     Eigenvalues ---    0.21018   0.22166   0.24729   0.25476   0.30080
     Eigenvalues ---    0.30621   0.31305   0.33942   0.34049   0.34207
     Eigenvalues ---    0.34275   0.34484   0.34832   0.35183   0.38371
     Eigenvalues ---    0.39704   0.40449   0.46171   0.53892   0.54964
     Eigenvalues ---    1.03032
 En-DIIS/RFO-DIIS IScMMF=        0 using points:     3    2    1
 RFO step:  Lambda=-1.42330998D-08.
 DidBck=F Rises=F RFO-DIIS coefs:    0.74044    0.07206    0.18750
 Iteration  1 RMS(Cart)=  0.00048927 RMS(Int)=  0.00000055
 Iteration  2 RMS(Cart)=  0.00000063 RMS(Int)=  0.00000001
 Variable       Old X    -DE/DX   Delta X   Delta X   Delta X     New X
                                 (Linear)    (Quad)   (Total)
    R1        2.85313   0.00001   0.00003  -0.00016  -0.00013   2.85301
    R2        2.06919   0.00000  -0.00001   0.00005   0.00004   2.06923
    R3        2.06942   0.00000   0.00000   0.00002   0.00002   2.06944
    R4        2.06502   0.00000  -0.00001   0.00003   0.00003   2.06505
    R5        2.82211   0.00000  -0.00002   0.00010   0.00008   2.82220
    R6        2.91457   0.00000   0.00000   0.00000   0.00001   2.91457
    R7        2.05380   0.00000   0.00000   0.00000   0.00000   2.05380
    R8        2.63004   0.00001   0.00004  -0.00020  -0.00016   2.62987
    R9        2.89669   0.00000   0.00000   0.00001   0.00001   2.89670
   R10        2.05967   0.00000   0.00000   0.00001   0.00001   2.05968
   R11        1.82877   0.00001   0.00000  -0.00001  -0.00001   1.82876
   R12        2.86750   0.00000   0.00000  -0.00002  -0.00001   2.86749
   R13        2.71233   0.00000   0.00001  -0.00008  -0.00007   2.71226
   R14        2.70755   0.00000  -0.00002   0.00012   0.00010   2.70764
   R15        2.07239   0.00000   0.00000  -0.00002  -0.00002   2.07237
   R16        2.07418   0.00000   0.00000  -0.00002  -0.00001   2.07417
   R17        1.81890   0.00000   0.00000   0.00001   0.00001   1.81890
   R18        2.27465   0.00000   0.00000   0.00001   0.00000   2.27465
   R19        2.00607   0.00001   0.00001  -0.00002  -0.00002   2.00606
    A1        1.94043   0.00000  -0.00002   0.00010   0.00008   1.94051
    A2        1.92646   0.00000  -0.00001   0.00007   0.00006   1.92652
    A3        1.94268   0.00000  -0.00004   0.00020   0.00016   1.94284
    A4        1.88583   0.00000   0.00002  -0.00011  -0.00009   1.88574
    A5        1.87668   0.00000   0.00002  -0.00014  -0.00011   1.87657
    A6        1.88967   0.00000   0.00003  -0.00014  -0.00012   1.88955
    A7        2.12658   0.00000   0.00000  -0.00001  -0.00001   2.12657
    A8        2.11773   0.00000  -0.00001   0.00005   0.00005   2.11778
    A9        2.01339   0.00000   0.00003  -0.00017  -0.00014   2.01325
   A10        1.98414   0.00000  -0.00001   0.00010   0.00009   1.98423
   A11        1.97076   0.00000  -0.00003   0.00015   0.00012   1.97089
   A12        2.06594   0.00000  -0.00001   0.00010   0.00009   2.06602
   A13        2.04721   0.00000   0.00002  -0.00016  -0.00014   2.04707
   A14        2.05984   0.00000  -0.00001   0.00007   0.00005   2.05989
   A15        2.01603   0.00000   0.00000   0.00003   0.00002   2.01605
   A16        2.01718   0.00000   0.00000  -0.00003  -0.00003   2.01715
   A17        1.85811   0.00001   0.00000   0.00009   0.00009   1.85820
   A18        2.06296   0.00000   0.00005  -0.00033  -0.00027   2.06269
   A19        2.08283   0.00000  -0.00001   0.00009   0.00008   2.08291
   A20        2.00212   0.00000   0.00005  -0.00030  -0.00025   2.00187
   A21        2.06350   0.00000  -0.00004   0.00021   0.00017   2.06366
   A22        2.02084   0.00000  -0.00003   0.00019   0.00016   2.02100
   A23        1.87025  -0.00001   0.00000  -0.00003  -0.00003   1.87023
   A24        1.91617   0.00000  -0.00001   0.00000   0.00000   1.91616
   A25        1.92282   0.00000  -0.00001   0.00009   0.00008   1.92290
   A26        1.92620   0.00000   0.00000  -0.00003  -0.00003   1.92617
   A27        1.93331   0.00001   0.00003  -0.00011  -0.00008   1.93323
   A28        1.89522   0.00000  -0.00001   0.00008   0.00006   1.89528
   A29        1.89022   0.00000   0.00001  -0.00003  -0.00002   1.89020
[...]
 -0.09798389,0.05766744,0.01197192,0.15957741,-0.00052755,-0.00178971,0
 .00302008,0.00227852,-0.01818136,-0.00950966,0.07310563,-0.20488836,-0
 .04613895,-0.09693435,0.30409243,-0.00333914,-0.00558328,0.00280466,0.
 01294982,-0.02088106,-0.01475178,0.03034103,-0.08490448,-0.10806294,0.
 13096510,0.11015375,0.55004408,-0.00042442,-0.00818893,0.00174355,-0.0
 7887011,0.01485960,-0.02957543,-0.04562335,0.00236414,0.02484287,-0.00
 373210,0.01213657,-0.00801381,0.42256818,-0.00453827,0.00851443,-0.011
 05650,0.04255836,-0.02688997,0.02360316,-0.02625259,-0.11693885,0.0238
 4613,0.00680573,-0.03712987,0.01155110,-0.16261542,0.41937518,-0.00820
 058,0.01364436,-0.02335307,-0.05561499,-0.01416316,-0.12908358,0.04653
 102,0.07762425,-0.08178212,0.00347823,-0.00637480,0.01277773,-0.050394
 69,-0.04158896,0.48278533,-0.00253932,0.00386252,-0.00359168,0.0108284
 8,-0.00647778,-0.01479339,-0.00781967,-0.00250083,0.01606210,-0.002631
 00,0.00193464,-0.00147462,-0.10542963,0.01417285,0.05263601,0.54165084
 ,-0.00064425,0.00043558,-0.00118101,0.00295789,-0.00329822,-0.00901225
 ,-0.01937771,0.00675532,0.02875063,-0.00053966,-0.00054137,-0.00544015
 ,0.01575302,-0.07432157,-0.00777562,-0.04074751,0.55120304,0.00101612,
 0.00035487,0.00049646,0.00522652,0.00688755,-0.02124313,-0.00108314,0.
 00971838,-0.01768801,0.00225295,-0.00447554,-0.00433745,0.05919503,-0.
 00566901,-0.14389665,-0.01768034,-0.07208578,0.47603746,0.00060697,-0.
 00025099,0.00054745,-0.00091196,0.00057531,0.00258215,0.00196132,-0.00
 173324,-0.00183706,0.00170991,0.00121477,0.00163484,0.01220147,0.00716
 070,0.00412765,-0.13394077,-0.04571122,-0.01257685,0.28398821,-0.00012
 587,0.00088294,-0.00064865,0.00078484,-0.00207705,0.00213975,0.0032324
 3,-0.00582287,0.00045559,-0.00123579,0.00265633,0.00729294,-0.00441237
 ,-0.00245447,-0.01576062,-0.06455968,-0.11075829,-0.02649643,0.0814019
 3,0.15365530,-0.00073233,0.00223242,-0.00148566,0.00404698,-0.00550262
 ,-0.00377927,-0.00211013,-0.00027084,0.00520750,-0.00122070,0.00456223
 ,-0.00608809,-0.01910865,-0.02221863,-0.03717056,-0.05474765,-0.051651
 83,-0.11624598,-0.13493639,0.12656143,0.56485736,0.00215935,-0.0015290
 6,0.00165155,-0.01907294,0.02212177,-0.00787213,0.00400590,0.00548668,
 -0.01416794,0.00132146,-0.00790273,0.00123567,-0.18061163,0.11094639,0
 .01075826,-0.02065072,0.01527636,0.00914123,0.00009802,-0.00028151,-0.
 00241439,0.78777923,0.00030457,0.00147076,-0.00032982,-0.00307719,-0.0
 0532867,0.01617800,0.02573871,-0.02681068,0.00711468,0.00110913,-0.001
 93473,0.00323565,0.11768371,-0.16310926,-0.00792620,0.00792520,-0.0061
 1066,-0.00898984,0.00093757,0.00061309,0.00203546,-0.67567828,0.737200
 94,-0.00140533,-0.00035346,-0.00009356,-0.01448017,0.01791868,0.000176
 29,-0.00586920,0.00568795,-0.00682516,-0.00089550,-0.00058602,0.001068
 45,-0.00010780,-0.00003602,-0.06533458,0.02287659,-0.01972064,0.002833
 31,-0.00051091,0.00024247,0.00021411,0.01281129,-0.01822542,0.10123190
 ,-0.00072094,0.00039386,0.00064761,0.00102915,-0.00259772,0.00361444,-
 0.00040126,-0.00461028,0.00603244,-0.00006913,0.00303860,-0.00039684,-
 0.00341254,0.01253658,-0.00403399,0.00049214,-0.00001490,-0.00468934,0
 .00086389,0.00026462,0.00142816,-0.57701046,0.53231115,-0.01378372,0.8
 0949595,0.00031156,-0.00022298,-0.00039822,0.00099129,0.00208873,-0.00
 595032,-0.00098168,0.00435220,-0.00430023,0.00054221,-0.00214285,0.000
 16105,0.00849941,-0.00672548,0.00511342,-0.00013817,-0.00039774,0.0051
 7910,-0.00049195,0.00004488,-0.00109695,0.53153519,-0.54091787,0.01322
 796,-0.74655153,0.75429462,0.00049739,0.00008794,-0.00049973,0.0001818
 3,-0.00044828,-0.00173727,0.00014028,0.00019501,0.00068170,-0.00031169
 ,0.00026374,0.00007527,0.00081542,0.00040539,0.00553451,-0.00035183,0.
 00051661,-0.00158699,0.00050916,-0.00026302,0.00048808,-0.01353009,0.0
 1340584,-0.02736367,0.01889845,-0.02070170,0.04258740,-0.11997447,-0.1
 1721344,0.00498577,0.00377759,0.00654156,-0.00051583,0.00012228,0.0000
 3718,0.00100850,0.00003077,0.00036988,-0.00004239,0.00009088,-0.000490
 48,-0.00008071,-0.00000700,-0.00008289,-0.00003694,-0.00002727,0.00002
 095,-0.00006450,0.00011554,0.00001186,0.00006307,0.00008425,0.00030461
 ,-0.00012329,0.12586476,-0.11693009,-0.23452083,0.00848664,-0.01013898
 ,-0.01632332,-0.00119949,0.00347582,0.00056871,-0.00036148,-0.00043897
 ,-0.00058700,-0.00143195,-0.00036376,0.00109132,-0.00038498,-0.0002651
 5,0.00000753,0.00011331,0.00005853,0.00008865,-0.00012186,0.00005891,-
 0.00003851,-0.00058600,-0.00021295,0.00023287,0.00006813,0.12896099,0.
 25615544,0.00550041,0.00949985,-0.04649443,-0.01771223,-0.02651421,-0.
 00152091,0.00363850,-0.00255080,-0.00155167,-0.00092778,-0.00077711,-0
 .00210584,-0.00027232,0.00130261,0.00186617,0.00002855,-0.00014426,0.0
 0011656,0.00005084,0.00018944,0.00004799,0.00011483,0.00015562,-0.0003
 9248,-0.00019213,0.00032846,0.00006365,-0.00634855,-0.00562566,0.05050
 857,-0.06694378,0.03705503,-0.05829610,0.00135650,-0.00323384,0.005526
 11,0.00002968,0.00027713,-0.00029763,-0.00002115,-0.00013569,-0.000029
 50,0.00009727,0.00072330,0.00081998,0.00015336,-0.00004984,-0.00000880
 ,-0.00000055,0.00001844,0.00008353,-0.00041221,0.00036413,-0.00028397,
 0.00027027,-0.00035369,-0.00029299,0.00470774,-0.00899011,0.01508376,0
 .06752741,0.03735979,-0.11696251,0.11054626,-0.00644106,0.00976909,-0.
 01689281,0.00023273,0.00142579,0.00112032,0.00016076,0.00021721,0.0003
 5827,0.00121811,-0.00103578,-0.00422451,-0.00108991,-0.00015817,0.0000
 1170,0.00010458,-0.00017660,-0.00051668,0.00073027,-0.00050562,0.00017
 699,-0.00025362,0.00041516,0.00021560,0.00890253,-0.01386700,0.0218203
 0,-0.04154157,0.12489461,-0.05861442,0.11004628,-0.21697469,-0.0085216
 2,0.01251911,-0.02436921,-0.00051526,0.00064784,0.00147643,0.00016783,
 -0.00031539,0.00013906,0.00332760,-0.00191925,-0.00268772,-0.00161735,
 -0.00035623,0.00049121,0.00015006,-0.00032302,-0.00092937,0.00122903,-
 0.00065539,0.00036126,-0.00038195,0.00039755,0.00016540,0.00003556,0.0
 0055066,-0.00054386,0.06402794,-0.11832342,0.23987045,-0.29808339,0.06
 044451,0.02145678,-0.00482415,0.00156285,0.00139634,0.00022393,-0.0007
 3052,-0.00040714,-0.00000892,-0.00006285,-0.00014762,-0.00005820,0.000
 23142,-0.00018728,-0.00006670,0.00003992,0.00000272,0.00008087,0.00000
 012,0.00010218,-0.00037554,0.00026267,-0.00081193,0.00004363,-0.000223
 97,-0.00074909,-0.01563662,0.00433117,0.00068512,-0.00691684,0.0007905
 4,0.00064999,0.32368134,0.05937365,-0.06094777,-0.00586161,0.01865367,
 -0.00604774,-0.00181170,0.00195265,0.00074502,0.00014445,-0.00055842,-
 0.00018227,0.00039375,0.00009602,0.00061616,0.00060824,0.00012725,0.00
 000235,0.00003196,-0.00007328,-0.00006208,-0.00006627,-0.00054934,0.00
 019649,0.00016310,0.00010471,-0.00030470,0.00005227,-0.02757879,0.0072
 8655,0.00210821,0.01632268,-0.00438338,-0.00196324,-0.06713114,0.06464
 168,0.01777324,-0.00516574,-0.04775193,0.02839092,-0.00701927,-0.00368
 331,0.00112613,0.00045469,0.00142231,-0.00042607,-0.00005334,0.0000982
 2,0.00138050,0.00035912,0.00078675,0.00031912,0.00015613,-0.00022234,-
 0.00019776,0.00006775,-0.00003102,0.00010651,-0.00071844,-0.00074467,-
 0.00064979,0.00060333,0.00011496,0.00156542,0.00005223,-0.00101472,-0.
 02598608,0.00494787,0.00276594,-0.02263385,0.00913428,0.05242796,-0.00
 106220,-0.00013567,-0.00029612,-0.30158550,0.07076627,0.03977547,-0.01
 798780,0.00595583,0.00182947,0.00330388,0.00050299,0.00135124,-0.00642
 922,-0.00021523,-0.00021551,-0.00021706,0.00123307,0.00138505,0.000328
 78,-0.00011858,0.00035549,-0.00046988,-0.00120769,0.00005631,0.0000528
 0,0.00014492,-0.00010762,0.00043056,0.00036365,0.00033529,0.00017363,0
 .00005813,0.00047031,0.00116456,-0.00001813,0.00012172,0.32187571,0.01
 584113,-0.00346920,-0.00197159,0.07323283,-0.05984285,-0.01708802,-0.0
 2870376,0.00597984,0.00423260,0.00296653,0.00231856,0.00302461,0.01543
 430,-0.00596649,-0.00185087,-0.00078551,0.00006242,-0.00241640,-0.0002
 4940,-0.00009059,-0.00046697,0.00167512,0.00078271,0.00255645,0.000411
 72,-0.00051243,-0.00026582,-0.00005371,0.00036718,0.00085386,-0.000413
 27,0.00044749,0.00002065,0.00035164,-0.00127226,-0.00301086,-0.0765454
 6,0.06162354,0.02562047,-0.00629608,-0.00260914,0.04360831,-0.01703349
 ,-0.04907237,0.00079002,0.00010379,-0.00334970,-0.00074473,-0.00126095
 ,-0.00005906,-0.02478347,0.00549305,-0.00014057,-0.00151559,0.00237255
 ,0.00090888,0.00069824,-0.00002894,0.00063578,-0.00160797,-0.00301132,
 -0.00267519,-0.00070832,0.00123877,0.00035574,-0.00067767,0.00020659,0
 .00090885,-0.00025698,0.00085478,0.00075870,0.00041257,-0.00299575,-0.
 00432758,-0.04195826,0.01971229,0.05990476,0.00089614,0.00238844,0.000
 41946,-0.01680365,-0.00274497,0.01095408,-0.25502205,-0.02474640,0.115
 31371,-0.00378915,0.01014973,0.00775860,0.00326152,0.00060978,-0.00584
 525,0.00038840,0.00189527,-0.00049582,-0.00000719,-0.00028510,0.000343
 28,0.00109031,-0.00057655,0.00006631,0.00019006,-0.00028814,-0.0000439
 0,0.00040330,0.00010246,0.00005829,0.00000061,-0.00028712,-0.00048481,
 0.00062622,-0.00065033,-0.00054848,-0.00098922,-0.00278007,0.00076770,
 0.27042528,-0.00090330,0.00142790,-0.00001723,-0.00907076,-0.00133810,
 0.00555086,-0.02138194,-0.04768703,0.00937572,0.02996806,-0.00886572,-
 0.02140835,-0.01611094,-0.00313780,0.00887035,-0.00147198,-0.00382032,
 -0.00182670,0.00054935,0.00114176,-0.00025434,-0.00093941,0.00217085,0
 .00122043,0.00071404,-0.00044250,-0.00029229,0.00021691,-0.00002181,0.
 00006168,-0.00005402,-0.00010761,-0.00035687,0.00014277,-0.00048179,-0
 .00002556,-0.00041699,-0.00173114,0.00068518,0.01709318,0.06295575,0.0
 0064306,0.00172133,0.00106638,-0.01857479,-0.00030614,0.00809891,0.114
 24188,0.00772279,-0.10196051,0.01073862,-0.00727180,-0.00489081,0.0189
 4661,0.00489227,-0.01107747,0.00105016,0.00377832,0.00076370,-0.000568
 71,-0.00018404,0.00008360,0.00123065,-0.00340693,0.00110480,-0.0010408
 1,0.00026468,0.00019826,0.00025246,0.00013780,0.00006360,-0.00021420,0
 .00017468,-0.00018009,0.00028046,-0.00006863,0.00004876,-0.00234627,-0
 .00318019,0.00028091,-0.12664424,-0.00347195,0.10773942,0.00003005,-0.
 00015048,0.00024284,-0.00101338,-0.00202097,-0.00080094,0.00284772,0.0
 0510441,0.01783572,-0.07449385,0.00028080,-0.17038521,0.00031541,0.001
 46160,-0.00156367,0.00104147,-0.00205633,0.00078931,-0.00287111,0.0022
 7576,-0.00064705,0.00065497,-0.00021170,0.00030838,-0.00048139,0.00018
 720,0.00003003,0.00009507,-0.00006078,-0.00005386,-0.00001197,0.000047
 19,0.00004793,0.00007592,-0.00002333,-0.00002843,0.00014678,0.00030672
 ,-0.00026840,-0.00114308,0.00226461,0.00133361,0.07618843,-0.00108732,
 -0.00211079,0.00087739,0.00345766,-0.00402046,-0.00525470,-0.01266199,
 -0.01592285,-0.04157251,0.01775733,-0.03275368,0.00027149,-0.00106564,
 0.00256912,0.00039361,-0.00301272,-0.00567813,-0.00137821,0.00085669,-
 0.00028471,-0.00212069,0.00101321,-0.00002875,0.00024138,-0.00059851,0
 .00043091,0.00010037,0.00004575,-0.00039574,-0.00067523,-0.00000211,0.
 00015336,0.00020174,0.00001167,0.00010266,-0.00002283,0.00031579,0.000
 63469,0.00000700,0.00027391,-0.00044679,-0.00036913,-0.00581840,0.0549
 1872,-0.00013510,0.00005713,-0.00033039,0.00301295,0.00063681,0.000833
 34,-0.00392704,-0.00841979,-0.01777574,-0.14882363,-0.04262559,-0.4283
 0069,-0.00232356,0.00227393,0.00205629,0.00272455,0.00324017,0.0060494
 5,-0.00199901,-0.00359054,-0.00226034,0.00121250,0.00016790,-0.0002904
 8,-0.00049898,0.00047273,-0.00021675,0.00001554,0.00015960,0.00008890,
 0.00003395,-0.00005565,-0.00005293,-0.00001879,-0.00002859,0.00002880,
 0.00024678,0.00021757,0.00014585,-0.00102011,0.00080952,-0.00021572,0.
 15284577,0.04872917,0.44246879,0.00057108,0.00008564,0.00019916,0.0004
 2045,0.00068478,-0.00201892,-0.00136007,0.00155104,-0.00041877,0.00220
 988,-0.00010771,-0.00099917,-0.01285313,0.00916637,-0.00117561,-0.2323
 4138,0.10330406,-0.02915014,-0.02190501,-0.00322864,-0.01416291,-0.001
 70380,0.00011966,0.00261223,-0.00000209,0.00011177,0.00001306,-0.00004
 954,0.00000612,0.00001544,0.00000293,0.00002465,0.00003932,0.00008677,
 -0.00006348,-0.00025667,0.00082592,-0.00066142,0.00034087,0.00024707,-
 0.00021519,0.00007068,-0.00095854,0.00002983,-0.00076537,0.26094869,-0
 .00028757,0.00009935,-0.00011101,0.00074754,-0.00013747,0.00077117,-0.
 00014345,0.00014365,0.00000642,-0.00033012,-0.00070222,0.00062340,0.00
 313728,-0.00186740,0.00041598,0.10894025,-0.11117231,0.02146252,-0.027
 25255,0.00807866,-0.01000355,0.00144672,0.00001606,-0.00126851,0.00001
 471,0.00018132,-0.00019657,0.00003892,-0.00006252,-0.00002879,0.000011
 57,-0.00003579,-0.00006085,-0.00003616,0.00001948,0.00013383,-0.000366
 71,0.00061752,-0.00021196,-0.00002524,-0.00001458,-0.00015722,-0.00056
 330,-0.00000860,-0.00026773,-0.10903912,0.11553072,-0.00024663,0.00014
 449,-0.00016057,0.00186171,-0.00205761,0.00084746,0.00081760,-0.001046
 61,0.00053414,-0.00023595,0.00135327,0.00028365,0.02294942,-0.01402479
 ,0.00084212,-0.03153993,0.02306776,-0.05551680,-0.02569044,-0.00100089
 ,-0.00846795,0.00276476,0.00048685,-0.00420669,0.00061645,-0.00082627,
 0.00021412,0.00000769,0.00001976,0.00001412,0.00003358,-0.00002268,-0.
 00008480,-0.00002297,0.00004145,0.00010090,-0.00075870,-0.00000994,-0.
 00113481,-0.00000637,0.00024885,-0.00001766,-0.00003199,0.00050761,-0.
 00045149,0.04325124,-0.01660937,0.06624652,0.00019315,-0.00014675,0.00
 000281,-0.00091134,-0.00055939,0.00032252,-0.00136842,0.00156052,0.002
 67129,0.00090665,0.00032261,-0.00121179,-0.00265045,-0.01250853,0.0104
 2183,-0.05650943,-0.02467055,0.01434752,-0.00775598,-0.02722798,0.0021
 5057,0.00099910,-0.00138274,-0.00016102,-0.00006319,0.00038952,-0.0002
 6938,0.00000681,0.00003291,0.00000211,-0.00002871,0.00003925,0.0000347
 3,-0.00002058,-0.00005722,-0.00001465,0.00037677,0.00015886,0.00005746
 ,0.00025182,-0.00035646,0.00052892,-0.00029567,0.00015641,-0.00046163,
 0.00573588,0.02369158,-0.01283190,0.06092808,-0.00010058,-0.00016545,0
 .00002302,0.00002019,-0.00014240,0.00116655,0.00172064,-0.00051428,-0.
 00186935,-0.00042925,0.00012909,0.00110800,0.00246957,0.00577152,-0.00
 277522,-0.02830194,-0.23750137,0.10364778,-0.01277411,-0.02163648,-0.0
 0316890,0.00031840,0.00084263,-0.00043301,-0.00027028,0.00029538,-0.00
 010961,0.00002474,0.00005675,0.00001909,0.00000030,0.00003035,0.000041
 87,0.00001018,0.00002727,0.00005348,-0.00032292,0.00007830,-0.00000310
 ,-0.00015981,0.00046523,-0.00037235,0.00004760,0.00058898,-0.00090402,
 -0.00124863,-0.01163710,0.00923767,0.03970913,0.26320257,0.00008572,0.
 00022051,0.00009008,-0.00065915,0.00034499,0.00020960,0.00394576,-0.00
 265773,-0.00305400,0.00008159,-0.00015707,0.00095527,0.00576251,0.0249
 2780,-0.01408001,0.01817558,0.10490425,-0.10612214,-0.01028677,-0.0265
 8457,0.00796704,-0.00208635,0.00117793,0.00080793,0.00047952,-0.000873
 83,0.00035639,-0.00003009,-0.00010569,-0.00009373,0.00000844,-0.000041
 35,-0.00004708,0.00001493,0.00000392,-0.00006156,-0.00015164,-0.000221
 12,-0.00052361,-0.00055181,0.00082480,-0.00109355,-0.00029005,0.000238
 54,-0.00097889,0.00178197,0.00409572,-0.00012284,-0.01655711,-0.106055
 12,0.11384303,-0.00002649,0.00018837,-0.00015739,0.00052866,-0.0001332
 8,-0.00089589,-0.00000880,-0.00004660,-0.00006089,-0.00026221,0.000316
 05,-0.00007436,-0.00175995,-0.00208791,-0.00147890,0.00723861,-0.00658
 307,-0.02785735,-0.13430455,0.01361536,0.22177456,-0.00005920,-0.00019
 327,-0.00023892,-0.00001096,0.00004225,-0.00004930,0.00000014,0.000008
 95,0.00002171,0.00000408,-0.00003622,-0.00007439,-0.00000586,0.0000026
 6,0.00001771,0.00001841,-0.00008662,0.00006874,-0.00001594,0.00001629,
 -0.00000306,-0.00015016,0.00029419,-0.00009402,0.00006887,0.00009023,-
 0.00081148,0.00025187,-0.00068517,0.00023004,0.12847248,-0.00014679,0.
 00035195,-0.00025594,0.00076169,-0.00073739,-0.00052679,-0.00012189,-0
 .00060520,0.00034473,0.00055603,-0.00029309,0.00161543,-0.00334141,-0.
 00219072,-0.00349987,0.01200681,-0.00467648,-0.02391357,-0.00423127,-0
 .02379136,-0.03797431,-0.00021775,0.00029999,0.00007015,0.00013775,-0.
 00013984,0.00016803,-0.00000993,-0.00000933,0.00000410,0.00001760,-0.0
 0010515,-0.00011289,0.00000854,-0.00000457,-0.00000822,0.00001051,0.00
 002055,0.00011619,0.00003397,-0.00002238,0.00001551,-0.00106065,0.0023
 4002,-0.00077740,-0.00052461,0.00094906,0.00054665,0.00084296,0.000157
 90,-0.00006878,-0.00473411,0.02846565,-0.00024511,0.00046386,-0.000359
 23,0.00074085,-0.00154590,-0.00016820,-0.00004726,-0.00041928,0.001043
 27,-0.00032488,0.00021705,0.00049084,-0.00428779,-0.00244211,-0.004036
 63,0.01428989,-0.00017722,-0.02072933,0.17832891,-0.06208231,-0.402893
 99,-0.00044784,0.00015232,0.00016524,0.00004742,0.00001720,0.00006988,
 0.00000139,-0.00000003,0.00002326,0.00004557,-0.00011932,-0.00013173,-
 0.00000062,0.00000969,0.00003652,-0.00008452,0.00000542,-0.00010381,-0
 .00002391,0.00003590,0.00007529,0.00066167,-0.00013536,-0.00087142,0.0
 0075978,0.00135602,0.00087862,0.00092062,0.00037199,0.00200986,-0.1903
 6577,0.06429658,0.42450332,-0.00003258,-0.00005331,-0.00002797,0.00052
 967,-0.00009621,-0.00030999,-0.00066448,0.00058006,0.00002348,-0.00005
 024,0.00002009,-0.00012183,0.00331998,0.00233532,0.00001821,0.00035940
 ,0.00001833,0.00022228,-0.00011503,-0.00013894,-0.00014004,0.00214251,
 -0.00444092,-0.00024571,-0.23035020,0.20596919,-0.00525647,-0.00003481
 ,0.00000129,-0.00002796,0.00001174,-0.00001904,0.00002951,0.00001356,0
 .00007015,-0.00005948,0.00004307,-0.00009963,0.00015701,-0.00001046,-0
 .00004423,0.00007498,0.00002333,0.00003424,-0.00002478,0.00005603,-0.0
 0007459,-0.00012610,-0.00004636,-0.00002805,0.00004692,0.00002101,0.00
 001256,0.00003161,0.22478385,-0.00001476,0.00001660,-0.00003050,0.0003
 8729,-0.00044455,-0.00001183,-0.00047759,0.00014925,0.00058194,-0.0001
 9655,0.00057860,-0.00014016,0.00244676,0.00382990,-0.00034537,0.000381
 66,-0.00003164,-0.00015569,-0.00009142,-0.00000710,0.00004291,-0.00351
 094,0.00119124,-0.00029648,0.20518203,-0.21052970,0.00679838,-0.000046
 67,-0.00002895,-0.00002716,-0.00001605,-0.00001543,-0.00003915,-0.0000
 0337,0.00004887,0.00006157,-0.00000380,-0.00004785,0.00005140,-0.00000
 302,-0.00004393,0.00008101,-0.00000995,-0.00008800,-0.00009523,0.00000
 490,0.00000214,-0.00005620,0.00000587,-0.00004888,0.00002680,0.0000119
 1,-0.00000961,-0.00000449,-0.20404631,0.20547905,-0.00004021,0.0000703
 3,-0.00012874,0.00055333,-0.00081267,0.00006437,0.00027609,-0.00007876
 ,0.00040603,0.00008900,-0.00002390,-0.00014057,-0.00009599,0.00030072,
 0.00599408,-0.00085016,0.00075856,-0.00010821,-0.00002539,0.00001367,-
 0.00014922,-0.00012958,-0.00084687,-0.00003682,-0.00538862,0.00714325,
 -0.01950094,-0.00001541,0.00002243,0.00001597,0.00000339,-0.00003036,-
 0.00002697,-0.00002178,0.00010449,0.00000601,-0.00000849,-0.00014168,0
 .00009638,-0.00001673,-0.00002999,-0.00008780,-0.00002564,-0.00003964,
 0.00007342,-0.00013621,0.00005051,0.00020195,0.00004711,0.00002122,-0.
 00006180,0.00004895,-0.00003958,-0.00000174,0.00573633,-0.00644174,0.0
 1338458\\-0.00001974,0.00004562,0.00006341,-0.00000499,-0.00003211,-0.
 00001290,-0.00001787,0.00006563,0.00005139,0.00001388,-0.00004975,-0.0
 0001406,0.00003231,-0.00003544,0.00000795,-0.00003747,0.00001156,-0.00
 004664,0.00002139,0.00000529,0.00001270,-0.00001074,0.00001748,-0.0000
 1175,0.00005331,0.00001826,-0.00001549,0.00000052,-0.00001711,-0.00001
 011,0.00000216,-0.00000434,-0.00000434,0.00000423,-0.00000769,-0.00001
 740,-0.00000389,-0.00000297,-0.00001383,-0.00000871,0.00000744,-0.0000
 0267,-0.00000517,-0.00000690,-0.00000868,-0.00000298,-0.00000364,0.000
 00266,0.00001386,0.00000208,0.00000730,-0.00000558,-0.00000513,0.00000
 747,-0.00002452,-0.00000827,0.00000498\\\@


 The most important thing in communication is to hear what isn't being said.
 -- Peter F. Drucker
 Job cpu time:       0 days  0 hours 43 minutes 50.1 seconds.
 File lengths (MBytes):  RWF=    152 Int=      0 D2E=      0 Chk=      8 Scr=      1
 Normal termination of Gaussian 09 at Tue Jan 28 09:17:34 2020.
