 Entering Gaussian System, Link 0=/home/puck/opt/gaussian_09/g09
 Input=dsC7O2H10nsd_4801.com
 Output=dsC7O2H10nsd_4801.log
 Initial command:
 /home/puck/opt/gaussian_09/l1.exe "/scratch/puck/g09_29c9f66b-e44d-4605-9369-210f8ffe85c5/Gau-8381.inp" -scrdir="/scratch/puck/g09_29c9f66b-e44d-4605-9369-210f8ffe85c5/"
 Entering Link 1 = /home/puck/opt/gaussian_09/l1.exe PID=      8463.
  
 Copyright (c) 1988,1990,1992,1993,1995,1998,2003,2009,2013,
            Gaussian, Inc.  All Rights Reserved.
  
 This is part of the Gaussian(R) 09 program.  It is based on
 the Gaussian(R) 03 system (copyright 2003, Gaussian, Inc.),
 the Gaussian(R) 98 system (copyright 1998, Gaussian, Inc.),
 the Gaussian(R) 94 system (copyright 1995, Gaussian, Inc.),
 the Gaussian 92(TM) system (copyright 1992, Gaussian, Inc.),
 the Gaussian 90(TM) system (copyright 1990, Gaussian, Inc.),
 the Gaussian 88(TM) system (copyright 1988, Gaussian, Inc.),
 the Gaussian 86(TM) system (copyright 1986, Carnegie Mellon
 University), and the Gaussian 82(TM) system (copyright 1983,
 Carnegie Mellon University). Gaussian is a federally registered
 trademark of Gaussian, Inc.
  
 This software contains proprietary and confidential information,
 including trade secrets, belonging to Gaussian, Inc.
  
 This software is provided under written license and may be
 used, copied, transmitted, or stored only in accord with that
 written license.
  
 The following legend is applicable only to US Government
 contracts under FAR:
  
                    RESTRICTED RIGHTS LEGEND
  
 Use, reproduction and disclosure by the US Government is
 subject to restrictions as set forth in subparagraphs (a)
 and (c) of the Commercial Computer Software - Restricted
 Rights clause in FAR 52.227-19.
  
 Gaussian, Inc.
 340 Quinnipiac St., Bldg. 40, Wallingford CT 06492
  
  
 ---------------------------------------------------------------
 Warning -- This program may not be used in any manner that
 competes with the business of Gaussian, Inc. or will provide
 assistance to any competitor of Gaussian, Inc.  The licensee
 of this program is prohibited from giving any competitor of
 Gaussian, Inc. access to this program.  By using this program,
 the user acknowledges that Gaussian, Inc. is engaged in the
 business of creating and licensing software in the field of
 computational chemistry and represents and warrants to the
 licensee that it is not a competitor of Gaussian, Inc. and that
 it will not use this program in any manner prohibited above.
 ---------------------------------------------------------------
  

 Cite this work as:
 Gaussian 09, Revision D.01,
 M. J. Frisch, G. W. Trucks, H. B. Schlegel, G. E. Scuseria, 
 M. A. Robb, J. R. Cheeseman, G. Scalmani, V. Barone, B. Mennucci, 
 G. A. Petersson, H. Nakatsuji, M. Caricato, X. Li, H. P. Hratchian, 
 A. F. Izmaylov, J. Bloino, G. Zheng, J. L. Sonnenberg, M. Hada, 
 M. Ehara, K. Toyota, R. Fukuda, J. Hasegawa, M. Ishida, T. Nakajima, 
 Y. Honda, O. Kitao, H. Nakai, T. Vreven, J. A. Montgomery, Jr., 
 J. E. Peralta, F. Ogliaro, M. Bearpark, J. J. Heyd, E. Brothers, 
 K. N. Kudin, V. N. Staroverov, T. Keith, R. Kobayashi, J. Normand, 
 K. Raghavachari, A. Rendell, J. C. Burant, S. S. Iyengar, J. Tomasi, 
 M. Cossi, N. Rega, J. M. Millam, M. Klene, J. E. Knox, J. B. Cross, 
 V. Bakken, C. Adamo, J. Jaramillo, R. Gomperts, R. E. Stratmann, 
 O. Yazyev, A. J. Austin, R. Cammi, C. Pomelli, J. W. Ochterski, 
 R. L. Martin, K. Morokuma, V. G. Zakrzewski, G. A. Voth, 
 P. Salvador, J. J. Dannenberg, S. Dapprich, A. D. Daniels, 
 O. Farkas, J. B. Foresman, J. V. Ortiz, J. Cioslowski, 
 and D. J. Fox, Gaussian, Inc., Wallingford CT, 2013.
 
 ******************************************
 Gaussian 09:  ES64L-G09RevD.01 24-Apr-2013
                28-Jan-2020 
 ******************************************
 -----------------------------
 # b3lyp 6-31G(2df,p) opt Freq
 -----------------------------
 1/14=-1,18=20,19=15,26=3,38=1/1,3;
 2/9=110,12=2,17=6,18=5,40=1/2;
 3/5=1,6=6,7=104,11=2,16=1,25=1,30=1,71=1,74=-5/1,2,3;
 4//1;
 5/5=2,38=5/2;
 6/7=2,8=2,9=2,10=2,28=1/1;
 7//1,2,3,16;
 1/14=-1,18=20,19=15,26=3/3(2);
 2/9=110/2;
 99//99;
 2/9=110/2;
 3/5=1,6=6,7=104,11=2,16=1,25=1,30=1,71=1,74=-5/1,2,3;
 4/5=5,16=3,69=1/1;
 5/5=2,38=5/2;
 7//1,2,3,16;
 1/14=-1,18=20,19=15,26=3/3(-5);
 2/9=110/2;
 6/7=2,8=2,9=2,10=2,19=2,28=1/1;
 99/9=1/99;
 -----
 titel
 -----
 Symbolic Z-matrix:
 Charge =  0 Multiplicity = 1
 C                     1.4838    2.89531   1.53514 
 C                     0.05606   2.40843   1.27863 
 C                    -0.00762   0.89729   1.00192 
 O                     0.71815   0.64101  -0.16674 
 C                     1.01458  -0.72335  -0.4006 
 C                    -1.47281   0.44129   0.88357 
 O                    -1.96813   0.06658  -0.15454 
 C                    -2.23404   0.48613   2.12433 
 C                    -2.84878   0.51545   3.15928 
 H                     1.90667   2.42501   2.42996 
 H                     2.1295    2.65349   0.68798 
 H                     1.50269   3.97868   1.68596 
 H                    -0.58602   2.63548   2.13574 
 H                    -0.36959   2.92269   0.4092 
 H                     0.42776   0.357     1.86378 
 H                     1.56125  -1.1631    0.44794 
 H                     0.10982  -1.31161  -0.5897 
 H                     1.65304  -0.75858  -1.28607 
 H                    -3.40515   0.5375    4.06505 
 

 GradGradGradGradGradGradGradGradGradGradGradGradGradGradGradGradGradGrad
 Berny optimization.
 Initialization pass.
                           ----------------------------
                           !    Initial Parameters    !
                           ! (Angstroms and Degrees)  !
 --------------------------                            --------------------------
 ! Name  Definition              Value          Derivative Info.                !
 --------------------------------------------------------------------------------
 ! R1    R(1,2)                  1.5301         estimate D2E/DX2                !
 ! R2    R(1,10)                 1.0958         estimate D2E/DX2                !
 ! R3    R(1,11)                 1.0923         estimate D2E/DX2                !
 ! R4    R(1,12)                 1.094          estimate D2E/DX2                !
 ! R5    R(2,3)                  1.5376         estimate D2E/DX2                !
 ! R6    R(2,13)                 1.0947         estimate D2E/DX2                !
 ! R7    R(2,14)                 1.0961         estimate D2E/DX2                !
 ! R8    R(3,4)                  1.3994         estimate D2E/DX2                !
 ! R9    R(3,6)                  1.5391         estimate D2E/DX2                !
 ! R10   R(3,15)                 1.1065         estimate D2E/DX2                !
 ! R11   R(4,5)                  1.4156         estimate D2E/DX2                !
 ! R12   R(5,16)                 1.101          estimate D2E/DX2                !
 ! R13   R(5,17)                 1.0956         estimate D2E/DX2                !
 ! R14   R(5,18)                 1.0922         estimate D2E/DX2                !
 ! R15   R(6,7)                  1.2097         estimate D2E/DX2                !
 ! R16   R(6,8)                  1.4564         estimate D2E/DX2                !
 ! R17   R(8,9)                  1.2041         estimate D2E/DX2                !
 ! R18   R(9,19)                 1.0632         estimate D2E/DX2                !
 ! A1    A(2,1,10)             111.1257         estimate D2E/DX2                !
 ! A2    A(2,1,11)             110.5563         estimate D2E/DX2                !
 ! A3    A(2,1,12)             110.7524         estimate D2E/DX2                !
 ! A4    A(10,1,11)            108.0712         estimate D2E/DX2                !
 ! A5    A(10,1,12)            107.8055         estimate D2E/DX2                !
 ! A6    A(11,1,12)            108.4195         estimate D2E/DX2                !
 ! A7    A(1,2,3)              112.4288         estimate D2E/DX2                !
 ! A8    A(1,2,13)             110.4888         estimate D2E/DX2                !
 ! A9    A(1,2,14)             110.243          estimate D2E/DX2                !
 ! A10   A(3,2,13)             108.69           estimate D2E/DX2                !
 ! A11   A(3,2,14)             107.5933         estimate D2E/DX2                !
 ! A12   A(13,2,14)            107.2146         estimate D2E/DX2                !
 ! A13   A(2,3,4)              107.9875         estimate D2E/DX2                !
 ! A14   A(2,3,6)              110.1483         estimate D2E/DX2                !
 ! A15   A(2,3,15)             108.87           estimate D2E/DX2                !
 ! A16   A(4,3,6)              112.0413         estimate D2E/DX2                !
 ! A17   A(4,3,15)             110.9164         estimate D2E/DX2                !
 ! A18   A(6,3,15)             106.8474         estimate D2E/DX2                !
 ! A19   A(3,4,5)              115.0286         estimate D2E/DX2                !
 ! A20   A(4,5,16)             111.1979         estimate D2E/DX2                !
 ! A21   A(4,5,17)             111.9049         estimate D2E/DX2                !
 ! A22   A(4,5,18)             106.7033         estimate D2E/DX2                !
 ! A23   A(16,5,17)            109.1834         estimate D2E/DX2                !
 ! A24   A(16,5,18)            108.7642         estimate D2E/DX2                !
 ! A25   A(17,5,18)            108.9941         estimate D2E/DX2                !
 ! A26   A(3,6,7)              123.1995         estimate D2E/DX2                !
 ! A27   A(3,6,8)              115.0225         estimate D2E/DX2                !
 ! A28   A(7,6,8)              121.7775         estimate D2E/DX2                !
 ! A29   L(6,8,9,13,-1)        179.8607         estimate D2E/DX2                !
 ! A30   L(8,9,19,10,-1)       180.8481         estimate D2E/DX2                !
 ! A31   L(6,8,9,13,-2)        180.9283         estimate D2E/DX2                !
 ! A32   L(8,9,19,10,-2)       179.7289         estimate D2E/DX2                !
 ! D1    D(10,1,2,3)           -62.6313         estimate D2E/DX2                !
 ! D2    D(10,1,2,13)           58.9908         estimate D2E/DX2                !
 ! D3    D(10,1,2,14)          177.3199         estimate D2E/DX2                !
 ! D4    D(11,1,2,3)            57.3725         estimate D2E/DX2                !
 ! D5    D(11,1,2,13)          178.9946         estimate D2E/DX2                !
 ! D6    D(11,1,2,14)          -62.6763         estimate D2E/DX2                !
 ! D7    D(12,1,2,3)           177.5691         estimate D2E/DX2                !
 ! D8    D(12,1,2,13)          -60.8089         estimate D2E/DX2                !
 ! D9    D(12,1,2,14)           57.5202         estimate D2E/DX2                !
 ! D10   D(1,2,3,4)            -62.6809         estimate D2E/DX2                !
 ! D11   D(1,2,3,6)            174.676          estimate D2E/DX2                !
 ! D12   D(1,2,3,15)            57.826          estimate D2E/DX2                !
 ! D13   D(13,2,3,4)           174.6778         estimate D2E/DX2                !
 ! D14   D(13,2,3,6)            52.0346         estimate D2E/DX2                !
 ! D15   D(13,2,3,15)          -64.8153         estimate D2E/DX2                !
 ! D16   D(14,2,3,4)            58.8909         estimate D2E/DX2                !
 ! D17   D(14,2,3,6)           -63.7522         estimate D2E/DX2                !
 ! D18   D(14,2,3,15)          179.3979         estimate D2E/DX2                !
 ! D19   D(2,3,4,5)            166.3897         estimate D2E/DX2                !
 ! D20   D(6,3,4,5)            -72.1331         estimate D2E/DX2                !
 ! D21   D(15,3,4,5)            47.1726         estimate D2E/DX2                !
 ! D22   D(2,3,6,7)            111.4449         estimate D2E/DX2                !
 ! D23   D(2,3,6,8)            -68.8001         estimate D2E/DX2                !
 ! D24   D(4,3,6,7)             -8.7818         estimate D2E/DX2                !
 ! D25   D(4,3,6,8)            170.9732         estimate D2E/DX2                !
 ! D26   D(15,3,6,7)          -130.452          estimate D2E/DX2                !
 ! D27   D(15,3,6,8)            49.303          estimate D2E/DX2                !
 ! D28   D(3,4,5,16)           -56.527          estimate D2E/DX2                !
 ! D29   D(3,4,5,17)            65.8719         estimate D2E/DX2                !
 ! D30   D(3,4,5,18)          -174.9904         estimate D2E/DX2                !
 --------------------------------------------------------------------------------
 Trust Radius=3.00D-01 FncErr=1.00D-07 GrdErr=1.00D-06
 Number of steps in this run=     90 maximum allowed number of steps=    114.
 GradGradGradGradGradGradGradGradGradGradGradGradGradGradGradGradGradGrad

                          Input orientation:                          
 ---------------------------------------------------------------------
 Center     Atomic      Atomic             Coordinates (Angstroms)
 Number     Number       Type             X           Y           Z
 ---------------------------------------------------------------------
      1          6           0        1.483802    2.895314    1.535137
      2          6           0        0.056055    2.408432    1.278634
      3          6           0       -0.007623    0.897288    1.001919
      4          8           0        0.718152    0.641008   -0.166740
      5          6           0        1.014576   -0.723350   -0.400597
      6          6           0       -1.472809    0.441291    0.883572
      7          8           0       -1.968129    0.066584   -0.154541
      8          6           0       -2.234041    0.486127    2.124332
      9          6           0       -2.848777    0.515448    3.159284
     10          1           0        1.906675    2.425014    2.429957
     11          1           0        2.129498    2.653486    0.687984
     12          1           0        1.502689    3.978684    1.685961
     13          1           0       -0.586018    2.635482    2.135742
     14          1           0       -0.369586    2.922693    0.409204
     15          1           0        0.427762    0.356999    1.863783
     16          1           0        1.561251   -1.163101    0.447935
     17          1           0        0.109819   -1.311610   -0.589703
     18          1           0        1.653035   -0.758582   -1.286069
     19          1           0       -3.405154    0.537496    4.065055
 ---------------------------------------------------------------------
                    Distance matrix (angstroms):
                    1          2          3          4          5
     1  C    0.000000
     2  C    1.530134   0.000000
     3  C    2.549663   1.537590   0.000000
     4  O    2.926517   2.377239   1.399354   0.000000
     5  C    4.130614   3.680576   2.374534   1.415637   0.000000
     6  C    3.897219   2.522527   1.539061   2.437899   3.031924
     7  O    4.772060   3.411094   2.423025   2.747038   3.095331
     8  C    4.469194   3.107251   2.527014   3.740113   4.288544
     9  C    5.203159   3.944400   3.587783   4.878646   5.397487
    10  H    1.095767   2.179589   2.835097   3.367209   4.326670
    11  H    1.092279   2.169812   2.783896   2.602406   3.719017
    12  H    1.093981   2.173558   3.499136   3.897188   5.167311
    13  H    2.170805   1.094735   2.154394   3.313640   4.502962
    14  H    2.168760   1.096149   2.141167   2.592484   3.983129
    15  H    2.768803   2.165396   1.106472   2.070751   2.576610
    16  H    4.202230   3.963776   2.648295   2.084094   1.101018
    17  H    4.909276   4.163207   2.725121   2.088465   1.095626
    18  H    4.619394   4.376988   3.276367   2.021325   1.092215
    19  H    5.988463   4.821256   4.588624   5.909353   6.408260
                    6          7          8          9         10
     6  C    0.000000
     7  O    1.209721   0.000000
     8  C    1.456355   2.332377   0.000000
     9  C    2.660386   3.458100   1.204113   0.000000
    10  H    4.212763   5.220721   4.582382   5.176165   0.000000
    11  H    4.231864   4.918583   5.079470   5.954978   1.770966
    12  H    4.691541   5.544235   5.133544   5.753255   1.769356
    13  H    2.677461   3.708755   2.708476   3.265312   2.518804
    14  H    2.756716   3.321221   3.514927   4.416351   3.084232
    15  H    2.140114   3.146151   2.677640   3.526916   2.604692
    16  H    3.459678   3.785714   4.464807   5.442177   4.113672
    17  H    2.783508   2.531138   4.011424   5.113349   5.129269
    18  H    3.989729   3.882536   5.318787   6.453730   4.899843
    19  H    3.723579   4.482386   2.267278   1.063231   5.869565
                   11         12         13         14         15
    11  H    0.000000
    12  H    1.773414   0.000000
    13  H    3.077394   2.523725   0.000000
    14  H    2.528955   2.500128   1.763595   0.000000
    15  H    3.090673   3.782021   2.508624   3.055216   0.000000
    16  H    3.866118   5.289053   4.678535   4.519220   2.366459
    17  H    4.629641   5.925027   4.846832   4.376868   2.984114
    18  H    3.970656   5.594394   5.314303   4.529540   3.559126
    19  H    6.820147   6.448936   4.008905   5.316867   4.423734
                   16         17         18         19
    16  H    0.000000
    17  H    1.790364   0.000000
    18  H    1.782927   1.781090   0.000000
    19  H    6.375011   6.118905   7.476605   0.000000
 Stoichiometry    C7H10O2
 Framework group  C1[X(C7H10O2)]
 Deg. of freedom    51
 Full point group                 C1      NOp   1
 Largest Abelian subgroup         C1      NOp   1
 Largest concise Abelian subgroup C1      NOp   1
                         Standard orientation:                         
 ---------------------------------------------------------------------
 Center     Atomic      Atomic             Coordinates (Angstroms)
 Number     Number       Type             X           Y           Z
 ---------------------------------------------------------------------
      1          6           0        1.884868    2.119395    0.038657
      2          6           0        0.621731    1.433028   -0.485455
      3          6           0        0.370372    0.073707    0.187782
      4          8           0        1.442672   -0.768827   -0.126069
      5          6           0        1.523750   -1.949656    0.650525
      6          6           0       -0.976425   -0.507590   -0.277987
      7          8           0       -1.067212   -1.489175   -0.979183
      8          6           0       -2.152960    0.209990    0.192982
      9          6           0       -3.118008    0.804316    0.599610
     10          1           0        1.797659    2.344076    1.107591
     11          1           0        2.757029    1.477154   -0.102522
     12          1           0        2.060794    3.061967   -0.488033
     13          1           0       -0.254310    2.070184   -0.327254
     14          1           0        0.705030    1.258052   -1.564338
     15          1           0        0.293528    0.224674    1.281210
     16          1           0        1.571806   -1.716643    1.725530
     17          1           0        0.677136   -2.619874    0.464919
     18          1           0        2.447349   -2.454434    0.358812
     19          1           0       -3.979666    1.319728    0.949405
 ---------------------------------------------------------------------
 Rotational constants (GHZ):      1.9384468      1.2903021      0.8809853
 Standard basis: 6-31G(2df,p) (6D, 7F)
 There are   329 symmetry adapted cartesian basis functions of A   symmetry.
 There are   302 symmetry adapted basis functions of A   symmetry.
   302 basis functions,   466 primitive gaussians,   329 cartesian basis functions
    34 alpha electrons       34 beta electrons
       nuclear repulsion energy       436.4576120291 Hartrees.
 NAtoms=   19 NActive=   19 NUniq=   19 SFac= 1.00D+00 NAtFMM=   60 NAOKFM=F Big=F
 Integral buffers will be    131072 words long.
 Raffenetti 2 integral format.
 Two-electron integral symmetry is turned on.
 One-electron integrals computed using PRISM.
 NBasis=   302 RedAO= T EigKep=  1.33D-04  NBF=   302
 NBsUse=   302 1.00D-06 EigRej= -1.00D+00 NBFU=   302
 ExpMin= 1.61D-01 ExpMax= 5.48D+03 ExpMxC= 8.25D+02 IAcc=1 IRadAn=         1 AccDes= 0.00D+00
 Harris functional with IExCor=  402 and IRadAn=       1 diagonalized for initial guess.
 HarFok:  IExCor=  402 AccDes= 0.00D+00 IRadAn=         1 IDoV= 1 UseB2=F ITyADJ=14
 ICtDFT=  3500011 ScaDFX=  1.000000  1.000000  1.000000  1.000000
 FoFCou: FMM=F IPFlag=           0 FMFlag=      100000 FMFlg1=           0
         NFxFlg=           0 DoJE=T BraDBF=F KetDBF=T FulRan=T
         wScrn=  0.000000 ICntrl=     500 IOpCl=  0 I1Cent=   200000004 NGrid=           0
         NMat0=    1 NMatS0=      1 NMatT0=    0 NMatD0=    1 NMtDS0=    0 NMtDT0=    0
 Petite list used in FoFCou.
 Requested convergence on RMS density matrix=1.00D-08 within 128 cycles.
 Requested convergence on MAX density matrix=1.00D-06.
 Requested convergence on             energy=1.00D-06.
 No special actions if energy rises.
 Integral accuracy reduced to 1.0D-05 until final iterations.
 Initial convergence to 1.0D-05 achieved.  Increase integral accuracy.
 SCF Done:  E(RB3LYP) =  -423.149968748     A.U. after   15 cycles
            NFock= 15  Conv=0.31D-08     -V/T= 2.0075

 **********************************************************************

            Population analysis using the SCF density.

 **********************************************************************

 Orbital symmetries:
       Occupied  (A) (A) (A) (A) (A) (A) (A) (A) (A) (A) (A) (A)
                 (A) (A) (A) (A) (A) (A) (A) (A) (A) (A) (A) (A)
                 (A) (A) (A) (A) (A) (A) (A) (A) (A) (A)
       Virtual   (A) (A) (A) (A) (A) (A) (A) (A) (A) (A) (A) (A)
                 (A) (A) (A) (A) (A) (A) (A) (A) (A) (A) (A) (A)
                 (A) (A) (A) (A) (A) (A) (A) (A) (A) (A) (A) (A)
                 (A) (A) (A) (A) (A) (A) (A) (A) (A) (A) (A) (A)
                 (A) (A) (A) (A) (A) (A) (A) (A) (A) (A) (A) (A)
                 (A) (A) (A) (A) (A) (A) (A) (A) (A) (A) (A) (A)
                 (A) (A) (A) (A) (A) (A) (A) (A) (A) (A) (A) (A)
                 (A) (A) (A) (A) (A) (A) (A) (A) (A) (A) (A) (A)
                 (A) (A) (A) (A) (A) (A) (A) (A) (A) (A) (A) (A)
                 (A) (A) (A) (A) (A) (A) (A) (A) (A) (A) (A) (A)
                 (A) (A) (A) (A) (A) (A) (A) (A) (A) (A) (A) (A)
                 (A) (A) (A) (A) (A) (A) (A) (A) (A) (A) (A) (A)
                 (A) (A) (A) (A) (A) (A) (A) (A) (A) (A) (A) (A)
                 (A) (A) (A) (A) (A) (A) (A) (A) (A) (A) (A) (A)
                 (A) (A) (A) (A) (A) (A) (A) (A) (A) (A) (A) (A)
                 (A) (A) (A) (A) (A) (A) (A) (A) (A) (A) (A) (A)
                 (A) (A) (A) (A) (A) (A) (A) (A) (A) (A) (A) (A)
                 (A) (A) (A) (A) (A) (A) (A) (A) (A) (A) (A) (A)
                 (A) (A) (A) (A) (A) (A) (A) (A) (A) (A) (A) (A)
                 (A) (A) (A) (A) (A) (A) (A) (A) (A) (A) (A) (A)
                 (A) (A) (A) (A) (A) (A) (A) (A) (A) (A) (A) (A)
                 (A) (A) (A) (A) (A) (A) (A) (A) (A) (A) (A) (A)
                 (A) (A) (A) (A)
 The electronic state is 1-A.
 Alpha  occ. eigenvalues --  -19.14692 -19.14511 -10.29113 -10.24583 -10.22305
 Alpha  occ. eigenvalues --  -10.21180 -10.20444 -10.19208 -10.17648  -1.06145
 Alpha  occ. eigenvalues --   -1.03423  -0.80542  -0.77468  -0.71849  -0.68054
 Alpha  occ. eigenvalues --   -0.62825  -0.59204  -0.54053  -0.51201  -0.49868
 Alpha  occ. eigenvalues --   -0.46657  -0.44989  -0.43401  -0.42619  -0.40692
 Alpha  occ. eigenvalues --   -0.38980  -0.36658  -0.35201  -0.34599  -0.32353
 Alpha  occ. eigenvalues --   -0.30214  -0.30008  -0.28055  -0.24982
 Alpha virt. eigenvalues --   -0.06118   0.02735   0.08489   0.09611   0.10593
 Alpha virt. eigenvalues --    0.11515   0.13742   0.14487   0.14961   0.15823
 Alpha virt. eigenvalues --    0.17273   0.17637   0.18346   0.19642   0.22749
 Alpha virt. eigenvalues --    0.23264   0.24083   0.25952   0.30569   0.35233
 Alpha virt. eigenvalues --    0.38476   0.41356   0.43726   0.46021   0.47157
 Alpha virt. eigenvalues --    0.49397   0.50667   0.51482   0.51911   0.53297
 Alpha virt. eigenvalues --    0.54636   0.55410   0.57019   0.58571   0.59855
 Alpha virt. eigenvalues --    0.61990   0.65420   0.67104   0.67453   0.68014
 Alpha virt. eigenvalues --    0.69732   0.70956   0.71920   0.73253   0.73373
 Alpha virt. eigenvalues --    0.73886   0.74336   0.75226   0.76660   0.77307
 Alpha virt. eigenvalues --    0.78927   0.80634   0.81565   0.82463   0.84257
 Alpha virt. eigenvalues --    0.84501   0.86659   0.88531   0.90529   0.92481
 Alpha virt. eigenvalues --    0.95037   0.97971   0.98776   1.00342   1.01797
 Alpha virt. eigenvalues --    1.04575   1.07632   1.11097   1.11803   1.12427
 Alpha virt. eigenvalues --    1.14078   1.18330   1.19301   1.21437   1.22345
 Alpha virt. eigenvalues --    1.24209   1.25774   1.27781   1.30895   1.33229
 Alpha virt. eigenvalues --    1.36620   1.37713   1.41562   1.41902   1.45127
 Alpha virt. eigenvalues --    1.48000   1.49813   1.51176   1.52588   1.53147
 Alpha virt. eigenvalues --    1.54596   1.58582   1.60537   1.63596   1.67005
 Alpha virt. eigenvalues --    1.68409   1.70493   1.73085   1.76743   1.78192
 Alpha virt. eigenvalues --    1.79435   1.83973   1.87039   1.87574   1.90047
 Alpha virt. eigenvalues --    1.92854   1.95175   1.95906   1.97247   1.99048
 Alpha virt. eigenvalues --    2.10807   2.14943   2.17748   2.23044   2.26562
 Alpha virt. eigenvalues --    2.29607   2.31768   2.35162   2.37447   2.38935
 Alpha virt. eigenvalues --    2.44539   2.45379   2.51589   2.52077   2.54491
 Alpha virt. eigenvalues --    2.60147   2.62021   2.63803   2.65005   2.65585
 Alpha virt. eigenvalues --    2.69305   2.71014   2.74442   2.75053   2.76548
 Alpha virt. eigenvalues --    2.78234   2.80296   2.82853   2.84140   2.85533
 Alpha virt. eigenvalues --    2.88949   2.90382   2.91351   2.92753   2.95160
 Alpha virt. eigenvalues --    2.96633   2.98922   3.03082   3.05191   3.06364
 Alpha virt. eigenvalues --    3.06900   3.07513   3.10748   3.14525   3.17956
 Alpha virt. eigenvalues --    3.19097   3.21295   3.24325   3.28833   3.31593
 Alpha virt. eigenvalues --    3.32514   3.34864   3.40811   3.42031   3.43110
 Alpha virt. eigenvalues --    3.46728   3.47195   3.48894   3.50890   3.57056
 Alpha virt. eigenvalues --    3.57274   3.58655   3.59708   3.62393   3.66090
 Alpha virt. eigenvalues --    3.67433   3.68351   3.70145   3.72770   3.77214
 Alpha virt. eigenvalues --    3.81502   3.82948   3.87563   3.89450   3.92065
 Alpha virt. eigenvalues --    3.97875   4.02645   4.08610   4.12400   4.15686
 Alpha virt. eigenvalues --    4.17888   4.19130   4.20901   4.21687   4.25082
 Alpha virt. eigenvalues --    4.27740   4.31316   4.35178   4.35944   4.38523
 Alpha virt. eigenvalues --    4.39180   4.40748   4.42708   4.43329   4.44344
 Alpha virt. eigenvalues --    4.49896   4.52516   4.53325   4.56027   4.57528
 Alpha virt. eigenvalues --    4.58598   4.58895   4.60765   4.65858   4.68496
 Alpha virt. eigenvalues --    4.69157   4.69702   4.70265   4.73766   4.74105
 Alpha virt. eigenvalues --    4.76211   4.77964   4.79756   4.83385   4.85664
 Alpha virt. eigenvalues --    4.85811   4.90606   4.96337   4.97147   5.02355
 Alpha virt. eigenvalues --    5.06196   5.08584   5.11051   5.18483   5.19050
 Alpha virt. eigenvalues --    5.22810   5.26930   5.29465   5.34975   5.38570
 Alpha virt. eigenvalues --    5.42587   5.44753   5.49312   5.54100   5.58095
 Alpha virt. eigenvalues --    5.66017   5.87254   5.89167   6.02012   6.06124
 Alpha virt. eigenvalues --    6.09581   6.11062   6.23247   6.25516   6.41577
 Alpha virt. eigenvalues --    6.58926   6.70912   6.94192   7.20479   9.67717
 Alpha virt. eigenvalues --   10.78964  11.24058  11.38312  11.87076  12.06403
 Alpha virt. eigenvalues --   12.45602  13.12131  13.58817
          Condensed to atoms (all electrons):
               1          2          3          4          5          6
     1  C    4.955056   0.401339  -0.023676  -0.003593   0.000431   0.002006
     2  C    0.401339   4.846112   0.383906  -0.023961   0.005798  -0.024778
     3  C   -0.023676   0.383906   4.948136   0.360877  -0.090931   0.335092
     4  O   -0.003593  -0.023961   0.360877   7.662691   0.371006  -0.031286
     5  C    0.000431   0.005798  -0.090931   0.371006   4.847847   0.002487
     6  C    0.002006  -0.024778   0.335092  -0.031286   0.002487   4.649501
     7  O   -0.000032  -0.002979  -0.060502  -0.001249  -0.001278   0.787376
     8  C   -0.000379   0.000994  -0.125084   0.002076  -0.000084   0.188322
     9  C   -0.000042  -0.000229  -0.009230  -0.000001   0.000007  -0.058541
    10  H    0.376064  -0.030418  -0.003562  -0.000171  -0.000067   0.000192
    11  H    0.379611  -0.028044  -0.004899   0.009855  -0.000418   0.000222
    12  H    0.375372  -0.022564   0.002670   0.000214   0.000003  -0.000059
    13  H   -0.032719   0.363431  -0.028819   0.002050  -0.000222  -0.003927
    14  H   -0.034926   0.361364  -0.027533  -0.000762  -0.000090  -0.002892
    15  H   -0.008388  -0.035477   0.333132  -0.037022  -0.007667  -0.057065
    16  H   -0.000161   0.000653  -0.006890  -0.031908   0.362184  -0.002452
    17  H    0.000014  -0.000204  -0.001424  -0.031412   0.372456   0.006053
    18  H    0.000011  -0.000281   0.004419  -0.020984   0.385526  -0.000015
    19  H    0.000000   0.000013  -0.000033   0.000000   0.000000  -0.001380
               7          8          9         10         11         12
     1  C   -0.000032  -0.000379  -0.000042   0.376064   0.379611   0.375372
     2  C   -0.002979   0.000994  -0.000229  -0.030418  -0.028044  -0.022564
     3  C   -0.060502  -0.125084  -0.009230  -0.003562  -0.004899   0.002670
     4  O   -0.001249   0.002076  -0.000001  -0.000171   0.009855   0.000214
     5  C   -0.001278  -0.000084   0.000007  -0.000067  -0.000418   0.000003
     6  C    0.787376   0.188322  -0.058541   0.000192   0.000222  -0.000059
     7  O    7.651266  -0.085261  -0.013586   0.000000  -0.000001   0.000000
     8  C   -0.085261   4.811327   0.919506   0.000002  -0.000006   0.000008
     9  C   -0.013586   0.919506   5.201225   0.000002   0.000000   0.000000
    10  H    0.000000   0.000002   0.000002   0.602088  -0.030975  -0.031989
    11  H   -0.000001  -0.000006   0.000000  -0.030975   0.564218  -0.030306
    12  H    0.000000   0.000008   0.000000  -0.031989  -0.030306   0.596521
    13  H    0.000149   0.008396   0.004288  -0.003731   0.004818  -0.002133
    14  H    0.001215   0.000370   0.000036   0.005175  -0.002947  -0.002507
    15  H    0.001986   0.011221   0.002910   0.005163   0.000062  -0.000076
    16  H    0.000293   0.000569   0.000021   0.000034  -0.000002  -0.000001
    17  H    0.006880  -0.000804  -0.000027   0.000001   0.000036   0.000000
    18  H    0.000112  -0.000008   0.000000   0.000000  -0.000012  -0.000001
    19  H   -0.000061  -0.009661   0.377989   0.000000   0.000000   0.000000
              13         14         15         16         17         18
     1  C   -0.032719  -0.034926  -0.008388  -0.000161   0.000014   0.000011
     2  C    0.363431   0.361364  -0.035477   0.000653  -0.000204  -0.000281
     3  C   -0.028819  -0.027533   0.333132  -0.006890  -0.001424   0.004419
     4  O    0.002050  -0.000762  -0.037022  -0.031908  -0.031412  -0.020984
     5  C   -0.000222  -0.000090  -0.007667   0.362184   0.372456   0.385526
     6  C   -0.003927  -0.002892  -0.057065  -0.002452   0.006053  -0.000015
     7  O    0.000149   0.001215   0.001986   0.000293   0.006880   0.000112
     8  C    0.008396   0.000370   0.011221   0.000569  -0.000804  -0.000008
     9  C    0.004288   0.000036   0.002910   0.000021  -0.000027   0.000000
    10  H   -0.003731   0.005175   0.005163   0.000034   0.000001   0.000000
    11  H    0.004818  -0.002947   0.000062  -0.000002   0.000036  -0.000012
    12  H   -0.002133  -0.002507  -0.000076  -0.000001   0.000000  -0.000001
    13  H    0.609773  -0.034253  -0.000074   0.000006   0.000005   0.000004
    14  H   -0.034253   0.610303   0.007170   0.000046  -0.000015   0.000006
    15  H   -0.000074   0.007170   0.693489   0.014682  -0.002273  -0.000070
    16  H    0.000006   0.000046   0.014682   0.642362  -0.047698  -0.033675
    17  H    0.000005  -0.000015  -0.002273  -0.047698   0.599651  -0.033602
    18  H    0.000004   0.000006  -0.000070  -0.033675  -0.033602   0.568347
    19  H    0.000037   0.000000   0.000042   0.000000   0.000000   0.000000
              19
     1  C    0.000000
     2  C    0.000013
     3  C   -0.000033
     4  O    0.000000
     5  C    0.000000
     6  C   -0.001380
     7  O   -0.000061
     8  C   -0.009661
     9  C    0.377989
    10  H    0.000000
    11  H    0.000000
    12  H    0.000000
    13  H    0.000037
    14  H    0.000000
    15  H    0.000042
    16  H    0.000000
    17  H    0.000000
    18  H    0.000000
    19  H    0.416092
 Mulliken charges:
               1
     1  C   -0.385987
     2  C   -0.194674
     3  C    0.014353
     4  O   -0.226421
     5  C   -0.246988
     6  C    0.211144
     7  O   -0.284327
     8  C    0.278498
     9  C   -0.424327
    10  H    0.112190
    11  H    0.138789
    12  H    0.114848
    13  H    0.112923
    14  H    0.120238
    15  H    0.078256
    16  H    0.101936
    17  H    0.132363
    18  H    0.130224
    19  H    0.216964
 Sum of Mulliken charges =   0.00000
 Mulliken charges with hydrogens summed into heavy atoms:
               1
     1  C   -0.020160
     2  C    0.038487
     3  C    0.092609
     4  O   -0.226421
     5  C    0.117534
     6  C    0.211144
     7  O   -0.284327
     8  C    0.278498
     9  C   -0.207364
 Electronic spatial extent (au):  <R**2>=           1372.6036
 Charge=              0.0000 electrons
 Dipole moment (field-independent basis, Debye):
    X=             -0.4662    Y=              1.9339    Z=              2.2073  Tot=              2.9714
 Quadrupole moment (field-independent basis, Debye-Ang):
   XX=            -48.7283   YY=            -52.5996   ZZ=            -53.9936
   XY=             -5.9624   XZ=             -2.5630   YZ=             -2.9925
 Traceless Quadrupole moment (field-independent basis, Debye-Ang):
   XX=              3.0455   YY=             -0.8258   ZZ=             -2.2198
   XY=             -5.9624   XZ=             -2.5630   YZ=             -2.9925
 Octapole moment (field-independent basis, Debye-Ang**2):
  XXX=            -26.2415  YYY=             -9.1117  ZZZ=             -3.5497  XYY=              6.0685
  XXY=             11.6934  XXZ=             12.0726  XZZ=              2.6154  YZZ=              0.5505
  YYZ=              4.3229  XYZ=             -3.7421
 Hexadecapole moment (field-independent basis, Debye-Ang**3):
 XXXX=           -835.1062 YYYY=           -654.1613 ZZZZ=           -159.8132 XXXY=            -86.2460
 XXXZ=            -49.6027 YYYX=            -21.4361 YYYZ=             -4.2319 ZZZX=              2.5116
 ZZZY=              3.8859 XXYY=           -249.8441 XXZZ=           -187.7965 YYZZ=           -140.8786
 XXYZ=             14.5197 YYXZ=             -9.0427 ZZXY=             -5.1443
 N-N= 4.364576120291D+02 E-N=-1.859434243598D+03  KE= 4.200084030910D+02
 Calling FoFJK, ICntrl=      2127 FMM=F ISym2X=0 I1Cent= 0 IOpClX= 0 NMat=1 NMatS=1 NMatT=0.
 ***** Axes restored to original set *****
 -------------------------------------------------------------------
 Center     Atomic                   Forces (Hartrees/Bohr)
 Number     Number              X              Y              Z
 -------------------------------------------------------------------
      1        6          -0.000002287    0.000003015   -0.000003040
      2        6           0.000001393    0.000004604   -0.000002805
      3        6          -0.000008764    0.000010920    0.000005731
      4        8          -0.000008571   -0.000009123   -0.000004268
      5        6           0.000007749    0.000004407   -0.000000728
      6        6           0.000013099   -0.000016392   -0.000012889
      7        8           0.000000530   -0.000002615    0.000009283
      8        6           0.000001205   -0.000002973    0.000005778
      9        6          -0.000001237   -0.000008244    0.000007798
     10        1          -0.000004338    0.000006727   -0.000001865
     11        1          -0.000006268    0.000006380   -0.000000947
     12        1          -0.000008328    0.000005733   -0.000001798
     13        1          -0.000004341   -0.000002397    0.000000838
     14        1          -0.000006716    0.000003965    0.000001451
     15        1           0.000003829   -0.000003001    0.000000492
     16        1           0.000003632    0.000003511   -0.000000791
     17        1           0.000005790    0.000000319   -0.000000537
     18        1           0.000007168    0.000004452   -0.000000908
     19        1           0.000006454   -0.000009289   -0.000000795
 -------------------------------------------------------------------
 Cartesian Forces:  Max     0.000016392 RMS     0.000005981

 GradGradGradGradGradGradGradGradGradGradGradGradGradGradGradGradGradGrad
 Berny optimization.
 FormGI is forming the generalized inverse of G from B-inverse, IUseBI=4.
 Internal  Forces:  Max     0.000011357 RMS     0.000002963
 Search for a local minimum.
 Step number   1 out of a maximum of   90
 All quantities printed in internal units (Hartrees-Bohrs-Radians)
 Mixed Optimization -- En-DIIS/RFO-DIIS
 Second derivative matrix not updated -- first step.
 ITU=  0
     Eigenvalues ---    0.00249   0.00249   0.00269   0.00367   0.00589
     Eigenvalues ---    0.00589   0.01485   0.01700   0.03539   0.04680
     Eigenvalues ---    0.04680   0.04814   0.05147   0.05443   0.05543
     Eigenvalues ---    0.05574   0.07565   0.08259   0.10036   0.10593
     Eigenvalues ---    0.12146   0.16000   0.16000   0.16000   0.16000
     Eigenvalues ---    0.16000   0.16000   0.17196   0.20155   0.21926
     Eigenvalues ---    0.25000   0.25000   0.25000   0.28602   0.28733
     Eigenvalues ---    0.29411   0.32976   0.33570   0.34112   0.34155
     Eigenvalues ---    0.34171   0.34271   0.34357   0.34551   0.34558
     Eigenvalues ---    0.37424   0.38099   0.43124   0.45728   1.00086
     Eigenvalues ---    1.02783
 RFO step:  Lambda=-1.43377956D-08 EMin= 2.49248549D-03
 Linear search not attempted -- first point.
 Iteration  1 RMS(Cart)=  0.00042463 RMS(Int)=  0.00000008
 Iteration  2 RMS(Cart)=  0.00000014 RMS(Int)=  0.00000005
 Variable       Old X    -DE/DX   Delta X   Delta X   Delta X     New X
                                 (Linear)    (Quad)   (Total)
    R1        2.89153   0.00000   0.00000   0.00000   0.00000   2.89153
    R2        2.07070   0.00000   0.00000   0.00000   0.00000   2.07070
    R3        2.06411   0.00000   0.00000  -0.00001  -0.00001   2.06410
    R4        2.06732   0.00000   0.00000   0.00000   0.00000   2.06733
    R5        2.90562   0.00001   0.00000   0.00003   0.00003   2.90566
    R6        2.06875   0.00000   0.00000   0.00000   0.00000   2.06875
    R7        2.07142   0.00000   0.00000   0.00000   0.00000   2.07143
    R8        2.64440   0.00000   0.00000   0.00001   0.00001   2.64441
    R9        2.90840   0.00000   0.00000  -0.00002  -0.00002   2.90839
   R10        2.09093   0.00000   0.00000   0.00001   0.00001   2.09094
   R11        2.67517   0.00000   0.00000   0.00000   0.00000   2.67517
   R12        2.08062   0.00000   0.00000   0.00000   0.00000   2.08062
   R13        2.07043   0.00000   0.00000   0.00000   0.00000   2.07043
   R14        2.06399   0.00000   0.00000   0.00001   0.00001   2.06399
   R15        2.28604  -0.00001   0.00000  -0.00001  -0.00001   2.28604
   R16        2.75211   0.00001   0.00000   0.00002   0.00002   2.75213
   R17        2.27544   0.00000   0.00000   0.00000   0.00000   2.27545
   R18        2.00922   0.00000   0.00000  -0.00001  -0.00001   2.00920
    A1        1.93951   0.00000   0.00000  -0.00001  -0.00001   1.93950
    A2        1.92957   0.00000   0.00000   0.00000   0.00000   1.92958
    A3        1.93299   0.00000   0.00000   0.00000   0.00000   1.93299
    A4        1.88620   0.00000   0.00000   0.00001   0.00001   1.88621
    A5        1.88156   0.00000   0.00000   0.00000   0.00000   1.88156
    A6        1.89228   0.00000   0.00000   0.00000   0.00000   1.89228
    A7        1.96225   0.00000   0.00000   0.00000   0.00000   1.96225
    A8        1.92839   0.00000   0.00000  -0.00002  -0.00002   1.92838
    A9        1.92410   0.00000   0.00000   0.00000   0.00000   1.92410
   A10        1.89700   0.00000   0.00000  -0.00003  -0.00003   1.89697
   A11        1.87786   0.00000   0.00000   0.00005   0.00005   1.87791
   A12        1.87125   0.00000   0.00000  -0.00001  -0.00001   1.87123
   A13        1.88474   0.00000   0.00000   0.00002   0.00002   1.88476
   A14        1.92245   0.00001   0.00000   0.00005   0.00005   1.92250
   A15        1.90014   0.00000   0.00000   0.00000   0.00000   1.90014
   A16        1.95549   0.00000   0.00000  -0.00001  -0.00001   1.95548
   A17        1.93586   0.00000   0.00000  -0.00004  -0.00004   1.93582
   A18        1.86484   0.00000   0.00000  -0.00003  -0.00003   1.86481
   A19        2.00763   0.00001   0.00000   0.00005   0.00005   2.00767
   A20        1.94077   0.00000   0.00000   0.00000   0.00000   1.94077
   A21        1.95311   0.00000   0.00000   0.00000   0.00000   1.95311
   A22        1.86232   0.00000   0.00000   0.00000   0.00000   1.86233
   A23        1.90561   0.00000   0.00000  -0.00001  -0.00001   1.90560
   A24        1.89829   0.00000   0.00000  -0.00001  -0.00001   1.89829
   A25        1.90231   0.00000   0.00000   0.00001   0.00001   1.90231
   A26        2.15024   0.00001   0.00000   0.00002   0.00002   2.15026
   A27        2.00752   0.00000   0.00000  -0.00001  -0.00001   2.00751
   A28        2.12542   0.00000   0.00000  -0.00001  -0.00001   2.12541
   A29        3.13916   0.00000   0.00000   0.00006   0.00006   3.13922
   A30        3.15640   0.00000   0.00000   0.00000   0.00000   3.15639
   A31        3.15779   0.00000   0.00000  -0.00003  -0.00003   3.15777
   A32        3.13686   0.00000   0.00000   0.00001   0.00001   3.13687
    D1       -1.09312   0.00000   0.00000  -0.00003  -0.00003  -1.09316
    D2        1.02958   0.00000   0.00000  -0.00008  -0.00008   1.02951
    D3        3.09482   0.00000   0.00000  -0.00010  -0.00010   3.09471
    D4        1.00134   0.00000   0.00000  -0.00003  -0.00003   1.00131
    D5        3.12405   0.00000   0.00000  -0.00007  -0.00007   3.12397
    D6       -1.09391   0.00000   0.00000  -0.00010  -0.00010  -1.09400
    D7        3.09916   0.00000   0.00000  -0.00002  -0.00002   3.09914
    D8       -1.06132   0.00000   0.00000  -0.00006  -0.00006  -1.06138
    D9        1.00392   0.00000   0.00000  -0.00009  -0.00009   1.00383
   D10       -1.09399   0.00000   0.00000  -0.00005  -0.00005  -1.09404
   D11        3.04867   0.00000   0.00000  -0.00009  -0.00009   3.04858
   D12        1.00925   0.00000   0.00000  -0.00008  -0.00008   1.00917
   D13        3.04870   0.00000   0.00000  -0.00001  -0.00001   3.04869
   D14        0.90818   0.00000   0.00000  -0.00005  -0.00005   0.90812
   D15       -1.13124   0.00000   0.00000  -0.00004  -0.00004  -1.13129
   D16        1.02784   0.00000   0.00000  -0.00001  -0.00001   1.02783
   D17       -1.11269   0.00000   0.00000  -0.00005  -0.00005  -1.11274
   D18        3.13108   0.00000   0.00000  -0.00005  -0.00005   3.13104
   D19        2.90405   0.00000   0.00000  -0.00012  -0.00012   2.90393
   D20       -1.25896   0.00000   0.00000  -0.00004  -0.00004  -1.25900
   D21        0.82332   0.00000   0.00000  -0.00011  -0.00011   0.82321
   D22        1.94508   0.00000   0.00000  -0.00051  -0.00051   1.94457
   D23       -1.20079   0.00000   0.00000   0.00077   0.00077  -1.20001
   D24       -0.15327   0.00000   0.00000  -0.00057  -0.00057  -0.15384
   D25        2.98404   0.00000   0.00000   0.00071   0.00071   2.98476
   D26       -2.27682   0.00000   0.00000  -0.00050  -0.00050  -2.27732
   D27        0.86050   0.00000   0.00000   0.00078   0.00078   0.86128
   D28       -0.98658   0.00000   0.00000   0.00029   0.00029  -0.98629
   D29        1.14968   0.00000   0.00000   0.00028   0.00028   1.14997
   D30       -3.05416   0.00000   0.00000   0.00029   0.00029  -3.05386
         Item               Value     Threshold  Converged?
 Maximum Force            0.000011     0.000450     YES
 RMS     Force            0.000003     0.000300     YES
 Maximum Displacement     0.002138     0.001800     NO 
 RMS     Displacement     0.000425     0.001200     YES
 Predicted change in Energy=-7.169174D-09
 GradGradGradGradGradGradGradGradGradGradGradGradGradGradGradGradGradGrad

                          Input orientation:                          
 ---------------------------------------------------------------------
 Center     Atomic      Atomic             Coordinates (Angstroms)
 Number     Number       Type             X           Y           Z
 ---------------------------------------------------------------------
      1          6           0        1.483630    2.895236    1.535201
      2          6           0        0.055926    2.408185    1.278779
      3          6           0       -0.007573    0.897043    1.001916
      4          8           0        0.718070    0.640952   -0.166873
      5          6           0        1.014802   -0.723317   -0.400859
      6          6           0       -1.472679    0.440765    0.883771
      7          8           0       -1.968265    0.066546   -0.154386
      8          6           0       -2.233989    0.486282    2.124469
      9          6           0       -2.848843    0.516126    3.159338
     10          1           0        1.906628    2.424926    2.429955
     11          1           0        2.129290    2.653559    0.687980
     12          1           0        1.502383    3.978598    1.686110
     13          1           0       -0.586076    2.635029    2.135996
     14          1           0       -0.369890    2.922528    0.409481
     15          1           0        0.428044    0.356731    1.863654
     16          1           0        1.561475   -1.163057    0.447677
     17          1           0        0.110187   -1.311743   -0.590126
     18          1           0        1.653370   -0.758312   -1.286266
     19          1           0       -3.405313    0.538628    4.065032
 ---------------------------------------------------------------------
                    Distance matrix (angstroms):
                    1          2          3          4          5
     1  C    0.000000
     2  C    1.530134   0.000000
     3  C    2.549678   1.537607   0.000000
     4  O    2.926591   2.377279   1.399360   0.000000
     5  C    4.130624   3.680615   2.374572   1.415638   0.000000
     6  C    3.897250   2.522579   1.539052   2.437890   3.031983
     7  O    4.771978   3.410951   2.423030   2.747088   3.095694
     8  C    4.468891   3.106865   2.527009   3.740163   4.288945
     9  C    5.202722   3.943865   3.587810   4.878742   5.398052
    10  H    1.095766   2.179582   2.835116   3.367305   4.326695
    11  H    1.092276   2.169813   2.783898   2.602480   3.718998
    12  H    1.093982   2.173558   3.499153   3.897251   5.167318
    13  H    2.170795   1.094736   2.154391   3.313660   4.502991
    14  H    2.168762   1.096152   2.141224   2.592571   3.983240
    15  H    2.768782   2.165413   1.106477   2.070733   2.576588
    16  H    4.202203   3.963733   2.648227   2.084096   1.101017
    17  H    4.909382   4.163366   2.725289   2.088465   1.095625
    18  H    4.619297   4.376984   3.276387   2.021329   1.092218
    19  H    5.987939   4.820646   4.588657   5.909465   6.408908
                    6          7          8          9         10
     6  C    0.000000
     7  O    1.209718   0.000000
     8  C    1.456363   2.332374   0.000000
     9  C    2.660396   3.458078   1.204114   0.000000
    10  H    4.212753   5.220687   4.582179   5.175908   0.000000
    11  H    4.231899   4.918554   5.079251   5.954665   1.770968
    12  H    4.691589   5.544094   5.133118   5.752589   1.769354
    13  H    2.677485   3.708558   2.707926   3.264521   2.518755
    14  H    2.756853   3.321051   3.514447   4.415619   3.084227
    15  H    2.140089   3.146267   2.677915   3.527349   2.604676
    16  H    3.459554   3.785957   4.465142   5.442762   4.113657
    17  H    2.783724   2.531702   4.012116   5.114239   5.129404
    18  H    3.989866   3.883013   5.319181   6.454263   4.899739
    19  H    3.723583   4.482350   2.267273   1.063225   5.869269
                   11         12         13         14         15
    11  H    0.000000
    12  H    1.773416   0.000000
    13  H    3.077386   2.523735   0.000000
    14  H    2.528993   2.500095   1.763589   0.000000
    15  H    3.090609   3.782017   2.508636   3.055263   0.000000
    16  H    3.866098   5.289028   4.678446   4.519252   2.366307
    17  H    4.629681   5.925130   4.847013   4.377069   2.984271
    18  H    3.970518   5.594294   5.314298   4.529649   3.559036
    19  H    6.819768   6.448112   4.008014   5.315997   4.424226
                   16         17         18         19
    16  H    0.000000
    17  H    1.790358   0.000000
    18  H    1.782925   1.781098   0.000000
    19  H    6.375733   6.119895   7.477213   0.000000
 Stoichiometry    C7H10O2
 Framework group  C1[X(C7H10O2)]
 Deg. of freedom    51
 Full point group                 C1      NOp   1
 Largest Abelian subgroup         C1      NOp   1
 Largest concise Abelian subgroup C1      NOp   1
                         Standard orientation:                         
 ---------------------------------------------------------------------
 Center     Atomic      Atomic             Coordinates (Angstroms)
 Number     Number       Type             X           Y           Z
 ---------------------------------------------------------------------
      1          6           0        1.883750    2.120212    0.038478
      2          6           0        0.620859    1.433185   -0.485366
      3          6           0        0.370376    0.073695    0.187895
      4          8           0        1.443011   -0.768307   -0.126264
      5          6           0        1.525015   -1.949060    0.650348
      6          6           0       -0.976256   -0.508307   -0.277439
      7          8           0       -1.066764   -1.489621   -0.979044
      8          6           0       -2.152990    0.209241    0.193112
      9          6           0       -3.118244    0.803485    0.599372
     10          1           0        1.796643    2.344841    1.107429
     11          1           0        2.756218    1.478434   -0.102893
     12          1           0        2.059062    3.062884   -0.488242
     13          1           0       -0.255482    2.069864   -0.326898
     14          1           0        0.703976    1.258351   -1.564288
     15          1           0        0.293787    0.224580    1.281357
     16          1           0        1.573034   -1.715991    1.725342
     17          1           0        0.678851   -2.619877    0.464862
     18          1           0        2.448942   -2.453191    0.358541
     19          1           0       -3.980072    1.318816    0.948851
 ---------------------------------------------------------------------
 Rotational constants (GHZ):      1.9384301      1.2903535      0.8809582
 Standard basis: 6-31G(2df,p) (6D, 7F)
 There are   329 symmetry adapted cartesian basis functions of A   symmetry.
 There are   302 symmetry adapted basis functions of A   symmetry.
   302 basis functions,   466 primitive gaussians,   329 cartesian basis functions
    34 alpha electrons       34 beta electrons
       nuclear repulsion energy       436.4562466881 Hartrees.
 NAtoms=   19 NActive=   19 NUniq=   19 SFac= 1.00D+00 NAtFMM=   60 NAOKFM=F Big=F
 Integral buffers will be    131072 words long.
 Raffenetti 2 integral format.
 Two-electron integral symmetry is turned on.
 One-electron integrals computed using PRISM.
 NBasis=   302 RedAO= T EigKep=  1.33D-04  NBF=   302
 NBsUse=   302 1.00D-06 EigRej= -1.00D+00 NBFU=   302
 Initial guess from the checkpoint file:  "/scratch/puck/g09_29c9f66b-e44d-4605-9369-210f8ffe85c5/Gau-8463.chk"
 B after Tr=     0.000000    0.000000    0.000000
         Rot=    1.000000    0.000018   -0.000034   -0.000212 Ang=   0.02 deg.
 Requested convergence on RMS density matrix=1.00D-08 within 128 cycles.
 Requested convergence on MAX density matrix=1.00D-06.
 Requested convergence on             energy=1.00D-06.
 No special actions if energy rises.
 SCF Done:  E(RB3LYP) =  -423.149968856     A.U. after    6 cycles
            NFock=  6  Conv=0.84D-08     -V/T= 2.0075
 Calling FoFJK, ICntrl=      2127 FMM=F ISym2X=0 I1Cent= 0 IOpClX= 0 NMat=1 NMatS=1 NMatT=0.
 ***** Axes restored to original set *****
 -------------------------------------------------------------------
 Center     Atomic                   Forces (Hartrees/Bohr)
 Number     Number              X              Y              Z
 -------------------------------------------------------------------
      1        6          -0.000002876    0.000000239   -0.000002607
      2        6          -0.000010879    0.000000379   -0.000000858
      3        6           0.000013285   -0.000045438    0.000016606
      4        8          -0.000004190   -0.000001791   -0.000007933
      5        6           0.000006402    0.000010997    0.000002328
      6        6          -0.000035399    0.000138693   -0.000038347
      7        8           0.000019351   -0.000058164    0.000016185
      8        6           0.000012558   -0.000052724    0.000015346
      9        6           0.000003017   -0.000010447    0.000002032
     10        1          -0.000002999    0.000006504   -0.000001933
     11        1          -0.000004424    0.000006534   -0.000002333
     12        1          -0.000009398    0.000004372   -0.000002545
     13        1          -0.000002345   -0.000001816   -0.000001771
     14        1          -0.000006696   -0.000002162    0.000000330
     15        1           0.000010115    0.000004571    0.000002720
     16        1           0.000004169    0.000002919   -0.000000132
     17        1           0.000002406   -0.000000810   -0.000000165
     18        1           0.000004574    0.000004482    0.000000054
     19        1           0.000003329   -0.000006337    0.000003024
 -------------------------------------------------------------------
 Cartesian Forces:  Max     0.000138693 RMS     0.000023966

 GradGradGradGradGradGradGradGradGradGradGradGradGradGradGradGradGradGrad
 Berny optimization.
 Using GEDIIS/GDIIS optimizer.
 FormGI is forming the generalized inverse of G from B-inverse, IUseBI=4.
 Internal  Forces:  Max     0.000038597 RMS     0.000010480
 Search for a local minimum.
 Step number   2 out of a maximum of   90
 All quantities printed in internal units (Hartrees-Bohrs-Radians)
 Mixed Optimization -- En-DIIS/RFO-DIIS
 Swapping is turned off.
 Update second derivatives using D2CorX and points    1    2
 DE= -1.08D-07 DEPred=-7.17D-09 R= 1.50D+01
 Trust test= 1.50D+01 RLast= 1.71D-03 DXMaxT set to 3.00D-01
 ITU=  0  0
     Eigenvalues ---    0.00243   0.00267   0.00359   0.00587   0.00589
     Eigenvalues ---    0.00935   0.01680   0.03420   0.04404   0.04608
     Eigenvalues ---    0.04782   0.04890   0.05335   0.05539   0.05573
     Eigenvalues ---    0.06212   0.07653   0.08226   0.10032   0.10586
     Eigenvalues ---    0.12017   0.15959   0.16000   0.16000   0.16000
     Eigenvalues ---    0.16000   0.16012   0.16944   0.19876   0.21945
     Eigenvalues ---    0.24071   0.25000   0.25051   0.28240   0.28666
     Eigenvalues ---    0.29411   0.32922   0.33567   0.34101   0.34152
     Eigenvalues ---    0.34178   0.34275   0.34349   0.34515   0.34554
     Eigenvalues ---    0.37185   0.38024   0.43160   0.45622   0.99780
     Eigenvalues ---    1.02756
 En-DIIS/RFO-DIIS IScMMF=        0 using points:     2    1
 RFO step:  Lambda=-3.49013471D-08.
 DidBck=T Rises=F RFO-DIIS coefs:    0.09146    0.90854
 Iteration  1 RMS(Cart)=  0.00037380 RMS(Int)=  0.00000007
 Iteration  2 RMS(Cart)=  0.00000016 RMS(Int)=  0.00000001
 Variable       Old X    -DE/DX   Delta X   Delta X   Delta X     New X
                                 (Linear)    (Quad)   (Total)
    R1        2.89153   0.00000   0.00000   0.00000   0.00000   2.89153
    R2        2.07070   0.00000   0.00000   0.00000   0.00000   2.07070
    R3        2.06410   0.00000   0.00000  -0.00001  -0.00001   2.06410
    R4        2.06733   0.00000   0.00000   0.00001   0.00000   2.06733
    R5        2.90566  -0.00001  -0.00003   0.00006   0.00003   2.90569
    R6        2.06875   0.00000   0.00000   0.00000   0.00000   2.06875
    R7        2.07143   0.00000   0.00000   0.00001   0.00000   2.07143
    R8        2.64441   0.00000  -0.00001   0.00002   0.00001   2.64442
    R9        2.90839   0.00000   0.00001  -0.00003  -0.00002   2.90837
   R10        2.09094   0.00000  -0.00001   0.00002   0.00001   2.09095
   R11        2.67517  -0.00001   0.00000   0.00000   0.00000   2.67517
   R12        2.08062   0.00000   0.00000   0.00000   0.00000   2.08062
   R13        2.07043   0.00000   0.00000   0.00000   0.00000   2.07043
   R14        2.06399   0.00000  -0.00001   0.00001   0.00001   2.06400
   R15        2.28604   0.00000   0.00001  -0.00001  -0.00001   2.28603
   R16        2.75213   0.00000  -0.00002   0.00003   0.00002   2.75215
   R17        2.27545   0.00000   0.00000   0.00000   0.00000   2.27545
   R18        2.00920   0.00000   0.00001  -0.00002  -0.00001   2.00919
    A1        1.93950   0.00000   0.00001  -0.00002  -0.00001   1.93949
    A2        1.92958   0.00000   0.00000   0.00001   0.00000   1.92958
    A3        1.93299   0.00000   0.00000  -0.00001   0.00000   1.93299
    A4        1.88621   0.00000  -0.00001   0.00002   0.00001   1.88621
    A5        1.88156   0.00000   0.00000  -0.00001   0.00000   1.88155
    A6        1.89228   0.00000   0.00000   0.00001   0.00000   1.89229
    A7        1.96225  -0.00001   0.00000   0.00000   0.00000   1.96225
    A8        1.92838   0.00000   0.00001  -0.00003  -0.00002   1.92836
    A9        1.92410   0.00000   0.00000   0.00000   0.00000   1.92410
   A10        1.89697   0.00000   0.00002  -0.00005  -0.00003   1.89695
   A11        1.87791   0.00000  -0.00005   0.00011   0.00006   1.87797
   A12        1.87123   0.00000   0.00001  -0.00003  -0.00001   1.87122
   A13        1.88476   0.00000  -0.00002   0.00005   0.00003   1.88479
   A14        1.92250   0.00000  -0.00005   0.00010   0.00005   1.92256
   A15        1.90014   0.00000   0.00000   0.00000   0.00000   1.90014
   A16        1.95548   0.00000   0.00001  -0.00002  -0.00001   1.95547
   A17        1.93582   0.00000   0.00003  -0.00007  -0.00004   1.93578
   A18        1.86481   0.00001   0.00003  -0.00005  -0.00002   1.86479
   A19        2.00767  -0.00001  -0.00004   0.00009   0.00005   2.00772
   A20        1.94077   0.00000   0.00000   0.00001   0.00000   1.94078
   A21        1.95311   0.00000   0.00000   0.00000   0.00000   1.95311
   A22        1.86233   0.00000   0.00000   0.00000   0.00000   1.86233
   A23        1.90560   0.00000   0.00001  -0.00001  -0.00001   1.90559
   A24        1.89829   0.00000   0.00001  -0.00001  -0.00001   1.89828
   A25        1.90231   0.00000  -0.00001   0.00002   0.00001   1.90232
   A26        2.15026   0.00000  -0.00002   0.00004   0.00002   2.15028
   A27        2.00751   0.00001   0.00001  -0.00001  -0.00001   2.00751
   A28        2.12541   0.00000   0.00001  -0.00003  -0.00002   2.12539
   A29        3.13922   0.00000  -0.00005   0.00011   0.00006   3.13927
   A30        3.15639   0.00000   0.00000  -0.00003  -0.00003   3.15636
   A31        3.15777  -0.00001   0.00003  -0.00007  -0.00004   3.15772
   A32        3.13687   0.00000  -0.00001  -0.00005  -0.00006   3.13681
    D1       -1.09316   0.00000   0.00003  -0.00007  -0.00004  -1.09320
    D2        1.02951   0.00000   0.00007  -0.00016  -0.00009   1.02942
    D3        3.09471   0.00000   0.00009  -0.00021  -0.00012   3.09460
    D4        1.00131   0.00000   0.00002  -0.00006  -0.00003   1.00128
    D5        3.12397   0.00000   0.00006  -0.00014  -0.00008   3.12389
    D6       -1.09400   0.00000   0.00009  -0.00020  -0.00011  -1.09411
    D7        3.09914   0.00000   0.00002  -0.00005  -0.00003   3.09912
    D8       -1.06138   0.00000   0.00006  -0.00013  -0.00007  -1.06145
    D9        1.00383   0.00000   0.00008  -0.00019  -0.00010   1.00372
   D10       -1.09404   0.00000   0.00005  -0.00009  -0.00005  -1.09409
   D11        3.04858   0.00000   0.00008  -0.00016  -0.00008   3.04850
   D12        1.00917   0.00000   0.00007  -0.00016  -0.00008   1.00909
   D13        3.04869   0.00000   0.00001  -0.00002  -0.00001   3.04868
   D14        0.90812   0.00000   0.00005  -0.00009  -0.00004   0.90808
   D15       -1.13129   0.00000   0.00004  -0.00008  -0.00004  -1.13133
   D16        1.02783   0.00000   0.00001  -0.00002  -0.00001   1.02782
   D17       -1.11274   0.00000   0.00005  -0.00009  -0.00004  -1.11278
   D18        3.13104   0.00000   0.00004  -0.00009  -0.00004   3.13099
   D19        2.90393   0.00000   0.00011  -0.00023  -0.00013   2.90380
   D20       -1.25900   0.00000   0.00004  -0.00009  -0.00005  -1.25905
   D21        0.82321   0.00000   0.00010  -0.00021  -0.00011   0.82309
   D22        1.94457   0.00004   0.00046   0.00030   0.00076   1.94533
   D23       -1.20001  -0.00004  -0.00070   0.00016  -0.00054  -1.20055
   D24       -0.15384   0.00004   0.00052   0.00018   0.00070  -0.15314
   D25        2.98476  -0.00004  -0.00065   0.00005  -0.00060   2.98416
   D26       -2.27732   0.00004   0.00046   0.00032   0.00077  -2.27655
   D27        0.86128  -0.00004  -0.00071   0.00018  -0.00053   0.86076
   D28       -0.98629   0.00000  -0.00026   0.00060   0.00034  -0.98596
   D29        1.14997   0.00000  -0.00026   0.00058   0.00033   1.15029
   D30       -3.05386   0.00000  -0.00027   0.00061   0.00034  -3.05352
         Item               Value     Threshold  Converged?
 Maximum Force            0.000039     0.000450     YES
 RMS     Force            0.000010     0.000300     YES
 Maximum Displacement     0.001638     0.001800     YES
 RMS     Displacement     0.000374     0.001200     YES
 Predicted change in Energy=-7.257691D-08
 Optimization completed.
    -- Stationary point found.
                           ----------------------------
                           !   Optimized Parameters   !
                           ! (Angstroms and Degrees)  !
 --------------------------                            --------------------------
 ! Name  Definition              Value          Derivative Info.                !
 --------------------------------------------------------------------------------
 ! R1    R(1,2)                  1.5301         -DE/DX =    0.0                 !
 ! R2    R(1,10)                 1.0958         -DE/DX =    0.0                 !
 ! R3    R(1,11)                 1.0923         -DE/DX =    0.0                 !
 ! R4    R(1,12)                 1.094          -DE/DX =    0.0                 !
 ! R5    R(2,3)                  1.5376         -DE/DX =    0.0                 !
 ! R6    R(2,13)                 1.0947         -DE/DX =    0.0                 !
 ! R7    R(2,14)                 1.0962         -DE/DX =    0.0                 !
 ! R8    R(3,4)                  1.3994         -DE/DX =    0.0                 !
 ! R9    R(3,6)                  1.5391         -DE/DX =    0.0                 !
 ! R10   R(3,15)                 1.1065         -DE/DX =    0.0                 !
 ! R11   R(4,5)                  1.4156         -DE/DX =    0.0                 !
 ! R12   R(5,16)                 1.101          -DE/DX =    0.0                 !
 ! R13   R(5,17)                 1.0956         -DE/DX =    0.0                 !
 ! R14   R(5,18)                 1.0922         -DE/DX =    0.0                 !
 ! R15   R(6,7)                  1.2097         -DE/DX =    0.0                 !
 ! R16   R(6,8)                  1.4564         -DE/DX =    0.0                 !
 ! R17   R(8,9)                  1.2041         -DE/DX =    0.0                 !
 ! R18   R(9,19)                 1.0632         -DE/DX =    0.0                 !
 ! A1    A(2,1,10)             111.1252         -DE/DX =    0.0                 !
 ! A2    A(2,1,11)             110.5565         -DE/DX =    0.0                 !
 ! A3    A(2,1,12)             110.7522         -DE/DX =    0.0                 !
 ! A4    A(10,1,11)            108.0716         -DE/DX =    0.0                 !
 ! A5    A(10,1,12)            107.8053         -DE/DX =    0.0                 !
 ! A6    A(11,1,12)            108.4198         -DE/DX =    0.0                 !
 ! A7    A(1,2,3)              112.4289         -DE/DX =    0.0                 !
 ! A8    A(1,2,13)             110.4878         -DE/DX =    0.0                 !
 ! A9    A(1,2,14)             110.243          -DE/DX =    0.0                 !
 ! A10   A(3,2,13)             108.6885         -DE/DX =    0.0                 !
 ! A11   A(3,2,14)             107.5964         -DE/DX =    0.0                 !
 ! A12   A(13,2,14)            107.2138         -DE/DX =    0.0                 !
 ! A13   A(2,3,4)              107.9889         -DE/DX =    0.0                 !
 ! A14   A(2,3,6)              110.1513         -DE/DX =    0.0                 !
 ! A15   A(2,3,15)             108.8699         -DE/DX =    0.0                 !
 ! A16   A(4,3,6)              112.0408         -DE/DX =    0.0                 !
 ! A17   A(4,3,15)             110.9142         -DE/DX =    0.0                 !
 ! A18   A(6,3,15)             106.8458         -DE/DX =    0.0                 !
 ! A19   A(3,4,5)              115.0312         -DE/DX =    0.0                 !
 ! A20   A(4,5,16)             111.1981         -DE/DX =    0.0                 !
 ! A21   A(4,5,17)             111.9049         -DE/DX =    0.0                 !
 ! A22   A(4,5,18)             106.7034         -DE/DX =    0.0                 !
 ! A23   A(16,5,17)            109.183          -DE/DX =    0.0                 !
 ! A24   A(16,5,18)            108.7638         -DE/DX =    0.0                 !
 ! A25   A(17,5,18)            108.9946         -DE/DX =    0.0                 !
 ! A26   A(3,6,7)              123.2009         -DE/DX =    0.0                 !
 ! A27   A(3,6,8)              115.0221         -DE/DX =    0.0                 !
 ! A28   A(7,6,8)              121.7768         -DE/DX =    0.0                 !
 ! A29   L(6,8,9,13,-1)        179.864          -DE/DX =    0.0                 !
 ! A30   L(8,9,19,10,-1)       180.8479         -DE/DX =    0.0                 !
 ! A31   L(6,8,9,13,-2)        180.9267         -DE/DX =    0.0                 !
 ! A32   L(8,9,19,10,-2)       179.7294         -DE/DX =    0.0                 !
 ! D1    D(10,1,2,3)           -62.6332         -DE/DX =    0.0                 !
 ! D2    D(10,1,2,13)           58.9864         -DE/DX =    0.0                 !
 ! D3    D(10,1,2,14)          177.314          -DE/DX =    0.0                 !
 ! D4    D(11,1,2,3)            57.371          -DE/DX =    0.0                 !
 ! D5    D(11,1,2,13)          178.9906         -DE/DX =    0.0                 !
 ! D6    D(11,1,2,14)          -62.6819         -DE/DX =    0.0                 !
 ! D7    D(12,1,2,3)           177.5678         -DE/DX =    0.0                 !
 ! D8    D(12,1,2,13)          -60.8126         -DE/DX =    0.0                 !
 ! D9    D(12,1,2,14)           57.515          -DE/DX =    0.0                 !
 ! D10   D(1,2,3,4)            -62.6838         -DE/DX =    0.0                 !
 ! D11   D(1,2,3,6)            174.6709         -DE/DX =    0.0                 !
 ! D12   D(1,2,3,15)            57.8213         -DE/DX =    0.0                 !
 ! D13   D(13,2,3,4)           174.677          -DE/DX =    0.0                 !
 ! D14   D(13,2,3,6)            52.0317         -DE/DX =    0.0                 !
 ! D15   D(13,2,3,15)          -64.8179         -DE/DX =    0.0                 !
 ! D16   D(14,2,3,4)            58.8902         -DE/DX =    0.0                 !
 ! D17   D(14,2,3,6)           -63.7551         -DE/DX =    0.0                 !
 ! D18   D(14,2,3,15)          179.3953         -DE/DX =    0.0                 !
 ! D19   D(2,3,4,5)            166.3828         -DE/DX =    0.0                 !
 ! D20   D(6,3,4,5)            -72.1357         -DE/DX =    0.0                 !
 ! D21   D(15,3,4,5)            47.1663         -DE/DX =    0.0                 !
 ! D22   D(2,3,6,7)            111.4156         -DE/DX =    0.0                 !
 ! D23   D(2,3,6,8)            -68.7558         -DE/DX =    0.0                 !
 ! D24   D(4,3,6,7)             -8.8146         -DE/DX =    0.0                 !
 ! D25   D(4,3,6,8)            171.014          -DE/DX =    0.0                 !
 ! D26   D(15,3,6,7)          -130.4807         -DE/DX =    0.0                 !
 ! D27   D(15,3,6,8)            49.3479         -DE/DX =    0.0                 !
 ! D28   D(3,4,5,16)           -56.5104         -DE/DX =    0.0                 !
 ! D29   D(3,4,5,17)            65.8882         -DE/DX =    0.0                 !
 ! D30   D(3,4,5,18)          -174.9735         -DE/DX =    0.0                 !
 --------------------------------------------------------------------------------
 GradGradGradGradGradGradGradGradGradGradGradGradGradGradGradGradGradGrad

                          Input orientation:                          
 ---------------------------------------------------------------------
 Center     Atomic      Atomic             Coordinates (Angstroms)
 Number     Number       Type             X           Y           Z
 ---------------------------------------------------------------------
      1          6           0        1.483630    2.895236    1.535201
      2          6           0        0.055926    2.408185    1.278779
      3          6           0       -0.007573    0.897043    1.001916
      4          8           0        0.718070    0.640952   -0.166873
      5          6           0        1.014802   -0.723317   -0.400859
      6          6           0       -1.472679    0.440765    0.883771
      7          8           0       -1.968265    0.066546   -0.154386
      8          6           0       -2.233989    0.486282    2.124469
      9          6           0       -2.848843    0.516126    3.159338
     10          1           0        1.906628    2.424926    2.429955
     11          1           0        2.129290    2.653559    0.687980
     12          1           0        1.502383    3.978598    1.686110
     13          1           0       -0.586076    2.635029    2.135996
     14          1           0       -0.369890    2.922528    0.409481
     15          1           0        0.428044    0.356731    1.863654
     16          1           0        1.561475   -1.163057    0.447677
     17          1           0        0.110187   -1.311743   -0.590126
     18          1           0        1.653370   -0.758312   -1.286266
     19          1           0       -3.405313    0.538628    4.065032
 ---------------------------------------------------------------------
                    Distance matrix (angstroms):
                    1          2          3          4          5
     1  C    0.000000
     2  C    1.530134   0.000000
     3  C    2.549678   1.537607   0.000000
     4  O    2.926591   2.377279   1.399360   0.000000
     5  C    4.130624   3.680615   2.374572   1.415638   0.000000
     6  C    3.897250   2.522579   1.539052   2.437890   3.031983
     7  O    4.771978   3.410951   2.423030   2.747088   3.095694
     8  C    4.468891   3.106865   2.527009   3.740163   4.288945
     9  C    5.202722   3.943865   3.587810   4.878742   5.398052
    10  H    1.095766   2.179582   2.835116   3.367305   4.326695
    11  H    1.092276   2.169813   2.783898   2.602480   3.718998
    12  H    1.093982   2.173558   3.499153   3.897251   5.167318
    13  H    2.170795   1.094736   2.154391   3.313660   4.502991
    14  H    2.168762   1.096152   2.141224   2.592571   3.983240
    15  H    2.768782   2.165413   1.106477   2.070733   2.576588
    16  H    4.202203   3.963733   2.648227   2.084096   1.101017
    17  H    4.909382   4.163366   2.725289   2.088465   1.095625
    18  H    4.619297   4.376984   3.276387   2.021329   1.092218
    19  H    5.987939   4.820646   4.588657   5.909465   6.408908
                    6          7          8          9         10
     6  C    0.000000
     7  O    1.209718   0.000000
     8  C    1.456363   2.332374   0.000000
     9  C    2.660396   3.458078   1.204114   0.000000
    10  H    4.212753   5.220687   4.582179   5.175908   0.000000
    11  H    4.231899   4.918554   5.079251   5.954665   1.770968
    12  H    4.691589   5.544094   5.133118   5.752589   1.769354
    13  H    2.677485   3.708558   2.707926   3.264521   2.518755
    14  H    2.756853   3.321051   3.514447   4.415619   3.084227
    15  H    2.140089   3.146267   2.677915   3.527349   2.604676
    16  H    3.459554   3.785957   4.465142   5.442762   4.113657
    17  H    2.783724   2.531702   4.012116   5.114239   5.129404
    18  H    3.989866   3.883013   5.319181   6.454263   4.899739
    19  H    3.723583   4.482350   2.267273   1.063225   5.869269
                   11         12         13         14         15
    11  H    0.000000
    12  H    1.773416   0.000000
    13  H    3.077386   2.523735   0.000000
    14  H    2.528993   2.500095   1.763589   0.000000
    15  H    3.090609   3.782017   2.508636   3.055263   0.000000
    16  H    3.866098   5.289028   4.678446   4.519252   2.366307
    17  H    4.629681   5.925130   4.847013   4.377069   2.984271
    18  H    3.970518   5.594294   5.314298   4.529649   3.559036
    19  H    6.819768   6.448112   4.008014   5.315997   4.424226
                   16         17         18         19
    16  H    0.000000
    17  H    1.790358   0.000000
    18  H    1.782925   1.781098   0.000000
    19  H    6.375733   6.119895   7.477213   0.000000
 Stoichiometry    C7H10O2
 Framework group  C1[X(C7H10O2)]
 Deg. of freedom    51
 Full point group                 C1      NOp   1
 Largest Abelian subgroup         C1      NOp   1
 Largest concise Abelian subgroup C1      NOp   1
                         Standard orientation:                         
 ---------------------------------------------------------------------
 Center     Atomic      Atomic             Coordinates (Angstroms)
 Number     Number       Type             X           Y           Z
 ---------------------------------------------------------------------
      1          6           0        1.883750    2.120212    0.038478
      2          6           0        0.620859    1.433185   -0.485366
      3          6           0        0.370376    0.073695    0.187895
      4          8           0        1.443011   -0.768307   -0.126264
      5          6           0        1.525015   -1.949060    0.650348
      6          6           0       -0.976256   -0.508307   -0.277439
      7          8           0       -1.066764   -1.489621   -0.979044
      8          6           0       -2.152990    0.209241    0.193112
      9          6           0       -3.118244    0.803485    0.599372
     10          1           0        1.796643    2.344841    1.107429
     11          1           0        2.756218    1.478434   -0.102893
     12          1           0        2.059062    3.062884   -0.488242
     13          1           0       -0.255482    2.069864   -0.326898
     14          1           0        0.703976    1.258351   -1.564288
     15          1           0        0.293787    0.224580    1.281357
     16          1           0        1.573034   -1.715991    1.725342
     17          1           0        0.678851   -2.619877    0.464862
     18          1           0        2.448942   -2.453191    0.358541
     19          1           0       -3.980072    1.318816    0.948851
 ---------------------------------------------------------------------
 Rotational constants (GHZ):      1.9384301      1.2903535      0.8809582

 **********************************************************************

            Population analysis using the SCF density.

 **********************************************************************

 Orbital symmetries:
       Occupied  (A) (A) (A) (A) (A) (A) (A) (A) (A) (A) (A) (A)
                 (A) (A) (A) (A) (A) (A) (A) (A) (A) (A) (A) (A)
                 (A) (A) (A) (A) (A) (A) (A) (A) (A) (A)
       Virtual   (A) (A) (A) (A) (A) (A) (A) (A) (A) (A) (A) (A)
                 (A) (A) (A) (A) (A) (A) (A) (A) (A) (A) (A) (A)
                 (A) (A) (A) (A) (A) (A) (A) (A) (A) (A) (A) (A)
                 (A) (A) (A) (A) (A) (A) (A) (A) (A) (A) (A) (A)
                 (A) (A) (A) (A) (A) (A) (A) (A) (A) (A) (A) (A)
                 (A) (A) (A) (A) (A) (A) (A) (A) (A) (A) (A) (A)
                 (A) (A) (A) (A) (A) (A) (A) (A) (A) (A) (A) (A)
                 (A) (A) (A) (A) (A) (A) (A) (A) (A) (A) (A) (A)
                 (A) (A) (A) (A) (A) (A) (A) (A) (A) (A) (A) (A)
                 (A) (A) (A) (A) (A) (A) (A) (A) (A) (A) (A) (A)
                 (A) (A) (A) (A) (A) (A) (A) (A) (A) (A) (A) (A)
                 (A) (A) (A) (A) (A) (A) (A) (A) (A) (A) (A) (A)
                 (A) (A) (A) (A) (A) (A) (A) (A) (A) (A) (A) (A)
                 (A) (A) (A) (A) (A) (A) (A) (A) (A) (A) (A) (A)
                 (A) (A) (A) (A) (A) (A) (A) (A) (A) (A) (A) (A)
                 (A) (A) (A) (A) (A) (A) (A) (A) (A) (A) (A) (A)
                 (A) (A) (A) (A) (A) (A) (A) (A) (A) (A) (A) (A)
                 (A) (A) (A) (A) (A) (A) (A) (A) (A) (A) (A) (A)
                 (A) (A) (A) (A) (A) (A) (A) (A) (A) (A) (A) (A)
                 (A) (A) (A) (A) (A) (A) (A) (A) (A) (A) (A) (A)
                 (A) (A) (A) (A) (A) (A) (A) (A) (A) (A) (A) (A)
                 (A) (A) (A) (A) (A) (A) (A) (A) (A) (A) (A) (A)
                 (A) (A) (A) (A)
 The electronic state is 1-A.
 Alpha  occ. eigenvalues --  -19.14692 -19.14511 -10.29113 -10.24583 -10.22306
 Alpha  occ. eigenvalues --  -10.21180 -10.20444 -10.19209 -10.17648  -1.06145
 Alpha  occ. eigenvalues --   -1.03422  -0.80542  -0.77468  -0.71849  -0.68054
 Alpha  occ. eigenvalues --   -0.62824  -0.59204  -0.54053  -0.51201  -0.49868
 Alpha  occ. eigenvalues --   -0.46657  -0.44989  -0.43401  -0.42620  -0.40693
 Alpha  occ. eigenvalues --   -0.38979  -0.36658  -0.35201  -0.34599  -0.32352
 Alpha  occ. eigenvalues --   -0.30214  -0.30008  -0.28055  -0.24982
 Alpha virt. eigenvalues --   -0.06118   0.02735   0.08491   0.09609   0.10593
 Alpha virt. eigenvalues --    0.11515   0.13742   0.14488   0.14961   0.15823
 Alpha virt. eigenvalues --    0.17273   0.17636   0.18345   0.19643   0.22752
 Alpha virt. eigenvalues --    0.23263   0.24080   0.25954   0.30569   0.35233
 Alpha virt. eigenvalues --    0.38477   0.41356   0.43727   0.46024   0.47158
 Alpha virt. eigenvalues --    0.49395   0.50666   0.51482   0.51911   0.53297
 Alpha virt. eigenvalues --    0.54637   0.55410   0.57015   0.58572   0.59853
 Alpha virt. eigenvalues --    0.61994   0.65422   0.67103   0.67454   0.68014
 Alpha virt. eigenvalues --    0.69731   0.70959   0.71920   0.73253   0.73372
[...]
 499731,-0.00017173,0.00101247,0.00037214,0.02453479,-0.01297951,-0.040
 18145,0.02002764,-0.09039913,-0.02694167,-0.07044583,0.40599794,0.0009
 2873,0.00049512,0.00034095,0.00909535,-0.01018334,-0.01495397,0.070282
 78,0.00702617,-0.18664328,-0.14141823,0.06496768,0.32580324,0.00021166
 ,-0.00047731,0.00010685,-0.00180600,-0.00008345,0.00104790,-0.01235137
 ,0.02484585,0.00580242,-0.07192823,0.01477599,0.01903494,0.57307007,0.
 00005072,0.00042378,-0.00064360,0.00030391,0.00026782,0.00049291,0.011
 21340,-0.01746076,-0.01561894,0.03576043,-0.21860221,-0.02806344,0.030
 45294,0.46422312,0.00029137,0.00031555,0.00015433,0.00376755,-0.000097
 35,-0.00485917,0.01020073,-0.03793467,-0.01775855,0.01175035,0.0051150
 3,-0.08085175,-0.02280130,-0.01294732,0.59095083,-0.00206033,0.0056318
 6,0.00087099,0.00373108,-0.01849667,-0.00819390,-0.13839837,-0.0009446
 0,0.01090796,-0.03064653,-0.00634487,0.01206552,-0.00115342,0.00264411
 ,0.00086707,0.52251818,0.00128447,-0.00605386,-0.00011259,-0.03308186,
 -0.01373209,-0.00660951,-0.01502947,-0.09053002,0.00954367,0.00504171,
 0.00118828,-0.00636255,0.00329151,0.00551622,0.00123117,0.12001682,0.2
 8894853,-0.00013935,-0.00171497,-0.00045623,-0.00813345,-0.00278958,0.
 00008900,-0.00657155,0.00209323,-0.07298169,0.04118883,0.00362800,-0.0
 1687729,0.00363563,0.00642137,0.00277927,0.13903633,0.17015380,0.78884
 289,0.00125277,-0.00330385,-0.00021853,-0.00656786,0.00483843,0.000115
 03,-0.01704397,-0.02252037,-0.04186052,0.00606589,0.00290042,-0.002879
 58,-0.00020782,-0.00053789,0.00024770,-0.20815504,-0.09003264,-0.21246
 599,0.20603106,-0.00013348,0.00037906,-0.00024082,0.00250721,0.0015829
 6,0.00063390,-0.01602106,0.01553163,-0.02388177,0.00013432,0.00093366,
 0.00342052,-0.00029601,-0.00550529,-0.00185023,-0.09594878,-0.12964789
 ,-0.16813809,0.10824458,0.10237573,0.00108616,-0.00190297,0.00011635,-
 0.00229805,0.00499796,-0.00015570,-0.01551087,-0.01530300,-0.01496125,
 0.00091566,0.00262191,0.00852656,-0.00071186,-0.00292305,-0.00090606,-
 0.24851924,-0.18095214,-0.55095671,0.25726465,0.21238518,0.64425055,0.
 00042671,-0.00085917,-0.00007676,-0.00291058,-0.00013268,0.00047054,-0
 .01060847,-0.00296094,0.02662140,-0.00887510,-0.00084473,0.00330397,0.
 00080247,-0.00273904,-0.00045104,-0.14919886,-0.00878918,0.06731620,0.
 03058476,0.00458450,0.00640802,0.44509189,-0.00035387,0.00083220,0.000
 00384,0.00252569,-0.00048717,0.00035047,-0.00524943,0.01769683,0.00376
 747,-0.00238596,0.00050386,0.00133405,-0.00007210,-0.00035231,-0.00013
 682,-0.00500786,-0.06885289,0.00418197,0.00312430,0.01429063,-0.022269
 25,-0.00162872,0.06147549,-0.00021600,0.00037834,-0.00026600,0.0014859
 5,-0.00053568,-0.00056424,0.01191475,0.00114603,0.00387955,-0.00192746
 ,-0.00070818,-0.00020193,-0.00032792,-0.00068735,-0.00019630,0.0917222
 7,0.00986408,-0.14524775,-0.00237281,-0.02487959,-0.09142391,-0.570866
 05,0.03634093,1.04166375,0.00004747,-0.00001902,0.00005153,0.00031535,
 0.00000099,-0.00014561,0.00033322,0.00074169,0.00052057,-0.00066399,-0
 .00000678,0.00058534,0.00019172,-0.00040082,-0.00009706,0.00598413,0.0
 0122970,0.00116849,-0.00262157,-0.00094802,-0.00027298,-0.30796687,0.0
 1374394,0.47205686,0.43662563,0.00002228,0.00017492,0.00029243,-0.0000
 6258,-0.00060548,-0.00055876,-0.00043798,-0.00064466,-0.00067743,0.000
 23151,0.00018134,-0.00002295,0.00004777,-0.00011473,-0.00000426,0.0015
 8831,0.00241947,-0.00059005,-0.00007717,0.00078299,0.00047653,0.013000
 42,-0.02849962,-0.02141466,-0.01947584,0.05065169,-0.00016270,0.000340
 87,0.00020176,-0.00004998,-0.00084635,-0.00010221,-0.00427605,-0.00219
 122,-0.00459212,0.00268936,0.00013923,-0.00052731,-0.00048067,0.000883
 74,0.00007286,0.00053163,0.00019620,-0.00161856,0.00384822,0.00146884,
 0.00311165,0.46988208,-0.02209170,-0.81298929,-0.65351625,0.02854124,1
 .12941599,-0.08214827,0.04140071,-0.07758033,-0.01399425,0.01429118,-0
 .02732765,0.00120509,0.00176373,-0.00023550,0.00011074,-0.00009231,0.0
 0018887,-0.00000150,-0.00001703,-0.00006742,0.00010541,0.00021175,0.00
 011924,0.00022984,0.00005217,0.00026246,-0.00003833,0.00002282,0.00000
 369,0.00003825,-0.00000580,0.00004641,0.09165951,0.04247849,-0.0967399
 3,0.09255326,-0.00437177,0.00374136,-0.00973721,0.00005938,0.00181055,
 -0.00116065,0.00021362,-0.00018808,0.00023268,-0.00003544,-0.00009561,
 -0.00005801,-0.00037524,0.00019527,0.00001891,0.00020109,-0.00004662,0
 .00012422,0.00006774,0.00001269,-0.00005796,0.00001342,-0.00000646,-0.
 00002052,-0.04493757,0.10107461,-0.07863304,0.09230922,-0.22177857,-0.
 00187125,0.00194172,-0.00429233,0.00020049,0.00056983,-0.00020222,0.00
 012738,-0.00061235,0.00007816,-0.00026360,0.00020517,-0.00012336,0.000
 07156,-0.00028886,0.00024676,0.00010776,0.00011769,0.00003940,-0.00005
 156,0.00006027,0.00000013,0.00000924,-0.00003527,0.00000492,0.08888983
 ,-0.10225746,0.23901271,-0.13652613,0.03555106,0.12101930,-0.02043473,
 0.00614255,0.02514535,-0.00016408,0.00164204,0.00193674,0.00098238,0.0
 0047619,-0.00065503,0.00065760,-0.00053027,-0.00043164,-0.00002245,0.0
 0016311,0.00027523,0.00008426,-0.00000919,-0.00020910,0.00010227,0.000
 05204,0.00006498,0.00000251,-0.00014146,-0.00015719,0.00766476,-0.0035
 4425,-0.01010131,0.15193604,0.03733161,-0.06105081,-0.04708982,-0.0065
 8760,0.00214624,0.00899839,-0.00034683,0.00073152,0.00146476,-0.000254
 63,-0.00084160,-0.00054958,0.00034486,-0.00052854,-0.00022078,-0.00016
 908,0.00009896,-0.00008736,0.00016926,0.00000066,0.00002141,0.00017574
 ,0.00009661,0.00002556,0.00001672,-0.00006144,-0.00011681,-0.00964532,
 0.00298645,0.01213278,-0.03815002,0.06230775,0.12329851,-0.04592161,-0
 .21254412,-0.00366244,0.00239673,0.00560395,0.00110741,-0.00037530,-0.
 00046555,-0.00155784,-0.00092328,-0.00019574,0.00007571,0.00007722,0.0
 0003421,-0.00012599,0.00010643,-0.00009674,0.00004041,0.00003286,0.000
 10158,0.00005156,0.00001483,0.00002939,0.00000596,-0.00001475,-0.00000
 621,0.01503112,-0.00671494,-0.01961904,-0.13365550,0.05189478,0.228083
 67,-0.04591144,0.00025568,0.00011841,-0.00078191,-0.03248990,-0.004328
 17,-0.00766172,-0.00199253,-0.00012914,0.00091027,0.00051372,0.0000598
 1,-0.00006040,0.00009977,-0.00009416,0.00226995,-0.00167813,-0.0003675
 7,-0.00113461,0.00007571,-0.00075000,-0.00033536,0.00033585,0.00018488
 ,-0.00003782,0.00001386,0.00011942,-0.00065748,0.01168431,0.00261545,-
 0.00001536,0.01896811,0.00073033,0.05061799,-0.00125865,-0.30646241,-0
 .03582090,0.00076198,-0.00883738,-0.00084275,-0.00220382,0.00074221,-0
 .00011206,-0.00023756,-0.00017442,0.00007322,-0.00006945,0.00031890,0.
 00012743,0.00112763,-0.00029481,-0.00052649,-0.00064189,-0.00016578,-0
 .00022014,-0.00023175,0.00003751,0.00015871,-0.00004898,0.00000809,0.0
 0007495,0.00015993,-0.01304584,-0.00231378,0.00005453,-0.00608128,-0.0
 0015081,0.00287603,0.33272196,-0.00006884,-0.03538376,-0.05183288,0.00
 019417,-0.00479044,-0.00179178,-0.00059778,-0.00038343,-0.00044783,-0.
 00067123,-0.00045029,0.00031336,-0.00022089,0.00033074,0.00008304,0.00
 050400,-0.00020840,0.00015597,-0.00013484,0.00004539,-0.00006519,-0.00
 007469,0.00003872,0.00001771,-0.00000514,0.00000062,0.00002760,0.00060
 715,0.02714385,0.00414690,-0.00108595,-0.02566412,-0.00262899,0.001180
 27,0.03960238,0.05154956,-0.01990453,0.00611709,0.02463190,-0.13173027
 ,0.03224290,0.11864928,-0.00077578,0.00112242,-0.00091918,0.00061682,-
 0.00079450,-0.00062031,0.00040777,-0.00030550,0.00001961,-0.00037933,-
 0.00025082,-0.00060307,0.00033578,-0.00007175,0.00030092,-0.00062803,-
 0.00083711,0.00011907,-0.00045946,-0.00044013,-0.00000426,0.00129072,0
 .00070909,-0.00021171,-0.00540242,-0.00246660,-0.00181987,0.00137539,-
 0.00019361,-0.00007425,0.14802931,-0.00730901,0.00218131,0.00907736,0.
 03064213,-0.06006786,-0.03986909,0.01794677,-0.00290344,-0.02584908,0.
 00068032,-0.00896137,-0.00153996,0.00027731,0.00081835,-0.00165022,0.0
 0077669,0.00053526,-0.00155385,-0.00023257,-0.00025088,0.00035584,-0.0
 0057455,-0.00061137,-0.00025445,-0.00016512,0.00013064,0.00055225,0.00
 061555,0.00018851,-0.00037859,-0.00243080,-0.00022004,-0.00090966,0.00
 045516,0.00030125,0.00042213,-0.03148173,0.06540059,-0.00480234,0.0017
 1688,0.00588805,0.11751931,-0.04317565,-0.21033597,0.00136514,0.000368
 68,-0.00569395,0.00055069,-0.00218522,0.00058407,0.00008769,0.00055906
 ,0.00017341,0.00163366,-0.00030869,-0.00082978,-0.00055971,-0.00003615
 ,0.00010489,-0.00000542,0.00041953,-0.00009074,0.00023029,0.00057118,0
 .00024854,0.00044152,0.00023434,0.00082682,-0.00187811,-0.00043258,0.0
 0104488,0.00057850,0.00041573,0.00020264,-0.12956044,0.04860416,0.2269
 6060,-0.01347839,0.01414361,-0.02612200,-0.08478311,0.04514017,-0.0769
 5225,-0.00003218,-0.00016805,0.00136469,0.00013108,-0.00010701,-0.0003
 0845,-0.00011367,0.00019525,0.00016357,0.00050733,-0.00049839,0.001386
 30,0.00013853,0.00038636,-0.00013382,0.00004708,0.00005863,-0.00015680
 ,-0.00015178,-0.00009574,0.00000989,-0.00585387,-0.00240144,-0.0008598
 4,0.00112516,0.00059734,0.00046250,0.00138302,-0.00017648,0.00031607,0
 .00709942,-0.00963689,0.01436117,0.09318200,-0.00482277,0.00514243,-0.
 00942495,0.04580283,-0.10250328,0.09435630,0.01022045,-0.02166891,0.02
 783787,-0.00107552,0.00344182,0.00020779,0.00008339,-0.00001199,-0.000
 07285,0.00316883,0.00075751,0.00232658,-0.00081362,0.00009472,-0.00150
 646,-0.00008438,-0.00022305,0.00016400,-0.00004427,0.00002670,-0.00001
 319,-0.00276251,0.00014415,-0.00041739,0.00052785,0.00017830,0.0004008
 2,0.00061785,0.00058196,-0.00021672,-0.00333159,0.00360891,-0.00602020
 ,-0.04671673,0.11601038,-0.00203022,0.00173418,-0.00382704,-0.07724166
 ,0.09656925,-0.21261620,0.00247579,-0.00285367,0.00358934,-0.00023924,
 0.00041272,0.00121938,0.00015312,-0.00026360,0.00030102,-0.00023865,0.
 00024998,-0.00000177,0.00054922,0.00025624,0.00045260,0.00021551,0.000
 07573,-0.00012914,0.00012705,0.00010271,0.00011919,-0.00072536,-0.0007
 2848,0.00142119,-0.00009106,-0.00027495,0.00073979,-0.00011081,-0.0003
 6681,0.00004452,-0.00983495,0.01216991,-0.01950845,0.08676474,-0.10562
 946,0.22785004,0.00055725,-0.00069942,0.00114097,0.00160328,-0.0006769
 1,0.00070972,-0.09463029,0.05308336,-0.07562179,0.00605436,-0.00622046
 ,0.02322488,0.00192504,-0.00388507,0.00092413,-0.01074261,0.01771033,-
 0.02680473,-0.00516345,-0.00550951,-0.00002767,-0.00009795,-0.00227624
 ,0.00204259,0.00005440,-0.00003893,0.00029778,0.00037694,0.00023139,-0
 .00010390,0.00008609,0.00010393,0.00003808,-0.00000121,0.00005513,0.00
 006189,0.00010419,0.00024086,-0.00003254,0.00075724,-0.00054353,0.0002
 8725,0.09966247,0.00107715,0.00245003,0.00104271,0.01462591,-0.0200708
 5,0.02410968,0.04876958,-0.09824745,0.08484007,-0.00181346,0.00344196,
 -0.00434637,-0.00201140,0.00245897,-0.00337270,-0.00674992,0.00557496,
 -0.00736057,-0.00126730,-0.00230987,-0.00008010,0.00072297,-0.00102657
 ,0.00077246,-0.00011819,0.00004178,-0.00033075,-0.00102213,-0.00000970
 ,-0.00083609,-0.00016362,-0.00002450,-0.00000488,0.00034115,0.00045051
 ,-0.00033858,0.00005681,0.00078617,-0.00034907,-0.00053857,-0.00599999
 ,-0.00149770,-0.05186066,0.11158650,0.00038651,-0.00015806,0.00030556,
 0.00109908,-0.00288782,0.00469642,-0.07202446,0.08445926,-0.17222912,0
 .00150566,0.00711849,-0.04145543,-0.00195722,0.00663057,0.00165547,-0.
 00527441,0.00331594,-0.00315268,-0.00072362,-0.00010211,0.00030878,0.0
 0005290,-0.00102326,-0.00079469,0.00004787,0.00003085,0.00075450,0.000
 37792,0.00040906,0.00014216,-0.00018264,-0.00013873,-0.00003234,0.0001
 6971,-0.00004178,0.00021632,-0.00006485,0.00083063,0.00042037,-0.00032
 920,-0.00172814,0.00056790,0.07556673,-0.09360474,0.20742608,-0.000004
 33,0.00002032,-0.00010375,0.00010426,-0.00008178,0.00036673,0.00090089
 ,0.00017913,-0.00365755,-0.00193056,0.01118986,-0.00096841,-0.11150729
 ,0.03983859,-0.09428119,-0.00050566,-0.00006082,-0.00055306,-0.0002060
 3,0.00061601,0.00057664,-0.00010533,-0.00022630,0.00021521,-0.00005249
 ,0.00000265,0.00014155,0.00002196,0.00000364,0.00004013,-0.00005450,-0
 .00004739,0.00000835,-0.00000417,0.00000824,0.00003510,0.00000074,0.00
 005932,0.00005453,0.00000850,-0.00020333,0.00000558,-0.00007208,-0.000
 15621,0.00103037,0.11448749,0.00007768,0.00000724,0.00010366,-0.000054
 19,0.00006042,-0.00016534,-0.00336630,0.00183436,0.00793870,0.02402094
 ,-0.03465753,0.02037107,0.03963899,-0.07703485,0.06247454,-0.00012147,
 -0.00036471,-0.00100383,-0.00019147,0.00047492,0.00038389,0.00032390,0
 .00009087,0.00011074,0.00006096,0.00000756,-0.00011610,-0.00001659,-0.
 00002144,-0.00011462,0.00012209,0.00004838,0.00009131,-0.00004892,-0.0
 0001514,-0.00005070,-0.00007091,-0.00007067,-0.00017129,-0.00012179,0.
 00026132,-0.00008010,-0.00010746,0.00085659,-0.00194916,-0.05265298,0.
 09865672,-0.00005213,0.00003830,-0.00009597,0.00004932,-0.00039863,0.0
 0056338,0.00173792,-0.00176513,0.00375650,0.00430227,0.00020277,0.0083
 1893,-0.09461076,0.06738681,-0.20428392,0.00003555,0.00034140,-0.00069
 637,-0.00018829,0.00002728,0.00012460,-0.00008673,-0.00010624,0.000176
 72,-0.00003526,-0.00000210,0.00008208,-0.00000675,-0.00000561,0.000079
 67,-0.00004578,-0.00000510,-0.00003644,0.00003822,0.00000668,0.0000279
 1,-0.00001698,0.00013035,-0.00000695,0.00005707,-0.00018835,-0.0002180
 1,-0.00138494,0.00133431,0.00083304,0.10560163,-0.07700785,0.21394190,
 -0.00001153,0.00000427,0.00000250,-0.00012623,0.00003170,0.00006615,0.
 00141428,-0.00013110,0.00066313,0.01319472,0.00497093,0.00127830,-0.23
 743355,-0.11237646,-0.03607465,0.00013814,0.00055038,-0.00003009,-0.00
 210634,0.00135952,0.00007138,0.00021727,-0.00027211,0.00012037,-0.0000
 1366,0.00006233,-0.00004253,-0.00000085,0.00000445,0.00002441,-0.00002
 163,0.00000336,-0.00002251,-0.00000609,-0.00002771,-0.00000024,-0.0000
 0471,0.00000731,-0.00001158,0.00001913,-0.00001269,0.00000242,-0.00032
 133,0.00021908,-0.00007742,-0.01157724,-0.00678294,-0.00130972,0.25070
 065,-0.00005255,0.00005150,0.00018004,0.00050737,-0.00022755,-0.000502
 88,-0.00402322,0.00204935,0.00489962,-0.02168500,-0.03846516,-0.011332
 04,-0.10363496,-0.10828513,-0.02075922,-0.00086279,-0.00117416,-0.0033
 7741,0.00036706,0.00176864,0.00225598,0.00063768,-0.00010832,0.0004651
 9,0.00000136,0.00000838,-0.00003646,0.00000998,-0.00000963,-0.00008036
 ,0.00031700,0.00021651,-0.00000261,0.00007107,-0.00004743,-0.00010855,
 0.00005143,-0.00029775,-0.00012457,-0.00008767,0.00008786,0.00003904,0
 .00040578,-0.00013302,-0.00079009,0.00892632,0.00841455,0.00207266,0.1
 2004955,0.13423766,-0.00003679,0.00006161,-0.00003576,0.00020589,-0.00
 016761,-0.00014269,-0.00268774,0.00006372,0.00130849,-0.00195259,-0.00
 754889,0.00117722,-0.03534468,-0.02050939,-0.06114190,0.00047500,-0.00
 018057,-0.00030952,0.00032044,0.00032407,0.00003056,-0.00006559,-0.000
 22811,0.00006288,-0.00000348,0.00002984,0.00003645,0.00000274,-0.00000
 239,0.00002649,0.00006847,0.00003768,-0.00001825,0.00004838,-0.0000108
 7,-0.00001323,0.00001087,-0.00007196,-0.00002388,-0.00000955,0.0000552
 0,0.00001850,-0.00025115,0.00004800,-0.00022646,-0.02328162,-0.0118866
 5,-0.00393844,0.03954301,0.02651531,0.05735709,-0.00002293,0.00006849,
 -0.00004541,-0.00012662,-0.00030164,0.00041050,0.00103991,0.00070410,-
 0.00192714,-0.00401439,0.00566562,0.00711179,-0.14064455,-0.00002545,0
 .12600059,0.00028582,-0.00034023,-0.00065781,-0.00034173,0.00069865,0.
 00024881,-0.00007700,-0.00016280,0.00012973,-0.00004100,0.00001645,0.0
 0007481,0.00000926,-0.00000220,0.00001047,-0.00001063,-0.00003680,0.00
 000853,0.00003459,0.00002722,0.00002791,0.00000944,0.00016782,0.000021
 34,-0.00000773,-0.00001490,-0.00002596,-0.00001000,-0.00007634,0.00033
 884,0.01050187,-0.00067522,-0.01408403,-0.01403187,-0.00094142,0.02294
 980,0.14743401,0.00014624,0.00006236,0.00002976,0.00105411,0.00006843,
 -0.00150826,0.00111206,-0.00542125,0.00109105,0.02531570,-0.01133134,-
 0.03555947,-0.00705725,-0.04612352,0.00982069,-0.00066889,-0.00077414,
 -0.00115451,0.00007072,0.00061750,0.00066455,0.00032289,0.00012951,0.0
 0005528,0.00002673,0.00000894,-0.00008235,-0.00002300,0.00000282,-0.00
 000259,-0.00007974,0.00000285,0.00001038,-0.00005913,-0.00002281,0.000
 00973,-0.00005760,-0.00062170,-0.00009528,0.00001755,0.00005216,0.0000
 8528,-0.00020550,0.00007504,-0.00039500,-0.00744031,0.00146584,0.00792
 730,-0.00767110,0.00191227,0.01346122,-0.00478243,0.05991310,0.0000617
 0,-0.00000944,-0.00003239,0.00047167,0.00015570,-0.00005445,-0.0005556
 1,-0.00095631,0.00180949,0.00371685,-0.00512269,-0.00471275,0.12670224
 ,-0.00127188,-0.22608633,-0.00059521,-0.00031299,-0.00030458,0.0001310
 7,0.00032124,0.00030733,0.00012469,0.00001990,-0.00007578,0.00002945,0
 .00000505,-0.00001430,-0.00000870,0.00001363,0.00000085,0.00000728,0.0
 0000306,0.00000922,-0.00003850,-0.00002526,-0.00000135,-0.00001425,-0.
 00016007,-0.00002910,-0.00000686,-0.00011569,-0.00001829,-0.00001678,0
 .00001075,0.00048097,0.01478892,0.00106538,-0.01860366,-0.00420938,0.0
 0073652,0.00584954,-0.14056863,0.00564545,0.24146160,-0.00002349,0.000
 01269,-0.00000058,0.00004933,-0.00001419,0.00008123,-0.00048165,0.0000
 1960,-0.00078925,0.00055164,-0.00002695,-0.00031028,-0.00005854,0.0002
 5841,0.00006579,0.00572256,0.00026176,0.00220043,-0.00117448,0.0002787
 8,0.00129888,0.00356942,-0.00139077,-0.00419331,-0.13158404,0.00579004
 ,0.18104848,-0.00001794,0.00000129,-0.00000050,0.00001086,-0.00000664,
 -0.00001432,0.00001638,0.00001922,0.00000728,0.00001496,-0.00003857,0.
 00000632,0.00002225,0.00000463,-0.00004278,-0.00014233,-0.00003486,0.0
 0005823,-0.00000605,-0.00003433,-0.00000061,-0.00002916,-0.00005698,0.
 00000860,0.00001354,-0.00002104,-0.00001995,0.12354674,0.00003131,-0.0
 0008299,0.00001077,-0.00034177,-0.00000054,0.00001955,0.00018445,-0.00
 103203,0.00000260,0.00012171,-0.00010099,-0.00016860,-0.00002124,0.000
 08778,0.00002002,0.00073592,0.00619011,-0.00052714,-0.00029708,-0.0009
 0675,0.00086962,-0.00099069,0.00499509,-0.00094345,0.00539155,-0.02451
 011,-0.00635188,-0.00000556,0.00000687,0.00000068,0.00000091,-0.000006
 00,-0.00000753,-0.00003965,-0.00001509,0.00000143,0.00000213,0.0000541
 0,0.00000913,0.00000986,0.00001900,-0.00000025,0.00019291,0.00009945,0
 .00002409,0.00002503,-0.00001443,0.00001115,0.00001124,0.00000143,0.00
 000978,0.00001109,-0.00001608,-0.00000234,-0.00502210,0.01523116,0.000
 04227,-0.00001186,0.00005334,0.00001397,0.00005721,-0.00000226,-0.0000
 6212,-0.00003427,-0.00070657,0.00000821,0.00009604,0.00005758,0.000072
 41,-0.00005902,0.00000290,0.00422584,0.00033362,0.00141579,-0.00122061
 ,0.00009555,0.00099399,-0.00276903,-0.00075233,0.00614965,0.17924312,-
 0.00673024,-0.31422556,-0.00001924,0.00001328,-0.00001063,-0.00002403,
 0.00000142,-0.00000327,-0.00002501,-0.00002744,-0.00000430,0.00001246,
 0.00009430,0.00006455,-0.00000723,-0.00001517,-0.00000457,-0.00005052,
 -0.00003642,0.00008313,-0.00001917,0.00000636,-0.00002498,0.00000645,-
 0.00005017,-0.00001710,-0.00002413,-0.00000323,0.00001398,-0.17940365,
 0.00702238,0.30616433\\0.00000291,-0.00000025,0.00000263,0.00001095,-0
 .00000031,0.00000089,-0.00001313,0.00004536,-0.00001681,0.00000415,0.0
 0000174,0.00000797,-0.00000642,-0.00001082,-0.00000224,0.00003563,-0.0
 0013848,0.00003893,-0.00001959,0.00005795,-0.00001672,-0.00001267,0.00
 005271,-0.00001523,-0.00000309,0.00001043,-0.00000193,0.00000298,-0.00
 000650,0.00000192,0.00000441,-0.00000654,0.00000233,0.00000939,-0.0000
 0437,0.00000254,0.00000231,0.00000182,0.00000181,0.00000667,0.00000217
 ,-0.00000037,-0.00001014,-0.00000457,-0.00000268,-0.00000416,-0.000002
 95,0.00000013,-0.00000244,0.00000076,0.00000015,-0.00000455,-0.0000045
 0,-0.00000009,-0.00000320,0.00000633,-0.00000323\\\@


 WHEN YOU REACH FOR THE STARS, YOU MAY NOT QUITE GET ONE,
 BUT YOU WON'T COME UP WITH A HANDFUL OF MUD, EITHER.

                                         -- LEO BURNETT (AD AGENCY HEAD)
 Job cpu time:       0 days  0 hours 41 minutes  7.4 seconds.
 File lengths (MBytes):  RWF=    152 Int=      0 D2E=      0 Chk=      8 Scr=      1
 Normal termination of Gaussian 09 at Tue Jan 28 09:03:51 2020.
