 Entering Gaussian System, Link 0=/home/puck/opt/gaussian_09/g09
 Input=dsC7O2H10nsd_2591.com
 Output=dsC7O2H10nsd_2591.log
 Initial command:
 /home/puck/opt/gaussian_09/l1.exe "/scratch/puck/g09_03bcaed0-14af-4c21-af5f-a0f40c3ef285/Gau-180997.inp" -scrdir="/scratch/puck/g09_03bcaed0-14af-4c21-af5f-a0f40c3ef285/"
 Entering Link 1 = /home/puck/opt/gaussian_09/l1.exe PID=    181014.
  
 Copyright (c) 1988,1990,1992,1993,1995,1998,2003,2009,2013,
            Gaussian, Inc.  All Rights Reserved.
  
 This is part of the Gaussian(R) 09 program.  It is based on
 the Gaussian(R) 03 system (copyright 2003, Gaussian, Inc.),
 the Gaussian(R) 98 system (copyright 1998, Gaussian, Inc.),
 the Gaussian(R) 94 system (copyright 1995, Gaussian, Inc.),
 the Gaussian 92(TM) system (copyright 1992, Gaussian, Inc.),
 the Gaussian 90(TM) system (copyright 1990, Gaussian, Inc.),
 the Gaussian 88(TM) system (copyright 1988, Gaussian, Inc.),
 the Gaussian 86(TM) system (copyright 1986, Carnegie Mellon
 University), and the Gaussian 82(TM) system (copyright 1983,
 Carnegie Mellon University). Gaussian is a federally registered
 trademark of Gaussian, Inc.
  
 This software contains proprietary and confidential information,
 including trade secrets, belonging to Gaussian, Inc.
  
 This software is provided under written license and may be
 used, copied, transmitted, or stored only in accord with that
 written license.
  
 The following legend is applicable only to US Government
 contracts under FAR:
  
                    RESTRICTED RIGHTS LEGEND
  
 Use, reproduction and disclosure by the US Government is
 subject to restrictions as set forth in subparagraphs (a)
 and (c) of the Commercial Computer Software - Restricted
 Rights clause in FAR 52.227-19.
  
 Gaussian, Inc.
 340 Quinnipiac St., Bldg. 40, Wallingford CT 06492
  
  
 ---------------------------------------------------------------
 Warning -- This program may not be used in any manner that
 competes with the business of Gaussian, Inc. or will provide
 assistance to any competitor of Gaussian, Inc.  The licensee
 of this program is prohibited from giving any competitor of
 Gaussian, Inc. access to this program.  By using this program,
 the user acknowledges that Gaussian, Inc. is engaged in the
 business of creating and licensing software in the field of
 computational chemistry and represents and warrants to the
 licensee that it is not a competitor of Gaussian, Inc. and that
 it will not use this program in any manner prohibited above.
 ---------------------------------------------------------------
  

 Cite this work as:
 Gaussian 09, Revision D.01,
 M. J. Frisch, G. W. Trucks, H. B. Schlegel, G. E. Scuseria, 
 M. A. Robb, J. R. Cheeseman, G. Scalmani, V. Barone, B. Mennucci, 
 G. A. Petersson, H. Nakatsuji, M. Caricato, X. Li, H. P. Hratchian, 
 A. F. Izmaylov, J. Bloino, G. Zheng, J. L. Sonnenberg, M. Hada, 
 M. Ehara, K. Toyota, R. Fukuda, J. Hasegawa, M. Ishida, T. Nakajima, 
 Y. Honda, O. Kitao, H. Nakai, T. Vreven, J. A. Montgomery, Jr., 
 J. E. Peralta, F. Ogliaro, M. Bearpark, J. J. Heyd, E. Brothers, 
 K. N. Kudin, V. N. Staroverov, T. Keith, R. Kobayashi, J. Normand, 
 K. Raghavachari, A. Rendell, J. C. Burant, S. S. Iyengar, J. Tomasi, 
 M. Cossi, N. Rega, J. M. Millam, M. Klene, J. E. Knox, J. B. Cross, 
 V. Bakken, C. Adamo, J. Jaramillo, R. Gomperts, R. E. Stratmann, 
 O. Yazyev, A. J. Austin, R. Cammi, C. Pomelli, J. W. Ochterski, 
 R. L. Martin, K. Morokuma, V. G. Zakrzewski, G. A. Voth, 
 P. Salvador, J. J. Dannenberg, S. Dapprich, A. D. Daniels, 
 O. Farkas, J. B. Foresman, J. V. Ortiz, J. Cioslowski, 
 and D. J. Fox, Gaussian, Inc., Wallingford CT, 2013.
 
 ******************************************
 Gaussian 09:  ES64L-G09RevD.01 24-Apr-2013
                27-Jan-2020 
 ******************************************
 -----------------------------
 # b3lyp 6-31G(2df,p) opt Freq
 -----------------------------
 1/14=-1,18=20,19=15,26=3,38=1/1,3;
 2/9=110,12=2,17=6,18=5,40=1/2;
 3/5=1,6=6,7=104,11=2,16=1,25=1,30=1,71=1,74=-5/1,2,3;
 4//1;
 5/5=2,38=5/2;
 6/7=2,8=2,9=2,10=2,28=1/1;
 7//1,2,3,16;
 1/14=-1,18=20,19=15,26=3/3(2);
 2/9=110/2;
 99//99;
 2/9=110/2;
 3/5=1,6=6,7=104,11=2,16=1,25=1,30=1,71=1,74=-5/1,2,3;
 4/5=5,16=3,69=1/1;
 5/5=2,38=5/2;
 7//1,2,3,16;
 1/14=-1,18=20,19=15,26=3/3(-5);
 2/9=110/2;
 6/7=2,8=2,9=2,10=2,19=2,28=1/1;
 99/9=1/99;
 -----
 titel
 -----
 Symbolic Z-matrix:
 Charge =  0 Multiplicity = 1
 C                     1.55467   0.05149  -0.92147 
 C                     0.11938  -0.08974  -0.4955 
 C                    -0.78747   0.88008  -0.64683 
 C                    -2.19786   0.77937  -0.13646 
 O                    -2.36649  -0.24767   0.81982 
 C                    -1.81023  -1.46889   0.37998 
 C                    -0.31322  -1.36209   0.15476 
 C                     0.45762  -2.61215   0.0417 
 O                     0.52564  -1.83648   1.23429 
 H                     2.2238   -0.21313  -0.09577 
 H                     1.79821  -0.60984  -1.76201 
 H                     1.77259   1.07722  -1.22805 
 H                    -0.51883   1.80882  -1.14525 
 H                    -2.48571   1.71082   0.3639 
 H                    -2.90064   0.64148  -0.98107 
 H                    -2.01067  -2.21028   1.15747 
 H                    -2.29487  -1.79777  -0.55654 
 H                    -0.0669   -3.56456   0.13021 
 H                     1.36806  -2.64755  -0.55305 
 

 GradGradGradGradGradGradGradGradGradGradGradGradGradGradGradGradGradGrad
 Berny optimization.
 Initialization pass.
                           ----------------------------
                           !    Initial Parameters    !
                           ! (Angstroms and Degrees)  !
 --------------------------                            --------------------------
 ! Name  Definition              Value          Derivative Info.                !
 --------------------------------------------------------------------------------
 ! R1    R(1,2)                  1.5038         estimate D2E/DX2                !
 ! R2    R(1,10)                 1.0952         estimate D2E/DX2                !
 ! R3    R(1,11)                 1.0969         estimate D2E/DX2                !
 ! R4    R(1,12)                 1.0925         estimate D2E/DX2                !
 ! R5    R(2,3)                  1.3363         estimate D2E/DX2                !
 ! R6    R(2,7)                  1.4929         estimate D2E/DX2                !
 ! R7    R(3,4)                  1.5033         estimate D2E/DX2                !
 ! R8    R(3,13)                 1.0877         estimate D2E/DX2                !
 ! R9    R(4,5)                  1.4134         estimate D2E/DX2                !
 ! R10   R(4,14)                 1.0958         estimate D2E/DX2                !
 ! R11   R(4,15)                 1.1074         estimate D2E/DX2                !
 ! R12   R(5,6)                  1.4122         estimate D2E/DX2                !
 ! R13   R(6,7)                  1.5176         estimate D2E/DX2                !
 ! R14   R(6,16)                 1.0929         estimate D2E/DX2                !
 ! R15   R(6,17)                 1.1046         estimate D2E/DX2                !
 ! R16   R(7,8)                  1.473          estimate D2E/DX2                !
 ! R17   R(7,9)                  1.4471         estimate D2E/DX2                !
 ! R18   R(8,9)                  1.4243         estimate D2E/DX2                !
 ! R19   R(8,18)                 1.0909         estimate D2E/DX2                !
 ! R20   R(8,19)                 1.0881         estimate D2E/DX2                !
 ! A1    A(2,1,10)             110.2961         estimate D2E/DX2                !
 ! A2    A(2,1,11)             111.8602         estimate D2E/DX2                !
 ! A3    A(2,1,12)             110.9798         estimate D2E/DX2                !
 ! A4    A(10,1,11)            107.2406         estimate D2E/DX2                !
 ! A5    A(10,1,12)            108.4534         estimate D2E/DX2                !
 ! A6    A(11,1,12)            107.8628         estimate D2E/DX2                !
 ! A7    A(1,2,3)              123.1922         estimate D2E/DX2                !
 ! A8    A(1,2,7)              118.6837         estimate D2E/DX2                !
 ! A9    A(3,2,7)              118.1113         estimate D2E/DX2                !
 ! A10   A(2,3,4)              123.3404         estimate D2E/DX2                !
 ! A11   A(2,3,13)             120.2609         estimate D2E/DX2                !
 ! A12   A(4,3,13)             116.3906         estimate D2E/DX2                !
 ! A13   A(3,4,5)              112.9746         estimate D2E/DX2                !
 ! A14   A(3,4,14)             110.1532         estimate D2E/DX2                !
 ! A15   A(3,4,15)             110.1709         estimate D2E/DX2                !
 ! A16   A(5,4,14)             106.1036         estimate D2E/DX2                !
 ! A17   A(5,4,15)             110.4776         estimate D2E/DX2                !
 ! A18   A(14,4,15)            106.7016         estimate D2E/DX2                !
 ! A19   A(4,5,6)              111.7561         estimate D2E/DX2                !
 ! A20   A(5,6,7)              111.9573         estimate D2E/DX2                !
 ! A21   A(5,6,16)             107.0277         estimate D2E/DX2                !
 ! A22   A(5,6,17)             110.4094         estimate D2E/DX2                !
 ! A23   A(7,6,16)             109.5263         estimate D2E/DX2                !
 ! A24   A(7,6,17)             109.1428         estimate D2E/DX2                !
 ! A25   A(16,6,17)            108.7068         estimate D2E/DX2                !
 ! A26   A(2,7,6)              114.2324         estimate D2E/DX2                !
 ! A27   A(2,7,8)              122.5617         estimate D2E/DX2                !
 ! A28   A(2,7,9)              115.8708         estimate D2E/DX2                !
 ! A29   A(6,7,8)              117.8969         estimate D2E/DX2                !
 ! A30   A(6,7,9)              115.978          estimate D2E/DX2                !
 ! A31   A(7,8,18)             118.8873         estimate D2E/DX2                !
 ! A32   A(7,8,19)             120.4948         estimate D2E/DX2                !
 ! A33   A(9,8,18)             115.4986         estimate D2E/DX2                !
 ! A34   A(9,8,19)             115.8138         estimate D2E/DX2                !
 ! A35   A(18,8,19)            114.7259         estimate D2E/DX2                !
 ! D1    D(10,1,2,3)           128.2034         estimate D2E/DX2                !
 ! D2    D(10,1,2,7)           -50.4671         estimate D2E/DX2                !
 ! D3    D(11,1,2,3)          -112.5308         estimate D2E/DX2                !
 ! D4    D(11,1,2,7)            68.7987         estimate D2E/DX2                !
 ! D5    D(12,1,2,3)             7.9872         estimate D2E/DX2                !
 ! D6    D(12,1,2,7)          -170.6833         estimate D2E/DX2                !
 ! D7    D(1,2,3,4)           -175.5872         estimate D2E/DX2                !
 ! D8    D(1,2,3,13)             3.3343         estimate D2E/DX2                !
 ! D9    D(7,2,3,4)              3.0905         estimate D2E/DX2                !
 ! D10   D(7,2,3,13)          -177.988          estimate D2E/DX2                !
 ! D11   D(1,2,7,6)           -172.4881         estimate D2E/DX2                !
 ! D12   D(1,2,7,8)            -18.8236         estimate D2E/DX2                !
 ! D13   D(1,2,7,9)             48.737          estimate D2E/DX2                !
 ! D14   D(3,2,7,6)              8.7733         estimate D2E/DX2                !
 ! D15   D(3,2,7,8)            162.4377         estimate D2E/DX2                !
 ! D16   D(3,2,7,9)           -130.0017         estimate D2E/DX2                !
 ! D17   D(2,3,4,5)             16.4902         estimate D2E/DX2                !
 ! D18   D(2,3,4,14)           134.948          estimate D2E/DX2                !
 ! D19   D(2,3,4,15)          -107.6035         estimate D2E/DX2                !
 ! D20   D(13,3,4,5)          -162.4699         estimate D2E/DX2                !
 ! D21   D(13,3,4,14)          -44.0121         estimate D2E/DX2                !
 ! D22   D(13,3,4,15)           73.4363         estimate D2E/DX2                !
 ! D23   D(3,4,5,6)            -48.9065         estimate D2E/DX2                !
 ! D24   D(14,4,5,6)          -169.6966         estimate D2E/DX2                !
 ! D25   D(15,4,5,6)            75.0189         estimate D2E/DX2                !
 ! D26   D(4,5,6,7)             61.7417         estimate D2E/DX2                !
 ! D27   D(4,5,6,16)          -178.2335         estimate D2E/DX2                !
 ! D28   D(4,5,6,17)           -60.0789         estimate D2E/DX2                !
 ! D29   D(5,6,7,2)            -40.7528         estimate D2E/DX2                !
 ! D30   D(5,6,7,8)            164.2749         estimate D2E/DX2                !
 ! D31   D(5,6,7,9)             97.9764         estimate D2E/DX2                !
 ! D32   D(16,6,7,2)          -159.3063         estimate D2E/DX2                !
 ! D33   D(16,6,7,8)            45.7214         estimate D2E/DX2                !
 ! D34   D(16,6,7,9)           -20.5771         estimate D2E/DX2                !
 ! D35   D(17,6,7,2)            81.7915         estimate D2E/DX2                !
 ! D36   D(17,6,7,8)           -73.1808         estimate D2E/DX2                !
 ! D37   D(17,6,7,9)          -139.4793         estimate D2E/DX2                !
 ! D38   D(2,7,8,18)          -153.2083         estimate D2E/DX2                !
 ! D39   D(2,7,8,19)            -1.6454         estimate D2E/DX2                !
 ! D40   D(6,7,8,18)            -0.449          estimate D2E/DX2                !
 ! D41   D(6,7,8,19)           151.1139         estimate D2E/DX2                !
 --------------------------------------------------------------------------------
 Trust Radius=3.00D-01 FncErr=1.00D-07 GrdErr=1.00D-06
 Number of steps in this run=    106 maximum allowed number of steps=    114.
 GradGradGradGradGradGradGradGradGradGradGradGradGradGradGradGradGradGrad

                          Input orientation:                          
 ---------------------------------------------------------------------
 Center     Atomic      Atomic             Coordinates (Angstroms)
 Number     Number       Type             X           Y           Z
 ---------------------------------------------------------------------
      1          6           0        1.554667    0.051495   -0.921469
      2          6           0        0.119376   -0.089737   -0.495498
      3          6           0       -0.787471    0.880076   -0.646827
      4          6           0       -2.197856    0.779366   -0.136458
      5          8           0       -2.366490   -0.247667    0.819817
      6          6           0       -1.810232   -1.468885    0.379980
      7          6           0       -0.313217   -1.362085    0.154760
      8          6           0        0.457616   -2.612150    0.041695
      9          8           0        0.525635   -1.836481    1.234293
     10          1           0        2.223803   -0.213128   -0.095772
     11          1           0        1.798206   -0.609844   -1.762009
     12          1           0        1.772586    1.077216   -1.228046
     13          1           0       -0.518827    1.808822   -1.145251
     14          1           0       -2.485713    1.710819    0.363903
     15          1           0       -2.900641    0.641484   -0.981073
     16          1           0       -2.010674   -2.210277    1.157470
     17          1           0       -2.294873   -1.797768   -0.556545
     18          1           0       -0.066902   -3.564556    0.130213
     19          1           0        1.368063   -2.647549   -0.553049
 ---------------------------------------------------------------------
                    Distance matrix (angstroms):
                    1          2          3          4          5
     1  C    0.000000
     2  C    1.503815   0.000000
     3  C    2.499518   1.336342   0.000000
     4  C    3.902239   2.500763   1.503264   0.000000
     5  O    4.300820   2.816829   2.432314   1.413399   0.000000
     6  C    3.915083   2.528220   2.760070   2.339144   1.412181
     7  C    2.577881   1.492931   2.427909   2.867488   2.429024
     8  C    3.037468   2.601067   3.770934   4.311107   3.764549
     9  O    3.044778   2.491654   3.555635   4.017340   3.325735
    10  H    1.095237   2.145605   3.250620   4.531862   4.680843
    11  H    1.096898   2.166340   3.185783   4.532199   4.913419
    12  H    1.092512   2.152094   2.632598   4.128521   4.804270
    13  H    2.727207   2.105709   1.087734   2.212822   3.391828
    14  H    4.553044   3.281320   2.143766   1.095823   2.014383
    15  H    4.494598   3.144991   2.152704   1.107381   2.078247
    16  H    4.706300   3.430176   3.781798   3.263013   2.022981
    17  H    4.286245   2.957988   3.074289   2.612949   2.074202
    18  H    4.100164   3.535616   4.569219   4.845796   4.094559
    19  H    2.730456   2.846916   4.135125   4.963172   4.646621
                    6          7          8          9         10
     6  C    0.000000
     7  C    1.517624   0.000000
     8  C    2.562152   1.472965   0.000000
     9  O    2.514211   1.447107   1.424282   0.000000
    10  H    4.251671   2.796309   2.982218   2.699652   0.000000
    11  H    4.283327   2.949233   3.009944   3.478779   1.764898
    12  H    4.680273   3.494698   4.117379   4.013431   1.775001
    13  H    3.838935   3.433214   4.680520   4.476758   3.565349
    14  H    3.250700   3.769114   5.239757   4.733829   5.108074
    15  H    2.737721   3.463982   4.786447   4.773628   5.270109
    16  H    1.092854   2.146210   2.738413   2.564857   4.846650
    17  H    1.104590   2.150054   2.932116   3.341237   4.810596
    18  H    2.737411   2.216337   1.090886   2.134558   4.065768
    19  H    3.515871   2.231617   1.088067   2.135909   2.620649
                   11         12         13         14         15
    11  H    0.000000
    12  H    1.769730   0.000000
    13  H    3.405727   2.406798   0.000000
    14  H    5.315725   4.590083   2.481087   0.000000
    15  H    4.924921   4.699990   2.657568   1.767655   0.000000
    16  H    5.058884   5.550797   4.866342   4.028698   3.673956
    17  H    4.429176   5.025999   4.063053   3.632330   2.548946
    18  H    3.973595   5.174421   5.541140   5.808170   5.191898
    19  H    2.408080   3.806984   4.875479   5.889631   5.405809
                   16         17         18         19
    16  H    0.000000
    17  H    1.785716   0.000000
    18  H    2.582165   2.925240   0.000000
    19  H    3.812210   3.760218   1.834905   0.000000
 Stoichiometry    C7H10O2
 Framework group  C1[X(C7H10O2)]
 Deg. of freedom    51
 Full point group                 C1      NOp   1
 Largest Abelian subgroup         C1      NOp   1
 Largest concise Abelian subgroup C1      NOp   1
                         Standard orientation:                         
 ---------------------------------------------------------------------
 Center     Atomic      Atomic             Coordinates (Angstroms)
 Number     Number       Type             X           Y           Z
 ---------------------------------------------------------------------
      1          6           0       -1.399106    1.946753   -0.006550
      2          6           0       -0.249830    0.979308    0.061833
      3          6           0        1.030306    1.362791    0.060796
      4          6           0        2.182045    0.397136    0.032348
      5          8           0        1.800274   -0.905414   -0.361747
      6          6           0        0.669185   -1.357965    0.352459
      7          6           0       -0.545972   -0.483341    0.104241
      8          6           0       -1.866372   -1.014158    0.484245
      9          8           0       -1.483193   -0.966823   -0.886707
     10          1           0       -2.086955    1.663341   -0.810345
     11          1           0       -1.976852    1.961179    0.925752
     12          1           0       -1.044594    2.962473   -0.196856
     13          1           0        1.285797    2.420091    0.063489
     14          1           0        2.933164    0.726667   -0.694327
     15          1           0        2.683647    0.371889    1.019289
     16          1           0        0.462228   -2.375785    0.012545
     17          1           0        0.882370   -1.382785    1.435996
     18          1           0       -1.927495   -2.012106    0.920588
     19          1           0       -2.669495   -0.340223    0.775270
 ---------------------------------------------------------------------
 Rotational constants (GHZ):      2.4535056      1.7044462      1.1200340
 Standard basis: 6-31G(2df,p) (6D, 7F)
 There are   329 symmetry adapted cartesian basis functions of A   symmetry.
 There are   302 symmetry adapted basis functions of A   symmetry.
   302 basis functions,   466 primitive gaussians,   329 cartesian basis functions
    34 alpha electrons       34 beta electrons
       nuclear repulsion energy       467.8822391378 Hartrees.
 NAtoms=   19 NActive=   19 NUniq=   19 SFac= 1.00D+00 NAtFMM=   60 NAOKFM=F Big=F
 Integral buffers will be    131072 words long.
 Raffenetti 2 integral format.
 Two-electron integral symmetry is turned on.
 One-electron integrals computed using PRISM.
 NBasis=   302 RedAO= T EigKep=  4.43D-04  NBF=   302
 NBsUse=   302 1.00D-06 EigRej= -1.00D+00 NBFU=   302
 ExpMin= 1.61D-01 ExpMax= 5.48D+03 ExpMxC= 8.25D+02 IAcc=1 IRadAn=         1 AccDes= 0.00D+00
 Harris functional with IExCor=  402 and IRadAn=       1 diagonalized for initial guess.
 HarFok:  IExCor=  402 AccDes= 0.00D+00 IRadAn=         1 IDoV= 1 UseB2=F ITyADJ=14
 ICtDFT=  3500011 ScaDFX=  1.000000  1.000000  1.000000  1.000000
 FoFCou: FMM=F IPFlag=           0 FMFlag=      100000 FMFlg1=           0
         NFxFlg=           0 DoJE=T BraDBF=F KetDBF=T FulRan=T
         wScrn=  0.000000 ICntrl=     500 IOpCl=  0 I1Cent=   200000004 NGrid=           0
         NMat0=    1 NMatS0=      1 NMatT0=    0 NMatD0=    1 NMtDS0=    0 NMtDT0=    0
 Petite list used in FoFCou.
 Requested convergence on RMS density matrix=1.00D-08 within 128 cycles.
 Requested convergence on MAX density matrix=1.00D-06.
 Requested convergence on             energy=1.00D-06.
 No special actions if energy rises.
 Integral accuracy reduced to 1.0D-05 until final iterations.
 Initial convergence to 1.0D-05 achieved.  Increase integral accuracy.
 SCF Done:  E(RB3LYP) =  -423.171862726     A.U. after   14 cycles
            NFock= 14  Conv=0.33D-08     -V/T= 2.0074

 **********************************************************************

            Population analysis using the SCF density.

 **********************************************************************

 Orbital symmetries:
       Occupied  (A) (A) (A) (A) (A) (A) (A) (A) (A) (A) (A) (A)
                 (A) (A) (A) (A) (A) (A) (A) (A) (A) (A) (A) (A)
                 (A) (A) (A) (A) (A) (A) (A) (A) (A) (A)
       Virtual   (A) (A) (A) (A) (A) (A) (A) (A) (A) (A) (A) (A)
                 (A) (A) (A) (A) (A) (A) (A) (A) (A) (A) (A) (A)
                 (A) (A) (A) (A) (A) (A) (A) (A) (A) (A) (A) (A)
                 (A) (A) (A) (A) (A) (A) (A) (A) (A) (A) (A) (A)
                 (A) (A) (A) (A) (A) (A) (A) (A) (A) (A) (A) (A)
                 (A) (A) (A) (A) (A) (A) (A) (A) (A) (A) (A) (A)
                 (A) (A) (A) (A) (A) (A) (A) (A) (A) (A) (A) (A)
                 (A) (A) (A) (A) (A) (A) (A) (A) (A) (A) (A) (A)
                 (A) (A) (A) (A) (A) (A) (A) (A) (A) (A) (A) (A)
                 (A) (A) (A) (A) (A) (A) (A) (A) (A) (A) (A) (A)
                 (A) (A) (A) (A) (A) (A) (A) (A) (A) (A) (A) (A)
                 (A) (A) (A) (A) (A) (A) (A) (A) (A) (A) (A) (A)
                 (A) (A) (A) (A) (A) (A) (A) (A) (A) (A) (A) (A)
                 (A) (A) (A) (A) (A) (A) (A) (A) (A) (A) (A) (A)
                 (A) (A) (A) (A) (A) (A) (A) (A) (A) (A) (A) (A)
                 (A) (A) (A) (A) (A) (A) (A) (A) (A) (A) (A) (A)
                 (A) (A) (A) (A) (A) (A) (A) (A) (A) (A) (A) (A)
                 (A) (A) (A) (A) (A) (A) (A) (A) (A) (A) (A) (A)
                 (A) (A) (A) (A) (A) (A) (A) (A) (A) (A) (A) (A)
                 (A) (A) (A) (A) (A) (A) (A) (A) (A) (A) (A) (A)
                 (A) (A) (A) (A) (A) (A) (A) (A) (A) (A) (A) (A)
                 (A) (A) (A) (A) (A) (A) (A) (A) (A) (A) (A) (A)
                 (A) (A) (A) (A)
 The electronic state is 1-A.
 Alpha  occ. eigenvalues --  -19.15092 -19.14157 -10.24320 -10.23558 -10.23425
 Alpha  occ. eigenvalues --  -10.23113 -10.19603 -10.18584 -10.18335  -1.07093
 Alpha  occ. eigenvalues --   -1.03763  -0.81316  -0.75560  -0.71275  -0.66614
 Alpha  occ. eigenvalues --   -0.62672  -0.61868  -0.52350  -0.50748  -0.49432
 Alpha  occ. eigenvalues --   -0.47806  -0.45204  -0.42665  -0.41883  -0.41361
 Alpha  occ. eigenvalues --   -0.40224  -0.38521  -0.38093  -0.36011  -0.33110
 Alpha  occ. eigenvalues --   -0.29971  -0.28100  -0.25209  -0.23971
 Alpha virt. eigenvalues --    0.00719   0.09159   0.09461   0.11423   0.12040
 Alpha virt. eigenvalues --    0.12391   0.13903   0.14012   0.16061   0.16905
 Alpha virt. eigenvalues --    0.17556   0.18037   0.19197   0.21369   0.22542
 Alpha virt. eigenvalues --    0.24652   0.24990   0.27320   0.29386   0.34501
 Alpha virt. eigenvalues --    0.41287   0.41493   0.43693   0.44387   0.45142
 Alpha virt. eigenvalues --    0.47065   0.48942   0.49552   0.50679   0.51025
 Alpha virt. eigenvalues --    0.53384   0.57366   0.59394   0.60124   0.61171
 Alpha virt. eigenvalues --    0.63558   0.64783   0.67035   0.67545   0.69768
 Alpha virt. eigenvalues --    0.70218   0.71299   0.72163   0.73729   0.75087
 Alpha virt. eigenvalues --    0.76584   0.77138   0.78321   0.79673   0.80355
 Alpha virt. eigenvalues --    0.80680   0.81906   0.82514   0.85710   0.86694
 Alpha virt. eigenvalues --    0.89805   0.90286   0.94290   0.96279   0.97044
 Alpha virt. eigenvalues --    0.99999   1.02008   1.05059   1.09825   1.10545
 Alpha virt. eigenvalues --    1.10971   1.13623   1.15790   1.18475   1.22779
 Alpha virt. eigenvalues --    1.23940   1.26135   1.27525   1.31994   1.32215
 Alpha virt. eigenvalues --    1.33141   1.35978   1.38389   1.39886   1.41856
 Alpha virt. eigenvalues --    1.42243   1.43668   1.45501   1.46007   1.49935
 Alpha virt. eigenvalues --    1.51094   1.53627   1.56097   1.57018   1.59648
 Alpha virt. eigenvalues --    1.60296   1.61370   1.62964   1.65754   1.68397
 Alpha virt. eigenvalues --    1.71436   1.74317   1.78661   1.79318   1.79926
 Alpha virt. eigenvalues --    1.83845   1.87084   1.91170   1.91876   1.95268
 Alpha virt. eigenvalues --    1.96276   1.98165   2.02330   2.02712   2.05414
 Alpha virt. eigenvalues --    2.11030   2.13935   2.20399   2.23685   2.24040
 Alpha virt. eigenvalues --    2.27715   2.30827   2.33909   2.37879   2.41917
 Alpha virt. eigenvalues --    2.44086   2.45696   2.48832   2.52267   2.54819
 Alpha virt. eigenvalues --    2.59410   2.60648   2.65003   2.67870   2.71130
 Alpha virt. eigenvalues --    2.74319   2.76806   2.78562   2.81300   2.82271
 Alpha virt. eigenvalues --    2.85022   2.86154   2.87412   2.88661   2.91155
 Alpha virt. eigenvalues --    2.92230   2.95126   2.97819   2.98990   2.99250
 Alpha virt. eigenvalues --    3.01650   3.06243   3.06586   3.12458   3.15578
 Alpha virt. eigenvalues --    3.18656   3.20708   3.21409   3.23693   3.24817
 Alpha virt. eigenvalues --    3.25993   3.29172   3.31813   3.33378   3.34713
 Alpha virt. eigenvalues --    3.38416   3.39676   3.41216   3.43085   3.44191
 Alpha virt. eigenvalues --    3.48306   3.49941   3.52445   3.54665   3.59721
 Alpha virt. eigenvalues --    3.61031   3.61294   3.64700   3.68596   3.69220
 Alpha virt. eigenvalues --    3.72662   3.76892   3.78990   3.83277   3.88289
 Alpha virt. eigenvalues --    3.89034   3.92311   3.93765   4.01726   4.04461
 Alpha virt. eigenvalues --    4.07343   4.16204   4.19548   4.20858   4.22084
 Alpha virt. eigenvalues --    4.27968   4.30339   4.31311   4.32483   4.35400
 Alpha virt. eigenvalues --    4.36332   4.38485   4.41142   4.43011   4.44599
 Alpha virt. eigenvalues --    4.45697   4.47686   4.49766   4.53483   4.54854
 Alpha virt. eigenvalues --    4.55868   4.57629   4.60187   4.61393   4.63521
 Alpha virt. eigenvalues --    4.65202   4.66470   4.68109   4.69989   4.71822
 Alpha virt. eigenvalues --    4.72571   4.77151   4.78174   4.78719   4.79449
 Alpha virt. eigenvalues --    4.80472   4.83995   4.84321   4.86440   4.89028
 Alpha virt. eigenvalues --    4.91968   4.96976   4.97960   5.05569   5.09192
 Alpha virt. eigenvalues --    5.13314   5.16811   5.21470   5.25982   5.28973
 Alpha virt. eigenvalues --    5.34306   5.40726   5.42958   5.46459   5.50456
 Alpha virt. eigenvalues --    5.57894   5.59095   5.68560   5.70076   5.79518
 Alpha virt. eigenvalues --    5.81548   5.89072   5.92098   5.93864   6.02473
 Alpha virt. eigenvalues --    6.02877   6.05994   6.10833   6.16471   6.23389
 Alpha virt. eigenvalues --    6.26407   6.60951   6.99156   7.14182  10.07580
 Alpha virt. eigenvalues --   10.89806  11.36200  11.51672  11.79649  12.00473
 Alpha virt. eigenvalues --   12.53259  13.30300  13.40629
          Condensed to atoms (all electrons):
               1          2          3          4          5          6
     1  C    5.197195   0.377730  -0.080415   0.007395  -0.000202   0.007863
     2  C    0.377730   4.427110   0.629366   0.020993  -0.014958  -0.023340
     3  C   -0.080415   0.629366   5.082912   0.325060  -0.039312  -0.040647
     4  C    0.007395   0.020993   0.325060   4.849135   0.400477  -0.091056
     5  O   -0.000202  -0.014958  -0.039312   0.400477   7.632679   0.391918
     6  C    0.007863  -0.023340  -0.040647  -0.091056   0.391918   4.969508
     7  C   -0.053956   0.453209   0.025348  -0.038969  -0.035303   0.350390
     8  C   -0.019843  -0.031806   0.009189   0.000159   0.002557  -0.053887
     9  O   -0.003638  -0.022115   0.000077   0.000323  -0.000854  -0.017948
    10  H    0.361355  -0.018318   0.001251  -0.000152   0.000005   0.000216
    11  H    0.355123  -0.016708  -0.000022  -0.000168   0.000001  -0.000229
    12  H    0.368049  -0.018823  -0.004132   0.000088   0.000003  -0.000160
    13  H   -0.016968  -0.016581   0.339687  -0.049718   0.002318  -0.000114
    14  H   -0.000154  -0.003916  -0.022567   0.361339  -0.015732   0.005559
    15  H   -0.000273  -0.007971  -0.043815   0.347135  -0.032866  -0.005687
    16  H   -0.000181   0.002959   0.000978   0.004283  -0.012671   0.333662
    17  H   -0.000276  -0.005012  -0.002322  -0.003206  -0.036388   0.339739
    18  H    0.000086   0.003166  -0.000035   0.000023   0.000143  -0.005206
    19  H    0.005409  -0.011275  -0.000195  -0.000026  -0.000049   0.002717
               7          8          9         10         11         12
     1  C   -0.053956  -0.019843  -0.003638   0.361355   0.355123   0.368049
     2  C    0.453209  -0.031806  -0.022115  -0.018318  -0.016708  -0.018823
     3  C    0.025348   0.009189   0.000077   0.001251  -0.000022  -0.004132
     4  C   -0.038969   0.000159   0.000323  -0.000152  -0.000168   0.000088
     5  O   -0.035303   0.002557  -0.000854   0.000005   0.000001   0.000003
     6  C    0.350390  -0.053887  -0.017948   0.000216  -0.000229  -0.000160
     7  C    4.587641   0.231638   0.190856  -0.005602  -0.001885   0.001499
     8  C    0.231638   5.110563   0.285287   0.000311   0.002985   0.000156
     9  O    0.190856   0.285287   7.877755   0.011060  -0.000368   0.000034
    10  H   -0.005602   0.000311   0.011060   0.568754  -0.036232  -0.028413
    11  H   -0.001885   0.002985  -0.000368  -0.036232   0.600450  -0.029695
    12  H    0.001499   0.000156   0.000034  -0.028413  -0.029695   0.582944
    13  H    0.005890  -0.000115  -0.000083  -0.000061   0.000295   0.006384
    14  H    0.001024  -0.000010   0.000020   0.000014  -0.000004  -0.000011
    15  H    0.000874   0.000188  -0.000020  -0.000005   0.000030  -0.000002
    16  H   -0.008574  -0.001082   0.001154  -0.000001  -0.000003   0.000003
    17  H   -0.046141   0.002664   0.003325  -0.000016   0.000019   0.000002
    18  H    0.001036   0.353549  -0.023573   0.000187   0.000004  -0.000002
    19  H    0.013626   0.348180  -0.027071  -0.001395   0.002298  -0.000184
              13         14         15         16         17         18
     1  C   -0.016968  -0.000154  -0.000273  -0.000181  -0.000276   0.000086
     2  C   -0.016581  -0.003916  -0.007971   0.002959  -0.005012   0.003166
     3  C    0.339687  -0.022567  -0.043815   0.000978  -0.002322  -0.000035
     4  C   -0.049718   0.361339   0.347135   0.004283  -0.003206   0.000023
     5  O    0.002318  -0.015732  -0.032866  -0.012671  -0.036388   0.000143
     6  C   -0.000114   0.005559  -0.005687   0.333662   0.339739  -0.005206
     7  C    0.005890   0.001024   0.000874  -0.008574  -0.046141   0.001036
     8  C   -0.000115  -0.000010   0.000188  -0.001082   0.002664   0.353549
     9  O   -0.000083   0.000020  -0.000020   0.001154   0.003325  -0.023573
    10  H   -0.000061   0.000014  -0.000005  -0.000001  -0.000016   0.000187
    11  H    0.000295  -0.000004   0.000030  -0.000003   0.000019   0.000004
    12  H    0.006384  -0.000011  -0.000002   0.000003   0.000002  -0.000002
    13  H    0.635029  -0.001271   0.004604   0.000027   0.000075   0.000001
    14  H   -0.001271   0.602775  -0.047895  -0.000232  -0.000192   0.000000
    15  H    0.004604  -0.047895   0.677629  -0.000152   0.012124  -0.000003
    16  H    0.000027  -0.000232  -0.000152   0.596881  -0.037834   0.001157
    17  H    0.000075  -0.000192   0.012124  -0.037834   0.684563   0.000076
    18  H    0.000001   0.000000  -0.000003   0.001157   0.000076   0.615680
    19  H   -0.000004   0.000000   0.000000  -0.000004   0.000261  -0.057724
              19
     1  C    0.005409
     2  C   -0.011275
     3  C   -0.000195
     4  C   -0.000026
     5  O   -0.000049
     6  C    0.002717
     7  C    0.013626
     8  C    0.348180
     9  O   -0.027071
    10  H   -0.001395
    11  H    0.002298
    12  H   -0.000184
    13  H   -0.000004
    14  H    0.000000
    15  H    0.000000
    16  H   -0.000004
    17  H    0.000261
    18  H   -0.057724
    19  H    0.612322
 Mulliken charges:
               1
     1  C   -0.504299
     2  C    0.276291
     3  C   -0.180406
     4  C   -0.133117
     5  O   -0.241763
     6  C   -0.163299
     7  C    0.327399
     8  C   -0.240682
     9  O   -0.274222
    10  H    0.147041
    11  H    0.124112
    12  H    0.122261
    13  H    0.090606
    14  H    0.121253
    15  H    0.096104
    16  H    0.119631
    17  H    0.088542
    18  H    0.111434
    19  H    0.113113
 Sum of Mulliken charges =   0.00000
 Mulliken charges with hydrogens summed into heavy atoms:
               1
     1  C   -0.110885
     2  C    0.276291
     3  C   -0.089800
     4  C    0.084241
     5  O   -0.241763
     6  C    0.044874
     7  C    0.327399
     8  C   -0.016135
     9  O   -0.274222
 Electronic spatial extent (au):  <R**2>=           1109.3542
 Charge=              0.0000 electrons
 Dipole moment (field-independent basis, Debye):
    X=             -0.2197    Y=              1.2295    Z=              2.2695  Tot=              2.5905
 Quadrupole moment (field-independent basis, Debye-Ang):
   XX=            -52.1371   YY=            -50.7231   ZZ=            -55.4603
   XY=              2.2178   XZ=             -1.8013   YZ=             -3.1268
 Traceless Quadrupole moment (field-independent basis, Debye-Ang):
   XX=              0.6364   YY=              2.0504   ZZ=             -2.6868
   XY=              2.2178   XZ=             -1.8013   YZ=             -3.1268
 Octapole moment (field-independent basis, Debye-Ang**2):
  XXX=             -0.4335  YYY=             -7.8806  ZZZ=             -3.5626  XYY=             -0.7014
  XXY=              6.6512  XXZ=              4.7549  XZZ=              1.9441  YZZ=             -2.0007
  YYZ=              0.8202  XYZ=              1.1279
 Hexadecapole moment (field-independent basis, Debye-Ang**3):
 XXXX=           -740.7961 YYYY=           -527.4789 ZZZZ=           -122.2731 XXXY=             17.7028
 XXXZ=             -7.9230 YYYX=              8.0727 YYYZ=             -0.7537 ZZZX=              0.5652
 ZZZY=              2.2023 XXYY=           -222.7365 XXZZ=           -146.0157 YYZZ=           -116.6749
 XXYZ=             -7.6617 YYXZ=             -2.9260 ZZXY=             -2.7698
 N-N= 4.678822391378D+02 E-N=-1.922376821119D+03  KE= 4.200464338305D+02
 Calling FoFJK, ICntrl=      2127 FMM=F ISym2X=0 I1Cent= 0 IOpClX= 0 NMat=1 NMatS=1 NMatT=0.
 ***** Axes restored to original set *****
 -------------------------------------------------------------------
 Center     Atomic                   Forces (Hartrees/Bohr)
 Number     Number              X              Y              Z
 -------------------------------------------------------------------
      1        6          -0.000001005    0.000005713    0.000001508
      2        6          -0.000015559   -0.000021171    0.000010038
      3        6           0.000007900    0.000002007    0.000001309
      4        6          -0.000008355   -0.000018187   -0.000001738
      5        8           0.000012696   -0.000025444   -0.000025109
      6        6          -0.000008196    0.000034122    0.000036410
      7        6           0.000020804    0.000037917   -0.000033344
      8        6           0.000007750   -0.000013562    0.000003070
      9        8           0.000000416    0.000003764    0.000015698
     10        1          -0.000004321    0.000006329    0.000007719
     11        1           0.000001990    0.000003557    0.000002190
     12        1          -0.000002699    0.000003853    0.000000043
     13        1          -0.000014221   -0.000000460   -0.000001376
     14        1          -0.000005865    0.000000135    0.000001752
     15        1          -0.000005605   -0.000006785   -0.000003102
     16        1          -0.000001844   -0.000008867    0.000001569
     17        1           0.000007276   -0.000008988   -0.000013136
     18        1           0.000004135    0.000003281   -0.000002988
     19        1           0.000004703    0.000002784   -0.000000513
 -------------------------------------------------------------------
 Cartesian Forces:  Max     0.000037917 RMS     0.000013072

 GradGradGradGradGradGradGradGradGradGradGradGradGradGradGradGradGradGrad
 Berny optimization.
 FormGI is forming the generalized inverse of G from B-inverse, IUseBI=4.
 Internal  Forces:  Max     0.000034037 RMS     0.000006309
 Search for a local minimum.
 Step number   1 out of a maximum of  106
 All quantities printed in internal units (Hartrees-Bohrs-Radians)
 Mixed Optimization -- En-DIIS/RFO-DIIS
 Second derivative matrix not updated -- first step.
 ITU=  0
     Eigenvalues ---    0.00715   0.00770   0.01139   0.01485   0.01606
     Eigenvalues ---    0.02140   0.02505   0.03349   0.04502   0.04855
     Eigenvalues ---    0.05528   0.06292   0.07125   0.07270   0.07528
     Eigenvalues ---    0.11333   0.11624   0.11937   0.12065   0.15997
     Eigenvalues ---    0.16000   0.16000   0.16000   0.16000   0.16000
     Eigenvalues ---    0.16933   0.18141   0.18849   0.21262   0.22236
     Eigenvalues ---    0.24992   0.26115   0.29796   0.31496   0.31980
     Eigenvalues ---    0.32432   0.32879   0.33180   0.34027   0.34148
     Eigenvalues ---    0.34214   0.34485   0.34524   0.34710   0.35037
     Eigenvalues ---    0.35076   0.35689   0.39246   0.41485   0.41829
     Eigenvalues ---    0.56071
 RFO step:  Lambda=-1.97250361D-08 EMin= 7.15482716D-03
 Linear search not attempted -- first point.
 Iteration  1 RMS(Cart)=  0.00012619 RMS(Int)=  0.00000001
 Iteration  2 RMS(Cart)=  0.00000001 RMS(Int)=  0.00000000
 Variable       Old X    -DE/DX   Delta X   Delta X   Delta X     New X
                                 (Linear)    (Quad)   (Total)
    R1        2.84180   0.00000   0.00000  -0.00001  -0.00001   2.84179
    R2        2.06970   0.00000   0.00000   0.00001   0.00001   2.06970
    R3        2.07284   0.00000   0.00000   0.00000   0.00000   2.07284
    R4        2.06455   0.00000   0.00000   0.00000   0.00000   2.06455
    R5        2.52532   0.00000   0.00000   0.00001   0.00001   2.52533
    R6        2.82123  -0.00003   0.00000  -0.00008  -0.00008   2.82115
    R7        2.84076   0.00000   0.00000   0.00001   0.00001   2.84076
    R8        2.05552   0.00000   0.00000  -0.00001  -0.00001   2.05551
    R9        2.67094  -0.00001   0.00000  -0.00003  -0.00003   2.67091
   R10        2.07080   0.00001   0.00000   0.00002   0.00002   2.07082
   R11        2.09265   0.00000   0.00000   0.00001   0.00001   2.09265
   R12        2.66863  -0.00003   0.00000  -0.00008  -0.00008   2.66855
   R13        2.86789   0.00000   0.00000   0.00001   0.00001   2.86790
   R14        2.06520   0.00001   0.00000   0.00002   0.00002   2.06521
   R15        2.08737   0.00001   0.00000   0.00003   0.00003   2.08740
   R16        2.78350   0.00001   0.00000   0.00002   0.00002   2.78352
   R17        2.73464   0.00001   0.00000   0.00002   0.00002   2.73465
   R18        2.69150   0.00001   0.00000   0.00003   0.00003   2.69153
   R19        2.06148   0.00000   0.00000   0.00000   0.00000   2.06147
   R20        2.05615   0.00000   0.00000   0.00000   0.00000   2.05615
    A1        1.92503  -0.00001   0.00000  -0.00006  -0.00006   1.92497
    A2        1.95233   0.00000   0.00000   0.00001   0.00001   1.95234
    A3        1.93696   0.00000   0.00000   0.00003   0.00003   1.93699
    A4        1.87170   0.00000   0.00000   0.00001   0.00001   1.87171
    A5        1.89287   0.00000   0.00000   0.00001   0.00001   1.89288
    A6        1.88256   0.00000   0.00000   0.00001   0.00001   1.88257
    A7        2.15011   0.00001   0.00000   0.00003   0.00003   2.15014
    A8        2.07142  -0.00001   0.00000  -0.00004  -0.00004   2.07138
    A9        2.06143   0.00000   0.00000   0.00001   0.00001   2.06144
   A10        2.15270   0.00000   0.00000  -0.00001  -0.00001   2.15269
   A11        2.09895   0.00001   0.00000   0.00006   0.00006   2.09901
   A12        2.03140  -0.00001   0.00000  -0.00005  -0.00005   2.03135
   A13        1.97178   0.00000   0.00000  -0.00001  -0.00001   1.97176
   A14        1.92254   0.00000   0.00000  -0.00003  -0.00003   1.92251
   A15        1.92284   0.00000   0.00000   0.00004   0.00004   1.92289
   A16        1.85186   0.00000   0.00000  -0.00002  -0.00002   1.85183
   A17        1.92820   0.00000   0.00000   0.00001   0.00001   1.92821
   A18        1.86229   0.00000   0.00000   0.00001   0.00001   1.86230
   A19        1.95051   0.00000   0.00000   0.00001   0.00001   1.95053
   A20        1.95402   0.00001   0.00000   0.00004   0.00004   1.95407
   A21        1.86799   0.00000   0.00000   0.00003   0.00003   1.86801
   A22        1.92701   0.00000   0.00000   0.00000   0.00000   1.92701
   A23        1.91160   0.00000   0.00000   0.00005   0.00005   1.91164
   A24        1.90490  -0.00001   0.00000  -0.00011  -0.00011   1.90479
   A25        1.89729   0.00000   0.00000  -0.00001  -0.00001   1.89728
   A26        1.99373   0.00000   0.00000   0.00001   0.00001   1.99374
   A27        2.13911   0.00001   0.00000   0.00004   0.00004   2.13915
   A28        2.02233   0.00000   0.00000   0.00004   0.00004   2.02237
   A29        2.05769  -0.00001   0.00000  -0.00005  -0.00005   2.05763
   A30        2.02420  -0.00001   0.00000  -0.00004  -0.00004   2.02416
   A31        2.07498  -0.00001   0.00000  -0.00006  -0.00006   2.07492
   A32        2.10303   0.00000   0.00000  -0.00001  -0.00001   2.10302
   A33        2.01583   0.00000   0.00000   0.00005   0.00005   2.01588
   A34        2.02133   0.00000   0.00000   0.00004   0.00004   2.02138
   A35        2.00234   0.00000   0.00000   0.00000   0.00000   2.00234
    D1        2.23757   0.00000   0.00000  -0.00019  -0.00019   2.23739
    D2       -0.88082   0.00000   0.00000  -0.00013  -0.00013  -0.88095
    D3       -1.96403   0.00000   0.00000  -0.00021  -0.00021  -1.96424
    D4        1.20076   0.00000   0.00000  -0.00015  -0.00015   1.20061
    D5        0.13940   0.00000   0.00000  -0.00018  -0.00018   0.13922
    D6       -2.97899   0.00000   0.00000  -0.00012  -0.00012  -2.97911
    D7       -3.06458   0.00000   0.00000   0.00008   0.00008  -3.06449
    D8        0.05819   0.00000   0.00000   0.00010   0.00010   0.05829
    D9        0.05394   0.00000   0.00000   0.00003   0.00003   0.05396
   D10       -3.10648   0.00000   0.00000   0.00004   0.00004  -3.10643
   D11       -3.01048   0.00000   0.00000  -0.00016  -0.00016  -3.01065
   D12       -0.32853  -0.00001   0.00000  -0.00019  -0.00019  -0.32872
   D13        0.85062   0.00000   0.00000  -0.00016  -0.00016   0.85047
   D14        0.15312   0.00000   0.00000  -0.00011  -0.00011   0.15301
   D15        2.83507  -0.00001   0.00000  -0.00014  -0.00014   2.83494
   D16       -2.26896   0.00000   0.00000  -0.00010  -0.00010  -2.26906
   D17        0.28781   0.00000   0.00000   0.00003   0.00003   0.28784
   D18        2.35529   0.00000   0.00000  -0.00003  -0.00003   2.35526
   D19       -1.87804   0.00000   0.00000  -0.00001  -0.00001  -1.87804
   D20       -2.83564   0.00000   0.00000   0.00001   0.00001  -2.83562
   D21       -0.76816   0.00000   0.00000  -0.00004  -0.00004  -0.76820
   D22        1.28171   0.00000   0.00000  -0.00002  -0.00002   1.28168
   D23       -0.85358   0.00000   0.00000  -0.00001  -0.00001  -0.85359
   D24       -2.96177   0.00000   0.00000   0.00004   0.00004  -2.96172
   D25        1.30933   0.00000   0.00000   0.00004   0.00004   1.30937
   D26        1.07760   0.00000   0.00000  -0.00005  -0.00005   1.07754
   D27       -3.11076   0.00000   0.00000   0.00005   0.00005  -3.11071
   D28       -1.04858   0.00001   0.00000   0.00006   0.00006  -1.04851
   D29       -0.71127   0.00000   0.00000   0.00011   0.00011  -0.71116
   D30        2.86714   0.00000   0.00000   0.00012   0.00012   2.86725
   D31        1.71001   0.00000   0.00000   0.00014   0.00014   1.71015
   D32       -2.78042   0.00000   0.00000   0.00002   0.00002  -2.78040
   D33        0.79799   0.00000   0.00000   0.00002   0.00002   0.79801
   D34       -0.35914   0.00000   0.00000   0.00005   0.00005  -0.35909
   D35        1.42753   0.00000   0.00000   0.00007   0.00007   1.42760
   D36       -1.27725   0.00000   0.00000   0.00007   0.00007  -1.27718
   D37       -2.43437   0.00000   0.00000   0.00009   0.00009  -2.43428
   D38       -2.67399   0.00000   0.00000   0.00012   0.00012  -2.67387
   D39       -0.02872   0.00000   0.00000  -0.00002  -0.00002  -0.02874
   D40       -0.00784   0.00000   0.00000   0.00011   0.00011  -0.00773
   D41        2.63743   0.00000   0.00000  -0.00004  -0.00004   2.63740
         Item               Value     Threshold  Converged?
 Maximum Force            0.000034     0.000450     YES
 RMS     Force            0.000006     0.000300     YES
 Maximum Displacement     0.000426     0.001800     YES
 RMS     Displacement     0.000126     0.001200     YES
 Predicted change in Energy=-9.862535D-09
 Optimization completed.
    -- Stationary point found.
                           ----------------------------
                           !   Optimized Parameters   !
                           ! (Angstroms and Degrees)  !
 --------------------------                            --------------------------
 ! Name  Definition              Value          Derivative Info.                !
 --------------------------------------------------------------------------------
 ! R1    R(1,2)                  1.5038         -DE/DX =    0.0                 !
 ! R2    R(1,10)                 1.0952         -DE/DX =    0.0                 !
 ! R3    R(1,11)                 1.0969         -DE/DX =    0.0                 !
 ! R4    R(1,12)                 1.0925         -DE/DX =    0.0                 !
 ! R5    R(2,3)                  1.3363         -DE/DX =    0.0                 !
 ! R6    R(2,7)                  1.4929         -DE/DX =    0.0                 !
 ! R7    R(3,4)                  1.5033         -DE/DX =    0.0                 !
 ! R8    R(3,13)                 1.0877         -DE/DX =    0.0                 !
 ! R9    R(4,5)                  1.4134         -DE/DX =    0.0                 !
 ! R10   R(4,14)                 1.0958         -DE/DX =    0.0                 !
 ! R11   R(4,15)                 1.1074         -DE/DX =    0.0                 !
 ! R12   R(5,6)                  1.4122         -DE/DX =    0.0                 !
 ! R13   R(6,7)                  1.5176         -DE/DX =    0.0                 !
 ! R14   R(6,16)                 1.0929         -DE/DX =    0.0                 !
 ! R15   R(6,17)                 1.1046         -DE/DX =    0.0                 !
 ! R16   R(7,8)                  1.473          -DE/DX =    0.0                 !
 ! R17   R(7,9)                  1.4471         -DE/DX =    0.0                 !
 ! R18   R(8,9)                  1.4243         -DE/DX =    0.0                 !
 ! R19   R(8,18)                 1.0909         -DE/DX =    0.0                 !
 ! R20   R(8,19)                 1.0881         -DE/DX =    0.0                 !
 ! A1    A(2,1,10)             110.2961         -DE/DX =    0.0                 !
 ! A2    A(2,1,11)             111.8602         -DE/DX =    0.0                 !
 ! A3    A(2,1,12)             110.9798         -DE/DX =    0.0                 !
 ! A4    A(10,1,11)            107.2406         -DE/DX =    0.0                 !
 ! A5    A(10,1,12)            108.4534         -DE/DX =    0.0                 !
 ! A6    A(11,1,12)            107.8628         -DE/DX =    0.0                 !
 ! A7    A(1,2,3)              123.1922         -DE/DX =    0.0                 !
 ! A8    A(1,2,7)              118.6837         -DE/DX =    0.0                 !
 ! A9    A(3,2,7)              118.1113         -DE/DX =    0.0                 !
 ! A10   A(2,3,4)              123.3404         -DE/DX =    0.0                 !
 ! A11   A(2,3,13)             120.2609         -DE/DX =    0.0                 !
 ! A12   A(4,3,13)             116.3906         -DE/DX =    0.0                 !
 ! A13   A(3,4,5)              112.9746         -DE/DX =    0.0                 !
 ! A14   A(3,4,14)             110.1532         -DE/DX =    0.0                 !
 ! A15   A(3,4,15)             110.1709         -DE/DX =    0.0                 !
 ! A16   A(5,4,14)             106.1036         -DE/DX =    0.0                 !
 ! A17   A(5,4,15)             110.4776         -DE/DX =    0.0                 !
 ! A18   A(14,4,15)            106.7016         -DE/DX =    0.0                 !
 ! A19   A(4,5,6)              111.7561         -DE/DX =    0.0                 !
 ! A20   A(5,6,7)              111.9573         -DE/DX =    0.0                 !
 ! A21   A(5,6,16)             107.0277         -DE/DX =    0.0                 !
 ! A22   A(5,6,17)             110.4094         -DE/DX =    0.0                 !
 ! A23   A(7,6,16)             109.5263         -DE/DX =    0.0                 !
 ! A24   A(7,6,17)             109.1428         -DE/DX =    0.0                 !
 ! A25   A(16,6,17)            108.7068         -DE/DX =    0.0                 !
 ! A26   A(2,7,6)              114.2324         -DE/DX =    0.0                 !
 ! A27   A(2,7,8)              122.5617         -DE/DX =    0.0                 !
 ! A28   A(2,7,9)              115.8708         -DE/DX =    0.0                 !
 ! A29   A(6,7,8)              117.8969         -DE/DX =    0.0                 !
 ! A30   A(6,7,9)              115.978          -DE/DX =    0.0                 !
 ! A31   A(7,8,18)             118.8873         -DE/DX =    0.0                 !
 ! A32   A(7,8,19)             120.4948         -DE/DX =    0.0                 !
 ! A33   A(9,8,18)             115.4986         -DE/DX =    0.0                 !
 ! A34   A(9,8,19)             115.8138         -DE/DX =    0.0                 !
 ! A35   A(18,8,19)            114.7259         -DE/DX =    0.0                 !
 ! D1    D(10,1,2,3)           128.2034         -DE/DX =    0.0                 !
 ! D2    D(10,1,2,7)           -50.4671         -DE/DX =    0.0                 !
 ! D3    D(11,1,2,3)          -112.5308         -DE/DX =    0.0                 !
 ! D4    D(11,1,2,7)            68.7987         -DE/DX =    0.0                 !
 ! D5    D(12,1,2,3)             7.9872         -DE/DX =    0.0                 !
 ! D6    D(12,1,2,7)          -170.6833         -DE/DX =    0.0                 !
 ! D7    D(1,2,3,4)           -175.5872         -DE/DX =    0.0                 !
 ! D8    D(1,2,3,13)             3.3343         -DE/DX =    0.0                 !
 ! D9    D(7,2,3,4)              3.0905         -DE/DX =    0.0                 !
 ! D10   D(7,2,3,13)          -177.988          -DE/DX =    0.0                 !
 ! D11   D(1,2,7,6)           -172.4881         -DE/DX =    0.0                 !
 ! D12   D(1,2,7,8)            -18.8236         -DE/DX =    0.0                 !
 ! D13   D(1,2,7,9)             48.737          -DE/DX =    0.0                 !
 ! D14   D(3,2,7,6)              8.7733         -DE/DX =    0.0                 !
 ! D15   D(3,2,7,8)            162.4377         -DE/DX =    0.0                 !
 ! D16   D(3,2,7,9)           -130.0017         -DE/DX =    0.0                 !
 ! D17   D(2,3,4,5)             16.4902         -DE/DX =    0.0                 !
 ! D18   D(2,3,4,14)           134.948          -DE/DX =    0.0                 !
 ! D19   D(2,3,4,15)          -107.6035         -DE/DX =    0.0                 !
 ! D20   D(13,3,4,5)          -162.4699         -DE/DX =    0.0                 !
 ! D21   D(13,3,4,14)          -44.0121         -DE/DX =    0.0                 !
 ! D22   D(13,3,4,15)           73.4363         -DE/DX =    0.0                 !
 ! D23   D(3,4,5,6)            -48.9065         -DE/DX =    0.0                 !
 ! D24   D(14,4,5,6)          -169.6966         -DE/DX =    0.0                 !
 ! D25   D(15,4,5,6)            75.0189         -DE/DX =    0.0                 !
 ! D26   D(4,5,6,7)             61.7417         -DE/DX =    0.0                 !
 ! D27   D(4,5,6,16)          -178.2335         -DE/DX =    0.0                 !
 ! D28   D(4,5,6,17)           -60.0789         -DE/DX =    0.0                 !
 ! D29   D(5,6,7,2)            -40.7528         -DE/DX =    0.0                 !
 ! D30   D(5,6,7,8)            164.2749         -DE/DX =    0.0                 !
 ! D31   D(5,6,7,9)             97.9764         -DE/DX =    0.0                 !
 ! D32   D(16,6,7,2)          -159.3063         -DE/DX =    0.0                 !
 ! D33   D(16,6,7,8)            45.7214         -DE/DX =    0.0                 !
 ! D34   D(16,6,7,9)           -20.5771         -DE/DX =    0.0                 !
 ! D35   D(17,6,7,2)            81.7915         -DE/DX =    0.0                 !
 ! D36   D(17,6,7,8)           -73.1808         -DE/DX =    0.0                 !
 ! D37   D(17,6,7,9)          -139.4793         -DE/DX =    0.0                 !
 ! D38   D(2,7,8,18)          -153.2083         -DE/DX =    0.0                 !
 ! D39   D(2,7,8,19)            -1.6454         -DE/DX =    0.0                 !
 ! D40   D(6,7,8,18)            -0.449          -DE/DX =    0.0                 !
 ! D41   D(6,7,8,19)           151.1139         -DE/DX =    0.0                 !
 --------------------------------------------------------------------------------
 GradGradGradGradGradGradGradGradGradGradGradGradGradGradGradGradGradGrad

                          Input orientation:                          
 ---------------------------------------------------------------------
 Center     Atomic      Atomic             Coordinates (Angstroms)
 Number     Number       Type             X           Y           Z
 ---------------------------------------------------------------------
      1          6           0        1.554667    0.051495   -0.921469
      2          6           0        0.119376   -0.089737   -0.495498
      3          6           0       -0.787471    0.880076   -0.646827
      4          6           0       -2.197856    0.779366   -0.136458
      5          8           0       -2.366490   -0.247667    0.819817
      6          6           0       -1.810232   -1.468885    0.379980
      7          6           0       -0.313217   -1.362085    0.154760
      8          6           0        0.457616   -2.612150    0.041695
      9          8           0        0.525635   -1.836481    1.234293
     10          1           0        2.223803   -0.213128   -0.095772
     11          1           0        1.798206   -0.609844   -1.762009
     12          1           0        1.772586    1.077216   -1.228046
     13          1           0       -0.518827    1.808822   -1.145251
     14          1           0       -2.485713    1.710819    0.363903
     15          1           0       -2.900641    0.641484   -0.981073
     16          1           0       -2.010674   -2.210277    1.157470
     17          1           0       -2.294873   -1.797768   -0.556545
     18          1           0       -0.066902   -3.564556    0.130213
     19          1           0        1.368063   -2.647549   -0.553049
 ---------------------------------------------------------------------
                    Distance matrix (angstroms):
                    1          2          3          4          5
     1  C    0.000000
     2  C    1.503815   0.000000
     3  C    2.499518   1.336342   0.000000
     4  C    3.902239   2.500763   1.503264   0.000000
     5  O    4.300820   2.816829   2.432314   1.413399   0.000000
     6  C    3.915083   2.528220   2.760070   2.339144   1.412181
     7  C    2.577881   1.492931   2.427909   2.867488   2.429024
     8  C    3.037468   2.601067   3.770934   4.311107   3.764549
     9  O    3.044778   2.491654   3.555635   4.017340   3.325735
    10  H    1.095237   2.145605   3.250620   4.531862   4.680843
    11  H    1.096898   2.166340   3.185783   4.532199   4.913419
    12  H    1.092512   2.152094   2.632598   4.128521   4.804270
    13  H    2.727207   2.105709   1.087734   2.212822   3.391828
    14  H    4.553044   3.281320   2.143766   1.095823   2.014383
    15  H    4.494598   3.144991   2.152704   1.107381   2.078247
    16  H    4.706300   3.430176   3.781798   3.263013   2.022981
    17  H    4.286245   2.957988   3.074289   2.612949   2.074202
    18  H    4.100164   3.535616   4.569219   4.845796   4.094559
    19  H    2.730456   2.846916   4.135125   4.963172   4.646621
                    6          7          8          9         10
     6  C    0.000000
     7  C    1.517624   0.000000
     8  C    2.562152   1.472965   0.000000
     9  O    2.514211   1.447107   1.424282   0.000000
    10  H    4.251671   2.796309   2.982218   2.699652   0.000000
    11  H    4.283327   2.949233   3.009944   3.478779   1.764898
    12  H    4.680273   3.494698   4.117379   4.013431   1.775001
    13  H    3.838935   3.433214   4.680520   4.476758   3.565349
    14  H    3.250700   3.769114   5.239757   4.733829   5.108074
    15  H    2.737721   3.463982   4.786447   4.773628   5.270109
    16  H    1.092854   2.146210   2.738413   2.564857   4.846650
    17  H    1.104590   2.150054   2.932116   3.341237   4.810596
    18  H    2.737411   2.216337   1.090886   2.134558   4.065768
    19  H    3.515871   2.231617   1.088067   2.135909   2.620649
                   11         12         13         14         15
    11  H    0.000000
    12  H    1.769730   0.000000
    13  H    3.405727   2.406798   0.000000
    14  H    5.315725   4.590083   2.481087   0.000000
    15  H    4.924921   4.699990   2.657568   1.767655   0.000000
    16  H    5.058884   5.550797   4.866342   4.028698   3.673956
    17  H    4.429176   5.025999   4.063053   3.632330   2.548946
    18  H    3.973595   5.174421   5.541140   5.808170   5.191898
    19  H    2.408080   3.806984   4.875479   5.889631   5.405809
                   16         17         18         19
    16  H    0.000000
    17  H    1.785716   0.000000
    18  H    2.582165   2.925240   0.000000
    19  H    3.812210   3.760218   1.834905   0.000000
 Stoichiometry    C7H10O2
 Framework group  C1[X(C7H10O2)]
 Deg. of freedom    51
 Full point group                 C1      NOp   1
 Largest Abelian subgroup         C1      NOp   1
 Largest concise Abelian subgroup C1      NOp   1
                         Standard orientation:                         
 ---------------------------------------------------------------------
 Center     Atomic      Atomic             Coordinates (Angstroms)
 Number     Number       Type             X           Y           Z
 ---------------------------------------------------------------------
      1          6           0       -1.399106    1.946753   -0.006550
      2          6           0       -0.249830    0.979308    0.061833
      3          6           0        1.030306    1.362791    0.060796
      4          6           0        2.182045    0.397136    0.032348
      5          8           0        1.800274   -0.905414   -0.361747
      6          6           0        0.669185   -1.357965    0.352459
      7          6           0       -0.545972   -0.483341    0.104241
      8          6           0       -1.866372   -1.014158    0.484245
      9          8           0       -1.483193   -0.966823   -0.886707
     10          1           0       -2.086955    1.663341   -0.810345
     11          1           0       -1.976852    1.961179    0.925752
     12          1           0       -1.044594    2.962473   -0.196856
     13          1           0        1.285797    2.420091    0.063489
     14          1           0        2.933164    0.726667   -0.694327
     15          1           0        2.683647    0.371889    1.019289
     16          1           0        0.462228   -2.375785    0.012545
     17          1           0        0.882370   -1.382785    1.435996
     18          1           0       -1.927495   -2.012106    0.920588
     19          1           0       -2.669495   -0.340223    0.775270
 ---------------------------------------------------------------------
 Rotational constants (GHZ):      2.4535056      1.7044462      1.1200340
 1\1\GINC-ALCHEMY-BE\FOpt\RB3LYP\6-31G(2df,p)\C7H10O2\PUCK\27-Jan-2020\
 0\\# b3lyp 6-31G(2df,p) opt Freq\\titel\\0,1\C,1.5546673472,0.05149458
 48,-0.9214694738\C,0.119375861,-0.0897371462,-0.4954983387\C,-0.787471
 2612,0.8800758106,-0.6468267291\C,-2.1978559163,0.779366284,-0.1364579
 692\O,-2.3664903701,-0.2476669293,0.8198170355\C,-1.8102319769,-1.4688
 852871,0.3799796117\C,-0.3132173346,-1.3620853936,0.1547596413\C,0.457
 6155669,-2.6121495185,0.0416954225\O,0.5256354702,-1.836480757,1.23429
 33355\H,2.2238033443,-0.2131277325,-0.0957718688\H,1.7982055223,-0.609
 8435007,-1.7620092366\H,1.7725857513,1.0772160443,-1.2280455171\H,-0.5
 188273161,1.8088219445,-1.1452511293\H,-2.4857128938,1.7108189231,0.36
 39034014\H,-2.9006411533,0.6414840612,-0.9810727727\H,-2.0106737794,-2
 .2102769983,1.1574703361\H,-2.2948728487,-1.7977675842,-0.5565449398\H
 ,-0.0669021668,-3.564555982,0.1302132035\H,1.3680629941,-2.647548653,-
 0.5530491524\\Version=ES64L-G09RevD.01\State=1-A\HF=-423.1718627\RMSD=
 3.283e-09\RMSF=1.307e-05\Dipole=0.0539605,-0.0320274,-1.0172497\Quadru
 pole=-0.802638,3.9285651,-3.1259271,0.0956818,-0.4842197,0.1305467\PG=
 C01 [X(C7H10O2)]\\@


 A ROPE OVER THE TOP OF A FENCE HAS THE SAME LENGTH ON EACH SIDE.
 WEIGHS 1/3 POUND PER FOOT.  ON ONE END HANGS A MONKEY HOLDING A
 BANANA, AND ON THE OTHER END A WEIGHT EQUAL TO THE WEIGHT
 OF THE MONKEY.  THE BANANA WEIGHS TWO OUNCES PER INCH.
 THE ROPE IS AS LONG AS THE AGE OF THE MONKEY, 
 AND THE WEIGHT OF THE MONKEY (IN OUNCES) IS AS MUCH
 AS THE AGE OF THE MONKEY'S MOTHER.  THE COMBINED AGES OF MONKEY
 AND MOTHER ARE THIRTY YEARS.  HALF THE WEIGHT OF THE MONKEY,
  PLUS THE WEIGHT OF THE BANANA, IS ONE FOURTH AS MUCH AS THE WEIGHT
 OF THE WEIGHT AND THE ROPE.
 THE MONKEY'S MOTHER IS HALF AS OLD AS THE MONKEY WILL BE
 WHEN IT IS 3 TIMES AS OLD AS ITS MOTHER WAS WHEN
 SHE WAS HALF AS OLD AS THE MONKEY WILL BE WHEN IT IS
 AS OLD AS ITS MOTHER WILL BE WHEN SHE IS 4 TIMES AS
 OLD AS THE MONKEY WAS WHEN IT WAS TWICE AS OLD AS 
 ITS MOTHER WAS WHEN SHE WAS ONE THIRD AS OLD AS THE
 MONKEY WAS WHEN IT WAS AS OLD AS ITS MOTHER WAS WHEN 
 SHE WAS 3 TIMES AS OLD AS THE MONKEY WAS WHEN IT WAS AS OLD AS ITS
 MOTHER WAS WHEN SHE WAS 3 TIMES AS OLD AS THE MONKEY 
 WAS WHEN IT WAS ONE FOURTH WAS OLD AS IT IS NOW.

 HOW LONG IS THE BANANA?
 Job cpu time:       0 days  0 hours  6 minutes 46.2 seconds.
 File lengths (MBytes):  RWF=     52 Int=      0 D2E=      0 Chk=      7 Scr=      1
 Normal termination of Gaussian 09 at Mon Jan 27 22:03:37 2020.
 Link1:  Proceeding to internal job step number  2.
 ----------------------------------------------------------------------
 #N Geom=AllCheck Guess=TCheck SCRF=Check GenChk RB3LYP/6-31G(2df,p) Fr
 eq
 ----------------------------------------------------------------------
 1/10=4,29=7,30=1,38=1,40=1/1,3;
 2/12=2,40=1/2;
 3/5=1,6=6,7=104,11=2,14=-4,16=1,25=1,30=1,70=2,71=2,74=-5,116=1,140=1/1,2,3;
 4/5=101/1;
 5/5=2,98=1/2;
 8/6=4,10=90,11=11/1;
 11/6=1,8=1,9=11,15=111,16=1/1,2,10;
 10/6=1/2;
 6/7=2,8=2,9=2,10=2,18=1,28=1/1;
 7/8=1,10=1,25=1/1,2,3,16;
 1/10=4,30=1/3;
 99//99;
 Structure from the checkpoint file:  "/scratch/puck/g09_03bcaed0-14af-4c21-af5f-a0f40c3ef285/Gau-181014.chk"
 -----
 titel
 -----
 Charge =  0 Multiplicity = 1
 Redundant internal coordinates found in file.
 C,0,1.5546673472,0.0514945848,-0.9214694738
 C,0,0.119375861,-0.0897371462,-0.4954983387
 C,0,-0.7874712612,0.8800758106,-0.6468267291
 C,0,-2.1978559163,0.779366284,-0.1364579692
 O,0,-2.3664903701,-0.2476669293,0.8198170355
 C,0,-1.8102319769,-1.4688852871,0.3799796117
 C,0,-0.3132173346,-1.3620853936,0.1547596413
 C,0,0.4576155669,-2.6121495185,0.0416954225
 O,0,0.5256354702,-1.836480757,1.2342933355
 H,0,2.2238033443,-0.2131277325,-0.0957718688
 H,0,1.7982055223,-0.6098435007,-1.7620092366
 H,0,1.7725857513,1.0772160443,-1.2280455171
 H,0,-0.5188273161,1.8088219445,-1.1452511293
 H,0,-2.4857128938,1.7108189231,0.3639034014
 H,0,-2.9006411533,0.6414840612,-0.9810727727
 H,0,-2.0106737794,-2.2102769983,1.1574703361
 H,0,-2.2948728487,-1.7977675842,-0.5565449398
 H,0,-0.0669021668,-3.564555982,0.1302132035
 H,0,1.3680629941,-2.647548653,-0.5530491524
 Recover connectivity data from disk.

 GradGradGradGradGradGradGradGradGradGradGradGradGradGradGradGradGradGrad
 Berny optimization.
 Initialization pass.
                           ----------------------------
                           !    Initial Parameters    !
                           ! (Angstroms and Degrees)  !
 --------------------------                            --------------------------
 ! Name  Definition              Value          Derivative Info.                !
 --------------------------------------------------------------------------------
 ! R1    R(1,2)                  1.5038         calculate D2E/DX2 analytically  !
 ! R2    R(1,10)                 1.0952         calculate D2E/DX2 analytically  !
 ! R3    R(1,11)                 1.0969         calculate D2E/DX2 analytically  !
 ! R4    R(1,12)                 1.0925         calculate D2E/DX2 analytically  !
 ! R5    R(2,3)                  1.3363         calculate D2E/DX2 analytically  !
 ! R6    R(2,7)                  1.4929         calculate D2E/DX2 analytically  !
 ! R7    R(3,4)                  1.5033         calculate D2E/DX2 analytically  !
 ! R8    R(3,13)                 1.0877         calculate D2E/DX2 analytically  !
 ! R9    R(4,5)                  1.4134         calculate D2E/DX2 analytically  !
 ! R10   R(4,14)                 1.0958         calculate D2E/DX2 analytically  !
 ! R11   R(4,15)                 1.1074         calculate D2E/DX2 analytically  !
 ! R12   R(5,6)                  1.4122         calculate D2E/DX2 analytically  !
 ! R13   R(6,7)                  1.5176         calculate D2E/DX2 analytically  !
 ! R14   R(6,16)                 1.0929         calculate D2E/DX2 analytically  !
 ! R15   R(6,17)                 1.1046         calculate D2E/DX2 analytically  !
 ! R16   R(7,8)                  1.473          calculate D2E/DX2 analytically  !
 ! R17   R(7,9)                  1.4471         calculate D2E/DX2 analytically  !
 ! R18   R(8,9)                  1.4243         calculate D2E/DX2 analytically  !
 ! R19   R(8,18)                 1.0909         calculate D2E/DX2 analytically  !
 ! R20   R(8,19)                 1.0881         calculate D2E/DX2 analytically  !
 ! A1    A(2,1,10)             110.2961         calculate D2E/DX2 analytically  !
 ! A2    A(2,1,11)             111.8602         calculate D2E/DX2 analytically  !
 ! A3    A(2,1,12)             110.9798         calculate D2E/DX2 analytically  !
 ! A4    A(10,1,11)            107.2406         calculate D2E/DX2 analytically  !
 ! A5    A(10,1,12)            108.4534         calculate D2E/DX2 analytically  !
 ! A6    A(11,1,12)            107.8628         calculate D2E/DX2 analytically  !
 ! A7    A(1,2,3)              123.1922         calculate D2E/DX2 analytically  !
 ! A8    A(1,2,7)              118.6837         calculate D2E/DX2 analytically  !
 ! A9    A(3,2,7)              118.1113         calculate D2E/DX2 analytically  !
 ! A10   A(2,3,4)              123.3404         calculate D2E/DX2 analytically  !
 ! A11   A(2,3,13)             120.2609         calculate D2E/DX2 analytically  !
 ! A12   A(4,3,13)             116.3906         calculate D2E/DX2 analytically  !
 ! A13   A(3,4,5)              112.9746         calculate D2E/DX2 analytically  !
 ! A14   A(3,4,14)             110.1532         calculate D2E/DX2 analytically  !
 ! A15   A(3,4,15)             110.1709         calculate D2E/DX2 analytically  !
 ! A16   A(5,4,14)             106.1036         calculate D2E/DX2 analytically  !
 ! A17   A(5,4,15)             110.4776         calculate D2E/DX2 analytically  !
 ! A18   A(14,4,15)            106.7016         calculate D2E/DX2 analytically  !
 ! A19   A(4,5,6)              111.7561         calculate D2E/DX2 analytically  !
 ! A20   A(5,6,7)              111.9573         calculate D2E/DX2 analytically  !
 ! A21   A(5,6,16)             107.0277         calculate D2E/DX2 analytically  !
 ! A22   A(5,6,17)             110.4094         calculate D2E/DX2 analytically  !
 ! A23   A(7,6,16)             109.5263         calculate D2E/DX2 analytically  !
 ! A24   A(7,6,17)             109.1428         calculate D2E/DX2 analytically  !
 ! A25   A(16,6,17)            108.7068         calculate D2E/DX2 analytically  !
 ! A26   A(2,7,6)              114.2324         calculate D2E/DX2 analytically  !
 ! A27   A(2,7,8)              122.5617         calculate D2E/DX2 analytically  !
 ! A28   A(2,7,9)              115.8708         calculate D2E/DX2 analytically  !
 ! A29   A(6,7,8)              117.8969         calculate D2E/DX2 analytically  !
 ! A30   A(6,7,9)              115.978          calculate D2E/DX2 analytically  !
 ! A31   A(7,8,18)             118.8873         calculate D2E/DX2 analytically  !
 ! A32   A(7,8,19)             120.4948         calculate D2E/DX2 analytically  !
 ! A33   A(9,8,18)             115.4986         calculate D2E/DX2 analytically  !
 ! A34   A(9,8,19)             115.8138         calculate D2E/DX2 analytically  !
 ! A35   A(18,8,19)            114.7259         calculate D2E/DX2 analytically  !
 ! D1    D(10,1,2,3)           128.2034         calculate D2E/DX2 analytically  !
 ! D2    D(10,1,2,7)           -50.4671         calculate D2E/DX2 analytically  !
 ! D3    D(11,1,2,3)          -112.5308         calculate D2E/DX2 analytically  !
 ! D4    D(11,1,2,7)            68.7987         calculate D2E/DX2 analytically  !
 ! D5    D(12,1,2,3)             7.9872         calculate D2E/DX2 analytically  !
 ! D6    D(12,1,2,7)          -170.6833         calculate D2E/DX2 analytically  !
 ! D7    D(1,2,3,4)           -175.5872         calculate D2E/DX2 analytically  !
 ! D8    D(1,2,3,13)             3.3343         calculate D2E/DX2 analytically  !
 ! D9    D(7,2,3,4)              3.0905         calculate D2E/DX2 analytically  !
 ! D10   D(7,2,3,13)          -177.988          calculate D2E/DX2 analytically  !
 ! D11   D(1,2,7,6)           -172.4881         calculate D2E/DX2 analytically  !
 ! D12   D(1,2,7,8)            -18.8236         calculate D2E/DX2 analytically  !
 ! D13   D(1,2,7,9)             48.737          calculate D2E/DX2 analytically  !
 ! D14   D(3,2,7,6)              8.7733         calculate D2E/DX2 analytically  !
 ! D15   D(3,2,7,8)            162.4377         calculate D2E/DX2 analytically  !
 ! D16   D(3,2,7,9)           -130.0017         calculate D2E/DX2 analytically  !
 ! D17   D(2,3,4,5)             16.4902         calculate D2E/DX2 analytically  !
 ! D18   D(2,3,4,14)           134.948          calculate D2E/DX2 analytically  !
 ! D19   D(2,3,4,15)          -107.6035         calculate D2E/DX2 analytically  !
 ! D20   D(13,3,4,5)          -162.4699         calculate D2E/DX2 analytically  !
 ! D21   D(13,3,4,14)          -44.0121         calculate D2E/DX2 analytically  !
 ! D22   D(13,3,4,15)           73.4363         calculate D2E/DX2 analytically  !
 ! D23   D(3,4,5,6)            -48.9065         calculate D2E/DX2 analytically  !
 ! D24   D(14,4,5,6)          -169.6966         calculate D2E/DX2 analytically  !
 ! D25   D(15,4,5,6)            75.0189         calculate D2E/DX2 analytically  !
 ! D26   D(4,5,6,7)             61.7417         calculate D2E/DX2 analytically  !
 ! D27   D(4,5,6,16)          -178.2335         calculate D2E/DX2 analytically  !
 ! D28   D(4,5,6,17)           -60.0789         calculate D2E/DX2 analytically  !
 ! D29   D(5,6,7,2)            -40.7528         calculate D2E/DX2 analytically  !
 ! D30   D(5,6,7,8)            164.2749         calculate D2E/DX2 analytically  !
 ! D31   D(5,6,7,9)             97.9764         calculate D2E/DX2 analytically  !
 ! D32   D(16,6,7,2)          -159.3063         calculate D2E/DX2 analytically  !
 ! D33   D(16,6,7,8)            45.7214         calculate D2E/DX2 analytically  !
 ! D34   D(16,6,7,9)           -20.5771         calculate D2E/DX2 analytically  !
 ! D35   D(17,6,7,2)            81.7915         calculate D2E/DX2 analytically  !
 ! D36   D(17,6,7,8)           -73.1808         calculate D2E/DX2 analytically  !
 ! D37   D(17,6,7,9)          -139.4793         calculate D2E/DX2 analytically  !
 ! D38   D(2,7,8,18)          -153.2083         calculate D2E/DX2 analytically  !
 ! D39   D(2,7,8,19)            -1.6454         calculate D2E/DX2 analytically  !
 ! D40   D(6,7,8,18)            -0.449          calculate D2E/DX2 analytically  !
 ! D41   D(6,7,8,19)           151.1139         calculate D2E/DX2 analytically  !
 --------------------------------------------------------------------------------
 Trust Radius=3.00D-01 FncErr=1.00D-07 GrdErr=1.00D-07
 Number of steps in this run=      2 maximum allowed number of steps=      2.
 GradGradGradGradGradGradGradGradGradGradGradGradGradGradGradGradGradGrad

                          Input orientation:                          
 ---------------------------------------------------------------------
 Center     Atomic      Atomic             Coordinates (Angstroms)
 Number     Number       Type             X           Y           Z
 ---------------------------------------------------------------------
      1          6           0        1.554667    0.051495   -0.921469
      2          6           0        0.119376   -0.089737   -0.495498
      3          6           0       -0.787471    0.880076   -0.646827
      4          6           0       -2.197856    0.779366   -0.136458
      5          8           0       -2.366490   -0.247667    0.819817
      6          6           0       -1.810232   -1.468885    0.379980
      7          6           0       -0.313217   -1.362085    0.154760
      8          6           0        0.457616   -2.612150    0.041695
      9          8           0        0.525635   -1.836481    1.234293
     10          1           0        2.223803   -0.213128   -0.095772
     11          1           0        1.798206   -0.609844   -1.762009
     12          1           0        1.772586    1.077216   -1.228046
     13          1           0       -0.518827    1.808822   -1.145251
     14          1           0       -2.485713    1.710819    0.363903
     15          1           0       -2.900641    0.641484   -0.981073
     16          1           0       -2.010674   -2.210277    1.157470
     17          1           0       -2.294873   -1.797768   -0.556545
     18          1           0       -0.066902   -3.564556    0.130213
     19          1           0        1.368063   -2.647549   -0.553049
 ---------------------------------------------------------------------
                    Distance matrix (angstroms):
                    1          2          3          4          5
     1  C    0.000000
     2  C    1.503815   0.000000
     3  C    2.499518   1.336342   0.000000
     4  C    3.902239   2.500763   1.503264   0.000000
     5  O    4.300820   2.816829   2.432314   1.413399   0.000000
     6  C    3.915083   2.528220   2.760070   2.339144   1.412181
     7  C    2.577881   1.492931   2.427909   2.867488   2.429024
     8  C    3.037468   2.601067   3.770934   4.311107   3.764549
     9  O    3.044778   2.491654   3.555635   4.017340   3.325735
    10  H    1.095237   2.145605   3.250620   4.531862   4.680843
    11  H    1.096898   2.166340   3.185783   4.532199   4.913419
    12  H    1.092512   2.152094   2.632598   4.128521   4.804270
    13  H    2.727207   2.105709   1.087734   2.212822   3.391828
    14  H    4.553044   3.281320   2.143766   1.095823   2.014383
    15  H    4.494598   3.144991   2.152704   1.107381   2.078247
    16  H    4.706300   3.430176   3.781798   3.263013   2.022981
    17  H    4.286245   2.957988   3.074289   2.612949   2.074202
    18  H    4.100164   3.535616   4.569219   4.845796   4.094559
    19  H    2.730456   2.846916   4.135125   4.963172   4.646621
                    6          7          8          9         10
     6  C    0.000000
     7  C    1.517624   0.000000
     8  C    2.562152   1.472965   0.000000
     9  O    2.514211   1.447107   1.424282   0.000000
    10  H    4.251671   2.796309   2.982218   2.699652   0.000000
    11  H    4.283327   2.949233   3.009944   3.478779   1.764898
    12  H    4.680273   3.494698   4.117379   4.013431   1.775001
    13  H    3.838935   3.433214   4.680520   4.476758   3.565349
    14  H    3.250700   3.769114   5.239757   4.733829   5.108074
    15  H    2.737721   3.463982   4.786447   4.773628   5.270109
    16  H    1.092854   2.146210   2.738413   2.564857   4.846650
    17  H    1.104590   2.150054   2.932116   3.341237   4.810596
    18  H    2.737411   2.216337   1.090886   2.134558   4.065768
    19  H    3.515871   2.231617   1.088067   2.135909   2.620649
                   11         12         13         14         15
    11  H    0.000000
    12  H    1.769730   0.000000
    13  H    3.405727   2.406798   0.000000
    14  H    5.315725   4.590083   2.481087   0.000000
    15  H    4.924921   4.699990   2.657568   1.767655   0.000000
    16  H    5.058884   5.550797   4.866342   4.028698   3.673956
    17  H    4.429176   5.025999   4.063053   3.632330   2.548946
[...]
 22044,-0.19731569,0.25567397,0.00293555,0.00205056,0.00305879,-0.02777
 161,0.00687470,0.00541240,-0.19034137,0.00377032,0.03363492,0.49241860
 ,0.00311415,-0.00253808,0.00716914,0.02410250,0.00879523,-0.00807992,-
 0.00396717,-0.09113780,0.00594577,-0.04108048,0.56212496,0.00125403,0.
 00603488,0.01105124,-0.00039945,-0.00341052,0.00515814,0.04496943,0.00
 390320,-0.08713048,0.01128837,0.05966844,0.49986616,-0.00024330,-0.000
 50229,-0.00117212,0.00652295,0.00037061,-0.00209898,-0.00439683,-0.030
 15685,0.02904622,-0.07183863,0.00552029,0.01459484,0.16448279,-0.00072
 893,0.00218355,-0.00075885,0.00294423,-0.00518571,0.00138814,-0.007870
 94,-0.01142150,0.01486972,-0.01115153,-0.14681342,0.07992253,-0.076101
 95,0.44781831,0.00030832,-0.00070895,-0.00002705,-0.00401357,0.0002776
 6,0.00182613,0.00616645,0.02261985,-0.01486832,0.02988129,0.04845470,-
 0.15341912,-0.07555556,-0.05453789,0.29154820,0.00120175,0.00144608,0.
 00028266,-0.00938188,-0.00842368,0.00738823,0.00045965,-0.00242168,0.0
 0040614,0.00149844,0.00447046,-0.00900719,-0.08913235,0.05549271,0.026
 26924,0.46644584,0.00054783,-0.00630039,0.00187419,-0.03029002,0.00083
 774,0.00408076,-0.00182404,0.00247852,-0.00295582,0.00956771,-0.056233
 35,0.00275616,0.04093258,-0.17771572,-0.02107824,0.03645177,0.53541109
 ,0.00008809,0.00301923,0.00013639,0.01657860,0.00214132,-0.00050811,0.
 00034609,0.00094111,-0.00063947,-0.01360452,0.02427466,0.00840337,0.03
 486086,-0.05389734,-0.10637195,0.01416667,-0.07611443,0.59401909,-0.00
 779146,-0.02898399,0.01353391,-0.10816924,-0.04242012,0.02950307,0.012
 26985,0.02093248,-0.01158413,-0.00106100,0.00127531,-0.00193047,-0.017
 65558,0.01334696,0.00835841,-0.18341915,-0.02052013,0.02516319,0.55151
 128,-0.00817655,-0.00329942,0.00226499,-0.04159022,-0.16489707,0.03810
 186,0.00569414,-0.03037619,0.01623508,0.00016795,0.00458561,-0.0069736
 2,0.04244579,-0.01532250,-0.01013126,-0.02880743,-0.07831162,0.0097591
 2,-0.06627082,0.55585417,0.00616429,0.00837554,-0.00240533,0.02842377,
 0.04280425,-0.08581236,-0.00567722,0.01030604,0.00276745,-0.00244320,-
 0.00248414,-0.00403331,0.01682245,-0.00822721,-0.00291046,0.01803300,0
 .01122955,-0.07515938,-0.03624096,-0.09330270,0.28805331,0.00058842,-0
 .00179649,-0.00015610,0.00391580,-0.00337906,-0.01381070,-0.00092605,-
 0.00340369,0.00244482,-0.00106060,-0.00231241,0.00097745,-0.00679045,0
 .00161094,0.00027052,-0.00868091,0.02854225,0.01400270,-0.11279248,0.0
 8644947,0.01632652,0.53908353,0.00037732,0.00038068,0.00223717,0.00997
 547,-0.02442159,-0.01081709,-0.00321242,-0.00087937,0.00021863,-0.0001
 0872,-0.00106206,0.00041203,-0.00316350,0.00359551,0.00144710,0.003269
 13,-0.00115455,0.00056971,0.11363312,-0.20968365,0.01987935,0.03098165
 ,0.61720977,-0.00004169,0.00012357,0.00130053,-0.00837399,0.01551206,0
 .00172983,0.00235264,0.00076971,-0.00058449,0.00031538,0.00087869,-0.0
 0009467,0.00366723,-0.00201115,-0.00037224,-0.00704303,-0.00405434,-0.
 00665794,0.04868469,-0.02839714,0.00395010,-0.17623223,0.05676548,0.35
 249301,-0.00194278,-0.00015800,-0.00011134,0.00142509,0.01298841,-0.00
 136713,0.00260198,-0.00171861,-0.00078402,-0.00070172,-0.00128285,0.00
 162459,0.00158052,0.00340822,0.00117337,-0.02034924,-0.00213363,-0.040
 67618,-0.09866279,0.01914101,-0.04421886,-0.04700314,-0.03482337,-0.01
 361349,0.14913274,0.00024595,0.00025129,-0.00158974,0.01927587,-0.0096
 3966,0.03499609,-0.00441114,-0.00002491,0.00182249,0.00010819,-0.00035
 035,0.00238811,-0.00064822,0.00144907,-0.00065311,0.00669662,-0.001826
 51,0.00228812,0.00651214,-0.04398632,0.02392334,-0.01535601,-0.0880791
 8,-0.06932186,-0.01125595,0.16056215,-0.00087337,0.00009631,-0.0000257
 0,-0.01117350,0.00815207,-0.01784051,0.00361635,0.00069800,-0.00157054
 ,0.00011571,0.00035176,-0.00207198,-0.00135036,0.00189156,0.00336241,-
 0.00380482,-0.00154007,-0.00104689,-0.07344989,0.05835124,-0.12583011,
 0.01087425,-0.10854723,-0.18719115,0.08391415,0.05734655,0.34581125,-0
 .14012429,0.03679565,-0.12082426,-0.02321532,0.00961375,-0.02377511,-0
 .00322823,-0.00309224,0.00171731,0.00054755,0.00257778,0.00134275,0.00
 003168,-0.00088332,0.00016581,-0.00015611,0.00069265,0.00018083,-0.000
 01687,0.00122956,-0.00150763,-0.00041311,-0.00055811,-0.00094791,0.001
 99392,0.00049975,0.00158621,0.15674369,0.03643264,-0.06267803,0.049254
 01,0.00062534,0.00071242,-0.00335829,-0.00001949,0.00001685,0.00032041
 ,-0.00002171,0.00046245,-0.00030017,0.00019322,-0.00028961,-0.00008110
 ,-0.00008591,0.00028954,0.00012793,0.00010993,-0.00004513,-0.00019622,
 -0.00081406,-0.00025289,-0.00022075,0.00005445,-0.00043323,0.00043777,
 -0.04264372,0.06385668,-0.12068457,0.04885650,-0.19628254,0.00574445,-
 0.00316190,0.01032126,0.00149171,0.00009039,-0.00050596,-0.00006435,-0
 .00088249,-0.00080225,0.00005214,0.00014885,0.00000272,-0.00007742,-0.
 00038119,-0.00009409,-0.00067661,0.00070955,0.00004150,-0.00022561,0.0
 0017678,0.00042856,0.00070985,0.00039645,-0.00054034,0.13174232,-0.052
 87437,0.21289053,-0.05447237,0.03146665,0.04216083,-0.01018107,0.02157
 058,0.02496344,-0.00216642,-0.00192077,0.00184576,-0.00108161,-0.00033
 636,-0.00313370,0.00031263,-0.00065814,0.00009316,-0.00037724,0.000645
 20,-0.00000551,0.00018594,0.00143659,-0.00093397,0.00022003,-0.0006388
 1,0.00013590,0.00035569,-0.00001909,-0.00031949,0.00428928,-0.01291917
 ,-0.01464813,0.06229761,0.02928142,-0.14008672,-0.11856231,0.00304774,
 0.00215587,0.00374942,-0.00003348,0.00102182,-0.00049581,0.00014218,0.
 00010133,0.00009600,-0.00002916,-0.00001342,0.00000507,-0.00010001,0.0
 0009591,-0.00012681,0.00027842,-0.00015600,0.00015445,-0.00003477,-0.0
 0082731,0.00010939,-0.00012748,-0.00000711,-0.00000080,-0.00201538,0.0
 0457282,0.00645751,-0.03551069,0.15109489,0.04109434,-0.11917549,-0.19
 598866,0.00309694,-0.00413555,-0.00453117,-0.00018903,0.00116976,-0.00
 034461,0.00006780,-0.00032733,0.00064396,-0.00016526,0.00050495,-0.000
 06843,0.00029568,-0.00018313,-0.00004946,0.00031252,-0.00097391,0.0001
 4858,0.00071723,-0.00051615,-0.00085183,0.00008777,0.00073293,0.000460
 44,0.00495162,-0.01622041,-0.01932951,-0.04687222,0.13213778,0.2122955
 4,-0.05552871,-0.04538855,0.01311498,-0.00716278,-0.03123512,0.0098853
 7,0.00210231,-0.00143549,0.00027725,-0.00008136,-0.00005504,0.00015376
 ,0.00022619,0.00050771,-0.00031000,0.00035021,-0.00184707,0.00096288,-
 0.00618769,0.00115115,0.00035827,-0.00057116,0.00065145,-0.00015775,0.
 00076827,0.00027208,0.00010801,0.00400225,0.01897695,-0.00366710,0.000
 51906,0.00576284,-0.00261451,0.06199731,-0.04886436,-0.28478629,0.0711
 0343,0.00018716,-0.00272810,0.00071840,0.00175090,0.00085892,-0.000850
 29,-0.00015451,0.00018035,0.00021708,-0.00006335,0.00052814,-0.0001003
 6,0.00044818,-0.00043625,0.00004769,-0.00005390,0.00071176,-0.00009816
 ,0.00019480,0.00009781,-0.00037160,0.00002617,0.00008616,0.00017688,-0
 .00122854,-0.00614353,0.00076449,-0.00305811,-0.01721990,0.00585723,0.
 05186814,0.30810869,0.01362177,0.06963314,-0.06629772,0.00216710,0.008
 92003,-0.00428992,-0.00124292,-0.00005524,-0.00003494,-0.00003377,-0.0
 0007003,-0.00033023,-0.00000128,-0.00025135,0.00007008,-0.00020554,0.0
 0074846,-0.00024060,0.00180525,0.00004227,0.00049554,0.00006736,-0.000
 59130,-0.00046097,0.00066998,0.00018499,0.00075097,0.00575879,0.022959
 38,-0.00596364,-0.00499695,-0.02393776,0.00756515,-0.01750841,-0.07740
 415,0.06824594,0.00123479,0.00083300,-0.00291477,0.00743885,0.01974554
 ,-0.00913795,-0.07285695,-0.06014734,0.03738456,0.00059237,-0.02369376
 ,0.01208895,-0.00555210,-0.00250669,0.00325098,-0.00116772,0.00221553,
 0.00023353,-0.00237361,0.00373942,0.00294911,0.00094911,0.00108555,-0.
 00051229,-0.00008540,-0.00034639,-0.00004883,-0.00033560,-0.00001981,0
 .00024721,0.00029772,-0.00007521,-0.00004388,-0.00023658,-0.00034997,0
 .00009555,0.07140693,-0.00250155,-0.00028125,-0.00287730,-0.00788769,-
 0.01920711,0.01288269,-0.05591955,-0.25031888,0.11232644,0.00236597,-0
 .00054783,0.00018563,0.00028939,0.00160337,-0.00049020,0.00066336,0.00
 024890,-0.00037051,0.00396508,0.00259532,0.00217777,0.00028155,0.00038
 592,0.00064229,0.00021947,-0.00244561,0.00104227,-0.00043689,0.0003881
 9,0.00012443,0.00063714,0.00002457,-0.00001970,0.00103188,0.00048904,-
 0.00022302,0.05852686,0.26644769,-0.00104259,-0.00274070,-0.00623184,0
 .00268511,0.00270047,0.00329467,0.03396140,0.11330810,-0.09709730,0.00
 083999,0.00740746,-0.00180931,0.00311207,0.00198535,-0.00066456,0.0001
 7725,-0.00100258,-0.00072303,0.00157028,0.00563423,0.00872542,0.001668
 25,0.00133928,-0.00009285,-0.00058071,-0.00321678,0.00113782,-0.000872
 01,0.00020532,0.00041397,0.00115937,-0.00039584,-0.00004643,-0.0004653
 2,-0.00026211,0.00042959,-0.04206935,-0.12562122,0.09302580,-0.0009858
 3,0.00025155,-0.00248607,-0.00216971,-0.00242914,0.00266456,-0.0127203
 3,0.02814984,0.01573129,-0.06345699,0.05683153,0.03234000,0.00253254,-
 0.00425663,-0.00203387,-0.00008526,-0.00038978,0.00056627,0.00013435,-
 0.00021013,0.00114140,0.00016829,-0.00000211,0.00003932,0.00021181,0.0
 0003821,-0.00028361,-0.00076397,-0.00006675,0.00029248,0.00027598,-0.0
 0002207,0.00001794,-0.00000067,-0.00005551,0.00007037,0.00102881,-0.00
 069571,-0.00064087,0.07006372,0.00002048,0.00004125,-0.00035728,-0.001
 17997,0.00098684,-0.00025021,0.00122694,0.00382040,0.00067498,0.053305
 50,-0.22279253,-0.10049118,0.00759765,-0.03293212,-0.00331309,-0.00280
 933,-0.00054271,0.00419566,-0.00106995,-0.00032912,0.00015376,0.000131
 42,-0.00000220,-0.00002214,0.00029656,0.00017609,-0.00011343,-0.000166
 48,-0.00004661,-0.00000013,0.00002018,0.00001001,0.00001828,0.00001242
 ,0.00000799,-0.00001950,0.00073518,0.00068541,0.00002906,-0.06027103,0
 .25590282,0.00017913,-0.00017311,0.00085436,0.00061741,0.00095125,-0.0
 0123422,0.00275108,-0.00791657,-0.00289341,0.03363745,-0.11246362,-0.1
 0939132,-0.00789085,0.02942808,0.00939382,0.00126191,0.00344716,-0.002
 51271,0.00062213,0.00017261,-0.00034590,-0.00018002,0.00009380,-0.0000
 2579,-0.00008411,-0.00013881,0.00029409,0.00029994,0.00005903,-0.00010
 307,-0.00004652,-0.00002177,-0.00004681,0.00000864,0.00001476,-0.00000
 346,0.00031080,0.00017630,0.00027555,-0.03622681,0.10530421,0.11641299
 ,0.00014642,0.00181843,0.00266424,-0.00055787,-0.00322973,0.00120009,-
 0.02542808,-0.00257796,-0.02120899,-0.14083333,-0.02534573,-0.11056463
 ,0.00848672,0.00219668,0.00271492,-0.00070146,0.00066660,0.00017430,-0
 .00082652,-0.00130465,-0.00085382,0.00009333,-0.00003919,0.00010903,0.
 00042530,0.00062031,-0.00051514,0.00021732,-0.00008248,-0.00015357,-0.
 00097509,0.00003117,0.00018242,0.00003911,-0.00001069,-0.00008834,-0.0
 0042400,-0.00035350,0.00095006,0.00558670,0.00137452,0.00520420,0.1549
 2221,0.00006688,0.00028636,0.00014050,-0.00008248,-0.00016173,-0.00012
 918,0.00225336,0.00333588,-0.00136193,-0.02657108,-0.05740173,-0.03387
 011,0.01698094,-0.00657600,0.03063585,-0.00028906,0.00641997,0.0047254
 4,-0.00003578,-0.00126757,0.00011146,0.00035661,0.00016848,-0.00027146
 ,-0.00005684,0.00023829,-0.00025203,-0.00007493,-0.00005846,-0.0000056
 7,-0.00015870,-0.00003483,0.00006704,-0.00003331,-0.00002788,0.0000011
 6,0.00055524,0.00002547,0.00030913,-0.01702653,-0.00383421,-0.02047886
 ,0.02521506,0.05870079,-0.00024700,-0.00071994,-0.00106339,0.00113449,
 -0.00012535,-0.00006431,0.00594626,-0.00093521,0.01129976,-0.10519476,
 -0.02998662,-0.16697146,-0.01152710,0.01609876,-0.02994377,0.00257288,
 -0.00486311,-0.00079024,0.00068258,0.00120658,-0.00004464,-0.00042160,
 -0.00020425,0.00010854,-0.00009861,-0.00021592,0.00044664,-0.00009003,
 0.00007007,0.00004546,0.00042254,0.00001189,-0.00016072,0.00001378,0.0
 0000031,0.00002229,-0.00145617,0.00011421,-0.00041152,-0.01130042,-0.0
 0522057,-0.01139652,0.12012995,0.02270889,0.19773446,0.00017959,-0.001
 88248,0.00026804,-0.00567162,0.00162927,0.00023454,-0.00027211,0.00048
 093,0.00001104,-0.00073764,0.00229969,0.00181066,0.00250043,0.01472555
 ,-0.01099258,-0.05797725,-0.03548707,0.03775109,-0.00916808,-0.0223158
 9,0.02454259,0.00034134,-0.00109751,0.00171565,0.00411979,-0.00001608,
 -0.00165541,-0.00001130,0.00000518,-0.00004386,0.00007288,0.00006871,0
 .00000738,-0.00058739,-0.00009395,0.00021067,0.00014881,-0.00009114,-0
 .00005580,0.00027195,0.00074560,-0.00040716,0.00012619,-0.00012531,-0.
 00000430,0.06274148,0.00006448,0.00006891,-0.00007540,-0.00012055,0.00
 096416,0.00015419,0.00061561,0.00009225,-0.00006448,0.00218383,-0.0023
 1936,-0.00459588,-0.00026714,-0.03347787,0.02103446,-0.03331441,-0.157
 07063,0.12108082,-0.00246356,-0.00211956,0.00404991,0.00008054,0.00039
 113,0.00036268,0.00105010,0.00029891,-0.00121178,-0.00010295,-0.000021
 92,0.00002354,-0.00006679,0.00002150,0.00003860,-0.00000478,0.00000596
 ,-0.00002477,-0.00017967,0.00002401,0.00015418,-0.00016686,-0.00124535
 ,0.00108302,0.00014150,-0.00020220,0.00035285,0.03119516,0.18658405,-0
 .00010959,0.00025934,0.00012304,0.00062676,-0.00029688,0.00021654,0.00
 029973,-0.00033702,0.00012111,0.00101661,-0.00286933,0.00053029,-0.002
 84293,-0.01027082,0.01191133,0.03854097,0.13212518,-0.19370454,-0.0018
 5819,0.00354015,-0.00387619,0.00025219,0.00060491,-0.00002943,-0.00053
 718,-0.00113626,0.00154073,0.00008945,0.00001840,0.00000455,-0.0000036
 4,-0.00001481,-0.00003803,0.00011112,-0.00002618,-0.00000005,-0.000065
 40,0.00002408,-0.00004017,0.00009105,-0.00036397,0.00040881,0.00014419
 ,-0.00031688,0.00024169,-0.04179947,-0.13630964,0.20007105,-0.00004415
 ,-0.00009787,0.00040433,-0.00021435,0.00072176,0.00039251,-0.00025422,
 -0.00026259,-0.00026168,0.00087212,-0.00196826,0.00236529,0.00958996,0
 .01000478,0.01425683,-0.10061077,-0.02971509,-0.09123398,-0.01416843,-
 0.00614440,-0.02769330,0.00219388,-0.00089164,-0.00089710,-0.00808147,
 -0.00038972,0.00014829,0.00020786,0.00012247,-0.00007931,-0.00006196,0
 .00000009,-0.00001215,-0.00002362,-0.00006242,0.00004770,0.00010108,-0
 .00011552,-0.00006222,-0.00005197,-0.00003317,-0.00002355,-0.00024308,
 -0.00096070,-0.00054499,0.00382045,0.00152946,0.00581827,0.10702312,-0
 .00000043,0.00004620,0.00000420,0.00007580,-0.00000061,0.00009782,0.00
 001922,-0.00054202,0.00034827,-0.00109428,0.00461384,-0.00605489,-0.00
 494273,-0.02765027,-0.03281577,-0.02957824,-0.06428844,-0.04296225,-0.
 00242099,0.00018810,-0.00320633,-0.00045291,0.00105287,0.00001939,0.00
 128836,0.00086242,0.00083327,-0.00004805,-0.00001137,0.00000852,-0.000
 04979,0.00000050,0.00002502,0.00001271,0.00001016,-0.00001427,-0.00026
 708,-0.00001600,0.00009681,0.00027096,0.00001346,0.00059508,0.00074383
 ,0.00043413,0.00172395,0.00924060,0.00772361,0.01614638,0.02733113,0.0
 7774530,-0.00005855,-0.00005881,-0.00003057,-0.00038109,0.00028162,-0.
 00016359,0.00023569,-0.00024875,0.00033105,0.00196485,0.00310106,0.000
 21709,0.00162864,-0.01697501,-0.00969493,-0.09057091,-0.04542367,-0.21
 623451,0.00253161,0.00132107,0.00267347,-0.00167833,0.00035386,-0.0000
 7874,0.00105283,0.00011521,0.00217065,0.00000259,0.00001297,0.00000542
 ,-0.00005653,0.00000463,0.00002116,-0.00002448,-0.00000423,0.00001498,
 -0.00013516,0.00002827,0.00016137,0.00006004,-0.00022183,0.00030779,-0
 .00006543,-0.00206796,0.00098093,-0.01133038,-0.00580341,-0.01731647,0
 .09701876,0.06518592,0.23679199,-0.00028345,-0.00008570,0.00035371,-0.
 00160367,0.00084194,0.00305157,0.00047106,0.00080781,-0.00043909,0.000
 25367,0.00048469,-0.00036270,0.00045534,-0.00105203,0.00000621,0.00029
 083,0.00046825,-0.00047458,0.01077935,0.01751141,-0.00406606,-0.117228
 69,-0.11370012,0.02332909,0.00007845,-0.00652481,-0.00256540,0.0001890
 1,0.00017952,0.00007292,0.00008843,-0.00007588,-0.00038453,0.00017364,
 -0.00017221,-0.00010978,-0.00025323,-0.00003317,-0.00030486,-0.0000621
 0,-0.00001519,0.00001672,-0.00007889,-0.00010351,0.00010058,-0.0000408
 2,-0.00001344,0.00035113,0.00001319,-0.00020256,-0.00018939,0.11565495
 ,0.00020715,-0.00001262,-0.00015403,0.00106841,0.00000310,-0.00182845,
 -0.00073145,-0.00052385,0.00036531,-0.00040617,-0.00032294,0.00042137,
 0.00014454,0.00091082,-0.00031483,-0.00123116,-0.00019424,0.00097852,-
 0.01218032,-0.01460750,-0.00123024,-0.11585583,-0.24640660,0.02886234,
 0.00180439,-0.01204588,-0.00848556,0.00008513,0.00002640,-0.00007793,0
 .00002827,0.00004676,0.00007993,-0.00004989,0.00000647,0.00003692,0.00
 019656,0.00001176,0.00017825,0.00007985,0.00010048,-0.00012074,0.00015
 646,0.00006501,-0.00009809,0.00053092,0.00016121,-0.00059668,0.0006027
 4,-0.00000080,0.00018875,0.12307813,0.27025660,-0.00017442,0.00017583,
 -0.00023694,-0.00065079,0.00126894,0.00206573,0.00022165,0.00046039,-0
 .00018171,0.00022149,0.00025484,-0.00011260,0.00021936,-0.00023737,-0.
 00007445,0.00016028,-0.00100358,0.00088745,0.00689060,0.00641744,-0.00
 782458,0.02265721,0.03451281,-0.04854011,-0.01389212,-0.03664494,0.000
 92008,0.00015517,-0.00000956,-0.00021424,-0.00006689,-0.00003625,0.000
 34590,-0.00006292,0.00013164,0.00012689,-0.00024401,-0.00006315,-0.000
 33317,-0.00004990,-0.00002885,0.00002943,-0.00005138,-0.00002947,0.000
 03161,-0.00012515,-0.00015756,-0.00017993,0.00010849,0.00001489,-0.000
 11783,-0.02137465,-0.01861141,0.05161031,0.00013766,-0.00026073,0.0008
 2064,0.00011172,-0.00119564,0.00015525,-0.00000798,-0.00004024,-0.0001
 0615,-0.00015246,-0.00063432,0.00058800,-0.00111251,0.00097237,-0.0000
 0993,0.00179261,0.00147644,0.00091966,-0.01258789,-0.00414641,0.008873
 62,-0.25208714,-0.00173819,0.12747057,0.01413302,0.00469829,-0.0043231
 5,0.00004225,-0.00002656,-0.00003256,0.00040050,-0.00058846,-0.0005500
 5,0.00020161,-0.00030783,-0.00032755,0.00008672,0.00005402,-0.00003004
 ,0.00002268,0.00007866,-0.00005040,0.00002502,0.00009013,-0.00011811,0
 .00014330,-0.00016051,-0.00012506,-0.00006763,0.00007445,-0.00000475,-
 0.00889708,0.00247227,0.00605798,0.25781560,0.00020804,-0.00051610,-0.
 00007848,0.00070254,0.00152627,0.00048464,-0.00020533,-0.00008878,0.00
 022753,0.00005155,0.00065568,-0.00030905,0.00140018,-0.00069062,-0.000
 24989,-0.00187740,-0.00170726,-0.00067801,0.01636611,0.00046669,-0.014
 42041,-0.00522399,-0.05051277,0.00062485,0.01127958,-0.00508562,-0.009
 22679,-0.00024365,-0.00034459,-0.00037334,-0.00046818,-0.00080071,0.00
 092015,-0.00019807,0.00025050,0.00006503,-0.00004697,-0.00011295,-0.00
 010841,-0.00002968,-0.00001989,-0.00001182,-0.00002063,-0.00010977,0.0
 0008156,0.00018782,0.00012118,-0.00017997,0.00032893,-0.00018107,0.000
 21031,-0.02139312,0.00252584,0.01358536,-0.00081774,0.05462398,0.00032
 765,0.00060995,-0.00001528,0.00102815,-0.00057628,-0.00041867,-0.00039
 163,-0.00027288,0.00017253,-0.00011445,-0.00034305,0.00029648,-0.00139
 936,0.00092906,0.00030059,0.00115399,0.00233868,0.00128662,-0.01391799
 ,-0.00397753,0.00138689,0.12244607,0.00206510,-0.11503035,0.02673120,-
 0.01127684,-0.02077786,0.00002414,-0.00020441,-0.00031830,0.00030254,0
 .00086601,-0.00002507,-0.00018356,0.00008517,-0.00009989,0.00006710,-0
 .00005926,-0.00001402,0.00000683,0.00002622,-0.00002363,0.00002791,0.0
 0008409,-0.00006481,-0.00013754,-0.00009134,0.00001566,0.00024783,-0.0
 0004599,-0.00003926,0.00298909,0.00040656,0.00179815,-0.13920799,0.009
 43673,0.13157024\\0.00000103,-0.00000571,-0.00000155,0.00001556,0.0000
 2128,-0.00001006,-0.00000794,-0.00000196,-0.00000130,0.00000840,0.0000
 1825,0.00000165,-0.00001274,0.00002548,0.00002517,0.00000817,-0.000034
 18,-0.00003648,-0.00002083,-0.00003797,0.00003322,-0.00000777,0.000013
 48,-0.00000322,-0.00000033,-0.00000377,-0.00001547,0.00000433,-0.00000
 633,-0.00000770,-0.00000199,-0.00000355,-0.00000218,0.00000269,-0.0000
 0386,-0.00000004,0.00001421,0.00000041,0.00000140,0.00000587,-0.000000
 16,-0.00000175,0.00000562,0.00000678,0.00000313,0.00000184,0.00000885,
 -0.00000154,-0.00000726,0.00000900,0.00001315,-0.00000413,-0.00000325,
 0.00000301,-0.00000472,-0.00000276,0.00000055\\\@


 IF YOU GIVE EVERYONE A PIECE OF YOUR MIND,
 PRETTY SOON IT WILL BE ALL GONE.
 Job cpu time:       0 days  0 hours 44 minutes 53.0 seconds.
 File lengths (MBytes):  RWF=    152 Int=      0 D2E=      0 Chk=      8 Scr=      1
 Normal termination of Gaussian 09 at Mon Jan 27 22:48:28 2020.
