 Entering Gaussian System, Link 0=/home/puck/opt/gaussian_09/g09
 Input=dsC7O2H10nsd_0749.com
 Output=dsC7O2H10nsd_0749.log
 Initial command:
 /home/puck/opt/gaussian_09/l1.exe "/scratch/puck/g09_77feae66-d18e-4a81-8db1-d786def47417/Gau-156069.inp" -scrdir="/scratch/puck/g09_77feae66-d18e-4a81-8db1-d786def47417/"
 Entering Link 1 = /home/puck/opt/gaussian_09/l1.exe PID=    156070.
  
 Copyright (c) 1988,1990,1992,1993,1995,1998,2003,2009,2013,
            Gaussian, Inc.  All Rights Reserved.
  
 This is part of the Gaussian(R) 09 program.  It is based on
 the Gaussian(R) 03 system (copyright 2003, Gaussian, Inc.),
 the Gaussian(R) 98 system (copyright 1998, Gaussian, Inc.),
 the Gaussian(R) 94 system (copyright 1995, Gaussian, Inc.),
 the Gaussian 92(TM) system (copyright 1992, Gaussian, Inc.),
 the Gaussian 90(TM) system (copyright 1990, Gaussian, Inc.),
 the Gaussian 88(TM) system (copyright 1988, Gaussian, Inc.),
 the Gaussian 86(TM) system (copyright 1986, Carnegie Mellon
 University), and the Gaussian 82(TM) system (copyright 1983,
 Carnegie Mellon University). Gaussian is a federally registered
 trademark of Gaussian, Inc.
  
 This software contains proprietary and confidential information,
 including trade secrets, belonging to Gaussian, Inc.
  
 This software is provided under written license and may be
 used, copied, transmitted, or stored only in accord with that
 written license.
  
 The following legend is applicable only to US Government
 contracts under FAR:
  
                    RESTRICTED RIGHTS LEGEND
  
 Use, reproduction and disclosure by the US Government is
 subject to restrictions as set forth in subparagraphs (a)
 and (c) of the Commercial Computer Software - Restricted
 Rights clause in FAR 52.227-19.
  
 Gaussian, Inc.
 340 Quinnipiac St., Bldg. 40, Wallingford CT 06492
  
  
 ---------------------------------------------------------------
 Warning -- This program may not be used in any manner that
 competes with the business of Gaussian, Inc. or will provide
 assistance to any competitor of Gaussian, Inc.  The licensee
 of this program is prohibited from giving any competitor of
 Gaussian, Inc. access to this program.  By using this program,
 the user acknowledges that Gaussian, Inc. is engaged in the
 business of creating and licensing software in the field of
 computational chemistry and represents and warrants to the
 licensee that it is not a competitor of Gaussian, Inc. and that
 it will not use this program in any manner prohibited above.
 ---------------------------------------------------------------
  

 Cite this work as:
 Gaussian 09, Revision D.01,
 M. J. Frisch, G. W. Trucks, H. B. Schlegel, G. E. Scuseria, 
 M. A. Robb, J. R. Cheeseman, G. Scalmani, V. Barone, B. Mennucci, 
 G. A. Petersson, H. Nakatsuji, M. Caricato, X. Li, H. P. Hratchian, 
 A. F. Izmaylov, J. Bloino, G. Zheng, J. L. Sonnenberg, M. Hada, 
 M. Ehara, K. Toyota, R. Fukuda, J. Hasegawa, M. Ishida, T. Nakajima, 
 Y. Honda, O. Kitao, H. Nakai, T. Vreven, J. A. Montgomery, Jr., 
 J. E. Peralta, F. Ogliaro, M. Bearpark, J. J. Heyd, E. Brothers, 
 K. N. Kudin, V. N. Staroverov, T. Keith, R. Kobayashi, J. Normand, 
 K. Raghavachari, A. Rendell, J. C. Burant, S. S. Iyengar, J. Tomasi, 
 M. Cossi, N. Rega, J. M. Millam, M. Klene, J. E. Knox, J. B. Cross, 
 V. Bakken, C. Adamo, J. Jaramillo, R. Gomperts, R. E. Stratmann, 
 O. Yazyev, A. J. Austin, R. Cammi, C. Pomelli, J. W. Ochterski, 
 R. L. Martin, K. Morokuma, V. G. Zakrzewski, G. A. Voth, 
 P. Salvador, J. J. Dannenberg, S. Dapprich, A. D. Daniels, 
 O. Farkas, J. B. Foresman, J. V. Ortiz, J. Cioslowski, 
 and D. J. Fox, Gaussian, Inc., Wallingford CT, 2013.
 
 ******************************************
 Gaussian 09:  ES64L-G09RevD.01 24-Apr-2013
                27-Jan-2020 
 ******************************************
 -----------------------------
 # b3lyp 6-31G(2df,p) opt Freq
 -----------------------------
 1/14=-1,18=20,19=15,26=3,38=1/1,3;
 2/9=110,12=2,17=6,18=5,40=1/2;
 3/5=1,6=6,7=104,11=2,16=1,25=1,30=1,71=1,74=-5/1,2,3;
 4//1;
 5/5=2,38=5/2;
 6/7=2,8=2,9=2,10=2,28=1/1;
 7//1,2,3,16;
 1/14=-1,18=20,19=15,26=3/3(2);
 2/9=110/2;
 99//99;
 2/9=110/2;
 3/5=1,6=6,7=104,11=2,16=1,25=1,30=1,71=1,74=-5/1,2,3;
 4/5=5,16=3,69=1/1;
 5/5=2,38=5/2;
 7//1,2,3,16;
 1/14=-1,18=20,19=15,26=3/3(-5);
 2/9=110/2;
 6/7=2,8=2,9=2,10=2,19=2,28=1/1;
 99/9=1/99;
 -----
 titel
 -----
 Symbolic Z-matrix:
 Charge =  0 Multiplicity = 1
 O                    -0.02908   1.84061  -3.29436 
 C                    -0.09297   0.80803  -2.6696 
 C                    -1.42176   0.11008  -2.43039 
 C                    -1.93035   0.26469  -0.98316 
 C                    -1.23008  -0.61587   0.05469 
 C                     0.22604  -0.31177   0.34217 
 O                     0.69127   1.03781   0.19818 
 C                     1.28544   0.02379  -0.62197 
 C                     1.17637   0.15383  -2.12835 
 H                    -2.13845   0.5597   -3.12197 
 H                    -1.33095  -0.95712  -2.67282 
 H                    -1.85403   1.31445  -0.68243 
 H                    -2.99505   0.00947  -0.97328 
 H                    -1.77254  -0.52294   1.00385 
 H                    -1.30794  -1.67446  -0.23122 
 H                     0.57895  -0.78731   1.26106 
 H                     2.29872  -0.2415   -0.31068 
 H                     2.01452   0.75568  -2.49098 
 H                     1.27566  -0.84917  -2.56769 
 

 GradGradGradGradGradGradGradGradGradGradGradGradGradGradGradGradGradGrad
 Berny optimization.
 Initialization pass.
                           ----------------------------
                           !    Initial Parameters    !
                           ! (Angstroms and Degrees)  !
 --------------------------                            --------------------------
 ! Name  Definition              Value          Derivative Info.                !
 --------------------------------------------------------------------------------
 ! R1    R(1,2)                  1.2086         estimate D2E/DX2                !
 ! R2    R(2,3)                  1.5199         estimate D2E/DX2                !
 ! R3    R(2,9)                  1.5271         estimate D2E/DX2                !
 ! R4    R(3,4)                  1.5418         estimate D2E/DX2                !
 ! R5    R(3,10)                 1.0927         estimate D2E/DX2                !
 ! R6    R(3,11)                 1.0981         estimate D2E/DX2                !
 ! R7    R(4,5)                  1.5307         estimate D2E/DX2                !
 ! R8    R(4,12)                 1.0946         estimate D2E/DX2                !
 ! R9    R(4,13)                 1.0949         estimate D2E/DX2                !
 ! R10   R(5,6)                  1.5151         estimate D2E/DX2                !
 ! R11   R(5,14)                 1.0972         estimate D2E/DX2                !
 ! R12   R(5,15)                 1.0993         estimate D2E/DX2                !
 ! R13   R(6,7)                  1.4348         estimate D2E/DX2                !
 ! R14   R(6,8)                  1.4712         estimate D2E/DX2                !
 ! R15   R(6,16)                 1.0932         estimate D2E/DX2                !
 ! R16   R(7,8)                  1.4332         estimate D2E/DX2                !
 ! R17   R(8,9)                  1.5159         estimate D2E/DX2                !
 ! R18   R(8,17)                 1.0927         estimate D2E/DX2                !
 ! R19   R(9,18)                 1.0937         estimate D2E/DX2                !
 ! R20   R(9,19)                 1.0995         estimate D2E/DX2                !
 ! A1    A(1,2,3)              121.3272         estimate D2E/DX2                !
 ! A2    A(1,2,9)              120.3497         estimate D2E/DX2                !
 ! A3    A(3,2,9)              118.3064         estimate D2E/DX2                !
 ! A4    A(2,3,4)              112.9596         estimate D2E/DX2                !
 ! A5    A(2,3,10)             106.5496         estimate D2E/DX2                !
 ! A6    A(2,3,11)             109.8299         estimate D2E/DX2                !
 ! A7    A(4,3,10)             109.6617         estimate D2E/DX2                !
 ! A8    A(4,3,11)             109.388          estimate D2E/DX2                !
 ! A9    A(10,3,11)            108.3236         estimate D2E/DX2                !
 ! A10   A(3,4,5)              115.3316         estimate D2E/DX2                !
 ! A11   A(3,4,12)             109.3328         estimate D2E/DX2                !
 ! A12   A(3,4,13)             107.8104         estimate D2E/DX2                !
 ! A13   A(5,4,12)             109.4828         estimate D2E/DX2                !
 ! A14   A(5,4,13)             107.7376         estimate D2E/DX2                !
 ! A15   A(12,4,13)            106.7895         estimate D2E/DX2                !
 ! A16   A(4,5,6)              116.9291         estimate D2E/DX2                !
 ! A17   A(4,5,14)             108.1586         estimate D2E/DX2                !
 ! A18   A(4,5,15)             110.1964         estimate D2E/DX2                !
 ! A19   A(6,5,14)             107.0991         estimate D2E/DX2                !
 ! A20   A(6,5,15)             108.1022         estimate D2E/DX2                !
 ! A21   A(14,5,15)            105.7563         estimate D2E/DX2                !
 ! A22   A(5,6,7)              118.777          estimate D2E/DX2                !
 ! A23   A(5,6,8)              127.8426         estimate D2E/DX2                !
 ! A24   A(5,6,16)             112.4859         estimate D2E/DX2                !
 ! A25   A(7,6,16)             112.8831         estimate D2E/DX2                !
 ! A26   A(8,6,16)             114.6838         estimate D2E/DX2                !
 ! A27   A(6,8,9)              128.241          estimate D2E/DX2                !
 ! A28   A(6,8,17)             115.1926         estimate D2E/DX2                !
 ! A29   A(7,8,9)              118.565          estimate D2E/DX2                !
 ! A30   A(7,8,17)             113.1536         estimate D2E/DX2                !
 ! A31   A(9,8,17)             111.755          estimate D2E/DX2                !
 ! A32   A(2,9,8)              116.6631         estimate D2E/DX2                !
 ! A33   A(2,9,18)             106.4832         estimate D2E/DX2                !
 ! A34   A(2,9,19)             108.9187         estimate D2E/DX2                !
 ! A35   A(8,9,18)             108.7557         estimate D2E/DX2                !
 ! A36   A(8,9,19)             108.1994         estimate D2E/DX2                !
 ! A37   A(18,9,19)            107.475          estimate D2E/DX2                !
 ! D1    D(1,2,3,4)           -105.8026         estimate D2E/DX2                !
 ! D2    D(1,2,3,10)            14.6678         estimate D2E/DX2                !
 ! D3    D(1,2,3,11)           131.7844         estimate D2E/DX2                !
 ! D4    D(9,2,3,4)             75.6799         estimate D2E/DX2                !
 ! D5    D(9,2,3,10)          -163.8497         estimate D2E/DX2                !
 ! D6    D(9,2,3,11)           -46.7332         estimate D2E/DX2                !
 ! D7    D(1,2,9,8)            117.529          estimate D2E/DX2                !
 ! D8    D(1,2,9,18)            -4.0581         estimate D2E/DX2                !
 ! D9    D(1,2,9,19)          -119.6817         estimate D2E/DX2                !
 ! D10   D(3,2,9,8)            -63.9384         estimate D2E/DX2                !
 ! D11   D(3,2,9,18)           174.4745         estimate D2E/DX2                !
 ! D12   D(3,2,9,19)            58.8509         estimate D2E/DX2                !
 ! D13   D(2,3,4,5)            -76.3796         estimate D2E/DX2                !
 ! D14   D(2,3,4,12)            47.4781         estimate D2E/DX2                !
 ! D15   D(2,3,4,13)           163.2151         estimate D2E/DX2                !
 ! D16   D(10,3,4,5)           164.9434         estimate D2E/DX2                !
 ! D17   D(10,3,4,12)          -71.1989         estimate D2E/DX2                !
 ! D18   D(10,3,4,13)           44.538          estimate D2E/DX2                !
 ! D19   D(11,3,4,5)            46.2803         estimate D2E/DX2                !
 ! D20   D(11,3,4,12)          170.138          estimate D2E/DX2                !
 ! D21   D(11,3,4,13)          -74.1251         estimate D2E/DX2                !
 ! D22   D(3,4,5,6)             67.1776         estimate D2E/DX2                !
 ! D23   D(3,4,5,14)          -171.9136         estimate D2E/DX2                !
 ! D24   D(3,4,5,15)           -56.7533         estimate D2E/DX2                !
 ! D25   D(12,4,5,6)           -56.6012         estimate D2E/DX2                !
 ! D26   D(12,4,5,14)           64.3076         estimate D2E/DX2                !
 ! D27   D(12,4,5,15)          179.4679         estimate D2E/DX2                !
 ! D28   D(13,4,5,6)          -172.3773         estimate D2E/DX2                !
 ! D29   D(13,4,5,14)          -51.4684         estimate D2E/DX2                !
 ! D30   D(13,4,5,15)           63.6918         estimate D2E/DX2                !
 ! D31   D(4,5,6,7)             29.6923         estimate D2E/DX2                !
 ! D32   D(4,5,6,8)            -41.9094         estimate D2E/DX2                !
 ! D33   D(4,5,6,16)           164.723          estimate D2E/DX2                !
 ! D34   D(14,5,6,7)           -91.7729         estimate D2E/DX2                !
 ! D35   D(14,5,6,8)          -163.3745         estimate D2E/DX2                !
 ! D36   D(14,5,6,16)           43.2579         estimate D2E/DX2                !
 ! D37   D(15,5,6,7)           154.6829         estimate D2E/DX2                !
 ! D38   D(15,5,6,8)            83.0812         estimate D2E/DX2                !
 ! D39   D(15,5,6,16)          -70.2864         estimate D2E/DX2                !
 ! D40   D(5,6,8,9)              0.3804         estimate D2E/DX2                !
 ! D41   D(5,6,8,17)          -152.774          estimate D2E/DX2                !
 ! D42   D(16,6,8,9)           153.2616         estimate D2E/DX2                !
 ! D43   D(16,6,8,17)            0.1072         estimate D2E/DX2                !
 ! D44   D(6,8,9,2)             38.8917         estimate D2E/DX2                !
 ! D45   D(6,8,9,18)           159.2768         estimate D2E/DX2                !
 ! D46   D(6,8,9,19)           -84.2698         estimate D2E/DX2                !
 ! D47   D(7,8,9,2)            -32.8409         estimate D2E/DX2                !
 ! D48   D(7,8,9,18)            87.5443         estimate D2E/DX2                !
 ! D49   D(7,8,9,19)          -156.0024         estimate D2E/DX2                !
 ! D50   D(17,8,9,2)          -167.2103         estimate D2E/DX2                !
 ! D51   D(17,8,9,18)          -46.8252         estimate D2E/DX2                !
 ! D52   D(17,8,9,19)           69.6282         estimate D2E/DX2                !
 --------------------------------------------------------------------------------
 Trust Radius=3.00D-01 FncErr=1.00D-07 GrdErr=1.00D-06
 Number of steps in this run=    114 maximum allowed number of steps=    114.
 GradGradGradGradGradGradGradGradGradGradGradGradGradGradGradGradGradGrad

                          Input orientation:                          
 ---------------------------------------------------------------------
 Center     Atomic      Atomic             Coordinates (Angstroms)
 Number     Number       Type             X           Y           Z
 ---------------------------------------------------------------------
      1          8           0       -0.029080    1.840608   -3.294363
      2          6           0       -0.092973    0.808027   -2.669598
      3          6           0       -1.421764    0.110076   -2.430393
      4          6           0       -1.930353    0.264692   -0.983161
      5          6           0       -1.230081   -0.615874    0.054686
      6          6           0        0.226043   -0.311772    0.342171
      7          8           0        0.691274    1.037809    0.198185
      8          6           0        1.285437    0.023793   -0.621975
      9          6           0        1.176366    0.153829   -2.128350
     10          1           0       -2.138450    0.559698   -3.121974
     11          1           0       -1.330954   -0.957122   -2.672822
     12          1           0       -1.854033    1.314447   -0.682434
     13          1           0       -2.995046    0.009473   -0.973279
     14          1           0       -1.772543   -0.522943    1.003852
     15          1           0       -1.307940   -1.674463   -0.231223
     16          1           0        0.578952   -0.787306    1.261060
     17          1           0        2.298723   -0.241503   -0.310678
     18          1           0        2.014524    0.755676   -2.490977
     19          1           0        1.275658   -0.849167   -2.567694
 ---------------------------------------------------------------------
                    Distance matrix (angstroms):
                    1          2          3          4          5
     1  O    0.000000
     2  C    1.208568   0.000000
     3  C    2.383433   1.519881   0.000000
     4  C    3.382307   2.552498   1.541768   0.000000
     5  C    4.323521   3.277534   2.596028   1.530654   0.000000
     6  C    4.233462   3.229005   3.252742   2.595931   1.515065
     7  O    3.655309   2.981949   3.497862   2.977619   2.539068
     8  C    3.488614   2.589942   3.256802   3.244964   2.682327
     9  C    2.378636   1.527136   2.615994   3.312922   3.339024
    10  H    2.473841   2.109570   1.092741   2.169067   3.506889
    11  H    3.147773   2.156005   1.098148   2.169577   2.750623
    12  H    3.229469   2.703075   2.166269   1.094644   2.158425
    13  H    4.187773   3.455028   2.146746   1.094901   2.136088
    14  H    5.205832   4.252843   3.509672   2.143244   1.097186
    15  H    4.834670   3.685726   2.834411   2.170975   1.099280
    16  H    5.294101   4.294955   4.293597   3.527015   2.181130
    17  H    4.319286   3.519407   4.296373   4.312023   3.567366
    18  H    2.449250   2.115701   3.496933   4.251661   4.346149
    19  H    3.076569   2.151704   2.866197   3.745655   3.634560
                    6          7          8          9         10
     6  C    0.000000
     7  O    1.434762   0.000000
     8  C    1.471223   1.433150   0.000000
     9  C    2.687633   2.535646   1.515907   0.000000
    10  H    4.283758   4.388551   4.273195   3.484254   0.000000
    11  H    3.454113   4.038791   3.466074   2.795946   1.776100
    12  H    2.832158   2.707509   3.394955   3.552608   2.569414
    13  H    3.494141   4.002345   4.294899   4.330787   2.377687
    14  H    2.115836   3.025796   3.506206   4.354857   4.281172
    15  H    2.130449   3.396715   3.124479   3.621260   3.746687
    16  H    1.093176   2.115033   2.168599   3.568016   5.330073
    17  H    2.174201   2.116476   1.092719   2.172534   5.313550
    18  H    3.516367   3.010346   2.135507   1.093721   4.205206
    19  H    3.139713   3.398863   2.132599   1.099493   3.734737
                   11         12         13         14         15
    11  H    0.000000
    12  H    3.065172   0.000000
    13  H    2.567481   1.757686   0.000000
    14  H    3.728464   2.495236   2.384749   0.000000
    15  H    2.544900   3.071708   2.496520   1.751361   0.000000
    16  H    4.376300   3.756854   4.289591   2.380247   2.564043
    17  H    4.389349   4.450232   5.340975   4.287470   3.881714
    18  H    3.762840   4.306830   5.287345   5.309480   4.695831
    19  H    2.610963   4.246221   4.638786   4.706792   3.579831
                   16         17         18         19
    16  H    0.000000
    17  H    2.392879   0.000000
    18  H    4.303421   2.414299   0.000000
    19  H    3.892117   2.551478   1.768426   0.000000
 Stoichiometry    C7H10O2
 Framework group  C1[X(C7H10O2)]
 Deg. of freedom    51
 Full point group                 C1      NOp   1
 Largest Abelian subgroup         C1      NOp   1
 Largest concise Abelian subgroup C1      NOp   1
                         Standard orientation:                         
 ---------------------------------------------------------------------
 Center     Atomic      Atomic             Coordinates (Angstroms)
 Number     Number       Type             X           Y           Z
 ---------------------------------------------------------------------
      1          8           0       -2.421839   -0.326461   -0.636565
      2          6           0       -1.473313   -0.115183    0.081973
      3          6           0       -1.042841    1.301189    0.426388
      4          6           0        0.238681    1.736610   -0.311960
      5          6           0        1.542683    1.157707    0.242434
      6          6           0        1.748110   -0.336004    0.093938
      7          8           0        1.148524   -1.008000   -1.022959
      8          6           0        0.760771   -1.407531    0.297626
      9          6           0       -0.696150   -1.277701    0.695744
     10          1           0       -1.870761    1.955706    0.143123
     11          1           0       -0.887451    1.390253    1.509832
     12          1           0        0.149102    1.483801   -1.373237
     13          1           0        0.305772    2.827771   -0.251338
     14          1           0        2.379743    1.650737   -0.267537
     15          1           0        1.649198    1.413032    1.306333
     16          1           0        2.786396   -0.633976    0.261893
     17          1           0        1.177063   -2.373424    0.593913
     18          1           0       -1.222909   -2.191039    0.404944
     19          1           0       -0.747276   -1.201695    1.791414
 ---------------------------------------------------------------------
 Rotational constants (GHZ):      2.3775494      1.6801821      1.1881626
 Standard basis: 6-31G(2df,p) (6D, 7F)
 There are   329 symmetry adapted cartesian basis functions of A   symmetry.
 There are   302 symmetry adapted basis functions of A   symmetry.
   302 basis functions,   466 primitive gaussians,   329 cartesian basis functions
    34 alpha electrons       34 beta electrons
       nuclear repulsion energy       465.2353315186 Hartrees.
 NAtoms=   19 NActive=   19 NUniq=   19 SFac= 1.00D+00 NAtFMM=   60 NAOKFM=F Big=F
 Integral buffers will be    131072 words long.
 Raffenetti 2 integral format.
 Two-electron integral symmetry is turned on.
 One-electron integrals computed using PRISM.
 NBasis=   302 RedAO= T EigKep=  5.17D-04  NBF=   302
 NBsUse=   302 1.00D-06 EigRej= -1.00D+00 NBFU=   302
 ExpMin= 1.61D-01 ExpMax= 5.48D+03 ExpMxC= 8.25D+02 IAcc=1 IRadAn=         1 AccDes= 0.00D+00
 Harris functional with IExCor=  402 and IRadAn=       1 diagonalized for initial guess.
 HarFok:  IExCor=  402 AccDes= 0.00D+00 IRadAn=         1 IDoV= 1 UseB2=F ITyADJ=14
 ICtDFT=  3500011 ScaDFX=  1.000000  1.000000  1.000000  1.000000
 FoFCou: FMM=F IPFlag=           0 FMFlag=      100000 FMFlg1=           0
         NFxFlg=           0 DoJE=T BraDBF=F KetDBF=T FulRan=T
         wScrn=  0.000000 ICntrl=     500 IOpCl=  0 I1Cent=   200000004 NGrid=           0
         NMat0=    1 NMatS0=      1 NMatT0=    0 NMatD0=    1 NMtDS0=    0 NMtDT0=    0
 Petite list used in FoFCou.
 Requested convergence on RMS density matrix=1.00D-08 within 128 cycles.
 Requested convergence on MAX density matrix=1.00D-06.
 Requested convergence on             energy=1.00D-06.
 No special actions if energy rises.
 Integral accuracy reduced to 1.0D-05 until final iterations.
 Initial convergence to 1.0D-05 achieved.  Increase integral accuracy.
 SCF Done:  E(RB3LYP) =  -423.201449111     A.U. after   14 cycles
            NFock= 14  Conv=0.66D-08     -V/T= 2.0075

 **********************************************************************

            Population analysis using the SCF density.

 **********************************************************************

 Orbital symmetries:
       Occupied  (A) (A) (A) (A) (A) (A) (A) (A) (A) (A) (A) (A)
                 (A) (A) (A) (A) (A) (A) (A) (A) (A) (A) (A) (A)
                 (A) (A) (A) (A) (A) (A) (A) (A) (A) (A)
       Virtual   (A) (A) (A) (A) (A) (A) (A) (A) (A) (A) (A) (A)
                 (A) (A) (A) (A) (A) (A) (A) (A) (A) (A) (A) (A)
                 (A) (A) (A) (A) (A) (A) (A) (A) (A) (A) (A) (A)
                 (A) (A) (A) (A) (A) (A) (A) (A) (A) (A) (A) (A)
                 (A) (A) (A) (A) (A) (A) (A) (A) (A) (A) (A) (A)
                 (A) (A) (A) (A) (A) (A) (A) (A) (A) (A) (A) (A)
                 (A) (A) (A) (A) (A) (A) (A) (A) (A) (A) (A) (A)
                 (A) (A) (A) (A) (A) (A) (A) (A) (A) (A) (A) (A)
                 (A) (A) (A) (A) (A) (A) (A) (A) (A) (A) (A) (A)
                 (A) (A) (A) (A) (A) (A) (A) (A) (A) (A) (A) (A)
                 (A) (A) (A) (A) (A) (A) (A) (A) (A) (A) (A) (A)
                 (A) (A) (A) (A) (A) (A) (A) (A) (A) (A) (A) (A)
                 (A) (A) (A) (A) (A) (A) (A) (A) (A) (A) (A) (A)
                 (A) (A) (A) (A) (A) (A) (A) (A) (A) (A) (A) (A)
                 (A) (A) (A) (A) (A) (A) (A) (A) (A) (A) (A) (A)
                 (A) (A) (A) (A) (A) (A) (A) (A) (A) (A) (A) (A)
                 (A) (A) (A) (A) (A) (A) (A) (A) (A) (A) (A) (A)
                 (A) (A) (A) (A) (A) (A) (A) (A) (A) (A) (A) (A)
                 (A) (A) (A) (A) (A) (A) (A) (A) (A) (A) (A) (A)
                 (A) (A) (A) (A) (A) (A) (A) (A) (A) (A) (A) (A)
                 (A) (A) (A) (A) (A) (A) (A) (A) (A) (A) (A) (A)
                 (A) (A) (A) (A) (A) (A) (A) (A) (A) (A) (A) (A)
                 (A) (A) (A) (A)
 The electronic state is 1-A.
 Alpha  occ. eigenvalues --  -19.15396 -19.12675 -10.26805 -10.24741 -10.24324
 Alpha  occ. eigenvalues --  -10.19795 -10.19780 -10.19604 -10.19176  -1.07386
 Alpha  occ. eigenvalues --   -1.03769  -0.81260  -0.77276  -0.73410  -0.65439
 Alpha  occ. eigenvalues --   -0.63635  -0.56419  -0.53345  -0.50711  -0.49266
 Alpha  occ. eigenvalues --   -0.46332  -0.45318  -0.43026  -0.42762  -0.41355
 Alpha  occ. eigenvalues --   -0.39631  -0.37926  -0.36829  -0.34789  -0.34319
 Alpha  occ. eigenvalues --   -0.33784  -0.29934  -0.26999  -0.24092
 Alpha virt. eigenvalues --   -0.01424   0.07944   0.10021   0.10279   0.11410
 Alpha virt. eigenvalues --    0.12594   0.13407   0.15227   0.15602   0.16455
 Alpha virt. eigenvalues --    0.16767   0.18290   0.18676   0.19687   0.20513
 Alpha virt. eigenvalues --    0.21508   0.26047   0.27844   0.30926   0.32918
 Alpha virt. eigenvalues --    0.37974   0.41243   0.43784   0.44727   0.48062
 Alpha virt. eigenvalues --    0.48575   0.49007   0.49714   0.52313   0.53100
 Alpha virt. eigenvalues --    0.53442   0.56745   0.57422   0.58728   0.59310
 Alpha virt. eigenvalues --    0.62303   0.62468   0.65269   0.68095   0.69224
 Alpha virt. eigenvalues --    0.70483   0.71926   0.72912   0.73865   0.74366
 Alpha virt. eigenvalues --    0.74542   0.76555   0.77902   0.78997   0.79873
 Alpha virt. eigenvalues --    0.81210   0.82232   0.83755   0.84541   0.86701
 Alpha virt. eigenvalues --    0.91660   0.92382   0.93367   0.95898   0.98510
 Alpha virt. eigenvalues --    0.99648   1.00838   1.01779   1.03246   1.05653
 Alpha virt. eigenvalues --    1.09044   1.11127   1.15348   1.16609   1.19158
 Alpha virt. eigenvalues --    1.22299   1.24855   1.27997   1.29900   1.31443
 Alpha virt. eigenvalues --    1.33509   1.34723   1.36922   1.38074   1.39527
 Alpha virt. eigenvalues --    1.40319   1.41883   1.42377   1.45314   1.47396
 Alpha virt. eigenvalues --    1.49772   1.50972   1.53393   1.54635   1.56062
 Alpha virt. eigenvalues --    1.56758   1.61421   1.64732   1.65708   1.68422
 Alpha virt. eigenvalues --    1.70468   1.73943   1.74680   1.76839   1.78841
 Alpha virt. eigenvalues --    1.80137   1.84779   1.86275   1.86428   1.89125
 Alpha virt. eigenvalues --    1.90722   1.96257   1.98717   2.02826   2.07627
 Alpha virt. eigenvalues --    2.09780   2.12648   2.21593   2.23306   2.25256
 Alpha virt. eigenvalues --    2.26282   2.29436   2.33996   2.37330   2.39353
 Alpha virt. eigenvalues --    2.43978   2.44729   2.46737   2.51847   2.57201
 Alpha virt. eigenvalues --    2.57754   2.59661   2.67435   2.70275   2.72692
 Alpha virt. eigenvalues --    2.74931   2.78669   2.79871   2.80514   2.81377
 Alpha virt. eigenvalues --    2.84469   2.85387   2.86146   2.89014   2.92154
 Alpha virt. eigenvalues --    2.93258   2.93705   2.99571   3.00488   3.04337
 Alpha virt. eigenvalues --    3.05436   3.10624   3.12857   3.16683   3.17454
 Alpha virt. eigenvalues --    3.18530   3.21685   3.25302   3.26576   3.29425
 Alpha virt. eigenvalues --    3.30780   3.32257   3.35312   3.35815   3.38483
 Alpha virt. eigenvalues --    3.40376   3.42625   3.46142   3.49889   3.51176
 Alpha virt. eigenvalues --    3.54858   3.56737   3.59744   3.60430   3.60892
 Alpha virt. eigenvalues --    3.64751   3.67695   3.70635   3.71765   3.75344
 Alpha virt. eigenvalues --    3.77247   3.78827   3.84180   3.89522   3.90470
 Alpha virt. eigenvalues --    3.97282   4.00523   4.03428   4.07079   4.07793
 Alpha virt. eigenvalues --    4.09948   4.17393   4.18904   4.21351   4.24979
 Alpha virt. eigenvalues --    4.27560   4.28861   4.32532   4.34556   4.35848
 Alpha virt. eigenvalues --    4.37499   4.42368   4.43878   4.49303   4.51272
 Alpha virt. eigenvalues --    4.52109   4.52815   4.55251   4.56055   4.56438
 Alpha virt. eigenvalues --    4.58602   4.62147   4.62911   4.65409   4.67115
 Alpha virt. eigenvalues --    4.67893   4.69347   4.70056   4.73338   4.73971
 Alpha virt. eigenvalues --    4.76932   4.80082   4.80483   4.83843   4.86227
 Alpha virt. eigenvalues --    4.86499   4.87042   4.89487   4.91613   4.93431
 Alpha virt. eigenvalues --    4.94450   4.98583   5.01942   5.04405   5.06445
 Alpha virt. eigenvalues --    5.12120   5.12838   5.20171   5.24216   5.27151
 Alpha virt. eigenvalues --    5.29734   5.31247   5.37939   5.41135   5.45605
 Alpha virt. eigenvalues --    5.47614   5.51349   5.54674   5.56492   5.59666
 Alpha virt. eigenvalues --    5.68102   5.72454   5.92594   5.95361   6.00713
 Alpha virt. eigenvalues --    6.05326   6.05452   6.11883   6.17749   6.37634
 Alpha virt. eigenvalues --    6.43686   6.53679   6.84283   6.88825  10.76018
 Alpha virt. eigenvalues --   11.19932  11.50748  11.98612  12.20284  12.44012
 Alpha virt. eigenvalues --   12.56812  13.09295  13.20839
          Condensed to atoms (all electrons):
               1          2          3          4          5          6
     1  O    7.642628   0.795287  -0.074897  -0.002279   0.000173  -0.000158
     2  C    0.795287   4.243985   0.329930  -0.010044  -0.004692  -0.005158
     3  C   -0.074897   0.329930   5.187050   0.378811  -0.024306   0.000026
     4  C   -0.002279  -0.010044   0.378811   4.842140   0.387901  -0.016023
     5  C    0.000173  -0.004692  -0.024306   0.387901   4.940227   0.394445
     6  C   -0.000158  -0.005158   0.000026  -0.016023   0.394445   4.670560
     7  O   -0.000534   0.014817  -0.004128   0.003459  -0.034163   0.262869
     8  C    0.000133  -0.012647   0.003361  -0.005058   0.000274   0.344083
     9  C   -0.073341   0.306079  -0.117181  -0.001857  -0.001941   0.001973
    10  H    0.002450  -0.011154   0.335294  -0.020080   0.003563   0.000058
    11  H    0.002773  -0.018800   0.337270  -0.033310  -0.005967  -0.000760
    12  H    0.001493  -0.003070  -0.040242   0.373810  -0.033178  -0.007755
    13  H   -0.000041   0.001682  -0.027190   0.361720  -0.026636   0.003208
    14  H    0.000000   0.000071   0.004095  -0.029521   0.361129  -0.026754
    15  H   -0.000001   0.000016  -0.007432  -0.028423   0.353369  -0.028360
    16  H   -0.000003   0.000119  -0.000218   0.005422  -0.071760   0.377799
    17  H   -0.000100   0.003552  -0.000436   0.000180   0.001936  -0.032212
    18  H    0.003748  -0.010630   0.006818  -0.000096  -0.000020   0.003560
    19  H    0.001702  -0.008657   0.000235   0.000145   0.000183  -0.004947
               7          8          9         10         11         12
     1  O   -0.000534   0.000133  -0.073341   0.002450   0.002773   0.001493
     2  C    0.014817  -0.012647   0.306079  -0.011154  -0.018800  -0.003070
     3  C   -0.004128   0.003361  -0.117181   0.335294   0.337270  -0.040242
     4  C    0.003459  -0.005058  -0.001857  -0.020080  -0.033310   0.373810
     5  C   -0.034163   0.000274  -0.001941   0.003563  -0.005967  -0.033178
     6  C    0.262869   0.344083   0.001973   0.000058  -0.000760  -0.007755
     7  O    7.809634   0.274520  -0.042114  -0.000031   0.000041   0.008681
     8  C    0.274520   4.688274   0.355066  -0.000005  -0.001077  -0.001245
     9  C   -0.042114   0.355066   5.315934   0.006326   0.001990   0.000674
    10  H   -0.000031  -0.000005   0.006326   0.601273  -0.032159   0.000171
    11  H    0.000041  -0.001077   0.001990  -0.032159   0.638646   0.005959
    12  H    0.008681  -0.001245   0.000674   0.000171   0.005959   0.593062
    13  H    0.000275   0.000065  -0.000285  -0.007321  -0.001878  -0.034431
    14  H   -0.001012   0.003996   0.000032  -0.000186   0.000055  -0.001727
    15  H    0.002580  -0.005407   0.000237   0.000035   0.005611   0.005736
    16  H   -0.024003  -0.034995   0.001997   0.000003  -0.000023   0.000185
    17  H   -0.022635   0.377135  -0.067214   0.000004  -0.000003   0.000045
    18  H   -0.001077  -0.020062   0.330053  -0.000246  -0.000191  -0.000035
    19  H    0.002646  -0.022744   0.326103  -0.000215   0.001479   0.000011
              13         14         15         16         17         18
     1  O   -0.000041   0.000000  -0.000001  -0.000003  -0.000100   0.003748
     2  C    0.001682   0.000071   0.000016   0.000119   0.003552  -0.010630
     3  C   -0.027190   0.004095  -0.007432  -0.000218  -0.000436   0.006818
     4  C    0.361720  -0.029521  -0.028423   0.005422   0.000180  -0.000096
     5  C   -0.026636   0.361129   0.353369  -0.071760   0.001936  -0.000020
     6  C    0.003208  -0.026754  -0.028360   0.377799  -0.032212   0.003560
     7  O    0.000275  -0.001012   0.002580  -0.024003  -0.022635  -0.001077
     8  C    0.000065   0.003996  -0.005407  -0.034995   0.377135  -0.020062
     9  C   -0.000285   0.000032   0.000237   0.001997  -0.067214   0.330053
    10  H   -0.007321  -0.000186   0.000035   0.000003   0.000004  -0.000246
    11  H   -0.001878   0.000055   0.005611  -0.000023  -0.000003  -0.000191
    12  H   -0.034431  -0.001727   0.005736   0.000185   0.000045  -0.000035
    13  H    0.632243  -0.004073  -0.002654  -0.000158   0.000004   0.000006
    14  H   -0.004073   0.625234  -0.037635  -0.006245  -0.000136   0.000004
    15  H   -0.002654  -0.037635   0.633455   0.003345   0.000183  -0.000017
    16  H   -0.000158  -0.006245   0.003345   0.662629  -0.004421  -0.000124
    17  H    0.000004  -0.000136   0.000183  -0.004421   0.651763  -0.005982
    18  H    0.000006   0.000004  -0.000017  -0.000124  -0.005982   0.593410
    19  H    0.000005  -0.000015   0.000089   0.000199   0.002066  -0.032216
              19
     1  O    0.001702
     2  C   -0.008657
     3  C    0.000235
     4  C    0.000145
     5  C    0.000183
     6  C   -0.004947
     7  O    0.002646
     8  C   -0.022744
     9  C    0.326103
    10  H   -0.000215
    11  H    0.001479
    12  H    0.000011
    13  H    0.000005
    14  H   -0.000015
    15  H    0.000089
    16  H    0.000199
    17  H    0.002066
    18  H   -0.032216
    19  H    0.614914
 Mulliken charges:
               1
     1  O   -0.299033
     2  C    0.389313
     3  C   -0.286859
     4  C   -0.206898
     5  C   -0.240537
     6  C    0.063546
     7  O   -0.249825
     8  C    0.056335
     9  C   -0.342530
    10  H    0.122221
    11  H    0.100343
    12  H    0.131856
    13  H    0.105460
    14  H    0.112686
    15  H    0.105275
    16  H    0.090255
    17  H    0.096274
    18  H    0.133099
    19  H    0.119019
 Sum of Mulliken charges =   0.00000
 Mulliken charges with hydrogens summed into heavy atoms:
               1
     1  O   -0.299033
     2  C    0.389313
     3  C   -0.064295
     4  C    0.030418
     5  C   -0.022576
     6  C    0.153801
     7  O   -0.249825
     8  C    0.152609
     9  C   -0.090412
 Electronic spatial extent (au):  <R**2>=           1077.9866
 Charge=              0.0000 electrons
 Dipole moment (field-independent basis, Debye):
    X=              2.2819    Y=              1.0453    Z=              3.0360  Tot=              3.9392
 Quadrupole moment (field-independent basis, Debye-Ang):
   XX=            -58.2580   YY=            -49.6758   ZZ=            -54.6687
   XY=             -0.2819   XZ=             -1.6946   YZ=             -2.8706
 Traceless Quadrupole moment (field-independent basis, Debye-Ang):
   XX=             -4.0571   YY=              4.5250   ZZ=             -0.4679
   XY=             -0.2819   XZ=             -1.6946   YZ=             -2.8706
 Octapole moment (field-independent basis, Debye-Ang**2):
  XXX=             22.8809  YYY=             -6.9042  ZZZ=             -2.4824  XYY=             -2.0537
  XXY=              2.8768  XXZ=              7.9246  XZZ=             -2.7911  YZZ=              1.1673
  YYZ=              0.5726  XYZ=             -1.3560
 Hexadecapole moment (field-independent basis, Debye-Ang**3):
 XXXX=           -716.7566 YYYY=           -505.9074 ZZZZ=           -164.1401 XXXY=            -11.6608
 XXXZ=            -17.6989 YYYX=             -2.8625 YYYZ=             -0.7903 ZZZX=              1.3160
 ZZZY=              1.8286 XXYY=           -196.6786 XXZZ=           -149.2670 YYZZ=           -118.6564
 XXYZ=             -5.6439 YYXZ=              2.9411 ZZXY=              3.0880
 N-N= 4.652353315186D+02 E-N=-1.917008435832D+03  KE= 4.200383776534D+02
 Calling FoFJK, ICntrl=      2127 FMM=F ISym2X=0 I1Cent= 0 IOpClX= 0 NMat=1 NMatS=1 NMatT=0.
 ***** Axes restored to original set *****
 -------------------------------------------------------------------
 Center     Atomic                   Forces (Hartrees/Bohr)
 Number     Number              X              Y              Z
 -------------------------------------------------------------------
      1        8          -0.000003394   -0.000001046    0.000014837
      2        6           0.000017332    0.000040819    0.000004395
      3        6          -0.000026190   -0.000013183    0.000005256
      4        6           0.000003757    0.000001211   -0.000015942
      5        6          -0.000003279    0.000000428   -0.000005877
      6        6           0.000009787   -0.000037643    0.000014407
      7        8           0.000000507    0.000002992    0.000006300
      8        6          -0.000016049    0.000022749   -0.000004739
      9        6           0.000008538   -0.000000501   -0.000007050
     10        1           0.000007587    0.000004103    0.000000990
     11        1           0.000007220    0.000005230   -0.000008186
     12        1          -0.000004504   -0.000004692    0.000004359
     13        1           0.000004945   -0.000008986    0.000000022
     14        1          -0.000000045   -0.000011400   -0.000008860
     15        1           0.000001973   -0.000008130   -0.000008961
     16        1          -0.000004179   -0.000009329   -0.000008947
     17        1          -0.000002924    0.000001014    0.000006393
     18        1          -0.000001709    0.000007467    0.000009403
     19        1           0.000000628    0.000008897    0.000002200
 -------------------------------------------------------------------
 Cartesian Forces:  Max     0.000040819 RMS     0.000011336

 GradGradGradGradGradGradGradGradGradGradGradGradGradGradGradGradGradGrad
 Berny optimization.
 FormGI is forming the generalized inverse of G from B-inverse, IUseBI=4.
 Internal  Forces:  Max     0.000017234 RMS     0.000003643
 Search for a local minimum.
 Step number   1 out of a maximum of  114
 All quantities printed in internal units (Hartrees-Bohrs-Radians)
 Mixed Optimization -- En-DIIS/RFO-DIIS
 Second derivative matrix not updated -- first step.
 ITU=  0
     Eigenvalues ---    0.00454   0.00571   0.00624   0.01055   0.01633
     Eigenvalues ---    0.02099   0.02275   0.03182   0.03295   0.03831
     Eigenvalues ---    0.04561   0.04781   0.05053   0.05632   0.06096
     Eigenvalues ---    0.07503   0.08735   0.08943   0.09117   0.09441
     Eigenvalues ---    0.09942   0.10920   0.12691   0.13425   0.14106
     Eigenvalues ---    0.14298   0.15344   0.16210   0.17538   0.22298
     Eigenvalues ---    0.24989   0.27281   0.28474   0.28796   0.29515
     Eigenvalues ---    0.30002   0.30548   0.30689   0.31865   0.33738
     Eigenvalues ---    0.33762   0.33888   0.33995   0.34252   0.34281
     Eigenvalues ---    0.34386   0.34448   0.34498   0.34500   0.39379
     Eigenvalues ---    1.00633
 RFO step:  Lambda=-1.60900885D-08 EMin= 4.54045066D-03
 Linear search not attempted -- first point.
 Iteration  1 RMS(Cart)=  0.00007106 RMS(Int)=  0.00000001
 Iteration  2 RMS(Cart)=  0.00000001 RMS(Int)=  0.00000000
 Variable       Old X    -DE/DX   Delta X   Delta X   Delta X     New X
                                 (Linear)    (Quad)   (Total)
    R1        2.28386  -0.00001   0.00000  -0.00001  -0.00001   2.28385
    R2        2.87216   0.00002   0.00000   0.00005   0.00005   2.87221
    R3        2.88587   0.00000   0.00000  -0.00001  -0.00001   2.88586
    R4        2.91352  -0.00001   0.00000  -0.00004  -0.00004   2.91348
    R5        2.06498  -0.00001   0.00000  -0.00002  -0.00002   2.06497
    R6        2.07520   0.00000   0.00000   0.00000   0.00000   2.07520
    R7        2.89252   0.00000   0.00000   0.00001   0.00001   2.89253
    R8        2.06858   0.00000   0.00000   0.00000   0.00000   2.06858
    R9        2.06906   0.00000   0.00000  -0.00001  -0.00001   2.06905
   R10        2.86306   0.00000   0.00000   0.00001   0.00001   2.86307
   R11        2.07338   0.00000   0.00000  -0.00001  -0.00001   2.07337
   R12        2.07734   0.00000   0.00000   0.00000   0.00000   2.07734
   R13        2.71131   0.00001   0.00000   0.00004   0.00004   2.71135
   R14        2.78021   0.00000   0.00000  -0.00001  -0.00001   2.78020
   R15        2.06580  -0.00001   0.00000  -0.00002  -0.00002   2.06579
   R16        2.70826   0.00000   0.00000  -0.00002  -0.00002   2.70825
   R17        2.86465   0.00000   0.00000  -0.00001  -0.00001   2.86464
   R18        2.06494   0.00000   0.00000   0.00000   0.00000   2.06494
   R19        2.06683   0.00000   0.00000  -0.00001  -0.00001   2.06682
   R20        2.07774   0.00000   0.00000   0.00000   0.00000   2.07774
    A1        2.11756   0.00000   0.00000   0.00002   0.00002   2.11758
    A2        2.10050   0.00001   0.00000   0.00004   0.00004   2.10054
    A3        2.06484  -0.00001   0.00000  -0.00007  -0.00007   2.06477
    A4        1.97152   0.00000   0.00000  -0.00008  -0.00008   1.97144
    A5        1.85964   0.00000   0.00000   0.00000   0.00000   1.85964
    A6        1.91689   0.00000   0.00000  -0.00001  -0.00001   1.91688
    A7        1.91396   0.00000   0.00000   0.00004   0.00004   1.91400
    A8        1.90918   0.00000   0.00000   0.00004   0.00004   1.90922
    A9        1.89060   0.00000   0.00000   0.00002   0.00002   1.89062
   A10        2.01292   0.00000   0.00000   0.00001   0.00001   2.01292
   A11        1.90822   0.00000   0.00000   0.00001   0.00001   1.90823
   A12        1.88165   0.00000   0.00000   0.00002   0.00002   1.88167
   A13        1.91083   0.00000   0.00000   0.00002   0.00002   1.91085
   A14        1.88038   0.00000   0.00000  -0.00006  -0.00006   1.88032
   A15        1.86383   0.00000   0.00000   0.00000   0.00000   1.86383
   A16        2.04080   0.00001   0.00000   0.00005   0.00005   2.04085
   A17        1.88772   0.00000   0.00000  -0.00002  -0.00002   1.88770
   A18        1.92329   0.00000   0.00000  -0.00001  -0.00001   1.92328
   A19        1.86923   0.00000   0.00000  -0.00001  -0.00001   1.86922
   A20        1.88674   0.00000   0.00000  -0.00001  -0.00001   1.88673
   A21        1.84579   0.00000   0.00000   0.00000   0.00000   1.84579
   A22        2.07305   0.00000   0.00000  -0.00005  -0.00005   2.07300
   A23        2.23127  -0.00001   0.00000  -0.00001  -0.00001   2.23126
   A24        1.96325   0.00000   0.00000   0.00002   0.00002   1.96327
   A25        1.97018   0.00000   0.00000   0.00002   0.00002   1.97020
   A26        2.00161   0.00000   0.00000   0.00002   0.00002   2.00163
   A27        2.23823   0.00000   0.00000  -0.00001  -0.00001   2.23822
   A28        2.01049  -0.00001   0.00000  -0.00005  -0.00005   2.01044
   A29        2.06935   0.00000   0.00000   0.00008   0.00008   2.06943
   A30        1.97490   0.00000   0.00000  -0.00001  -0.00001   1.97490
   A31        1.95049   0.00000   0.00000   0.00000   0.00000   1.95050
   A32        2.03616   0.00000   0.00000  -0.00004  -0.00004   2.03611
   A33        1.85848   0.00000   0.00000   0.00004   0.00004   1.85852
   A34        1.90099   0.00000   0.00000   0.00000   0.00000   1.90099
   A35        1.89814   0.00000   0.00000   0.00002   0.00002   1.89816
   A36        1.88844   0.00000   0.00000  -0.00003  -0.00003   1.88840
   A37        1.87579   0.00000   0.00000   0.00003   0.00003   1.87582
    D1       -1.84660   0.00000   0.00000  -0.00013  -0.00013  -1.84673
    D2        0.25600   0.00000   0.00000  -0.00013  -0.00013   0.25587
    D3        2.30007   0.00000   0.00000  -0.00012  -0.00012   2.29995
    D4        1.32086   0.00000   0.00000   0.00017   0.00017   1.32103
    D5       -2.85972   0.00000   0.00000   0.00017   0.00017  -2.85954
    D6       -0.81565   0.00000   0.00000   0.00019   0.00019  -0.81546
    D7        2.05127   0.00000   0.00000   0.00010   0.00010   2.05137
    D8       -0.07083   0.00000   0.00000   0.00007   0.00007  -0.07076
    D9       -2.08884   0.00000   0.00000   0.00002   0.00002  -2.08882
   D10       -1.11594   0.00000   0.00000  -0.00020  -0.00020  -1.11614
   D11        3.04515   0.00000   0.00000  -0.00023  -0.00023   3.04493
   D12        1.02714  -0.00001   0.00000  -0.00028  -0.00028   1.02686
   D13       -1.33308   0.00000   0.00000  -0.00005  -0.00005  -1.33312
   D14        0.82865   0.00000   0.00000  -0.00001  -0.00001   0.82864
   D15        2.84864   0.00000   0.00000   0.00001   0.00001   2.84865
   D16        2.87881   0.00000   0.00000  -0.00002  -0.00002   2.87879
   D17       -1.24266   0.00000   0.00000   0.00002   0.00002  -1.24264
   D18        0.77734   0.00000   0.00000   0.00004   0.00004   0.77737
   D19        0.80774   0.00000   0.00000  -0.00009  -0.00009   0.80765
   D20        2.96947   0.00000   0.00000  -0.00005  -0.00005   2.96941
   D21       -1.29373   0.00000   0.00000  -0.00003  -0.00003  -1.29376
   D22        1.17247   0.00000   0.00000  -0.00006  -0.00006   1.17241
   D23       -3.00046   0.00000   0.00000  -0.00006  -0.00006  -3.00052
   D24       -0.99053   0.00000   0.00000  -0.00008  -0.00008  -0.99061
   D25       -0.98788   0.00000   0.00000  -0.00009  -0.00009  -0.98797
   D26        1.12238   0.00000   0.00000  -0.00009  -0.00009   1.12229
   D27        3.13231   0.00000   0.00000  -0.00011  -0.00011   3.13219
   D28       -3.00855   0.00000   0.00000  -0.00007  -0.00007  -3.00862
   D29       -0.89829   0.00000   0.00000  -0.00007  -0.00007  -0.89837
   D30        1.11163   0.00000   0.00000  -0.00009  -0.00009   1.11154
   D31        0.51823   0.00000   0.00000   0.00012   0.00012   0.51835
   D32       -0.73146   0.00000   0.00000   0.00017   0.00017  -0.73129
   D33        2.87496   0.00000   0.00000   0.00012   0.00012   2.87508
   D34       -1.60174   0.00000   0.00000   0.00013   0.00013  -1.60161
   D35       -2.85142   0.00000   0.00000   0.00018   0.00018  -2.85125
   D36        0.75499   0.00000   0.00000   0.00012   0.00012   0.75511
   D37        2.69973   0.00000   0.00000   0.00014   0.00014   2.69987
   D38        1.45004   0.00000   0.00000   0.00019   0.00019   1.45023
   D39       -1.22673   0.00000   0.00000   0.00014   0.00014  -1.22659
   D40        0.00664   0.00000   0.00000  -0.00019  -0.00019   0.00645
   D41       -2.66641   0.00000   0.00000  -0.00004  -0.00004  -2.66645
   D42        2.67492   0.00000   0.00000  -0.00013  -0.00013   2.67479
   D43        0.00187   0.00000   0.00000   0.00002   0.00002   0.00189
   D44        0.67879   0.00000   0.00000   0.00017   0.00017   0.67896
   D45        2.77991   0.00001   0.00000   0.00021   0.00021   2.78012
   D46       -1.47079   0.00001   0.00000   0.00024   0.00024  -1.47055
   D47       -0.57318   0.00000   0.00000   0.00010   0.00010  -0.57308
   D48        1.52794   0.00000   0.00000   0.00014   0.00014   1.52807
   D49       -2.72276   0.00000   0.00000   0.00016   0.00016  -2.72259
   D50       -2.91837   0.00000   0.00000   0.00002   0.00002  -2.91835
   D51       -0.81725   0.00000   0.00000   0.00005   0.00005  -0.81720
   D52        1.21524   0.00000   0.00000   0.00008   0.00008   1.21532
         Item               Value     Threshold  Converged?
 Maximum Force            0.000017     0.000450     YES
 RMS     Force            0.000004     0.000300     YES
 Maximum Displacement     0.000328     0.001800     YES
 RMS     Displacement     0.000071     0.001200     YES
 Predicted change in Energy=-8.044850D-09
 Optimization completed.
    -- Stationary point found.
                           ----------------------------
                           !   Optimized Parameters   !
                           ! (Angstroms and Degrees)  !
 --------------------------                            --------------------------
 ! Name  Definition              Value          Derivative Info.                !
 --------------------------------------------------------------------------------
 ! R1    R(1,2)                  1.2086         -DE/DX =    0.0                 !
 ! R2    R(2,3)                  1.5199         -DE/DX =    0.0                 !
 ! R3    R(2,9)                  1.5271         -DE/DX =    0.0                 !
 ! R4    R(3,4)                  1.5418         -DE/DX =    0.0                 !
 ! R5    R(3,10)                 1.0927         -DE/DX =    0.0                 !
 ! R6    R(3,11)                 1.0981         -DE/DX =    0.0                 !
 ! R7    R(4,5)                  1.5307         -DE/DX =    0.0                 !
 ! R8    R(4,12)                 1.0946         -DE/DX =    0.0                 !
 ! R9    R(4,13)                 1.0949         -DE/DX =    0.0                 !
 ! R10   R(5,6)                  1.5151         -DE/DX =    0.0                 !
 ! R11   R(5,14)                 1.0972         -DE/DX =    0.0                 !
 ! R12   R(5,15)                 1.0993         -DE/DX =    0.0                 !
 ! R13   R(6,7)                  1.4348         -DE/DX =    0.0                 !
 ! R14   R(6,8)                  1.4712         -DE/DX =    0.0                 !
 ! R15   R(6,16)                 1.0932         -DE/DX =    0.0                 !
 ! R16   R(7,8)                  1.4332         -DE/DX =    0.0                 !
 ! R17   R(8,9)                  1.5159         -DE/DX =    0.0                 !
 ! R18   R(8,17)                 1.0927         -DE/DX =    0.0                 !
 ! R19   R(9,18)                 1.0937         -DE/DX =    0.0                 !
 ! R20   R(9,19)                 1.0995         -DE/DX =    0.0                 !
 ! A1    A(1,2,3)              121.3272         -DE/DX =    0.0                 !
 ! A2    A(1,2,9)              120.3497         -DE/DX =    0.0                 !
 ! A3    A(3,2,9)              118.3064         -DE/DX =    0.0                 !
 ! A4    A(2,3,4)              112.9596         -DE/DX =    0.0                 !
 ! A5    A(2,3,10)             106.5496         -DE/DX =    0.0                 !
 ! A6    A(2,3,11)             109.8299         -DE/DX =    0.0                 !
 ! A7    A(4,3,10)             109.6617         -DE/DX =    0.0                 !
 ! A8    A(4,3,11)             109.388          -DE/DX =    0.0                 !
 ! A9    A(10,3,11)            108.3236         -DE/DX =    0.0                 !
 ! A10   A(3,4,5)              115.3316         -DE/DX =    0.0                 !
 ! A11   A(3,4,12)             109.3328         -DE/DX =    0.0                 !
 ! A12   A(3,4,13)             107.8104         -DE/DX =    0.0                 !
 ! A13   A(5,4,12)             109.4828         -DE/DX =    0.0                 !
 ! A14   A(5,4,13)             107.7376         -DE/DX =    0.0                 !
 ! A15   A(12,4,13)            106.7895         -DE/DX =    0.0                 !
 ! A16   A(4,5,6)              116.9291         -DE/DX =    0.0                 !
 ! A17   A(4,5,14)             108.1586         -DE/DX =    0.0                 !
 ! A18   A(4,5,15)             110.1964         -DE/DX =    0.0                 !
 ! A19   A(6,5,14)             107.0991         -DE/DX =    0.0                 !
 ! A20   A(6,5,15)             108.1022         -DE/DX =    0.0                 !
 ! A21   A(14,5,15)            105.7563         -DE/DX =    0.0                 !
 ! A22   A(5,6,7)              118.777          -DE/DX =    0.0                 !
 ! A23   A(5,6,8)              127.8426         -DE/DX =    0.0                 !
 ! A24   A(5,6,16)             112.4859         -DE/DX =    0.0                 !
 ! A25   A(7,6,16)             112.8831         -DE/DX =    0.0                 !
 ! A26   A(8,6,16)             114.6838         -DE/DX =    0.0                 !
 ! A27   A(6,8,9)              128.241          -DE/DX =    0.0                 !
 ! A28   A(6,8,17)             115.1926         -DE/DX =    0.0                 !
 ! A29   A(7,8,9)              118.565          -DE/DX =    0.0                 !
 ! A30   A(7,8,17)             113.1536         -DE/DX =    0.0                 !
 ! A31   A(9,8,17)             111.755          -DE/DX =    0.0                 !
 ! A32   A(2,9,8)              116.6631         -DE/DX =    0.0                 !
 ! A33   A(2,9,18)             106.4832         -DE/DX =    0.0                 !
 ! A34   A(2,9,19)             108.9187         -DE/DX =    0.0                 !
 ! A35   A(8,9,18)             108.7557         -DE/DX =    0.0                 !
 ! A36   A(8,9,19)             108.1994         -DE/DX =    0.0                 !
 ! A37   A(18,9,19)            107.475          -DE/DX =    0.0                 !
 ! D1    D(1,2,3,4)           -105.8026         -DE/DX =    0.0                 !
 ! D2    D(1,2,3,10)            14.6678         -DE/DX =    0.0                 !
 ! D3    D(1,2,3,11)           131.7844         -DE/DX =    0.0                 !
 ! D4    D(9,2,3,4)             75.6799         -DE/DX =    0.0                 !
 ! D5    D(9,2,3,10)          -163.8497         -DE/DX =    0.0                 !
 ! D6    D(9,2,3,11)           -46.7332         -DE/DX =    0.0                 !
 ! D7    D(1,2,9,8)            117.529          -DE/DX =    0.0                 !
 ! D8    D(1,2,9,18)            -4.0581         -DE/DX =    0.0                 !
 ! D9    D(1,2,9,19)          -119.6817         -DE/DX =    0.0                 !
 ! D10   D(3,2,9,8)            -63.9384         -DE/DX =    0.0                 !
 ! D11   D(3,2,9,18)           174.4745         -DE/DX =    0.0                 !
 ! D12   D(3,2,9,19)            58.8509         -DE/DX =    0.0                 !
 ! D13   D(2,3,4,5)            -76.3796         -DE/DX =    0.0                 !
 ! D14   D(2,3,4,12)            47.4781         -DE/DX =    0.0                 !
 ! D15   D(2,3,4,13)           163.2151         -DE/DX =    0.0                 !
 ! D16   D(10,3,4,5)           164.9434         -DE/DX =    0.0                 !
 ! D17   D(10,3,4,12)          -71.1989         -DE/DX =    0.0                 !
 ! D18   D(10,3,4,13)           44.538          -DE/DX =    0.0                 !
 ! D19   D(11,3,4,5)            46.2803         -DE/DX =    0.0                 !
 ! D20   D(11,3,4,12)          170.138          -DE/DX =    0.0                 !
 ! D21   D(11,3,4,13)          -74.1251         -DE/DX =    0.0                 !
 ! D22   D(3,4,5,6)             67.1776         -DE/DX =    0.0                 !
 ! D23   D(3,4,5,14)          -171.9136         -DE/DX =    0.0                 !
 ! D24   D(3,4,5,15)           -56.7533         -DE/DX =    0.0                 !
 ! D25   D(12,4,5,6)           -56.6012         -DE/DX =    0.0                 !
 ! D26   D(12,4,5,14)           64.3076         -DE/DX =    0.0                 !
 ! D27   D(12,4,5,15)          179.4679         -DE/DX =    0.0                 !
 ! D28   D(13,4,5,6)          -172.3773         -DE/DX =    0.0                 !
 ! D29   D(13,4,5,14)          -51.4684         -DE/DX =    0.0                 !
 ! D30   D(13,4,5,15)           63.6918         -DE/DX =    0.0                 !
 ! D31   D(4,5,6,7)             29.6923         -DE/DX =    0.0                 !
 ! D32   D(4,5,6,8)            -41.9094         -DE/DX =    0.0                 !
 ! D33   D(4,5,6,16)           164.723          -DE/DX =    0.0                 !
 ! D34   D(14,5,6,7)           -91.7729         -DE/DX =    0.0                 !
 ! D35   D(14,5,6,8)          -163.3745         -DE/DX =    0.0                 !
 ! D36   D(14,5,6,16)           43.2579         -DE/DX =    0.0                 !
 ! D37   D(15,5,6,7)           154.6829         -DE/DX =    0.0                 !
 ! D38   D(15,5,6,8)            83.0812         -DE/DX =    0.0                 !
 ! D39   D(15,5,6,16)          -70.2864         -DE/DX =    0.0                 !
 ! D40   D(5,6,8,9)              0.3804         -DE/DX =    0.0                 !
 ! D41   D(5,6,8,17)          -152.774          -DE/DX =    0.0                 !
 ! D42   D(16,6,8,9)           153.2616         -DE/DX =    0.0                 !
 ! D43   D(16,6,8,17)            0.1072         -DE/DX =    0.0                 !
 ! D44   D(6,8,9,2)             38.8917         -DE/DX =    0.0                 !
 ! D45   D(6,8,9,18)           159.2768         -DE/DX =    0.0                 !
 ! D46   D(6,8,9,19)           -84.2698         -DE/DX =    0.0                 !
 ! D47   D(7,8,9,2)            -32.8409         -DE/DX =    0.0                 !
 ! D48   D(7,8,9,18)            87.5443         -DE/DX =    0.0                 !
 ! D49   D(7,8,9,19)          -156.0024         -DE/DX =    0.0                 !
 ! D50   D(17,8,9,2)          -167.2103         -DE/DX =    0.0                 !
 ! D51   D(17,8,9,18)          -46.8252         -DE/DX =    0.0                 !
 ! D52   D(17,8,9,19)           69.6282         -DE/DX =    0.0                 !
 --------------------------------------------------------------------------------
 GradGradGradGradGradGradGradGradGradGradGradGradGradGradGradGradGradGrad

                          Input orientation:                          
 ---------------------------------------------------------------------
 Center     Atomic      Atomic             Coordinates (Angstroms)
 Number     Number       Type             X           Y           Z
 ---------------------------------------------------------------------
      1          8           0       -0.029080    1.840608   -3.294363
      2          6           0       -0.092973    0.808027   -2.669598
      3          6           0       -1.421764    0.110076   -2.430393
      4          6           0       -1.930353    0.264692   -0.983161
      5          6           0       -1.230081   -0.615874    0.054686
      6          6           0        0.226043   -0.311772    0.342171
      7          8           0        0.691274    1.037809    0.198185
      8          6           0        1.285437    0.023793   -0.621975
      9          6           0        1.176366    0.153829   -2.128350
     10          1           0       -2.138450    0.559698   -3.121974
     11          1           0       -1.330954   -0.957122   -2.672822
     12          1           0       -1.854033    1.314447   -0.682434
     13          1           0       -2.995046    0.009473   -0.973279
     14          1           0       -1.772543   -0.522943    1.003852
     15          1           0       -1.307940   -1.674463   -0.231223
     16          1           0        0.578952   -0.787306    1.261060
     17          1           0        2.298723   -0.241503   -0.310678
     18          1           0        2.014524    0.755676   -2.490977
     19          1           0        1.275658   -0.849167   -2.567694
 ---------------------------------------------------------------------
                    Distance matrix (angstroms):
                    1          2          3          4          5
     1  O    0.000000
     2  C    1.208568   0.000000
     3  C    2.383433   1.519881   0.000000
     4  C    3.382307   2.552498   1.541768   0.000000
     5  C    4.323521   3.277534   2.596028   1.530654   0.000000
     6  C    4.233462   3.229005   3.252742   2.595931   1.515065
     7  O    3.655309   2.981949   3.497862   2.977619   2.539068
     8  C    3.488614   2.589942   3.256802   3.244964   2.682327
     9  C    2.378636   1.527136   2.615994   3.312922   3.339024
    10  H    2.473841   2.109570   1.092741   2.169067   3.506889
    11  H    3.147773   2.156005   1.098148   2.169577   2.750623
    12  H    3.229469   2.703075   2.166269   1.094644   2.158425
    13  H    4.187773   3.455028   2.146746   1.094901   2.136088
    14  H    5.205832   4.252843   3.509672   2.143244   1.097186
    15  H    4.834670   3.685726   2.834411   2.170975   1.099280
    16  H    5.294101   4.294955   4.293597   3.527015   2.181130
    17  H    4.319286   3.519407   4.296373   4.312023   3.567366
    18  H    2.449250   2.115701   3.496933   4.251661   4.346149
    19  H    3.076569   2.151704   2.866197   3.745655   3.634560
                    6          7          8          9         10
     6  C    0.000000
     7  O    1.434762   0.000000
     8  C    1.471223   1.433150   0.000000
     9  C    2.687633   2.535646   1.515907   0.000000
    10  H    4.283758   4.388551   4.273195   3.484254   0.000000
    11  H    3.454113   4.038791   3.466074   2.795946   1.776100
    12  H    2.832158   2.707509   3.394955   3.552608   2.569414
    13  H    3.494141   4.002345   4.294899   4.330787   2.377687
    14  H    2.115836   3.025796   3.506206   4.354857   4.281172
    15  H    2.130449   3.396715   3.124479   3.621260   3.746687
    16  H    1.093176   2.115033   2.168599   3.568016   5.330073
    17  H    2.174201   2.116476   1.092719   2.172534   5.313550
    18  H    3.516367   3.010346   2.135507   1.093721   4.205206
    19  H    3.139713   3.398863   2.132599   1.099493   3.734737
                   11         12         13         14         15
    11  H    0.000000
    12  H    3.065172   0.000000
    13  H    2.567481   1.757686   0.000000
    14  H    3.728464   2.495236   2.384749   0.000000
    15  H    2.544900   3.071708   2.496520   1.751361   0.000000
    16  H    4.376300   3.756854   4.289591   2.380247   2.564043
    17  H    4.389349   4.450232   5.340975   4.287470   3.881714
    18  H    3.762840   4.306830   5.287345   5.309480   4.695831
    19  H    2.610963   4.246221   4.638786   4.706792   3.579831
                   16         17         18         19
    16  H    0.000000
    17  H    2.392879   0.000000
    18  H    4.303421   2.414299   0.000000
    19  H    3.892117   2.551478   1.768426   0.000000
 Stoichiometry    C7H10O2
 Framework group  C1[X(C7H10O2)]
 Deg. of freedom    51
 Full point group                 C1      NOp   1
 Largest Abelian subgroup         C1      NOp   1
 Largest concise Abelian subgroup C1      NOp   1
                         Standard orientation:                         
 ---------------------------------------------------------------------
 Center     Atomic      Atomic             Coordinates (Angstroms)
 Number     Number       Type             X           Y           Z
 ---------------------------------------------------------------------
      1          8           0       -2.421839   -0.326461   -0.636565
      2          6           0       -1.473313   -0.115183    0.081973
      3          6           0       -1.042841    1.301189    0.426388
      4          6           0        0.238681    1.736610   -0.311960
      5          6           0        1.542683    1.157707    0.242434
      6          6           0        1.748110   -0.336004    0.093938
      7          8           0        1.148524   -1.008000   -1.022959
      8          6           0        0.760771   -1.407531    0.297626
      9          6           0       -0.696150   -1.277701    0.695744
     10          1           0       -1.870761    1.955706    0.143123
     11          1           0       -0.887451    1.390253    1.509832
     12          1           0        0.149102    1.483801   -1.373237
     13          1           0        0.305772    2.827771   -0.251338
     14          1           0        2.379743    1.650737   -0.267537
     15          1           0        1.649198    1.413032    1.306333
     16          1           0        2.786396   -0.633976    0.261893
     17          1           0        1.177063   -2.373424    0.593913
     18          1           0       -1.222909   -2.191039    0.404944
     19          1           0       -0.747276   -1.201695    1.791414
 ---------------------------------------------------------------------
 Rotational constants (GHZ):      2.3775494      1.6801821      1.1881626
 1\1\GINC-ALCHEMY-BE\FOpt\RB3LYP\6-31G(2df,p)\C7H10O2\PUCK\27-Jan-2020\
 0\\# b3lyp 6-31G(2df,p) opt Freq\\titel\\0,1\O,-0.0290801694,1.8406075
 189,-3.2943630773\C,-0.0929730973,0.8080267537,-2.6695983222\C,-1.4217
 640291,0.1100762082,-2.4303925209\C,-1.9303525668,0.2646923605,-0.9831
 610977\C,-1.2300811861,-0.6158737488,0.0546858912\C,0.2260429638,-0.31
 17719065,0.3421707305\O,0.6912741279,1.0378093894,0.1981845463\C,1.285
 4372949,0.0237931694,-0.6219748421\C,1.1763661895,0.1538293712,-2.1283
 5037\H,-2.1384502949,0.5596981709,-3.121973677\H,-1.330953686,-0.95712
 17282,-2.6728221347\H,-1.8540332686,1.3144466317,-0.6824343088\H,-2.99
 50464203,0.0094727848,-0.9732790308\H,-1.7725432894,-0.5229426547,1.00
 38519525\H,-1.3079402062,-1.6744629599,-0.2312227588\H,0.5789524344,-0
 .7873056858,1.261059549\H,2.298722509,-0.2415031862,-0.310677907\H,2.0
 145238713,0.7556756786,-2.4909771741\H,1.2756578732,-0.8491674971,-2.5
 676939081\\Version=ES64L-G09RevD.01\State=1-A\HF=-423.2014491\RMSD=6.5
 69e-09\RMSF=1.134e-05\Dipole=-0.1863535,-1.4849636,0.4024711\Quadrupol
 e=3.9386747,-2.0690281,-1.8696466,-1.2301155,-0.6921443,1.6786013\PG=C
 01 [X(C7H10O2)]\\@


 THE VALUE OF PHILOSOPHY IS, IN FACT, TO BE SOUGHT LARGELY IN ITS
 VERY UNCERTAINTY.  THE MAN WHO HAS NO TINCTURE OF PHILOSOPHY GOES
 THROUGH LIFE IMPRISONED IN THE PREJUDICES DERIVED FROM COMMON SENSE,
 FROM THE HABITUAL BELIEFS OF HIS AGE OR HIS NATION, AND FROM
 CONVICTIONS WHICH HAVE GROWN UP IN HIS MIND WITHOUT THE CO-OPERATION
 OR CONSENT OF HIS DELIBERATE REASON.  TO SUCH A MAN THE WORLD TENDS
 TO BE DEFINITE, FINITE, OBVIOUS; COMMON OBJECTS ROUSE NO QUESTIONS,
 AND UNFAMILIAR POSSIBILITIES ARE CONTEMPTUOUSLY REJECTED.

                             -- BERTRAND RUSSELL
 Job cpu time:       0 days  0 hours  6 minutes 46.3 seconds.
 File lengths (MBytes):  RWF=     52 Int=      0 D2E=      0 Chk=      7 Scr=      1
 Normal termination of Gaussian 09 at Mon Jan 27 13:09:40 2020.
 Link1:  Proceeding to internal job step number  2.
 ----------------------------------------------------------------------
 #N Geom=AllCheck Guess=TCheck SCRF=Check GenChk RB3LYP/6-31G(2df,p) Fr
 eq
 ----------------------------------------------------------------------
 1/10=4,29=7,30=1,38=1,40=1/1,3;
 2/12=2,40=1/2;
 3/5=1,6=6,7=104,11=2,14=-4,16=1,25=1,30=1,70=2,71=2,74=-5,116=1,140=1/1,2,3;
 4/5=101/1;
 5/5=2,98=1/2;
 8/6=4,10=90,11=11/1;
 11/6=1,8=1,9=11,15=111,16=1/1,2,10;
 10/6=1/2;
 6/7=2,8=2,9=2,10=2,18=1,28=1/1;
 7/8=1,10=1,25=1/1,2,3,16;
 1/10=4,30=1/3;
 99//99;
 Structure from the checkpoint file:  "/scratch/puck/g09_77feae66-d18e-4a81-8db1-d786def47417/Gau-156070.chk"
 -----
 titel
 -----
 Charge =  0 Multiplicity = 1
 Redundant internal coordinates found in file.
 O,0,-0.0290801694,1.8406075189,-3.2943630773
 C,0,-0.0929730973,0.8080267537,-2.6695983222
 C,0,-1.4217640291,0.1100762082,-2.4303925209
 C,0,-1.9303525668,0.2646923605,-0.9831610977
 C,0,-1.2300811861,-0.6158737488,0.0546858912
 C,0,0.2260429638,-0.3117719065,0.3421707305
 O,0,0.6912741279,1.0378093894,0.1981845463
 C,0,1.2854372949,0.0237931694,-0.6219748421
 C,0,1.1763661895,0.1538293712,-2.12835037
 H,0,-2.1384502949,0.5596981709,-3.121973677
 H,0,-1.330953686,-0.9571217282,-2.6728221347
 H,0,-1.8540332686,1.3144466317,-0.6824343088
 H,0,-2.9950464203,0.0094727848,-0.9732790308
 H,0,-1.7725432894,-0.5229426547,1.0038519525
 H,0,-1.3079402062,-1.6744629599,-0.2312227588
 H,0,0.5789524344,-0.7873056858,1.261059549
 H,0,2.298722509,-0.2415031862,-0.310677907
 H,0,2.0145238713,0.7556756786,-2.4909771741
 H,0,1.2756578732,-0.8491674971,-2.5676939081
 Recover connectivity data from disk.

 GradGradGradGradGradGradGradGradGradGradGradGradGradGradGradGradGradGrad
 Berny optimization.
 Initialization pass.
                           ----------------------------
                           !    Initial Parameters    !
                           ! (Angstroms and Degrees)  !
 --------------------------                            --------------------------
 ! Name  Definition              Value          Derivative Info.                !
 --------------------------------------------------------------------------------
 ! R1    R(1,2)                  1.2086         calculate D2E/DX2 analytically  !
 ! R2    R(2,3)                  1.5199         calculate D2E/DX2 analytically  !
 ! R3    R(2,9)                  1.5271         calculate D2E/DX2 analytically  !
 ! R4    R(3,4)                  1.5418         calculate D2E/DX2 analytically  !
 ! R5    R(3,10)                 1.0927         calculate D2E/DX2 analytically  !
 ! R6    R(3,11)                 1.0981         calculate D2E/DX2 analytically  !
 ! R7    R(4,5)                  1.5307         calculate D2E/DX2 analytically  !
 ! R8    R(4,12)                 1.0946         calculate D2E/DX2 analytically  !
 ! R9    R(4,13)                 1.0949         calculate D2E/DX2 analytically  !
 ! R10   R(5,6)                  1.5151         calculate D2E/DX2 analytically  !
 ! R11   R(5,14)                 1.0972         calculate D2E/DX2 analytically  !
 ! R12   R(5,15)                 1.0993         calculate D2E/DX2 analytically  !
 ! R13   R(6,7)                  1.4348         calculate D2E/DX2 analytically  !
 ! R14   R(6,8)                  1.4712         calculate D2E/DX2 analytically  !
 ! R15   R(6,16)                 1.0932         calculate D2E/DX2 analytically  !
 ! R16   R(7,8)                  1.4332         calculate D2E/DX2 analytically  !
 ! R17   R(8,9)                  1.5159         calculate D2E/DX2 analytically  !
 ! R18   R(8,17)                 1.0927         calculate D2E/DX2 analytically  !
 ! R19   R(9,18)                 1.0937         calculate D2E/DX2 analytically  !
 ! R20   R(9,19)                 1.0995         calculate D2E/DX2 analytically  !
 ! A1    A(1,2,3)              121.3272         calculate D2E/DX2 analytically  !
 ! A2    A(1,2,9)              120.3497         calculate D2E/DX2 analytically  !
 ! A3    A(3,2,9)              118.3064         calculate D2E/DX2 analytically  !
 ! A4    A(2,3,4)              112.9596         calculate D2E/DX2 analytically  !
 ! A5    A(2,3,10)             106.5496         calculate D2E/DX2 analytically  !
 ! A6    A(2,3,11)             109.8299         calculate D2E/DX2 analytically  !
 ! A7    A(4,3,10)             109.6617         calculate D2E/DX2 analytically  !
 ! A8    A(4,3,11)             109.388          calculate D2E/DX2 analytically  !
 ! A9    A(10,3,11)            108.3236         calculate D2E/DX2 analytically  !
 ! A10   A(3,4,5)              115.3316         calculate D2E/DX2 analytically  !
 ! A11   A(3,4,12)             109.3328         calculate D2E/DX2 analytically  !
 ! A12   A(3,4,13)             107.8104         calculate D2E/DX2 analytically  !
 ! A13   A(5,4,12)             109.4828         calculate D2E/DX2 analytically  !
 ! A14   A(5,4,13)             107.7376         calculate D2E/DX2 analytically  !
 ! A15   A(12,4,13)            106.7895         calculate D2E/DX2 analytically  !
 ! A16   A(4,5,6)              116.9291         calculate D2E/DX2 analytically  !
 ! A17   A(4,5,14)             108.1586         calculate D2E/DX2 analytically  !
 ! A18   A(4,5,15)             110.1964         calculate D2E/DX2 analytically  !
 ! A19   A(6,5,14)             107.0991         calculate D2E/DX2 analytically  !
 ! A20   A(6,5,15)             108.1022         calculate D2E/DX2 analytically  !
 ! A21   A(14,5,15)            105.7563         calculate D2E/DX2 analytically  !
 ! A22   A(5,6,7)              118.777          calculate D2E/DX2 analytically  !
 ! A23   A(5,6,8)              127.8426         calculate D2E/DX2 analytically  !
 ! A24   A(5,6,16)             112.4859         calculate D2E/DX2 analytically  !
 ! A25   A(7,6,16)             112.8831         calculate D2E/DX2 analytically  !
 ! A26   A(8,6,16)             114.6838         calculate D2E/DX2 analytically  !
 ! A27   A(6,8,9)              128.241          calculate D2E/DX2 analytically  !
 ! A28   A(6,8,17)             115.1926         calculate D2E/DX2 analytically  !
 ! A29   A(7,8,9)              118.565          calculate D2E/DX2 analytically  !
 ! A30   A(7,8,17)             113.1536         calculate D2E/DX2 analytically  !
 ! A31   A(9,8,17)             111.755          calculate D2E/DX2 analytically  !
 ! A32   A(2,9,8)              116.6631         calculate D2E/DX2 analytically  !
 ! A33   A(2,9,18)             106.4832         calculate D2E/DX2 analytically  !
 ! A34   A(2,9,19)             108.9187         calculate D2E/DX2 analytically  !
 ! A35   A(8,9,18)             108.7557         calculate D2E/DX2 analytically  !
 ! A36   A(8,9,19)             108.1994         calculate D2E/DX2 analytically  !
 ! A37   A(18,9,19)            107.475          calculate D2E/DX2 analytically  !
 ! D1    D(1,2,3,4)           -105.8026         calculate D2E/DX2 analytically  !
 ! D2    D(1,2,3,10)            14.6678         calculate D2E/DX2 analytically  !
 ! D3    D(1,2,3,11)           131.7844         calculate D2E/DX2 analytically  !
 ! D4    D(9,2,3,4)             75.6799         calculate D2E/DX2 analytically  !
 ! D5    D(9,2,3,10)          -163.8497         calculate D2E/DX2 analytically  !
 ! D6    D(9,2,3,11)           -46.7332         calculate D2E/DX2 analytically  !
 ! D7    D(1,2,9,8)            117.529          calculate D2E/DX2 analytically  !
 ! D8    D(1,2,9,18)            -4.0581         calculate D2E/DX2 analytically  !
 ! D9    D(1,2,9,19)          -119.6817         calculate D2E/DX2 analytically  !
 ! D10   D(3,2,9,8)            -63.9384         calculate D2E/DX2 analytically  !
 ! D11   D(3,2,9,18)           174.4745         calculate D2E/DX2 analytically  !
 ! D12   D(3,2,9,19)            58.8509         calculate D2E/DX2 analytically  !
 ! D13   D(2,3,4,5)            -76.3796         calculate D2E/DX2 analytically  !
 ! D14   D(2,3,4,12)            47.4781         calculate D2E/DX2 analytically  !
 ! D15   D(2,3,4,13)           163.2151         calculate D2E/DX2 analytically  !
 ! D16   D(10,3,4,5)           164.9434         calculate D2E/DX2 analytically  !
 ! D17   D(10,3,4,12)          -71.1989         calculate D2E/DX2 analytically  !
 ! D18   D(10,3,4,13)           44.538          calculate D2E/DX2 analytically  !
 ! D19   D(11,3,4,5)            46.2803         calculate D2E/DX2 analytically  !
 ! D20   D(11,3,4,12)          170.138          calculate D2E/DX2 analytically  !
 ! D21   D(11,3,4,13)          -74.1251         calculate D2E/DX2 analytically  !
 ! D22   D(3,4,5,6)             67.1776         calculate D2E/DX2 analytically  !
 ! D23   D(3,4,5,14)          -171.9136         calculate D2E/DX2 analytically  !
 ! D24   D(3,4,5,15)           -56.7533         calculate D2E/DX2 analytically  !
 ! D25   D(12,4,5,6)           -56.6012         calculate D2E/DX2 analytically  !
 ! D26   D(12,4,5,14)           64.3076         calculate D2E/DX2 analytically  !
 ! D27   D(12,4,5,15)          179.4679         calculate D2E/DX2 analytically  !
 ! D28   D(13,4,5,6)          -172.3773         calculate D2E/DX2 analytically  !
 ! D29   D(13,4,5,14)          -51.4684         calculate D2E/DX2 analytically  !
 ! D30   D(13,4,5,15)           63.6918         calculate D2E/DX2 analytically  !
 ! D31   D(4,5,6,7)             29.6923         calculate D2E/DX2 analytically  !
 ! D32   D(4,5,6,8)            -41.9094         calculate D2E/DX2 analytically  !
 ! D33   D(4,5,6,16)           164.723          calculate D2E/DX2 analytically  !
 ! D34   D(14,5,6,7)           -91.7729         calculate D2E/DX2 analytically  !
 ! D35   D(14,5,6,8)          -163.3745         calculate D2E/DX2 analytically  !
 ! D36   D(14,5,6,16)           43.2579         calculate D2E/DX2 analytically  !
 ! D37   D(15,5,6,7)           154.6829         calculate D2E/DX2 analytically  !
 ! D38   D(15,5,6,8)            83.0812         calculate D2E/DX2 analytically  !
 ! D39   D(15,5,6,16)          -70.2864         calculate D2E/DX2 analytically  !
 ! D40   D(5,6,8,9)              0.3804         calculate D2E/DX2 analytically  !
 ! D41   D(5,6,8,17)          -152.774          calculate D2E/DX2 analytically  !
 ! D42   D(16,6,8,9)           153.2616         calculate D2E/DX2 analytically  !
 ! D43   D(16,6,8,17)            0.1072         calculate D2E/DX2 analytically  !
 ! D44   D(6,8,9,2)             38.8917         calculate D2E/DX2 analytically  !
 ! D45   D(6,8,9,18)           159.2768         calculate D2E/DX2 analytically  !
 ! D46   D(6,8,9,19)           -84.2698         calculate D2E/DX2 analytically  !
 ! D47   D(7,8,9,2)            -32.8409         calculate D2E/DX2 analytically  !
 ! D48   D(7,8,9,18)            87.5443         calculate D2E/DX2 analytically  !
 ! D49   D(7,8,9,19)          -156.0024         calculate D2E/DX2 analytically  !
 ! D50   D(17,8,9,2)          -167.2103         calculate D2E/DX2 analytically  !
 ! D51   D(17,8,9,18)          -46.8252         calculate D2E/DX2 analytically  !
 ! D52   D(17,8,9,19)           69.6282         calculate D2E/DX2 analytically  !
 --------------------------------------------------------------------------------
 Trust Radius=3.00D-01 FncErr=1.00D-07 GrdErr=1.00D-07
 Number of steps in this run=      2 maximum allowed number of steps=      2.
 GradGradGradGradGradGradGradGradGradGradGradGradGradGradGradGradGradGrad

                          Input orientation:                          
 ---------------------------------------------------------------------
 Center     Atomic      Atomic             Coordinates (Angstroms)
 Number     Number       Type             X           Y           Z
 ---------------------------------------------------------------------
      1          8           0       -0.029080    1.840608   -3.294363
      2          6           0       -0.092973    0.808027   -2.669598
      3          6           0       -1.421764    0.110076   -2.430393
      4          6           0       -1.930353    0.264692   -0.983161
      5          6           0       -1.230081   -0.615874    0.054686
[...]
 89,0.00467695,0.03156375,-0.08834170,0.00668944,0.03663099,0.54870918,
 -0.00314039,-0.00451082,-0.00149620,-0.00034868,0.00265032,0.01528317,
 0.00407194,-0.07383364,-0.00624987,0.03723900,0.55770117,-0.00256953,-
 0.00650671,0.00238276,0.01701668,0.01021331,-0.00609949,0.01955253,-0.
 01478797,-0.15411920,0.00584496,0.02593393,0.44215709,-0.00105268,-0.0
 0029923,-0.00024436,0.00301021,-0.00027524,0.00121329,0.00705600,-0.00
 822785,0.00656405,-0.10176641,0.02714704,-0.02836804,0.48298469,0.0003
 1951,0.00080875,0.00008606,-0.00123299,-0.00147897,0.00001472,-0.00321
 210,0.00248673,-0.00095255,0.02867640,-0.11693938,0.04418676,-0.003549
 92,0.53900755,0.00026205,0.00072179,0.00001233,-0.00029668,-0.00028195
 ,-0.00027691,-0.01428431,0.01726886,-0.02634531,-0.03258258,0.04161328
 ,-0.12428673,-0.03246824,0.02672508,0.53510476,-0.00252904,0.00014053,
 -0.00025660,0.00640345,0.00075981,-0.00024736,0.00078432,-0.00064329,0
 .00063066,-0.01872214,0.00096969,-0.00818350,-0.19351643,-0.01087621,-
 0.01958612,0.55988449,-0.00042580,-0.00089432,-0.00024645,0.00126923,0
 .00170409,0.00232455,-0.00025089,0.00001340,0.00025519,0.01980416,0.00
 745341,-0.00081467,-0.01751889,-0.07387960,0.00429255,0.07225708,0.370
 87889,-0.00028002,-0.00073923,0.00021997,0.00052665,0.00134727,0.00037
 592,-0.00078090,-0.00011430,0.00031193,-0.02533332,-0.00643310,-0.0048
 5052,-0.02954624,0.00122204,-0.08851429,0.00707599,-0.16153226,0.53832
 361,0.00182542,-0.00154495,0.00026795,-0.00432216,0.00111533,0.0009215
 8,0.00055276,0.00016538,0.00023747,0.00230432,0.00111811,0.00165843,-0
 .00279183,-0.03932734,-0.00596719,-0.05903067,-0.02970508,-0.01029605,
 0.13937910,-0.00103515,0.00333674,-0.00035045,0.00172280,-0.00398149,-
 0.00143153,-0.00032173,-0.00013058,-0.00113937,0.00152105,-0.00116369,
 0.00136287,-0.00722176,-0.01497190,-0.00373671,-0.05942411,-0.20040746
 ,0.03402901,-0.00734097,0.37412646,-0.00064018,0.00079118,-0.00141268,
 0.00341630,-0.00182144,0.00502480,-0.00014492,-0.00009045,-0.00027806,
 0.00052468,-0.00002061,-0.00047878,0.00206928,-0.00421505,0.00096026,-
 0.01546829,0.00216194,-0.04425774,-0.03953969,0.06320914,0.15162196,-0
 .00378956,0.00679956,0.00037993,0.00667364,-0.00394446,-0.03088042,-0.
 00115115,0.00110997,0.00245094,-0.00135474,-0.00045311,-0.00057366,-0.
 01400118,0.00770550,0.02249807,-0.17884622,-0.06159654,0.10337466,-0.0
 7178699,0.07651128,0.02733124,0.62067727,0.00513087,-0.00493945,-0.000
 06041,-0.00451970,-0.00107899,0.01611388,0.00016537,0.00014373,-0.0006
 0291,0.00160110,0.00141076,-0.00025467,-0.00511180,-0.00620806,0.00238
 133,-0.02386061,-0.00357195,0.03501035,0.04387230,-0.13435455,-0.05758
 816,-0.06522752,0.27359025,0.00294623,-0.00679826,0.00305292,-0.016619
 90,0.01089644,-0.01422619,0.00175330,-0.00044781,0.00100963,-0.0013892
 0,-0.00014418,0.00342408,-0.00350282,0.00496137,0.00958017,0.10598157,
 0.07088137,-0.15314360,0.01815729,-0.08391891,-0.09925485,-0.03979350,
 -0.03277295,0.56076515,0.00823958,0.01481057,-0.00968564,-0.16355285,0
 .01726126,-0.01942350,-0.01938016,0.01016507,-0.01169048,0.00012500,0.
 00019609,-0.00081374,0.00051218,-0.00088417,-0.00023412,0.00513218,-0.
 00019447,0.02002986,0.00305524,-0.00157319,0.00701910,-0.09001490,0.00
 303098,-0.00422652,0.51457063,0.03228219,-0.02989244,0.03739874,0.0166
 5632,-0.08029085,-0.00013162,-0.01140948,0.01338512,-0.00118584,-0.001
 46713,-0.00075434,-0.00036012,0.00057720,0.00100011,-0.00052960,0.0090
 6334,-0.00696506,0.01653699,-0.00021370,0.00237115,-0.03702324,0.00014
 756,-0.06798765,0.02459249,0.05007871,0.55033685,-0.02414628,0.0373120
 9,0.00061324,-0.00759616,-0.00344953,-0.08825355,0.00256471,0.00350828
 ,0.01671082,-0.00341531,-0.00130337,-0.00071185,-0.00027305,0.00015034
 ,0.00079205,0.00032782,-0.00325012,-0.00952840,0.00696593,-0.00618709,
 -0.01726506,-0.02532563,0.02214821,-0.18893424,-0.02780452,-0.00716857
 ,0.45055572,0.00575509,0.00138119,0.00159201,-0.02632697,0.01473595,-0
 .02108591,-0.16072840,0.07228952,-0.11092361,0.00758596,-0.00617844,0.
 00919021,-0.00030834,0.00067873,0.00251063,-0.00036754,-0.00027389,0.0
 0025664,0.00023053,-0.00001211,-0.00030983,0.00031655,-0.00000852,0.00
 081154,-0.00364049,-0.00418913,0.00215344,0.17833625,0.00093349,0.0007
 5912,-0.00054869,-0.01152934,0.00581119,-0.01012298,0.07507805,-0.0969
 9930,0.06934019,-0.00304451,0.00181581,-0.00330477,0.00016866,0.000171
 11,-0.00028222,-0.00003607,-0.00007756,-0.00007716,0.00004717,0.000126
 57,0.00000052,0.00013220,-0.00022275,0.00023472,-0.00178527,-0.0009074
 4,0.00129733,-0.07884267,0.09870052,0.00113556,-0.00160073,0.00028503,
 0.00396555,0.00025463,0.00186175,-0.11313254,0.06764575,-0.14951576,-0
 .01877890,0.01392063,-0.02057482,0.00333743,-0.00257457,-0.00434706,0.
 00069718,0.00014542,0.00011845,-0.00019386,-0.00012698,0.00012344,0.00
 023971,-0.00008899,-0.00019976,0.00095124,0.00068593,0.00054141,0.1170
 4576,-0.07627759,0.16540149,-0.00572676,-0.00234985,0.00489905,0.00835
 944,-0.02908089,-0.00821360,-0.05258733,0.01970410,-0.00113235,0.00003
 275,0.01222024,0.00321220,0.00061418,-0.00031041,-0.00100586,-0.000012
 83,-0.00027410,-0.00001975,0.00007942,0.00008698,-0.00011367,0.0000974
 0,-0.00015270,0.00021837,-0.00022615,0.00206209,0.00111480,-0.00128639
 ,0.02024345,0.00586421,0.05168364,-0.00512090,-0.00085799,0.00090185,0
 .00560137,-0.01566814,-0.00156460,0.02012156,-0.28578695,-0.05165446,0
 .00046453,-0.00411554,-0.00151949,-0.00010746,0.00105032,0.00100898,0.
 00011567,-0.00011087,-0.00021135,-0.00012399,0.00030966,0.00011502,-0.
 00003475,-0.00014168,-0.00020914,0.00035765,0.00047074,0.00027662,0.00
 030399,-0.01122744,-0.00318600,-0.02200017,0.31259680,0.00245194,0.000
 27162,-0.00047689,0.00009193,0.00600625,-0.00069327,-0.00045382,-0.049
 28728,-0.05209824,0.00261181,-0.03238321,-0.01165098,-0.00019136,-0.00
 179844,0.00226954,-0.00035917,-0.00022007,-0.00029031,0.00000125,0.000
 48439,0.00007724,-0.00017800,-0.00027000,0.00000677,-0.00015071,-0.000
 35131,-0.00039220,-0.00045865,0.01904352,0.00497600,-0.00642700,0.0566
 3732,0.06230168,-0.00000379,-0.00023574,-0.00020371,0.00066483,0.00188
 159,0.00021765,-0.00038877,0.01202017,0.00500333,-0.04979261,-0.022465
 06,-0.00655447,0.00081840,0.01636332,0.00402646,0.00081327,0.00124339,
 0.00089419,-0.00014082,-0.00134446,-0.00050890,-0.00018241,0.00064564,
 0.00060911,-0.00025566,-0.00001351,-0.00002467,0.00008848,-0.00035607,
 -0.00033231,-0.00030960,0.00072362,0.00286269,0.05137339,0.00053799,0.
 00084395,-0.00052607,-0.00098638,-0.00032075,0.00057383,0.00088043,-0.
 00164875,-0.00186948,-0.01949973,-0.28718685,-0.06776598,-0.00012076,-
 0.01936574,-0.00344247,-0.00142253,-0.00127209,-0.00044976,-0.00099571
 ,0.00197791,-0.00051525,0.00001846,-0.00045227,-0.00031405,0.00019993,
 -0.00007231,-0.00007836,0.00009532,0.00015061,-0.00050634,-0.00034879,
 0.00124630,-0.00011455,0.02109942,0.31315096,-0.00026443,0.00145765,-0
 .00029657,-0.00127880,-0.00315924,0.00163660,0.00044459,-0.02883699,-0
 .01078429,-0.00556114,-0.06819248,-0.06693699,0.00152256,0.02316126,0.
 00569103,0.00080700,0.00020100,0.00096281,-0.00075823,-0.00072059,-0.0
 0052369,0.00020864,0.00010482,-0.00021125,0.00032899,-0.00011052,-0.00
 029948,-0.00054047,0.00032841,0.00065198,0.00225028,-0.00037757,-0.005
 78341,0.00497602,0.07321685,0.07820423,-0.00049370,-0.00052583,-0.0001
 0471,0.00211505,0.00108789,0.00198929,-0.01105498,-0.00279461,0.001974
 64,-0.29172042,-0.06137605,0.00035994,-0.01591601,-0.00356918,-0.00090
 486,0.00082948,0.00223587,-0.00228053,0.00027733,0.00025202,0.00005472
 ,0.00035438,0.00010265,-0.00009344,0.00009199,-0.00001208,-0.00035119,
 0.00127672,-0.00019280,0.00000094,0.00006258,0.00038058,-0.00012524,-0
 .00223420,-0.00083054,-0.00016785,0.31612301,0.00009095,0.00069900,-0.
 00000770,0.00000636,-0.00036659,-0.00064142,0.00484407,0.00118628,-0.0
 0057981,-0.06191153,-0.06318996,-0.00118219,0.02240477,0.00346386,0.00
 209367,0.00050256,-0.00368627,0.00313965,-0.00102622,0.00128082,-0.000
 71396,-0.00004738,-0.00052224,0.00003940,0.00003390,0.00001358,0.00014
 150,-0.00044305,0.00029666,0.00051766,0.00022602,0.00022166,0.00052086
 ,-0.03056585,-0.00693154,0.00035022,0.06548628,0.06565463,0.00125636,0
 .00260270,-0.00000270,-0.00265206,-0.00441164,-0.00546166,0.03411393,0
 .00865003,-0.00793209,0.00139918,-0.00077888,-0.04241025,-0.02350524,-
 0.00496157,-0.00235597,-0.00078708,0.00349215,-0.00252826,0.00022351,0
 .00023661,0.00034912,0.00033337,0.00000478,-0.00100723,0.00043638,0.00
 038944,0.00109758,-0.00007823,0.00048095,0.00137675,-0.00071066,-0.000
 27812,0.00109488,-0.00876418,-0.00177568,-0.00033592,-0.00039882,-0.00
 264593,0.05657299,0.00063900,0.00012848,0.00013041,-0.00154034,-0.0000
 0916,-0.00047729,-0.00037356,0.00222150,-0.00226775,0.00656965,-0.0014
 7308,-0.01442263,-0.10663201,0.01198151,0.10842105,-0.02350335,0.00252
 632,0.03031661,0.00182044,-0.00121056,-0.00083419,-0.00383410,0.001584
 62,-0.00382392,0.00030663,-0.00006382,-0.00018641,0.00026954,0.0000781
 9,-0.00080733,-0.00018405,0.00001982,0.00026815,0.00033128,-0.00022091
 ,0.00062669,0.00092647,-0.00053425,-0.00016112,0.12367269,-0.00020401,
 -0.00022195,-0.00003267,0.00079333,0.00035783,-0.00010446,0.00212411,-
 0.00225794,0.00189665,-0.00936357,0.00114492,0.01887456,0.01199389,-0.
 04982891,-0.02135346,-0.00547123,0.00036763,0.00765413,0.00076080,0.00
 084187,-0.00006418,-0.00159013,0.00041719,-0.00033634,-0.00001320,-0.0
 0008665,-0.00003279,-0.00031596,0.00036510,0.00111643,0.00001530,0.000
 35772,0.00009453,-0.00062093,0.00047060,-0.00041749,-0.00023403,0.0007
 3201,-0.00070025,-0.01402711,0.05109144,0.00056358,0.00042714,-0.00006
 196,-0.00130346,-0.00040217,0.00011916,-0.00309685,0.00331238,-0.00163
 041,0.01002956,-0.00241120,-0.02094423,0.10893840,-0.02104529,-0.23692
 962,-0.00414993,0.00049573,0.00515113,0.00105231,0.00088789,-0.0001599
 8,-0.00177996,-0.00066122,0.00086310,-0.00005466,-0.00015929,-0.000062
 03,0.00066955,0.00004563,-0.00134449,-0.00015254,0.00014319,0.00063956
 ,0.00022905,0.00029349,0.00080760,-0.00035490,-0.00058799,0.00052566,-
 0.11519428,0.02090392,0.25968023,0.00021760,0.00002117,0.00003673,-0.0
 0064985,-0.00015245,-0.00017656,0.00036660,-0.00067749,0.00060948,0.00
 055473,0.01599575,0.00396987,-0.04847525,-0.01740575,-0.00591182,-0.00
 165488,-0.03214397,-0.00738475,-0.00764823,-0.00250914,-0.00156418,0.0
 0282440,-0.00055009,0.00014498,-0.00013939,0.00004617,0.00022870,-0.00
 010309,0.00000848,0.00014643,0.00012781,-0.00030711,-0.00005028,-0.001
 11156,0.00159971,-0.00284734,0.00033269,-0.00016425,0.00063034,0.00099
 610,0.01565615,0.00439668,0.05429830,0.00009797,0.00013381,-0.00006355
 ,0.00002566,0.00001649,-0.00001140,-0.00043043,0.00066952,-0.00122713,
 -0.00058230,-0.01984760,-0.00474384,-0.01670833,-0.27453261,-0.0654360
 8,-0.00093908,-0.00789136,-0.00153976,-0.00151956,0.00164628,-0.000522
 10,0.00002357,-0.00041079,-0.00005702,-0.00010072,-0.00013048,-0.00002
 721,0.00007689,0.00043835,-0.00003672,-0.00031955,0.00047833,0.0011670
 2,0.00223296,-0.00089169,0.00303343,0.00032589,0.00070036,-0.00006981,
 0.00014492,-0.00360584,-0.00133872,0.01857983,0.30312317,0.00002855,-0
 .00022259,0.00006021,0.00001717,0.00031162,-0.00024296,0.00012451,0.00
 106034,0.00224877,0.00149425,0.02347188,0.00481152,-0.00578371,-0.0668
 1545,-0.06529178,0.00063513,-0.00439710,-0.00119600,0.00024159,0.00087
 981,0.00014498,-0.00025754,0.00042860,0.00055293,-0.00019798,-0.000052
 54,0.00005082,-0.00008396,-0.00019794,0.00026587,0.00021271,-0.0006093
 7,-0.00018528,-0.00228822,0.00312009,-0.00282450,0.00050610,-0.0008175
 9,0.00065836,-0.00212741,-0.02738800,-0.00835392,0.00761037,0.07081431
 ,0.06924584,0.00067856,-0.00002651,0.00008507,-0.00166821,-0.00017586,
 -0.00007404,0.00013639,0.00008960,0.00005579,-0.00471137,-0.00359068,0
 .00086609,-0.01095664,0.01355851,-0.02585534,-0.08071601,0.03497773,-0
 .07936925,0.00189009,-0.00387576,0.00692638,0.00478914,-0.01023221,0.0
 1870809,-0.00124226,-0.00238201,-0.00016819,0.00017908,0.00001681,-0.0
 0019860,0.00005882,-0.00004870,-0.00002360,0.00020683,0.00005703,0.000
 16035,-0.00092096,0.00115316,-0.00128389,0.00105680,0.00067859,0.00028
 243,0.00029646,-0.00072215,-0.00001377,0.09010156,0.00001924,0.0002803
 2,0.00007415,-0.00018201,-0.00044258,-0.00023491,0.00003649,-0.0000289
 3,-0.00000669,-0.00135860,-0.00030425,0.00035776,-0.00241529,0.0072174
 5,-0.00421418,0.03693385,-0.08257939,0.08414036,0.00063830,-0.02430724
 ,0.03343152,-0.00514024,-0.00306187,-0.00849786,0.00147019,0.00218448,
 -0.00032204,0.00002733,-0.00001899,-0.00003826,0.00004392,-0.00001213,
 0.00001413,-0.00029621,0.00008800,-0.00002625,-0.00031219,0.00035357,-
 0.00025594,0.00009779,0.00010825,0.00013341,0.00159035,-0.00001268,0.0
 0049884,-0.03082380,0.10065655,-0.00025594,0.00021850,-0.00013027,0.00
 055835,-0.00026839,0.00042948,0.00019919,-0.00010420,0.00023312,-0.000
 83217,-0.00092070,0.00135918,0.00066533,0.00302092,-0.00447222,-0.0787
 7343,0.09105769,-0.24025536,0.00844156,0.00244695,0.00933150,-0.009748
 12,0.00912458,-0.01729590,0.00205091,0.00200182,0.00055700,-0.00007475
 ,-0.00001695,0.00001598,0.00002151,-0.00001102,-0.00000844,0.00003504,
 -0.00000087,-0.00001325,-0.00015981,0.00038419,-0.00025321,-0.00031756
 ,-0.00022367,0.00138864,-0.00035823,-0.00031557,-0.00012859,0.07869178
 ,-0.10568468,0.24937138,-0.00013980,-0.00008422,-0.00001682,0.00132615
 ,0.00010800,0.00034129,0.00022817,-0.00013641,0.00015029,0.00010450,-0
 .00007700,0.00034854,0.00044259,0.00092839,0.00180430,-0.01615573,0.00
 735599,-0.00603560,-0.00587723,0.00583911,0.01004490,-0.27361136,0.052
 85212,-0.07941616,-0.00163824,-0.00110859,0.00091836,0.00004679,0.0000
 1570,-0.00006054,-0.00000597,-0.00001294,0.00001591,0.00008005,-0.0000
 9301,-0.00000051,-0.00006227,-0.00004971,-0.00014568,-0.00072150,-0.00
 009440,-0.00017619,-0.00016140,-0.00011322,-0.00013261,0.00068912,-0.0
 0045696,0.00004496,0.29455187,-0.00010912,0.00013691,-0.00019678,0.000
 00608,0.00090644,0.00014935,0.00020778,-0.00006004,-0.00001665,0.00010
 882,-0.00038767,0.00027545,-0.00084878,0.00215510,0.00336306,-0.018823
 69,0.00023599,-0.01015005,0.03502187,-0.00944734,0.00020864,0.04615930
 ,-0.05447281,0.01990894,0.00252481,0.00264777,0.00346551,0.00004490,0.
 00000622,-0.00003909,-0.00003410,-0.00001313,0.00006399,-0.00022543,0.
 00016705,-0.00009872,0.00000669,0.00007821,-0.00005762,-0.00127981,-0.
 00027158,-0.00006235,0.00035101,0.00003654,-0.00001342,0.00120490,-0.0
 0018006,-0.00065126,-0.06501844,0.05840373,-0.00191167,0.00302162,-0.0
 0061258,0.00568210,-0.00340968,-0.00443974,-0.00054903,0.00033966,0.00
 080884,0.00001489,-0.00003762,-0.00062943,-0.00017142,-0.00120238,-0.0
 0131257,0.01494534,-0.00516537,0.00070268,0.02014262,-0.00512216,0.002
 26735,-0.08211939,0.01871985,-0.07437685,-0.03105290,0.00879074,-0.013
 56330,-0.00016617,-0.00000151,0.00007827,0.00002871,0.00000312,-0.0000
 0992,-0.00007227,0.00010903,-0.00000863,0.00001078,0.00004495,0.000421
 33,0.00054497,0.00006440,0.00014477,0.00008545,0.00012223,0.00008729,0
 .00035801,0.00096011,0.00086222,0.07349280,-0.01691287,0.08739388,0.00
 600883,-0.00015647,0.00067010,-0.02785491,-0.01888517,0.00979405,-0.00
 280065,0.00388996,-0.00328203,0.00025227,0.00001829,-0.00033883,-0.000
 04674,0.00004130,-0.00027087,0.00078080,-0.00006107,-0.00104588,-0.000
 27132,-0.00004315,0.00068585,0.00260443,0.00225813,-0.00125575,-0.2014
 1718,-0.11128060,0.06476290,-0.00163695,-0.00062966,0.00026838,0.00052
 054,0.00011637,-0.00000767,-0.00004033,0.00000967,0.00011781,-0.000006
 17,-0.00001921,0.00018414,0.00012773,-0.00002652,0.00010479,0.00002178
 ,0.00002638,0.00000498,0.00014066,0.00013074,-0.00012637,0.00103339,0.
 00050142,0.00034097,0.21995884,-0.00041990,0.00079390,-0.00118479,0.01
 282508,0.00708945,-0.00436658,0.00160581,-0.00115292,0.00181747,-0.000
 27942,-0.00007099,0.00017833,0.00014757,-0.00009743,-0.00004714,0.0009
 3330,0.00035827,-0.00091173,-0.00027542,0.00105270,0.00091857,-0.00061
 025,-0.00073311,0.00091666,-0.11445647,-0.12976342,0.04653442,0.000707
 90,0.00060755,0.00000556,0.00013117,0.00028995,0.00008295,-0.00000854,
 0.00001933,-0.00002113,-0.00002547,0.00001355,0.00000919,-0.00003398,0
 .00003376,-0.00000693,0.00002444,0.00002893,-0.00005447,-0.00005561,0.
 00005254,0.00003896,0.00023971,0.00010428,0.00037304,0.12187961,0.1367
 6822,0.00034035,-0.00118053,-0.00040280,-0.00954856,-0.00555965,0.0030
 0203,-0.00165495,0.00140592,-0.00015885,-0.00022236,0.00009867,-0.0002
 5438,-0.00037820,-0.00010630,-0.00002333,-0.00373102,0.00186181,-0.003
 84886,-0.00069700,-0.00163355,0.00211708,0.02809393,0.02016657,-0.0168
 6594,0.06701964,0.04665444,-0.07318876,-0.00060245,-0.00005812,0.00026
 174,0.00019560,0.00036412,-0.00001040,-0.00002495,-0.00000958,0.000054
 84,0.00003022,-0.00006304,0.00018181,0.00025627,0.00000625,0.00012528,
 0.00009663,0.00005582,0.00007914,0.00094472,-0.00078430,-0.00101856,-0
 .00026591,-0.00038053,0.00118074,-0.06908101,-0.05355580,0.08452982,-0
 .00298713,0.00098007,-0.00515474,0.00186430,0.02560255,0.01438488,0.00
 011344,-0.00183886,-0.00134821,0.00042809,0.00012633,-0.00019505,0.000
 02528,0.00011490,-0.00015454,0.00042685,0.00077493,-0.00010231,0.00045
 460,-0.00002115,0.00105140,0.00023540,-0.00158061,0.00079073,-0.050526
 16,0.02122650,0.01025475,0.00031320,-0.00030583,-0.00014832,-0.0012974
 8,-0.00044915,0.00012183,0.00008321,0.00002043,-0.00002416,0.00001902,
 0.00001337,-0.00009026,0.00007256,-0.00006109,-0.00000359,-0.00009282,
 -0.00009873,0.00000983,-0.00000806,-0.00000289,-0.00006225,-0.00012912
 ,0.00020179,0.00039622,0.00262499,-0.02232951,-0.01077094,0.04837985,0
 .00375565,0.00030737,0.00217698,-0.00121595,-0.01446291,-0.00421519,-0
 .00041688,0.00015261,0.00067563,-0.00020147,0.00012834,-0.00014257,-0.
 00003382,-0.00005836,-0.00014478,-0.00017900,0.00032425,-0.00092110,-0
 .00066632,0.00169408,0.00173791,0.00003696,0.00259624,0.00106510,0.018
 87834,-0.25555915,-0.09301522,-0.00007796,0.00020468,0.00018327,0.0001
 3728,0.00091238,0.00003829,-0.00007831,0.00002728,0.00010735,-0.000005
 07,0.00000240,0.00006958,0.00006951,-0.00001544,0.00003237,0.00003722,
 0.00005124,-0.00001702,0.00019697,0.00000696,-0.00009630,-0.00009409,-
 0.00004562,-0.00069715,0.00222997,-0.01539458,-0.00728220,-0.02237304,
 0.27912823,-0.00215448,0.00024077,-0.00318632,0.00010206,0.01150949,0.
 00492478,0.00023336,-0.00125529,-0.00063489,0.00017378,0.00004985,-0.0
 0018696,0.00012236,0.00014304,-0.00025436,0.00044182,-0.00154337,0.002
 24686,-0.00085946,0.00083066,-0.00838688,0.00574575,-0.03190366,-0.013
 73894,0.00749866,-0.08997795,-0.07871976,0.00009426,0.00011665,0.00002
 374,-0.00024199,0.00017091,0.00023365,-0.00007986,0.00005516,0.0000089
 0,0.00001471,0.00000751,0.00000880,0.00005574,0.00004243,0.00004150,0.
 00033749,0.00019610,0.00001729,-0.00009205,0.00045482,0.00002729,-0.00
 091133,0.00114440,0.00100564,-0.00152556,0.00927343,0.00423942,-0.0089
 5525,0.10044506,0.09233024\\0.00000338,0.00000109,-0.00001488,-0.00001
 726,-0.00004079,-0.00000438,0.00002616,0.00001314,-0.00000540,-0.00000
 386,-0.00000115,0.00001603,0.00000322,-0.00000051,0.00000597,-0.000009
 72,0.00003759,-0.00001437,-0.00000047,-0.00000292,-0.00000630,0.000016
 16,-0.00002276,0.00000475,-0.00000849,0.00000051,0.00000705,-0.0000076
 0,-0.00000409,-0.00000099,-0.00000722,-0.00000527,0.00000819,0.0000045
 2,0.00000473,-0.00000436,-0.00000496,0.00000898,-0.00000003,0.00000003
 ,0.00001141,0.00000885,-0.00000197,0.00000811,0.00000894,0.00000416,0.
 00000932,0.00000896,0.00000287,-0.00000100,-0.00000641,0.00000168,-0.0
 0000748,-0.00000940,-0.00000063,-0.00000891,-0.00000221\\\@


 A true friend is someone who is there for
 you when he'd rather be anywhere else.
                               -- Len Wein
 Job cpu time:       0 days  0 hours 44 minutes 28.4 seconds.
 File lengths (MBytes):  RWF=    152 Int=      0 D2E=      0 Chk=      8 Scr=      1
 Normal termination of Gaussian 09 at Mon Jan 27 13:54:06 2020.
