 Entering Gaussian System, Link 0=/home/puck/opt/gaussian_09/g09
 Input=dsC7O2H10nsd_0313.com
 Output=dsC7O2H10nsd_0313.log
 Initial command:
 /home/puck/opt/gaussian_09/l1.exe "/scratch/puck/g09_bb81485b-02e0-4a88-b541-c4ae16cf931e/Gau-60831.inp" -scrdir="/scratch/puck/g09_bb81485b-02e0-4a88-b541-c4ae16cf931e/"
 Entering Link 1 = /home/puck/opt/gaussian_09/l1.exe PID=     60845.
  
 Copyright (c) 1988,1990,1992,1993,1995,1998,2003,2009,2013,
            Gaussian, Inc.  All Rights Reserved.
  
 This is part of the Gaussian(R) 09 program.  It is based on
 the Gaussian(R) 03 system (copyright 2003, Gaussian, Inc.),
 the Gaussian(R) 98 system (copyright 1998, Gaussian, Inc.),
 the Gaussian(R) 94 system (copyright 1995, Gaussian, Inc.),
 the Gaussian 92(TM) system (copyright 1992, Gaussian, Inc.),
 the Gaussian 90(TM) system (copyright 1990, Gaussian, Inc.),
 the Gaussian 88(TM) system (copyright 1988, Gaussian, Inc.),
 the Gaussian 86(TM) system (copyright 1986, Carnegie Mellon
 University), and the Gaussian 82(TM) system (copyright 1983,
 Carnegie Mellon University). Gaussian is a federally registered
 trademark of Gaussian, Inc.
  
 This software contains proprietary and confidential information,
 including trade secrets, belonging to Gaussian, Inc.
  
 This software is provided under written license and may be
 used, copied, transmitted, or stored only in accord with that
 written license.
  
 The following legend is applicable only to US Government
 contracts under FAR:
  
                    RESTRICTED RIGHTS LEGEND
  
 Use, reproduction and disclosure by the US Government is
 subject to restrictions as set forth in subparagraphs (a)
 and (c) of the Commercial Computer Software - Restricted
 Rights clause in FAR 52.227-19.
  
 Gaussian, Inc.
 340 Quinnipiac St., Bldg. 40, Wallingford CT 06492
  
  
 ---------------------------------------------------------------
 Warning -- This program may not be used in any manner that
 competes with the business of Gaussian, Inc. or will provide
 assistance to any competitor of Gaussian, Inc.  The licensee
 of this program is prohibited from giving any competitor of
 Gaussian, Inc. access to this program.  By using this program,
 the user acknowledges that Gaussian, Inc. is engaged in the
 business of creating and licensing software in the field of
 computational chemistry and represents and warrants to the
 licensee that it is not a competitor of Gaussian, Inc. and that
 it will not use this program in any manner prohibited above.
 ---------------------------------------------------------------
  

 Cite this work as:
 Gaussian 09, Revision D.01,
 M. J. Frisch, G. W. Trucks, H. B. Schlegel, G. E. Scuseria, 
 M. A. Robb, J. R. Cheeseman, G. Scalmani, V. Barone, B. Mennucci, 
 G. A. Petersson, H. Nakatsuji, M. Caricato, X. Li, H. P. Hratchian, 
 A. F. Izmaylov, J. Bloino, G. Zheng, J. L. Sonnenberg, M. Hada, 
 M. Ehara, K. Toyota, R. Fukuda, J. Hasegawa, M. Ishida, T. Nakajima, 
 Y. Honda, O. Kitao, H. Nakai, T. Vreven, J. A. Montgomery, Jr., 
 J. E. Peralta, F. Ogliaro, M. Bearpark, J. J. Heyd, E. Brothers, 
 K. N. Kudin, V. N. Staroverov, T. Keith, R. Kobayashi, J. Normand, 
 K. Raghavachari, A. Rendell, J. C. Burant, S. S. Iyengar, J. Tomasi, 
 M. Cossi, N. Rega, J. M. Millam, M. Klene, J. E. Knox, J. B. Cross, 
 V. Bakken, C. Adamo, J. Jaramillo, R. Gomperts, R. E. Stratmann, 
 O. Yazyev, A. J. Austin, R. Cammi, C. Pomelli, J. W. Ochterski, 
 R. L. Martin, K. Morokuma, V. G. Zakrzewski, G. A. Voth, 
 P. Salvador, J. J. Dannenberg, S. Dapprich, A. D. Daniels, 
 O. Farkas, J. B. Foresman, J. V. Ortiz, J. Cioslowski, 
 and D. J. Fox, Gaussian, Inc., Wallingford CT, 2013.
 
 ******************************************
 Gaussian 09:  ES64L-G09RevD.01 24-Apr-2013
                27-Jan-2020 
 ******************************************
 -----------------------------
 # b3lyp 6-31G(2df,p) opt Freq
 -----------------------------
 1/14=-1,18=20,19=15,26=3,38=1/1,3;
 2/9=110,12=2,17=6,18=5,40=1/2;
 3/5=1,6=6,7=104,11=2,16=1,25=1,30=1,71=1,74=-5/1,2,3;
 4//1;
 5/5=2,38=5/2;
 6/7=2,8=2,9=2,10=2,28=1/1;
 7//1,2,3,16;
 1/14=-1,18=20,19=15,26=3/3(2);
 2/9=110/2;
 99//99;
 2/9=110/2;
 3/5=1,6=6,7=104,11=2,16=1,25=1,30=1,71=1,74=-5/1,2,3;
 4/5=5,16=3,69=1/1;
 5/5=2,38=5/2;
 7//1,2,3,16;
 1/14=-1,18=20,19=15,26=3/3(-5);
 2/9=110/2;
 6/7=2,8=2,9=2,10=2,19=2,28=1/1;
 99/9=1/99;
 -----
 titel
 -----
 Symbolic Z-matrix:
 Charge =  0 Multiplicity = 1
 C                     0.5782    1.39676  -0.90167 
 C                     0.35106   0.34131   0.15862 
 C                     1.5002   -0.04864   1.06646 
 O                     2.61022  -0.31435   0.20325 
 C                     2.15868  -0.62754  -1.09131 
 O                     2.00376  -2.01755  -1.34884 
 C                     0.647    -2.32271  -1.68955 
 C                     0.00411  -0.99514  -2.13524 
 C                     0.76227  -0.04736  -1.24321 
 H                    -0.30163   1.90441  -1.28293 
 H                     1.4655    2.02074  -0.83698 
 H                    -0.66195   0.16437   0.50197 
 H                     1.81617   0.73329   1.76575 
 H                     1.23389  -0.94284   1.64835 
 H                     2.92995  -0.24786  -1.7714 
 H                     0.65813  -3.08736  -2.47162 
 H                     0.1191   -2.73233  -0.81584 
 H                     0.205    -0.79917  -3.19496 
 H                    -1.07785  -0.97799  -1.98267 
 

 GradGradGradGradGradGradGradGradGradGradGradGradGradGradGradGradGradGrad
 Berny optimization.
 Initialization pass.
                           ----------------------------
                           !    Initial Parameters    !
                           ! (Angstroms and Degrees)  !
 --------------------------                            --------------------------
 ! Name  Definition              Value          Derivative Info.                !
 --------------------------------------------------------------------------------
 ! R1    R(1,2)                  1.5132         estimate D2E/DX2                !
 ! R2    R(1,9)                  1.4953         estimate D2E/DX2                !
 ! R3    R(1,10)                 1.085          estimate D2E/DX2                !
 ! R4    R(1,11)                 1.0867         estimate D2E/DX2                !
 ! R5    R(2,3)                  1.5155         estimate D2E/DX2                !
 ! R6    R(2,9)                  1.5117         estimate D2E/DX2                !
 ! R7    R(2,12)                 1.0841         estimate D2E/DX2                !
 ! R8    R(3,4)                  1.431          estimate D2E/DX2                !
 ! R9    R(3,13)                 1.0956         estimate D2E/DX2                !
 ! R10   R(3,14)                 1.0996         estimate D2E/DX2                !
 ! R11   R(4,5)                  1.4064         estimate D2E/DX2                !
 ! R12   R(5,6)                  1.4221         estimate D2E/DX2                !
 ! R13   R(5,9)                  1.5197         estimate D2E/DX2                !
 ! R14   R(5,15)                 1.0961         estimate D2E/DX2                !
 ! R15   R(6,7)                  1.4318         estimate D2E/DX2                !
 ! R16   R(7,8)                  1.5409         estimate D2E/DX2                !
 ! R17   R(7,16)                 1.0938         estimate D2E/DX2                !
 ! R18   R(7,17)                 1.0999         estimate D2E/DX2                !
 ! R19   R(8,9)                  1.5063         estimate D2E/DX2                !
 ! R20   R(8,18)                 1.0962         estimate D2E/DX2                !
 ! R21   R(8,19)                 1.0928         estimate D2E/DX2                !
 ! A1    A(2,1,10)             116.7984         estimate D2E/DX2                !
 ! A2    A(2,1,11)             118.775          estimate D2E/DX2                !
 ! A3    A(9,1,10)             118.1271         estimate D2E/DX2                !
 ! A4    A(9,1,11)             117.8811         estimate D2E/DX2                !
 ! A5    A(10,1,11)            114.481          estimate D2E/DX2                !
 ! A6    A(1,2,3)              119.0374         estimate D2E/DX2                !
 ! A7    A(1,2,12)             118.4245         estimate D2E/DX2                !
 ! A8    A(3,2,9)              106.4438         estimate D2E/DX2                !
 ! A9    A(3,2,12)             118.4764         estimate D2E/DX2                !
 ! A10   A(9,2,12)             120.3904         estimate D2E/DX2                !
 ! A11   A(2,3,4)              105.9381         estimate D2E/DX2                !
 ! A12   A(2,3,13)             114.671          estimate D2E/DX2                !
 ! A13   A(2,3,14)             110.0349         estimate D2E/DX2                !
 ! A14   A(4,3,13)             107.0877         estimate D2E/DX2                !
 ! A15   A(4,3,14)             110.8591         estimate D2E/DX2                !
 ! A16   A(13,3,14)            108.2086         estimate D2E/DX2                !
 ! A17   A(3,4,5)              110.3379         estimate D2E/DX2                !
 ! A18   A(4,5,6)              114.7921         estimate D2E/DX2                !
 ! A19   A(4,5,9)              107.5775         estimate D2E/DX2                !
 ! A20   A(4,5,15)             105.5491         estimate D2E/DX2                !
 ! A21   A(6,5,9)              104.7705         estimate D2E/DX2                !
 ! A22   A(6,5,15)             107.6287         estimate D2E/DX2                !
 ! A23   A(9,5,15)             116.89           estimate D2E/DX2                !
 ! A24   A(5,6,7)              110.7713         estimate D2E/DX2                !
 ! A25   A(6,7,8)              106.2932         estimate D2E/DX2                !
 ! A26   A(6,7,16)             108.0287         estimate D2E/DX2                !
 ! A27   A(6,7,17)             110.191          estimate D2E/DX2                !
 ! A28   A(8,7,16)             113.5605         estimate D2E/DX2                !
 ! A29   A(8,7,17)             110.5092         estimate D2E/DX2                !
 ! A30   A(16,7,17)            108.2096         estimate D2E/DX2                !
 ! A31   A(7,8,9)               99.2544         estimate D2E/DX2                !
 ! A32   A(7,8,18)             110.9262         estimate D2E/DX2                !
 ! A33   A(7,8,19)             112.7193         estimate D2E/DX2                !
 ! A34   A(9,8,18)             111.5779         estimate D2E/DX2                !
 ! A35   A(9,8,19)             113.9406         estimate D2E/DX2                !
 ! A36   A(18,8,19)            108.2753         estimate D2E/DX2                !
 ! A37   A(1,9,5)              117.3202         estimate D2E/DX2                !
 ! A38   A(1,9,8)              132.9206         estimate D2E/DX2                !
 ! A39   A(2,9,5)              104.7981         estimate D2E/DX2                !
 ! A40   A(2,9,8)              125.0318         estimate D2E/DX2                !
 ! A41   A(5,9,8)              106.3476         estimate D2E/DX2                !
 ! D1    D(10,1,2,3)          -158.6697         estimate D2E/DX2                !
 ! D2    D(10,1,2,12)           -1.6584         estimate D2E/DX2                !
 ! D3    D(11,1,2,3)           -14.861          estimate D2E/DX2                !
 ! D4    D(11,1,2,12)          142.1503         estimate D2E/DX2                !
 ! D5    D(10,1,9,5)           161.3715         estimate D2E/DX2                !
 ! D6    D(10,1,9,8)             5.4482         estimate D2E/DX2                !
 ! D7    D(11,1,9,5)            16.8436         estimate D2E/DX2                !
 ! D8    D(11,1,9,8)          -139.0797         estimate D2E/DX2                !
 ! D9    D(1,2,3,4)            -49.7791         estimate D2E/DX2                !
 ! D10   D(1,2,3,13)            68.0901         estimate D2E/DX2                !
 ! D11   D(1,2,3,14)          -169.6665         estimate D2E/DX2                !
 ! D12   D(9,2,3,4)             13.7435         estimate D2E/DX2                !
 ! D13   D(9,2,3,13)           131.6127         estimate D2E/DX2                !
 ! D14   D(9,2,3,14)          -106.1439         estimate D2E/DX2                !
 ! D15   D(12,2,3,4)           153.2216         estimate D2E/DX2                !
 ! D16   D(12,2,3,13)          -88.9093         estimate D2E/DX2                !
 ! D17   D(12,2,3,14)           33.3341         estimate D2E/DX2                !
 ! D18   D(3,2,9,5)             -1.0888         estimate D2E/DX2                !
 ! D19   D(3,2,9,8)            121.6443         estimate D2E/DX2                !
 ! D20   D(12,2,9,5)          -139.6283         estimate D2E/DX2                !
 ! D21   D(12,2,9,8)           -16.8952         estimate D2E/DX2                !
 ! D22   D(2,3,4,5)            -22.4969         estimate D2E/DX2                !
 ! D23   D(13,3,4,5)          -145.3121         estimate D2E/DX2                !
 ! D24   D(14,3,4,5)            96.8499         estimate D2E/DX2                !
 ! D25   D(3,4,5,6)            -94.0744         estimate D2E/DX2                !
 ! D26   D(3,4,5,9)             22.0874         estimate D2E/DX2                !
 ! D27   D(3,4,5,15)           147.58           estimate D2E/DX2                !
 ! D28   D(4,5,6,7)            119.8152         estimate D2E/DX2                !
 ! D29   D(9,5,6,7)              2.0527         estimate D2E/DX2                !
 ! D30   D(15,5,6,7)          -123.0165         estimate D2E/DX2                !
 ! D31   D(4,5,9,1)             51.7467         estimate D2E/DX2                !
 ! D32   D(4,5,9,2)            -12.2679         estimate D2E/DX2                !
 ! D33   D(4,5,9,8)           -146.393          estimate D2E/DX2                !
 ! D34   D(6,5,9,1)            174.3229         estimate D2E/DX2                !
 ! D35   D(6,5,9,2)            110.3083         estimate D2E/DX2                !
 ! D36   D(6,5,9,8)            -23.8167         estimate D2E/DX2                !
 ! D37   D(15,5,9,1)           -66.6731         estimate D2E/DX2                !
 ! D38   D(15,5,9,2)          -130.6877         estimate D2E/DX2                !
 ! D39   D(15,5,9,8)            95.1873         estimate D2E/DX2                !
 ! D40   D(5,6,7,8)             19.9187         estimate D2E/DX2                !
 ! D41   D(5,6,7,16)           142.1323         estimate D2E/DX2                !
 ! D42   D(5,6,7,17)           -99.8439         estimate D2E/DX2                !
 ! D43   D(6,7,8,9)            -32.7094         estimate D2E/DX2                !
 ! D44   D(6,7,8,18)            84.7574         estimate D2E/DX2                !
 ! D45   D(6,7,8,19)          -153.6366         estimate D2E/DX2                !
 ! D46   D(16,7,8,9)          -151.3442         estimate D2E/DX2                !
 ! D47   D(16,7,8,18)          -33.8774         estimate D2E/DX2                !
 ! D48   D(16,7,8,19)           87.7286         estimate D2E/DX2                !
 ! D49   D(17,7,8,9)            86.8459         estimate D2E/DX2                !
 ! D50   D(17,7,8,18)         -155.6873         estimate D2E/DX2                !
 ! D51   D(17,7,8,19)          -34.0813         estimate D2E/DX2                !
 ! D52   D(7,8,9,1)           -168.33           estimate D2E/DX2                !
 ! D53   D(7,8,9,2)            -88.1896         estimate D2E/DX2                !
 ! D54   D(7,8,9,5)             33.8628         estimate D2E/DX2                !
 ! D55   D(18,8,9,1)            74.6959         estimate D2E/DX2                !
 ! D56   D(18,8,9,2)           154.8363         estimate D2E/DX2                !
 ! D57   D(18,8,9,5)           -83.1113         estimate D2E/DX2                !
 ! D58   D(19,8,9,1)           -48.2977         estimate D2E/DX2                !
 ! D59   D(19,8,9,2)            31.8427         estimate D2E/DX2                !
 ! D60   D(19,8,9,5)           153.8951         estimate D2E/DX2                !
 --------------------------------------------------------------------------------
 Trust Radius=3.00D-01 FncErr=1.00D-07 GrdErr=1.00D-06
 Number of steps in this run=    114 maximum allowed number of steps=    114.
 GradGradGradGradGradGradGradGradGradGradGradGradGradGradGradGradGradGrad

                          Input orientation:                          
 ---------------------------------------------------------------------
 Center     Atomic      Atomic             Coordinates (Angstroms)
 Number     Number       Type             X           Y           Z
 ---------------------------------------------------------------------
      1          6           0        0.578201    1.396761   -0.901669
      2          6           0        0.351055    0.341305    0.158618
      3          6           0        1.500203   -0.048636    1.066457
      4          8           0        2.610217   -0.314350    0.203255
      5          6           0        2.158676   -0.627539   -1.091314
      6          8           0        2.003760   -2.017549   -1.348840
      7          6           0        0.647003   -2.322713   -1.689546
      8          6           0        0.004114   -0.995140   -2.135240
      9          6           0        0.762269   -0.047362   -1.243207
     10          1           0       -0.301627    1.904415   -1.282933
     11          1           0        1.465501    2.020744   -0.836977
     12          1           0       -0.661946    0.164373    0.501967
     13          1           0        1.816173    0.733291    1.765752
     14          1           0        1.233889   -0.942835    1.648345
     15          1           0        2.929951   -0.247863   -1.771400
     16          1           0        0.658132   -3.087360   -2.471620
     17          1           0        0.119096   -2.732329   -0.815836
     18          1           0        0.204998   -0.799168   -3.194956
     19          1           0       -1.077855   -0.977987   -1.982671
 ---------------------------------------------------------------------
                    Distance matrix (angstroms):
                    1          2          3          4          5
     1  C    0.000000
     2  C    1.513206   0.000000
     3  C    2.610131   1.515509   0.000000
     4  O    2.877125   2.352804   1.431032   0.000000
     5  C    2.575201   2.401767   2.329097   1.406373   0.000000
     6  O    3.726888   3.250855   3.156556   2.382787   1.422127
     7  C    3.802627   3.255808   3.673545   3.386802   2.348755
     8  C    2.751811   2.677356   3.658554   3.567044   2.422199
     9  C    1.495333   1.511712   2.424685   2.361873   1.519746
    10  H    1.084975   2.224270   3.546919   3.951013   3.535619
    11  H    1.086666   2.248047   2.811868   2.800914   2.749288
    12  H    2.242084   1.084142   2.244752   3.320459   3.334903
    13  H    3.014615   2.209774   1.095563   2.041924   3.183080
    14  H    3.522245   2.155852   1.099595   2.092261   2.908672
    15  H    2.998659   3.274568   3.183914   2.001478   1.096146
    16  H    4.751681   4.332227   4.739295   4.319164   3.194932
    17  H    4.155422   3.232738   3.557063   3.618128   2.943792
    18  H    3.196960   3.545204   4.516691   4.191416   2.876043
    19  H    3.090391   2.892652   4.099666   4.338266   3.375272
                    6          7          8          9         10
     6  O    0.000000
     7  C    1.431781   0.000000
     8  C    2.379565   1.540908   0.000000
     9  C    2.331114   2.321578   1.506255   0.000000
    10  H    4.549830   4.351303   3.037650   2.223261   0.000000
    11  H    4.106037   4.501381   3.593980   2.221851   1.826240
    12  H    3.910531   3.563940   2.956851   2.262488   2.518620
    13  H    4.159686   4.758698   4.635598   3.282372   3.892440
    14  H    3.275794   3.659237   3.978768   3.063555   4.365436
    15  H    2.041610   3.086026   3.041599   2.240097   3.913311
    16  H    2.053253   1.093823   2.217719   3.280462   5.220338
    17  H    2.084937   1.099928   2.184462   2.793808   4.679165
    18  H    2.850990   2.186965   1.096247   2.164507   3.349905
    19  H    3.313424   2.206658   1.092808   2.190645   3.066008
                   11         12         13         14         15
    11  H    0.000000
    12  H    3.124887   0.000000
    13  H    2.924843   2.839347   0.000000
    14  H    3.874697   2.476748   1.778268   0.000000
    15  H    2.857331   4.270815   3.835963   3.879983   0.000000
    16  H    5.423710   4.599846   5.821834   4.680234   3.703270
    17  H    4.940138   3.276814   4.642756   3.243029   3.871250
    18  H    3.885980   3.917556   5.436262   4.953466   3.123431
    19  H    4.095567   2.766115   5.035329   4.304610   4.079243
                   16         17         18         19
    16  H    0.000000
    17  H    1.777140   0.000000
    18  H    2.442205   3.066709   0.000000
    19  H    2.775279   2.423202   1.774069   0.000000
 Stoichiometry    C7H10O2
 Framework group  C1[X(C7H10O2)]
 Deg. of freedom    51
 Full point group                 C1      NOp   1
 Largest Abelian subgroup         C1      NOp   1
 Largest concise Abelian subgroup C1      NOp   1
                         Standard orientation:                         
 ---------------------------------------------------------------------
 Center     Atomic      Atomic             Coordinates (Angstroms)
 Number     Number       Type             X           Y           Z
 ---------------------------------------------------------------------
      1          6           0        1.266168    1.458696   -0.605238
      2          6           0        1.148866    0.702416    0.700164
      3          6           0        1.616418   -0.737907    0.760429
      4          8           0        1.007235   -1.395796   -0.354887
      5          6           0       -0.138139   -0.693563   -0.770668
      6          8           0       -1.358906   -1.156662   -0.207011
      7          6           0       -1.997949   -0.118104    0.543334
      8          6           0       -1.396571    1.209437    0.042957
      9          6           0       -0.002633    0.737932   -0.278642
     10          1           0        1.269270    2.541960   -0.544407
     11          1           0        1.894719    1.050053   -1.391861
     12          1           0        1.102091    1.269736    1.622836
     13          1           0        2.699220   -0.871740    0.660990
     14          1           0        1.298906   -1.197729    1.707455
     15          1           0       -0.196013   -0.841633   -1.855225
     16          1           0       -3.076727   -0.198028    0.381171
     17          1           0       -1.801153   -0.249690    1.617484
     18          1           0       -1.919443    1.562925   -0.853374
     19          1           0       -1.434456    2.000369    0.796097
 ---------------------------------------------------------------------
 Rotational constants (GHZ):      2.7096537      1.9049767      1.4153620
 Standard basis: 6-31G(2df,p) (6D, 7F)
 There are   329 symmetry adapted cartesian basis functions of A   symmetry.
 There are   302 symmetry adapted basis functions of A   symmetry.
   302 basis functions,   466 primitive gaussians,   329 cartesian basis functions
    34 alpha electrons       34 beta electrons
       nuclear repulsion energy       489.6532261732 Hartrees.
 NAtoms=   19 NActive=   19 NUniq=   19 SFac= 1.00D+00 NAtFMM=   60 NAOKFM=F Big=F
 Integral buffers will be    131072 words long.
 Raffenetti 2 integral format.
 Two-electron integral symmetry is turned on.
 One-electron integrals computed using PRISM.
 NBasis=   302 RedAO= T EigKep=  4.05D-04  NBF=   302
 NBsUse=   302 1.00D-06 EigRej= -1.00D+00 NBFU=   302
 ExpMin= 1.61D-01 ExpMax= 5.48D+03 ExpMxC= 8.25D+02 IAcc=1 IRadAn=         1 AccDes= 0.00D+00
 Harris functional with IExCor=  402 and IRadAn=       1 diagonalized for initial guess.
 HarFok:  IExCor=  402 AccDes= 0.00D+00 IRadAn=         1 IDoV= 1 UseB2=F ITyADJ=14
 ICtDFT=  3500011 ScaDFX=  1.000000  1.000000  1.000000  1.000000
 FoFCou: FMM=F IPFlag=           0 FMFlag=      100000 FMFlg1=           0
         NFxFlg=           0 DoJE=T BraDBF=F KetDBF=T FulRan=T
         wScrn=  0.000000 ICntrl=     500 IOpCl=  0 I1Cent=   200000004 NGrid=           0
         NMat0=    1 NMatS0=      1 NMatT0=    0 NMatD0=    1 NMtDS0=    0 NMtDT0=    0
 Petite list used in FoFCou.
 Requested convergence on RMS density matrix=1.00D-08 within 128 cycles.
 Requested convergence on MAX density matrix=1.00D-06.
 Requested convergence on             energy=1.00D-06.
 No special actions if energy rises.
 Integral accuracy reduced to 1.0D-05 until final iterations.
 Initial convergence to 1.0D-05 achieved.  Increase integral accuracy.
 SCF Done:  E(RB3LYP) =  -423.191922293     A.U. after   13 cycles
            NFock= 13  Conv=0.45D-08     -V/T= 2.0074

 **********************************************************************

            Population analysis using the SCF density.

 **********************************************************************

 Orbital symmetries:
       Occupied  (A) (A) (A) (A) (A) (A) (A) (A) (A) (A) (A) (A)
                 (A) (A) (A) (A) (A) (A) (A) (A) (A) (A) (A) (A)
                 (A) (A) (A) (A) (A) (A) (A) (A) (A) (A)
       Virtual   (A) (A) (A) (A) (A) (A) (A) (A) (A) (A) (A) (A)
                 (A) (A) (A) (A) (A) (A) (A) (A) (A) (A) (A) (A)
                 (A) (A) (A) (A) (A) (A) (A) (A) (A) (A) (A) (A)
                 (A) (A) (A) (A) (A) (A) (A) (A) (A) (A) (A) (A)
                 (A) (A) (A) (A) (A) (A) (A) (A) (A) (A) (A) (A)
                 (A) (A) (A) (A) (A) (A) (A) (A) (A) (A) (A) (A)
                 (A) (A) (A) (A) (A) (A) (A) (A) (A) (A) (A) (A)
                 (A) (A) (A) (A) (A) (A) (A) (A) (A) (A) (A) (A)
                 (A) (A) (A) (A) (A) (A) (A) (A) (A) (A) (A) (A)
                 (A) (A) (A) (A) (A) (A) (A) (A) (A) (A) (A) (A)
                 (A) (A) (A) (A) (A) (A) (A) (A) (A) (A) (A) (A)
                 (A) (A) (A) (A) (A) (A) (A) (A) (A) (A) (A) (A)
                 (A) (A) (A) (A) (A) (A) (A) (A) (A) (A) (A) (A)
                 (A) (A) (A) (A) (A) (A) (A) (A) (A) (A) (A) (A)
                 (A) (A) (A) (A) (A) (A) (A) (A) (A) (A) (A) (A)
                 (A) (A) (A) (A) (A) (A) (A) (A) (A) (A) (A) (A)
                 (A) (A) (A) (A) (A) (A) (A) (A) (A) (A) (A) (A)
                 (A) (A) (A) (A) (A) (A) (A) (A) (A) (A) (A) (A)
                 (A) (A) (A) (A) (A) (A) (A) (A) (A) (A) (A) (A)
                 (A) (A) (A) (A) (A) (A) (A) (A) (A) (A) (A) (A)
                 (A) (A) (A) (A) (A) (A) (A) (A) (A) (A) (A) (A)
                 (A) (A) (A) (A) (A) (A) (A) (A) (A) (A) (A) (A)
                 (A) (A) (A) (A)
 The electronic state is 1-A.
 Alpha  occ. eigenvalues --  -19.13850 -19.13285 -10.26831 -10.22953 -10.22924
 Alpha  occ. eigenvalues --  -10.19965 -10.19716 -10.19547 -10.19325  -1.06185
 Alpha  occ. eigenvalues --   -1.00615  -0.87185  -0.75741  -0.73550  -0.66592
 Alpha  occ. eigenvalues --   -0.60721  -0.57833  -0.56757  -0.50143  -0.48970
 Alpha  occ. eigenvalues --   -0.48122  -0.46383  -0.45175  -0.41753  -0.40408
 Alpha  occ. eigenvalues --   -0.39345  -0.38173  -0.36835  -0.32295  -0.31241
 Alpha  occ. eigenvalues --   -0.29803  -0.28004  -0.26651  -0.25279
 Alpha virt. eigenvalues --    0.08311   0.09977   0.10292   0.11657   0.12843
 Alpha virt. eigenvalues --    0.14080   0.14609   0.15765   0.16448   0.17096
 Alpha virt. eigenvalues --    0.17766   0.18840   0.19284   0.20399   0.21140
 Alpha virt. eigenvalues --    0.23564   0.24956   0.27987   0.30599   0.31576
 Alpha virt. eigenvalues --    0.33208   0.41604   0.42745   0.44192   0.45191
 Alpha virt. eigenvalues --    0.45941   0.46989   0.48928   0.49696   0.53383
 Alpha virt. eigenvalues --    0.53972   0.54538   0.54955   0.57235   0.59928
 Alpha virt. eigenvalues --    0.60852   0.62378   0.64071   0.68065   0.68813
 Alpha virt. eigenvalues --    0.70658   0.71745   0.73301   0.74051   0.75284
 Alpha virt. eigenvalues --    0.76088   0.77204   0.78221   0.80040   0.80532
 Alpha virt. eigenvalues --    0.83335   0.84761   0.87142   0.87518   0.89532
 Alpha virt. eigenvalues --    0.91177   0.94993   0.97012   0.97247   1.00689
 Alpha virt. eigenvalues --    1.02074   1.04872   1.09737   1.10734   1.13722
 Alpha virt. eigenvalues --    1.16351   1.18369   1.23014   1.24378   1.25919
 Alpha virt. eigenvalues --    1.27443   1.31578   1.33016   1.33727   1.36543
 Alpha virt. eigenvalues --    1.37563   1.38897   1.41873   1.43242   1.44433
 Alpha virt. eigenvalues --    1.46062   1.47611   1.48459   1.50153   1.50663
 Alpha virt. eigenvalues --    1.51503   1.54976   1.55558   1.57994   1.59914
 Alpha virt. eigenvalues --    1.61096   1.62887   1.64146   1.68027   1.70128
 Alpha virt. eigenvalues --    1.71575   1.74898   1.75956   1.79999   1.83830
 Alpha virt. eigenvalues --    1.86292   1.87923   1.89576   1.95031   1.95182
 Alpha virt. eigenvalues --    1.97093   2.01081   2.01896   2.09203   2.10504
 Alpha virt. eigenvalues --    2.13036   2.21185   2.23646   2.27888   2.29033
 Alpha virt. eigenvalues --    2.31954   2.36552   2.39786   2.40152   2.43256
 Alpha virt. eigenvalues --    2.44110   2.50852   2.51808   2.54985   2.60510
 Alpha virt. eigenvalues --    2.61999   2.67164   2.68243   2.72060   2.74759
 Alpha virt. eigenvalues --    2.75711   2.79903   2.80964   2.81581   2.85398
 Alpha virt. eigenvalues --    2.86457   2.89328   2.90533   2.91341   2.93106
 Alpha virt. eigenvalues --    2.95168   2.97836   3.02380   3.05312   3.06411
 Alpha virt. eigenvalues --    3.08774   3.13443   3.14021   3.16407   3.17803
 Alpha virt. eigenvalues --    3.18918   3.20823   3.22359   3.25745   3.29111
 Alpha virt. eigenvalues --    3.30837   3.32265   3.32694   3.34141   3.38229
 Alpha virt. eigenvalues --    3.39902   3.42476   3.45431   3.45915   3.48390
 Alpha virt. eigenvalues --    3.50047   3.54162   3.55404   3.58856   3.60205
 Alpha virt. eigenvalues --    3.60463   3.66479   3.68104   3.73591   3.76475
 Alpha virt. eigenvalues --    3.82542   3.85639   3.88396   3.91834   3.96434
 Alpha virt. eigenvalues --    3.99962   4.03795   4.11324   4.20326   4.20884
 Alpha virt. eigenvalues --    4.22831   4.26574   4.27868   4.30746   4.33801
 Alpha virt. eigenvalues --    4.36308   4.36942   4.38276   4.39380   4.40702
 Alpha virt. eigenvalues --    4.45092   4.45687   4.48593   4.51097   4.53199
 Alpha virt. eigenvalues --    4.54334   4.54485   4.56896   4.59639   4.61024
 Alpha virt. eigenvalues --    4.62811   4.63973   4.64865   4.66927   4.68084
 Alpha virt. eigenvalues --    4.70848   4.72704   4.75314   4.76532   4.76891
 Alpha virt. eigenvalues --    4.78085   4.80319   4.82132   4.85095   4.85983
 Alpha virt. eigenvalues --    4.87092   4.89302   4.90777   4.93306   4.97254
 Alpha virt. eigenvalues --    4.99571   5.04460   5.08653   5.10632   5.12829
 Alpha virt. eigenvalues --    5.20103   5.22551   5.27326   5.31947   5.35781
 Alpha virt. eigenvalues --    5.38236   5.46526   5.48744   5.51486   5.55846
 Alpha virt. eigenvalues --    5.60685   5.64914   5.72959   5.74542   5.75465
 Alpha virt. eigenvalues --    5.82208   5.86074   5.88591   5.94646   5.97594
 Alpha virt. eigenvalues --    6.10436   6.14928   6.16814   6.25118   6.33261
 Alpha virt. eigenvalues --    6.35228   6.53576   7.12892   7.29687  10.80756
 Alpha virt. eigenvalues --   11.30271  11.65579  11.69497  12.07038  12.39201
 Alpha virt. eigenvalues --   12.73606  13.47342  13.66222
          Condensed to atoms (all electrons):
               1          2          3          4          5          6
     1  C    5.191657   0.279040  -0.005695   0.010506  -0.019746   0.004486
     2  C    0.279040   4.931430   0.375830  -0.060453  -0.040094  -0.004495
     3  C   -0.005695   0.375830   4.808577   0.364611  -0.094206   0.007475
     4  O    0.010506  -0.060453   0.364611   7.750753   0.361651  -0.047407
     5  C   -0.019746  -0.040094  -0.094206   0.361651   4.612239   0.356374
     6  O    0.004486  -0.004495   0.007475  -0.047407   0.356374   7.770656
     7  C    0.004198   0.003948   0.001338   0.003845  -0.099496   0.377482
     8  C   -0.053234  -0.041643   0.003505   0.001736  -0.052809  -0.059880
     9  C    0.291145   0.365586  -0.047803  -0.037993   0.402386  -0.034460
    10  H    0.368497  -0.017644   0.001607  -0.000019   0.001743  -0.000041
    11  H    0.360729  -0.017644  -0.005148   0.003106  -0.005280   0.000129
    12  H   -0.034332   0.375074  -0.037463   0.002488   0.003505   0.000082
    13  H   -0.010152  -0.016863   0.361471  -0.021594   0.003463  -0.000151
    14  H    0.006298  -0.042714   0.361910  -0.028594   0.003434   0.001887
    15  H   -0.005706   0.006126   0.009108  -0.041665   0.356819  -0.040310
    16  H   -0.000177  -0.000024   0.000070  -0.000158   0.003277  -0.022366
    17  H    0.000061   0.002491  -0.001179   0.000843   0.002469  -0.032087
    18  H   -0.001715   0.005394  -0.000169   0.000036  -0.001921   0.000203
    19  H    0.000531  -0.009297   0.000001  -0.000009   0.004118   0.002343
               7          8          9         10         11         12
     1  C    0.004198  -0.053234   0.291145   0.368497   0.360729  -0.034332
     2  C    0.003948  -0.041643   0.365586  -0.017644  -0.017644   0.375074
     3  C    0.001338   0.003505  -0.047803   0.001607  -0.005148  -0.037463
     4  O    0.003845   0.001736  -0.037993  -0.000019   0.003106   0.002488
     5  C   -0.099496  -0.052809   0.402386   0.001743  -0.005280   0.003505
     6  O    0.377482  -0.059880  -0.034460  -0.000041   0.000129   0.000082
     7  C    4.781579   0.345610  -0.040324   0.000029  -0.000048   0.000303
     8  C    0.345610   5.163207   0.407415  -0.007247   0.003025  -0.004121
     9  C   -0.040324   0.407415   4.519474  -0.009341  -0.012946  -0.027982
    10  H    0.000029  -0.007247  -0.009341   0.589124  -0.038605  -0.006000
    11  H   -0.000048   0.003025  -0.012946  -0.038605   0.583210   0.002536
    12  H    0.000303  -0.004121  -0.027982  -0.006000   0.002536   0.631361
    13  H    0.000042  -0.000124   0.003407   0.000054   0.001732   0.003453
    14  H   -0.000562   0.000221  -0.002083  -0.000083   0.000159  -0.003467
    15  H    0.007746   0.000818  -0.038436  -0.000018   0.001916  -0.000143
    16  H    0.368311  -0.021556   0.002176   0.000001   0.000004  -0.000023
    17  H    0.361602  -0.037410  -0.004081   0.000003   0.000005   0.000375
    18  H   -0.022838   0.344477  -0.018884   0.000544   0.000226   0.000002
    19  H   -0.020960   0.350975  -0.010044   0.000791  -0.000129   0.002130
              13         14         15         16         17         18
     1  C   -0.010152   0.006298  -0.005706  -0.000177   0.000061  -0.001715
     2  C   -0.016863  -0.042714   0.006126  -0.000024   0.002491   0.005394
     3  C    0.361471   0.361910   0.009108   0.000070  -0.001179  -0.000169
     4  O   -0.021594  -0.028594  -0.041665  -0.000158   0.000843   0.000036
     5  C    0.003463   0.003434   0.356819   0.003277   0.002469  -0.001921
     6  O   -0.000151   0.001887  -0.040310  -0.022366  -0.032087   0.000203
     7  C    0.000042  -0.000562   0.007746   0.368311   0.361602  -0.022838
     8  C   -0.000124   0.000221   0.000818  -0.021556  -0.037410   0.344477
     9  C    0.003407  -0.002083  -0.038436   0.002176  -0.004081  -0.018884
    10  H    0.000054  -0.000083  -0.000018   0.000001   0.000003   0.000544
    11  H    0.001732   0.000159   0.001916   0.000004   0.000005   0.000226
    12  H    0.003453  -0.003467  -0.000143  -0.000023   0.000375   0.000002
    13  H    0.621396  -0.054654  -0.000051   0.000000   0.000012   0.000006
    14  H   -0.054654   0.655316  -0.000399   0.000015   0.000339  -0.000007
    15  H   -0.000051  -0.000399   0.661416   0.000097  -0.000523   0.000520
    16  H    0.000000   0.000015   0.000097   0.623030  -0.055310  -0.007702
    17  H    0.000012   0.000339  -0.000523  -0.055310   0.665133   0.005821
    18  H    0.000006  -0.000007   0.000520  -0.007702   0.005821   0.627901
    19  H   -0.000004  -0.000010  -0.000233   0.002494  -0.004142  -0.041723
              19
     1  C    0.000531
     2  C   -0.009297
     3  C    0.000001
     4  O   -0.000009
     5  C    0.004118
     6  O    0.002343
     7  C   -0.020960
     8  C    0.350975
     9  C   -0.010044
    10  H    0.000791
    11  H   -0.000129
    12  H    0.002130
    13  H   -0.000004
    14  H   -0.000010
    15  H   -0.000233
    16  H    0.002494
    17  H   -0.004142
    18  H   -0.041723
    19  H    0.616947
 Mulliken charges:
               1
     1  C   -0.386391
     2  C   -0.094049
     3  C   -0.103841
     4  O   -0.261684
     5  C    0.202075
     6  O   -0.279921
     7  C   -0.071805
     8  C   -0.342964
     9  C    0.292787
    10  H    0.116606
    11  H    0.123024
    12  H    0.092222
    13  H    0.108557
    14  H    0.102996
    15  H    0.082919
    16  H    0.107842
    17  H    0.095578
    18  H    0.109829
    19  H    0.106220
 Sum of Mulliken charges =   0.00000
 Mulliken charges with hydrogens summed into heavy atoms:
               1
     1  C   -0.146761
     2  C   -0.001827
     3  C    0.107713
     4  O   -0.261684
     5  C    0.284994
     6  O   -0.279921
     7  C    0.131615
     8  C   -0.126915
     9  C    0.292787
 Electronic spatial extent (au):  <R**2>=            961.9139
 Charge=              0.0000 electrons
 Dipole moment (field-independent basis, Debye):
    X=              0.0516    Y=              2.7799    Z=              0.9580  Tot=              2.9408
 Quadrupole moment (field-independent basis, Debye-Ang):
   XX=            -51.7395   YY=            -56.7277   ZZ=            -50.6833
   XY=             -1.2956   XZ=              0.3028   YZ=             -0.7112
 Traceless Quadrupole moment (field-independent basis, Debye-Ang):
   XX=              1.3107   YY=             -3.6776   ZZ=              2.3669
   XY=             -1.2956   XZ=              0.3028   YZ=             -0.7112
 Octapole moment (field-independent basis, Debye-Ang**2):
  XXX=             -4.5138  YYY=              2.0342  ZZZ=             -1.8001  XYY=              0.7399
  XXY=             -0.6251  XXZ=              1.9301  XZZ=              0.0427  YZZ=             -4.1811
  YYZ=              2.2449  XYZ=             -1.5239
 Hexadecapole moment (field-independent basis, Debye-Ang**3):
 XXXX=           -614.1880 YYYY=           -411.9802 ZZZZ=           -190.9040 XXXY=             -9.6484
 XXXZ=             -2.4792 YYYX=              2.7657 YYYZ=              2.4772 ZZZX=              0.7861
 ZZZY=              6.4903 XXYY=           -183.9091 XXZZ=           -137.4633 YYZZ=            -98.8195
 XXYZ=             -6.1007 YYXZ=              1.3572 ZZXY=              0.5275
 N-N= 4.896532261732D+02 E-N=-1.966010212346D+03  KE= 4.200713314857D+02
 Calling FoFJK, ICntrl=      2127 FMM=F ISym2X=0 I1Cent= 0 IOpClX= 0 NMat=1 NMatS=1 NMatT=0.
 ***** Axes restored to original set *****
 -------------------------------------------------------------------
 Center     Atomic                   Forces (Hartrees/Bohr)
 Number     Number              X              Y              Z
 -------------------------------------------------------------------
      1        6           0.000055909    0.000100859   -0.000041431
      2        6          -0.000007292   -0.000038806    0.000009668
      3        6          -0.000007098   -0.000011251    0.000019544
      4        8          -0.000035013   -0.000002900   -0.000010284
      5        6           0.000046611    0.000033627    0.000026025
      6        8          -0.000047368   -0.000027347   -0.000009359
      7        6           0.000015792   -0.000006705   -0.000008122
      8        6           0.000028679   -0.000014928   -0.000000125
      9        6          -0.000071034    0.000006995    0.000003349
     10        1          -0.000001182   -0.000025406    0.000005447
     11        1           0.000016620   -0.000023509    0.000021635
     12        1           0.000006387    0.000007557    0.000013978
     13        1          -0.000011113   -0.000010430    0.000003489
     14        1          -0.000018455   -0.000015558    0.000000999
     15        1           0.000008574   -0.000003185    0.000006957
     16        1           0.000000334    0.000004727   -0.000014314
     17        1          -0.000006742    0.000000727   -0.000006817
     18        1           0.000017558    0.000016534   -0.000007912
     19        1           0.000008833    0.000008996   -0.000012728
 -------------------------------------------------------------------
 Cartesian Forces:  Max     0.000100859 RMS     0.000025357

 GradGradGradGradGradGradGradGradGradGradGradGradGradGradGradGradGradGrad
 Berny optimization.
 FormGI is forming the generalized inverse of G from B-inverse, IUseBI=4.
 Internal  Forces:  Max     0.000031355 RMS     0.000008961
 Search for a local minimum.
 Step number   1 out of a maximum of  114
 All quantities printed in internal units (Hartrees-Bohrs-Radians)
 Mixed Optimization -- En-DIIS/RFO-DIIS
 Second derivative matrix not updated -- first step.
 ITU=  0
     Eigenvalues ---    0.00697   0.01063   0.01082   0.01881   0.02294
     Eigenvalues ---    0.02965   0.03112   0.03489   0.04286   0.04821
     Eigenvalues ---    0.05429   0.05513   0.05725   0.05971   0.06125
     Eigenvalues ---    0.06309   0.06448   0.07900   0.08558   0.09481
     Eigenvalues ---    0.10417   0.10692   0.11225   0.11241   0.11489
     Eigenvalues ---    0.11814   0.14688   0.16230   0.19969   0.20259
     Eigenvalues ---    0.22137   0.23617   0.26067   0.27484   0.29860
     Eigenvalues ---    0.30405   0.31410   0.33690   0.33727   0.34101
     Eigenvalues ---    0.34112   0.34178   0.34375   0.34490   0.35201
     Eigenvalues ---    0.35400   0.35498   0.38373   0.38471   0.40501
     Eigenvalues ---    0.42273
 RFO step:  Lambda=-7.70418094D-08 EMin= 6.96635701D-03
 Linear search not attempted -- first point.
 Iteration  1 RMS(Cart)=  0.00012590 RMS(Int)=  0.00000002
 Iteration  2 RMS(Cart)=  0.00000002 RMS(Int)=  0.00000001
 Variable       Old X    -DE/DX   Delta X   Delta X   Delta X     New X
                                 (Linear)    (Quad)   (Total)
    R1        2.85954   0.00003   0.00000   0.00018   0.00018   2.85973
    R2        2.82577   0.00002   0.00000   0.00003   0.00003   2.82580
    R3        2.05031  -0.00001   0.00000  -0.00002  -0.00002   2.05029
    R4        2.05350  -0.00001   0.00000  -0.00002  -0.00002   2.05348
    R5        2.86390  -0.00001   0.00000  -0.00002  -0.00002   2.86387
    R6        2.85672   0.00002   0.00000  -0.00002  -0.00002   2.85670
    R7        2.04873  -0.00001   0.00000  -0.00001  -0.00001   2.04872
    R8        2.70426   0.00000   0.00000  -0.00002  -0.00002   2.70424
    R9        2.07031   0.00000   0.00000  -0.00001  -0.00001   2.07031
   R10        2.07793   0.00001   0.00000   0.00002   0.00002   2.07795
   R11        2.65766  -0.00002   0.00000  -0.00004  -0.00004   2.65762
   R12        2.68743   0.00003   0.00000   0.00008   0.00008   2.68751
   R13        2.87190   0.00000   0.00000   0.00004   0.00004   2.87194
   R14        2.07142   0.00001   0.00000   0.00002   0.00002   2.07143
   R15        2.70567  -0.00002   0.00000  -0.00007  -0.00007   2.70560
   R16        2.91189   0.00000   0.00000   0.00000   0.00000   2.91190
   R17        2.06703   0.00000   0.00000   0.00001   0.00001   2.06704
   R18        2.07856   0.00000   0.00000   0.00001   0.00001   2.07857
   R19        2.84641   0.00000   0.00000   0.00002   0.00002   2.84643
   R20        2.07161   0.00001   0.00000   0.00002   0.00002   2.07162
   R21        2.06511   0.00000   0.00000  -0.00001  -0.00001   2.06509
    A1        2.03852  -0.00001   0.00000  -0.00010  -0.00010   2.03841
    A2        2.07301  -0.00001   0.00000  -0.00008  -0.00008   2.07294
    A3        2.06171  -0.00001   0.00000  -0.00012  -0.00012   2.06159
    A4        2.05741   0.00000   0.00000  -0.00003  -0.00003   2.05738
    A5        1.99807   0.00002   0.00000   0.00022   0.00022   1.99829
    A6        2.07759  -0.00001   0.00000   0.00000   0.00000   2.07759
    A7        2.06690   0.00002   0.00000   0.00004   0.00004   2.06694
    A8        1.85779   0.00000   0.00000   0.00002   0.00002   1.85781
    A9        2.06780  -0.00001   0.00000  -0.00010  -0.00010   2.06770
   A10        2.10121   0.00001   0.00000   0.00017   0.00017   2.10138
   A11        1.84897  -0.00001   0.00000  -0.00006  -0.00006   1.84890
   A12        2.00139   0.00000   0.00000  -0.00003  -0.00003   2.00136
   A13        1.92047   0.00000   0.00000   0.00002   0.00002   1.92049
   A14        1.86903   0.00000   0.00000  -0.00002  -0.00002   1.86901
   A15        1.93486   0.00000   0.00000   0.00004   0.00004   1.93490
   A16        1.88860   0.00000   0.00000   0.00005   0.00005   1.88865
   A17        1.92576   0.00002   0.00000   0.00006   0.00006   1.92582
   A18        2.00350   0.00001   0.00000   0.00000   0.00000   2.00350
   A19        1.87758   0.00000   0.00000  -0.00005  -0.00005   1.87753
   A20        1.84218   0.00000   0.00000   0.00004   0.00004   1.84222
   A21        1.82859  -0.00001   0.00000  -0.00003  -0.00003   1.82856
   A22        1.87848   0.00000   0.00000   0.00001   0.00001   1.87849
   A23        2.04011   0.00000   0.00000   0.00002   0.00002   2.04013
   A24        1.93332   0.00001   0.00000   0.00008   0.00008   1.93340
   A25        1.85517  -0.00001   0.00000  -0.00006  -0.00006   1.85510
   A26        1.88546   0.00000   0.00000   0.00001   0.00001   1.88546
   A27        1.92320   0.00000   0.00000  -0.00001  -0.00001   1.92318
   A28        1.98200   0.00000   0.00000   0.00000   0.00000   1.98201
   A29        1.92875   0.00000   0.00000   0.00004   0.00004   1.92879
   A30        1.88861   0.00000   0.00000   0.00003   0.00003   1.88864
   A31        1.73232   0.00002   0.00000   0.00010   0.00010   1.73242
   A32        1.93603   0.00000   0.00000  -0.00001  -0.00001   1.93602
   A33        1.96732   0.00000   0.00000   0.00000   0.00000   1.96732
   A34        1.94740  -0.00001   0.00000  -0.00010  -0.00010   1.94730
   A35        1.98864   0.00000   0.00000   0.00001   0.00001   1.98865
   A36        1.88976   0.00000   0.00000   0.00001   0.00001   1.88977
   A37        2.04762  -0.00002   0.00000  -0.00017  -0.00017   2.04745
   A38        2.31990   0.00002   0.00000   0.00015   0.00015   2.32005
   A39        1.82907  -0.00001   0.00000   0.00000   0.00000   1.82908
   A40        2.18222   0.00001   0.00000   0.00014   0.00014   2.18235
   A41        1.85612  -0.00001   0.00000  -0.00007  -0.00007   1.85604
    D1       -2.76931   0.00000   0.00000  -0.00010  -0.00010  -2.76941
    D2       -0.02894  -0.00001   0.00000  -0.00030  -0.00030  -0.02924
    D3       -0.25937   0.00001   0.00000   0.00004   0.00004  -0.25933
    D4        2.48099   0.00000   0.00000  -0.00015  -0.00015   2.48084
    D5        2.81646   0.00000   0.00000  -0.00004  -0.00004   2.81643
    D6        0.09509   0.00002   0.00000   0.00031   0.00031   0.09540
    D7        0.29398  -0.00001   0.00000  -0.00023  -0.00023   0.29375
    D8       -2.42740   0.00000   0.00000   0.00012   0.00012  -2.42728
    D9       -0.86881   0.00000   0.00000   0.00020   0.00020  -0.86861
   D10        1.18840   0.00000   0.00000   0.00011   0.00011   1.18851
   D11       -2.96124   0.00000   0.00000   0.00017   0.00017  -2.96107
   D12        0.23987   0.00000   0.00000   0.00018   0.00018   0.24005
   D13        2.29707   0.00000   0.00000   0.00010   0.00010   2.29717
   D14       -1.85256   0.00000   0.00000   0.00015   0.00015  -1.85241
   D15        2.67422   0.00000   0.00000   0.00035   0.00035   2.67458
   D16       -1.55176   0.00000   0.00000   0.00027   0.00027  -1.55149
   D17        0.58179   0.00000   0.00000   0.00033   0.00033   0.58212
   D18       -0.01900   0.00000   0.00000  -0.00018  -0.00018  -0.01919
   D19        2.12309  -0.00001   0.00000  -0.00018  -0.00018   2.12291
   D20       -2.43697   0.00000   0.00000  -0.00023  -0.00023  -2.43720
   D21       -0.29488  -0.00001   0.00000  -0.00023  -0.00023  -0.29510
   D22       -0.39265   0.00000   0.00000  -0.00013  -0.00013  -0.39277
   D23       -2.53617   0.00000   0.00000  -0.00005  -0.00005  -2.53622
   D24        1.69035   0.00000   0.00000  -0.00012  -0.00012   1.69023
   D25       -1.64191   0.00001   0.00000   0.00007   0.00007  -1.64184
   D26        0.38550   0.00000   0.00000   0.00001   0.00001   0.38550
   D27        2.57576   0.00000   0.00000   0.00002   0.00002   2.57578
   D28        2.09117  -0.00001   0.00000   0.00001   0.00001   2.09118
   D29        0.03583   0.00000   0.00000   0.00009   0.00009   0.03592
   D30       -2.14704   0.00000   0.00000   0.00008   0.00008  -2.14697
   D31        0.90315   0.00001   0.00000   0.00020   0.00020   0.90335
   D32       -0.21412   0.00000   0.00000   0.00012   0.00012  -0.21399
   D33       -2.55504   0.00000   0.00000   0.00000   0.00000  -2.55504
   D34        3.04251   0.00000   0.00000   0.00016   0.00016   3.04267
   D35        1.92524   0.00000   0.00000   0.00009   0.00009   1.92533
   D36       -0.41568   0.00000   0.00000  -0.00004  -0.00004  -0.41572
   D37       -1.16366   0.00000   0.00000   0.00017   0.00017  -1.16349
   D38       -2.28093   0.00000   0.00000   0.00010   0.00010  -2.28084
   D39        1.66133   0.00000   0.00000  -0.00003  -0.00003   1.66130
   D40        0.34765  -0.00001   0.00000  -0.00010  -0.00010   0.34754
   D41        2.48068  -0.00001   0.00000  -0.00013  -0.00013   2.48054
   D42       -1.74260   0.00000   0.00000  -0.00010  -0.00010  -1.74271
   D43       -0.57089   0.00000   0.00000   0.00004   0.00004  -0.57084
   D44        1.47930   0.00000   0.00000  -0.00002  -0.00002   1.47927
   D45       -2.68146   0.00000   0.00000  -0.00003  -0.00003  -2.68149
   D46       -2.64145   0.00000   0.00000   0.00008   0.00008  -2.64138
   D47       -0.59127   0.00000   0.00000   0.00001   0.00001  -0.59127
   D48        1.53115   0.00000   0.00000   0.00000   0.00000   1.53116
   D49        1.51575   0.00000   0.00000   0.00001   0.00001   1.51576
   D50       -2.71726   0.00000   0.00000  -0.00006  -0.00006  -2.71731
   D51       -0.59483   0.00000   0.00000  -0.00006  -0.00006  -0.59489
   D52       -2.93791  -0.00001   0.00000  -0.00033  -0.00033  -2.93824
   D53       -1.53920   0.00001   0.00000  -0.00003  -0.00003  -1.53923
   D54        0.59102   0.00000   0.00000   0.00001   0.00001   0.59103
   D55        1.30369  -0.00001   0.00000  -0.00033  -0.00033   1.30336
   D56        2.70240   0.00001   0.00000  -0.00003  -0.00003   2.70238
   D57       -1.45057   0.00000   0.00000   0.00001   0.00001  -1.45055
   D58       -0.84295  -0.00001   0.00000  -0.00027  -0.00027  -0.84322
   D59        0.55576   0.00001   0.00000   0.00003   0.00003   0.55579
   D60        2.68598   0.00000   0.00000   0.00007   0.00007   2.68605
         Item               Value     Threshold  Converged?
 Maximum Force            0.000031     0.000450     YES
 RMS     Force            0.000009     0.000300     YES
 Maximum Displacement     0.000624     0.001800     YES
 RMS     Displacement     0.000126     0.001200     YES
 Predicted change in Energy=-3.852277D-08
 Optimization completed.
    -- Stationary point found.
                           ----------------------------
                           !   Optimized Parameters   !
                           ! (Angstroms and Degrees)  !
 --------------------------                            --------------------------
 ! Name  Definition              Value          Derivative Info.                !
 --------------------------------------------------------------------------------
 ! R1    R(1,2)                  1.5132         -DE/DX =    0.0                 !
 ! R2    R(1,9)                  1.4953         -DE/DX =    0.0                 !
 ! R3    R(1,10)                 1.085          -DE/DX =    0.0                 !
 ! R4    R(1,11)                 1.0867         -DE/DX =    0.0                 !
 ! R5    R(2,3)                  1.5155         -DE/DX =    0.0                 !
 ! R6    R(2,9)                  1.5117         -DE/DX =    0.0                 !
 ! R7    R(2,12)                 1.0841         -DE/DX =    0.0                 !
 ! R8    R(3,4)                  1.431          -DE/DX =    0.0                 !
 ! R9    R(3,13)                 1.0956         -DE/DX =    0.0                 !
 ! R10   R(3,14)                 1.0996         -DE/DX =    0.0                 !
 ! R11   R(4,5)                  1.4064         -DE/DX =    0.0                 !
 ! R12   R(5,6)                  1.4221         -DE/DX =    0.0                 !
 ! R13   R(5,9)                  1.5197         -DE/DX =    0.0                 !
 ! R14   R(5,15)                 1.0961         -DE/DX =    0.0                 !
 ! R15   R(6,7)                  1.4318         -DE/DX =    0.0                 !
 ! R16   R(7,8)                  1.5409         -DE/DX =    0.0                 !
 ! R17   R(7,16)                 1.0938         -DE/DX =    0.0                 !
 ! R18   R(7,17)                 1.0999         -DE/DX =    0.0                 !
 ! R19   R(8,9)                  1.5063         -DE/DX =    0.0                 !
 ! R20   R(8,18)                 1.0962         -DE/DX =    0.0                 !
 ! R21   R(8,19)                 1.0928         -DE/DX =    0.0                 !
 ! A1    A(2,1,10)             116.7984         -DE/DX =    0.0                 !
 ! A2    A(2,1,11)             118.775          -DE/DX =    0.0                 !
 ! A3    A(9,1,10)             118.1271         -DE/DX =    0.0                 !
 ! A4    A(9,1,11)             117.8811         -DE/DX =    0.0                 !
 ! A5    A(10,1,11)            114.481          -DE/DX =    0.0                 !
 ! A6    A(1,2,3)              119.0374         -DE/DX =    0.0                 !
 ! A7    A(1,2,12)             118.4245         -DE/DX =    0.0                 !
 ! A8    A(3,2,9)              106.4438         -DE/DX =    0.0                 !
 ! A9    A(3,2,12)             118.4764         -DE/DX =    0.0                 !
 ! A10   A(9,2,12)             120.3904         -DE/DX =    0.0                 !
 ! A11   A(2,3,4)              105.9381         -DE/DX =    0.0                 !
 ! A12   A(2,3,13)             114.671          -DE/DX =    0.0                 !
 ! A13   A(2,3,14)             110.0349         -DE/DX =    0.0                 !
 ! A14   A(4,3,13)             107.0877         -DE/DX =    0.0                 !
 ! A15   A(4,3,14)             110.8591         -DE/DX =    0.0                 !
 ! A16   A(13,3,14)            108.2086         -DE/DX =    0.0                 !
 ! A17   A(3,4,5)              110.3379         -DE/DX =    0.0                 !
 ! A18   A(4,5,6)              114.7921         -DE/DX =    0.0                 !
 ! A19   A(4,5,9)              107.5775         -DE/DX =    0.0                 !
 ! A20   A(4,5,15)             105.5491         -DE/DX =    0.0                 !
 ! A21   A(6,5,9)              104.7705         -DE/DX =    0.0                 !
 ! A22   A(6,5,15)             107.6287         -DE/DX =    0.0                 !
 ! A23   A(9,5,15)             116.89           -DE/DX =    0.0                 !
 ! A24   A(5,6,7)              110.7713         -DE/DX =    0.0                 !
 ! A25   A(6,7,8)              106.2932         -DE/DX =    0.0                 !
 ! A26   A(6,7,16)             108.0287         -DE/DX =    0.0                 !
 ! A27   A(6,7,17)             110.191          -DE/DX =    0.0                 !
 ! A28   A(8,7,16)             113.5605         -DE/DX =    0.0                 !
 ! A29   A(8,7,17)             110.5092         -DE/DX =    0.0                 !
 ! A30   A(16,7,17)            108.2096         -DE/DX =    0.0                 !
 ! A31   A(7,8,9)               99.2544         -DE/DX =    0.0                 !
 ! A32   A(7,8,18)             110.9262         -DE/DX =    0.0                 !
 ! A33   A(7,8,19)             112.7193         -DE/DX =    0.0                 !
 ! A34   A(9,8,18)             111.5779         -DE/DX =    0.0                 !
 ! A35   A(9,8,19)             113.9406         -DE/DX =    0.0                 !
 ! A36   A(18,8,19)            108.2753         -DE/DX =    0.0                 !
 ! A37   A(1,9,5)              117.3202         -DE/DX =    0.0                 !
 ! A38   A(1,9,8)              132.9206         -DE/DX =    0.0                 !
 ! A39   A(2,9,5)              104.7981         -DE/DX =    0.0                 !
 ! A40   A(2,9,8)              125.0318         -DE/DX =    0.0                 !
 ! A41   A(5,9,8)              106.3476         -DE/DX =    0.0                 !
 ! D1    D(10,1,2,3)          -158.6697         -DE/DX =    0.0                 !
 ! D2    D(10,1,2,12)           -1.6584         -DE/DX =    0.0                 !
 ! D3    D(11,1,2,3)           -14.861          -DE/DX =    0.0                 !
 ! D4    D(11,1,2,12)          142.1503         -DE/DX =    0.0                 !
 ! D5    D(10,1,9,5)           161.3715         -DE/DX =    0.0                 !
 ! D6    D(10,1,9,8)             5.4482         -DE/DX =    0.0                 !
 ! D7    D(11,1,9,5)            16.8436         -DE/DX =    0.0                 !
 ! D8    D(11,1,9,8)          -139.0797         -DE/DX =    0.0                 !
 ! D9    D(1,2,3,4)            -49.7791         -DE/DX =    0.0                 !
 ! D10   D(1,2,3,13)            68.0901         -DE/DX =    0.0                 !
 ! D11   D(1,2,3,14)          -169.6665         -DE/DX =    0.0                 !
 ! D12   D(9,2,3,4)             13.7435         -DE/DX =    0.0                 !
 ! D13   D(9,2,3,13)           131.6127         -DE/DX =    0.0                 !
 ! D14   D(9,2,3,14)          -106.1439         -DE/DX =    0.0                 !
 ! D15   D(12,2,3,4)           153.2216         -DE/DX =    0.0                 !
 ! D16   D(12,2,3,13)          -88.9093         -DE/DX =    0.0                 !
 ! D17   D(12,2,3,14)           33.3341         -DE/DX =    0.0                 !
 ! D18   D(3,2,9,5)             -1.0888         -DE/DX =    0.0                 !
 ! D19   D(3,2,9,8)            121.6443         -DE/DX =    0.0                 !
 ! D20   D(12,2,9,5)          -139.6283         -DE/DX =    0.0                 !
 ! D21   D(12,2,9,8)           -16.8952         -DE/DX =    0.0                 !
 ! D22   D(2,3,4,5)            -22.4969         -DE/DX =    0.0                 !
 ! D23   D(13,3,4,5)          -145.3121         -DE/DX =    0.0                 !
 ! D24   D(14,3,4,5)            96.8499         -DE/DX =    0.0                 !
 ! D25   D(3,4,5,6)            -94.0744         -DE/DX =    0.0                 !
 ! D26   D(3,4,5,9)             22.0874         -DE/DX =    0.0                 !
 ! D27   D(3,4,5,15)           147.58           -DE/DX =    0.0                 !
 ! D28   D(4,5,6,7)            119.8152         -DE/DX =    0.0                 !
 ! D29   D(9,5,6,7)              2.0527         -DE/DX =    0.0                 !
 ! D30   D(15,5,6,7)          -123.0165         -DE/DX =    0.0                 !
 ! D31   D(4,5,9,1)             51.7467         -DE/DX =    0.0                 !
 ! D32   D(4,5,9,2)            -12.2679         -DE/DX =    0.0                 !
 ! D33   D(4,5,9,8)           -146.393          -DE/DX =    0.0                 !
 ! D34   D(6,5,9,1)            174.3229         -DE/DX =    0.0                 !
 ! D35   D(6,5,9,2)            110.3083         -DE/DX =    0.0                 !
 ! D36   D(6,5,9,8)            -23.8167         -DE/DX =    0.0                 !
 ! D37   D(15,5,9,1)           -66.6731         -DE/DX =    0.0                 !
 ! D38   D(15,5,9,2)          -130.6877         -DE/DX =    0.0                 !
 ! D39   D(15,5,9,8)            95.1873         -DE/DX =    0.0                 !
 ! D40   D(5,6,7,8)             19.9187         -DE/DX =    0.0                 !
 ! D41   D(5,6,7,16)           142.1323         -DE/DX =    0.0                 !
 ! D42   D(5,6,7,17)           -99.8439         -DE/DX =    0.0                 !
 ! D43   D(6,7,8,9)            -32.7094         -DE/DX =    0.0                 !
 ! D44   D(6,7,8,18)            84.7574         -DE/DX =    0.0                 !
 ! D45   D(6,7,8,19)          -153.6366         -DE/DX =    0.0                 !
 ! D46   D(16,7,8,9)          -151.3442         -DE/DX =    0.0                 !
 ! D47   D(16,7,8,18)          -33.8774         -DE/DX =    0.0                 !
 ! D48   D(16,7,8,19)           87.7286         -DE/DX =    0.0                 !
 ! D49   D(17,7,8,9)            86.8459         -DE/DX =    0.0                 !
 ! D50   D(17,7,8,18)         -155.6873         -DE/DX =    0.0                 !
 ! D51   D(17,7,8,19)          -34.0813         -DE/DX =    0.0                 !
 ! D52   D(7,8,9,1)           -168.33           -DE/DX =    0.0                 !
 ! D53   D(7,8,9,2)            -88.1896         -DE/DX =    0.0                 !
 ! D54   D(7,8,9,5)             33.8628         -DE/DX =    0.0                 !
 ! D55   D(18,8,9,1)            74.6959         -DE/DX =    0.0                 !
 ! D56   D(18,8,9,2)           154.8363         -DE/DX =    0.0                 !
 ! D57   D(18,8,9,5)           -83.1113         -DE/DX =    0.0                 !
 ! D58   D(19,8,9,1)           -48.2977         -DE/DX =    0.0                 !
 ! D59   D(19,8,9,2)            31.8427         -DE/DX =    0.0                 !
 ! D60   D(19,8,9,5)           153.8951         -DE/DX =    0.0                 !
 --------------------------------------------------------------------------------
 GradGradGradGradGradGradGradGradGradGradGradGradGradGradGradGradGradGrad

                          Input orientation:                          
 ---------------------------------------------------------------------
 Center     Atomic      Atomic             Coordinates (Angstroms)
 Number     Number       Type             X           Y           Z
 ---------------------------------------------------------------------
      1          6           0        0.578201    1.396761   -0.901669
      2          6           0        0.351055    0.341305    0.158618
      3          6           0        1.500203   -0.048636    1.066457
      4          8           0        2.610217   -0.314350    0.203255
      5          6           0        2.158676   -0.627539   -1.091314
      6          8           0        2.003760   -2.017549   -1.348840
      7          6           0        0.647003   -2.322713   -1.689546
      8          6           0        0.004114   -0.995140   -2.135240
      9          6           0        0.762269   -0.047362   -1.243207
     10          1           0       -0.301627    1.904415   -1.282933
     11          1           0        1.465501    2.020744   -0.836977
     12          1           0       -0.661946    0.164373    0.501967
     13          1           0        1.816173    0.733291    1.765752
     14          1           0        1.233889   -0.942835    1.648345
     15          1           0        2.929951   -0.247863   -1.771400
     16          1           0        0.658132   -3.087360   -2.471620
     17          1           0        0.119096   -2.732329   -0.815836
     18          1           0        0.204998   -0.799168   -3.194956
     19          1           0       -1.077855   -0.977987   -1.982671
 ---------------------------------------------------------------------
                    Distance matrix (angstroms):
                    1          2          3          4          5
     1  C    0.000000
     2  C    1.513206   0.000000
     3  C    2.610131   1.515509   0.000000
     4  O    2.877125   2.352804   1.431032   0.000000
     5  C    2.575201   2.401767   2.329097   1.406373   0.000000
     6  O    3.726888   3.250855   3.156556   2.382787   1.422127
     7  C    3.802627   3.255808   3.673545   3.386802   2.348755
     8  C    2.751811   2.677356   3.658554   3.567044   2.422199
     9  C    1.495333   1.511712   2.424685   2.361873   1.519746
    10  H    1.084975   2.224270   3.546919   3.951013   3.535619
    11  H    1.086666   2.248047   2.811868   2.800914   2.749288
    12  H    2.242084   1.084142   2.244752   3.320459   3.334903
    13  H    3.014615   2.209774   1.095563   2.041924   3.183080
    14  H    3.522245   2.155852   1.099595   2.092261   2.908672
    15  H    2.998659   3.274568   3.183914   2.001478   1.096146
    16  H    4.751681   4.332227   4.739295   4.319164   3.194932
    17  H    4.155422   3.232738   3.557063   3.618128   2.943792
    18  H    3.196960   3.545204   4.516691   4.191416   2.876043
    19  H    3.090391   2.892652   4.099666   4.338266   3.375272
                    6          7          8          9         10
     6  O    0.000000
     7  C    1.431781   0.000000
     8  C    2.379565   1.540908   0.000000
     9  C    2.331114   2.321578   1.506255   0.000000
    10  H    4.549830   4.351303   3.037650   2.223261   0.000000
    11  H    4.106037   4.501381   3.593980   2.221851   1.826240
    12  H    3.910531   3.563940   2.956851   2.262488   2.518620
    13  H    4.159686   4.758698   4.635598   3.282372   3.892440
    14  H    3.275794   3.659237   3.978768   3.063555   4.365436
    15  H    2.041610   3.086026   3.041599   2.240097   3.913311
    16  H    2.053253   1.093823   2.217719   3.280462   5.220338
    17  H    2.084937   1.099928   2.184462   2.793808   4.679165
    18  H    2.850990   2.186965   1.096247   2.164507   3.349905
    19  H    3.313424   2.206658   1.092808   2.190645   3.066008
                   11         12         13         14         15
    11  H    0.000000
    12  H    3.124887   0.000000
    13  H    2.924843   2.839347   0.000000
    14  H    3.874697   2.476748   1.778268   0.000000
    15  H    2.857331   4.270815   3.835963   3.879983   0.000000
    16  H    5.423710   4.599846   5.821834   4.680234   3.703270
    17  H    4.940138   3.276814   4.642756   3.243029   3.871250
    18  H    3.885980   3.917556   5.436262   4.953466   3.123431
    19  H    4.095567   2.766115   5.035329   4.304610   4.079243
                   16         17         18         19
    16  H    0.000000
    17  H    1.777140   0.000000
    18  H    2.442205   3.066709   0.000000
    19  H    2.775279   2.423202   1.774069   0.000000
 Stoichiometry    C7H10O2
 Framework group  C1[X(C7H10O2)]
 Deg. of freedom    51
 Full point group                 C1      NOp   1
 Largest Abelian subgroup         C1      NOp   1
 Largest concise Abelian subgroup C1      NOp   1
                         Standard orientation:                         
 ---------------------------------------------------------------------
 Center     Atomic      Atomic             Coordinates (Angstroms)
 Number     Number       Type             X           Y           Z
 ---------------------------------------------------------------------
      1          6           0        1.266168    1.458696   -0.605238
      2          6           0        1.148866    0.702416    0.700164
      3          6           0        1.616418   -0.737907    0.760429
      4          8           0        1.007235   -1.395796   -0.354887
      5          6           0       -0.138139   -0.693563   -0.770668
      6          8           0       -1.358906   -1.156662   -0.207011
      7          6           0       -1.997949   -0.118104    0.543334
      8          6           0       -1.396571    1.209437    0.042957
      9          6           0       -0.002633    0.737932   -0.278642
     10          1           0        1.269270    2.541960   -0.544407
     11          1           0        1.894719    1.050053   -1.391861
     12          1           0        1.102091    1.269736    1.622836
     13          1           0        2.699220   -0.871740    0.660990
     14          1           0        1.298906   -1.197729    1.707455
     15          1           0       -0.196013   -0.841633   -1.855225
     16          1           0       -3.076727   -0.198028    0.381171
     17          1           0       -1.801153   -0.249690    1.617484
     18          1           0       -1.919443    1.562925   -0.853374
     19          1           0       -1.434456    2.000369    0.796097
 ---------------------------------------------------------------------
 Rotational constants (GHZ):      2.7096537      1.9049767      1.4153620
 1\1\GINC-ALCHEMY-KR\FOpt\RB3LYP\6-31G(2df,p)\C7H10O2\PUCK\27-Jan-2020\
 0\\# b3lyp 6-31G(2df,p) opt Freq\\titel\\0,1\C,0.5782007545,1.39676123
 63,-0.9016690748\C,0.3510551605,0.3413052976,0.1586181159\C,1.50020337
 34,-0.0486358498,1.0664574673\O,2.610216741,-0.3143498106,0.2032549799
 \C,2.1586760774,-0.6275394984,-1.0913140139\O,2.0037602042,-2.01754865
 21,-1.3488397525\C,0.6470028528,-2.3227127361,-1.6895463011\C,0.004114
 4812,-0.9951395332,-2.1352398354\C,0.7622693909,-0.0473621232,-1.24320
 65261\H,-0.3016272228,1.9044147923,-1.2829329445\H,1.4655013189,2.0207
 443373,-0.8369772366\H,-0.6619456713,0.1643725117,0.5019671679\H,1.816
 1725753,0.7332911676,1.7657520429\H,1.2338892152,-0.9428350165,1.64834
 50631\H,2.9299513857,-0.2478633606,-1.7714001121\H,0.6581319041,-3.087
 3598515,-2.4716197139\H,0.1190962783,-2.7323289899,-0.8158358407\H,0.2
 049979008,-0.7991684285,-3.1949560222\H,-1.0778545101,-0.9779874524,-1
 .9826708233\\Version=ES64L-G09RevD.01\State=1-A\HF=-423.1919223\RMSD=4
 .451e-09\RMSF=2.536e-05\Dipole=-1.0790896,0.3811702,-0.1700906\Quadrup
 ole=-1.3104684,-0.3772501,1.6877184,1.9844029,-0.822383,0.2254963\PG=C
 01 [X(C7H10O2)]\\@


 SCIENCE IS A VERY HUMAN FORM OF KNOWLEDGE.
 WE ARE ALWAYS AT THE BRINK OF THE KNOWN,
 WE ALWAYS FEEL FORWARD FOR WHAT IS HOPED.
 EVERY JUDGEMENT IN SCIENCE STANDS ON THE EDGE OF ERROR, AND IS PERSONAL.
 SCIENCE IS A TRIBUTE TO WHAT WE CAN KNOW ALTHOUGH WE ARE FALLIBLE.

                     -- J. BRONOWSKI
 Job cpu time:       0 days  0 hours 19 minutes 57.2 seconds.
 File lengths (MBytes):  RWF=     52 Int=      0 D2E=      0 Chk=      7 Scr=      1
 Normal termination of Gaussian 09 at Mon Jan 27 11:28:33 2020.
 Link1:  Proceeding to internal job step number  2.
 ----------------------------------------------------------------------
 #N Geom=AllCheck Guess=TCheck SCRF=Check GenChk RB3LYP/6-31G(2df,p) Fr
 eq
 ----------------------------------------------------------------------
 1/10=4,29=7,30=1,38=1,40=1/1,3;
 2/12=2,40=1/2;
 3/5=1,6=6,7=104,11=2,14=-4,16=1,25=1,30=1,70=2,71=2,74=-5,116=1,140=1/1,2,3;
 4/5=101/1;
 5/5=2,98=1/2;
 8/6=4,10=90,11=11/1;
 11/6=1,8=1,9=11,15=111,16=1/1,2,10;
 10/6=1/2;
 6/7=2,8=2,9=2,10=2,18=1,28=1/1;
 7/8=1,10=1,25=1/1,2,3,16;
 1/10=4,30=1/3;
 99//99;
 Structure from the checkpoint file:  "/scratch/puck/g09_bb81485b-02e0-4a88-b541-c4ae16cf931e/Gau-60845.chk"
 -----
 titel
 -----
 Charge =  0 Multiplicity = 1
 Redundant internal coordinates found in file.
 C,0,0.5782007545,1.3967612363,-0.9016690748
 C,0,0.3510551605,0.3413052976,0.1586181159
 C,0,1.5002033734,-0.0486358498,1.0664574673
 O,0,2.610216741,-0.3143498106,0.2032549799
 C,0,2.1586760774,-0.6275394984,-1.0913140139
 O,0,2.0037602042,-2.0175486521,-1.3488397525
 C,0,0.6470028528,-2.3227127361,-1.6895463011
 C,0,0.0041144812,-0.9951395332,-2.1352398354
 C,0,0.7622693909,-0.0473621232,-1.2432065261
 H,0,-0.3016272228,1.9044147923,-1.2829329445
 H,0,1.4655013189,2.0207443373,-0.8369772366
 H,0,-0.6619456713,0.1643725117,0.5019671679
 H,0,1.8161725753,0.7332911676,1.7657520429
 H,0,1.2338892152,-0.9428350165,1.6483450631
 H,0,2.9299513857,-0.2478633606,-1.7714001121
 H,0,0.6581319041,-3.0873598515,-2.4716197139
 H,0,0.1190962783,-2.7323289899,-0.8158358407
 H,0,0.2049979008,-0.7991684285,-3.1949560222
 H,0,-1.0778545101,-0.9779874524,-1.9826708233
 Recover connectivity data from disk.

 GradGradGradGradGradGradGradGradGradGradGradGradGradGradGradGradGradGrad
 Berny optimization.
 Initialization pass.
                           ----------------------------
                           !    Initial Parameters    !
                           ! (Angstroms and Degrees)  !
 --------------------------                            --------------------------
 ! Name  Definition              Value          Derivative Info.                !
 --------------------------------------------------------------------------------
 ! R1    R(1,2)                  1.5132         calculate D2E/DX2 analytically  !
 ! R2    R(1,9)                  1.4953         calculate D2E/DX2 analytically  !
 ! R3    R(1,10)                 1.085          calculate D2E/DX2 analytically  !
 ! R4    R(1,11)                 1.0867         calculate D2E/DX2 analytically  !
 ! R5    R(2,3)                  1.5155         calculate D2E/DX2 analytically  !
 ! R6    R(2,9)                  1.5117         calculate D2E/DX2 analytically  !
 ! R7    R(2,12)                 1.0841         calculate D2E/DX2 analytically  !
 ! R8    R(3,4)                  1.431          calculate D2E/DX2 analytically  !
 ! R9    R(3,13)                 1.0956         calculate D2E/DX2 analytically  !
 ! R10   R(3,14)                 1.0996         calculate D2E/DX2 analytically  !
 ! R11   R(4,5)                  1.4064         calculate D2E/DX2 analytically  !
 ! R12   R(5,6)                  1.4221         calculate D2E/DX2 analytically  !
 ! R13   R(5,9)                  1.5197         calculate D2E/DX2 analytically  !
 ! R14   R(5,15)                 1.0961         calculate D2E/DX2 analytically  !
 ! R15   R(6,7)                  1.4318         calculate D2E/DX2 analytically  !
 ! R16   R(7,8)                  1.5409         calculate D2E/DX2 analytically  !
 ! R17   R(7,16)                 1.0938         calculate D2E/DX2 analytically  !
 ! R18   R(7,17)                 1.0999         calculate D2E/DX2 analytically  !
 ! R19   R(8,9)                  1.5063         calculate D2E/DX2 analytically  !
 ! R20   R(8,18)                 1.0962         calculate D2E/DX2 analytically  !
 ! R21   R(8,19)                 1.0928         calculate D2E/DX2 analytically  !
 ! A1    A(2,1,10)             116.7984         calculate D2E/DX2 analytically  !
 ! A2    A(2,1,11)             118.775          calculate D2E/DX2 analytically  !
 ! A3    A(9,1,10)             118.1271         calculate D2E/DX2 analytically  !
 ! A4    A(9,1,11)             117.8811         calculate D2E/DX2 analytically  !
 ! A5    A(10,1,11)            114.481          calculate D2E/DX2 analytically  !
 ! A6    A(1,2,3)              119.0374         calculate D2E/DX2 analytically  !
 ! A7    A(1,2,12)             118.4245         calculate D2E/DX2 analytically  !
 ! A8    A(3,2,9)              106.4438         calculate D2E/DX2 analytically  !
 ! A9    A(3,2,12)             118.4764         calculate D2E/DX2 analytically  !
 ! A10   A(9,2,12)             120.3904         calculate D2E/DX2 analytically  !
 ! A11   A(2,3,4)              105.9381         calculate D2E/DX2 analytically  !
 ! A12   A(2,3,13)             114.671          calculate D2E/DX2 analytically  !
 ! A13   A(2,3,14)             110.0349         calculate D2E/DX2 analytically  !
 ! A14   A(4,3,13)             107.0877         calculate D2E/DX2 analytically  !
 ! A15   A(4,3,14)             110.8591         calculate D2E/DX2 analytically  !
 ! A16   A(13,3,14)            108.2086         calculate D2E/DX2 analytically  !
 ! A17   A(3,4,5)              110.3379         calculate D2E/DX2 analytically  !
 ! A18   A(4,5,6)              114.7921         calculate D2E/DX2 analytically  !
 ! A19   A(4,5,9)              107.5775         calculate D2E/DX2 analytically  !
 ! A20   A(4,5,15)             105.5491         calculate D2E/DX2 analytically  !
 ! A21   A(6,5,9)              104.7705         calculate D2E/DX2 analytically  !
 ! A22   A(6,5,15)             107.6287         calculate D2E/DX2 analytically  !
 ! A23   A(9,5,15)             116.89           calculate D2E/DX2 analytically  !
 ! A24   A(5,6,7)              110.7713         calculate D2E/DX2 analytically  !
 ! A25   A(6,7,8)              106.2932         calculate D2E/DX2 analytically  !
 ! A26   A(6,7,16)             108.0287         calculate D2E/DX2 analytically  !
 ! A27   A(6,7,17)             110.191          calculate D2E/DX2 analytically  !
 ! A28   A(8,7,16)             113.5605         calculate D2E/DX2 analytically  !
 ! A29   A(8,7,17)             110.5092         calculate D2E/DX2 analytically  !
 ! A30   A(16,7,17)            108.2096         calculate D2E/DX2 analytically  !
 ! A31   A(7,8,9)               99.2544         calculate D2E/DX2 analytically  !
 ! A32   A(7,8,18)             110.9262         calculate D2E/DX2 analytically  !
 ! A33   A(7,8,19)             112.7193         calculate D2E/DX2 analytically  !
 ! A34   A(9,8,18)             111.5779         calculate D2E/DX2 analytically  !
 ! A35   A(9,8,19)             113.9406         calculate D2E/DX2 analytically  !
 ! A36   A(18,8,19)            108.2753         calculate D2E/DX2 analytically  !
 ! A37   A(1,9,5)              117.3202         calculate D2E/DX2 analytically  !
 ! A38   A(1,9,8)              132.9206         calculate D2E/DX2 analytically  !
 ! A39   A(2,9,5)              104.7981         calculate D2E/DX2 analytically  !
 ! A40   A(2,9,8)              125.0318         calculate D2E/DX2 analytically  !
 ! A41   A(5,9,8)              106.3476         calculate D2E/DX2 analytically  !
 ! D1    D(10,1,2,3)          -158.6697         calculate D2E/DX2 analytically  !
 ! D2    D(10,1,2,12)           -1.6584         calculate D2E/DX2 analytically  !
 ! D3    D(11,1,2,3)           -14.861          calculate D2E/DX2 analytically  !
 ! D4    D(11,1,2,12)          142.1503         calculate D2E/DX2 analytically  !
 ! D5    D(10,1,9,5)           161.3715         calculate D2E/DX2 analytically  !
 ! D6    D(10,1,9,8)             5.4482         calculate D2E/DX2 analytically  !
 ! D7    D(11,1,9,5)            16.8436         calculate D2E/DX2 analytically  !
 ! D8    D(11,1,9,8)          -139.0797         calculate D2E/DX2 analytically  !
 ! D9    D(1,2,3,4)            -49.7791         calculate D2E/DX2 analytically  !
 ! D10   D(1,2,3,13)            68.0901         calculate D2E/DX2 analytically  !
 ! D11   D(1,2,3,14)          -169.6665         calculate D2E/DX2 analytically  !
 ! D12   D(9,2,3,4)             13.7435         calculate D2E/DX2 analytically  !
 ! D13   D(9,2,3,13)           131.6127         calculate D2E/DX2 analytically  !
 ! D14   D(9,2,3,14)          -106.1439         calculate D2E/DX2 analytically  !
 ! D15   D(12,2,3,4)           153.2216         calculate D2E/DX2 analytically  !
 ! D16   D(12,2,3,13)          -88.9093         calculate D2E/DX2 analytically  !
 ! D17   D(12,2,3,14)           33.3341         calculate D2E/DX2 analytically  !
 ! D18   D(3,2,9,5)             -1.0888         calculate D2E/DX2 analytically  !
 ! D19   D(3,2,9,8)            121.6443         calculate D2E/DX2 analytically  !
 ! D20   D(12,2,9,5)          -139.6283         calculate D2E/DX2 analytically  !
 ! D21   D(12,2,9,8)           -16.8952         calculate D2E/DX2 analytically  !
 ! D22   D(2,3,4,5)            -22.4969         calculate D2E/DX2 analytically  !
 ! D23   D(13,3,4,5)          -145.3121         calculate D2E/DX2 analytically  !
 ! D24   D(14,3,4,5)            96.8499         calculate D2E/DX2 analytically  !
 ! D25   D(3,4,5,6)            -94.0744         calculate D2E/DX2 analytically  !
[...]
 5374,0.00794427,-0.02370661,0.01565861,0.02430302,0.01072044,0.0058381
 9,0.02288205,-0.11148407,-0.00657693,-0.04991070,0.60335915,0.02638207
 ,-0.01502425,-0.00201601,-0.00453833,-0.00181140,-0.00408200,0.0099388
 0,-0.00679468,-0.01239158,0.00022660,-0.05578424,0.00964085,0.04060242
 ,0.41235696,-0.00761091,0.00486255,-0.00204442,0.02559856,-0.00961651,
 -0.00377853,0.02426477,-0.01518003,-0.05563490,-0.01457840,-0.01131321
 ,-0.17111646,-0.09839042,-0.03902087,0.50936497,-0.00276117,-0.0000415
 0,-0.00189730,0.00187669,-0.00050581,-0.00147088,-0.00620511,-0.000057
 82,0.00225903,0.00568121,-0.01936393,-0.01899393,-0.09297822,-0.009655
 99,0.00639825,0.35831393,0.00796577,0.00067959,0.00242187,-0.00042542,
 0.00062268,0.00161867,-0.00776524,-0.00054350,0.00205641,-0.00552540,-
 0.01533901,-0.03691896,0.02325917,-0.16750516,0.02369801,0.03272348,0.
 35978732,0.00128568,-0.00059549,0.00171937,-0.00227836,0.00183666,0.00
 136913,-0.00435280,0.00014290,0.00323729,-0.00886176,-0.03627749,-0.00
 793724,0.00370668,-0.00689788,-0.05657206,0.06356470,0.04596854,0.0921
 9333,-0.00673389,-0.00026482,-0.00208939,0.00051457,0.00000648,-0.0003
 5747,0.00532753,-0.00123555,-0.00238146,-0.00159718,0.00768883,0.01101
 117,-0.01449169,-0.04279962,-0.01539327,-0.17673573,-0.02515001,-0.026
 10920,0.41187309,-0.00267207,-0.00056709,-0.00217582,0.00052118,-0.000
 36168,0.00054910,0.00001874,0.00036542,-0.00099102,0.00001550,-0.00172
 958,-0.00055130,-0.03689983,-0.02039426,-0.00848884,0.00315959,-0.0885
 2959,-0.00327573,0.03788170,0.56841373,-0.00512775,-0.00168892,-0.0010
 8335,0.00069813,0.00024196,0.00039711,-0.00054194,-0.00167336,0.000299
 72,-0.00121580,-0.00409795,-0.00269796,-0.00821907,-0.01002969,-0.0104
 9087,-0.01979358,-0.01578357,-0.06064890,-0.06076420,0.05399777,0.5710
 6327,0.00190027,0.00380181,0.00490827,0.00600071,0.00590664,0.00486762
 ,-0.00321515,0.00179785,0.00262919,-0.00395978,0.00137737,-0.00528803,
 -0.02378374,-0.00735333,-0.02226450,-0.04094698,0.01861622,-0.02008856
 ,-0.07998359,0.02224355,-0.00483232,0.61113676,-0.01673135,-0.00966920
 ,-0.01371777,0.00549114,-0.00283677,-0.00055348,0.00053937,0.00123551,
 0.00109589,0.00202982,-0.00158594,0.00346883,-0.00679961,0.00689362,-0
 .00120403,0.00835755,-0.00017156,-0.00058234,0.03249486,-0.14573582,0.
 02856492,0.00696411,0.39004540,0.01148142,0.00319623,0.00224040,-0.018
 33588,-0.01557465,-0.01904443,0.00007056,-0.00343059,-0.00301957,0.000
 53286,-0.00112367,0.00039765,-0.00963483,0.00240464,-0.00034745,-0.008
 01633,0.00113792,-0.00055434,-0.00609640,0.02794615,-0.08894857,-0.015
 69164,-0.02316575,0.56086105,-0.07111573,0.02748089,-0.01642337,-0.071
 07522,-0.00169952,0.02879371,0.00258178,-0.01315961,-0.01107841,-0.026
 02613,0.00145994,-0.02447987,-0.15621317,0.03597813,-0.00792870,-0.005
 19220,0.01326021,0.00199751,0.00765854,-0.00019496,0.00445354,-0.11150
 938,-0.04329093,-0.03936180,0.45857826,0.01338977,-0.21511336,-0.02683
 051,0.01552096,-0.03325643,-0.06329354,-0.00314885,0.00104175,0.003230
 10,-0.00071441,0.00804738,-0.00307370,0.01996888,-0.07696107,0.0044091
 2,0.02441299,-0.04911741,-0.00795814,0.00080521,-0.04718498,-0.0183491
 4,-0.04030993,-0.11466181,-0.04605714,-0.03283049,0.54588647,-0.013609
 47,-0.06831213,-0.03155494,0.03572245,-0.01801398,-0.16280839,-0.01991
 419,-0.01077148,-0.03079509,-0.02506449,0.00741594,-0.02633367,-0.0002
 6470,0.00180812,-0.06817819,-0.00262318,-0.00399790,0.00339710,0.00643
 843,-0.00605223,0.00650732,-0.04220265,-0.05045987,-0.11867348,0.06109
 922,0.16141695,0.44603245,-0.24306887,0.10634337,-0.08647435,0.0077356
 9,-0.00498383,0.00416132,-0.00087113,-0.00194068,0.00041453,0.00051276
 ,0.00044504,-0.00027193,0.00077741,0.00015751,0.00006875,0.00012428,0.
 00061064,-0.00004534,-0.00049900,-0.00007601,-0.00014147,0.00100968,-0
 .00076541,-0.00017183,-0.00446303,0.00016290,-0.00114301,0.25230844,0.
 10387683,-0.10571412,0.04693918,0.00682360,-0.00777522,0.00225854,-0.0
 0139822,-0.00121089,-0.00161548,0.00152312,0.00103206,0.00049022,-0.00
 496807,-0.00233769,0.00132850,0.00084139,-0.00169763,-0.00058009,0.001
 01138,0.00040116,0.00063392,0.00040123,0.00292076,-0.00103988,0.020235
 02,-0.01160219,0.01096606,-0.11400514,0.11519847,-0.08563453,0.0481036
 4,-0.07112981,-0.02519210,0.01054582,-0.00910586,0.00306337,0.00519594
 ,-0.00099935,0.00007326,-0.00012683,0.00080787,-0.00231817,-0.00341281
 ,-0.00026802,0.00079290,-0.00191938,-0.00009503,0.00103599,0.00037644,
 0.00048579,-0.00034785,0.00215762,0.00001664,0.01963816,-0.00586498,0.
 00617070,0.09010942,-0.05299536,0.07483213,-0.24272680,-0.13160201,-0.
 01895778,-0.00391596,-0.00118819,-0.00058818,0.00029370,0.00129370,-0.
 00067638,0.00056665,-0.00010146,0.00034529,0.00037772,0.00084186,-0.00
 028391,0.00003718,-0.00041332,-0.00008478,0.00037905,0.00023376,0.0004
 5473,-0.00015523,0.00136282,-0.00057215,0.00783099,0.00439470,0.001588
 71,-0.01525142,-0.01399613,0.00011977,0.25198747,-0.12936664,-0.132903
 76,-0.00781807,-0.00542807,-0.00960546,-0.00037078,-0.00179828,0.00153
 130,0.00118906,0.00078431,0.00137053,0.00000080,-0.00191448,0.00029071
 ,-0.00268049,0.00055959,0.00108642,0.00019117,-0.00140500,-0.00021643,
 -0.00113540,0.00042417,-0.00195198,0.00318229,-0.01796254,-0.01545172,
 0.00057145,0.01266155,0.01024145,0.00038230,0.14110390,0.14712933,-0.0
 1943764,-0.00830594,-0.03987717,0.02578530,0.01362056,0.00295161,0.000
 73172,-0.00248542,0.00168818,-0.00036230,-0.00013189,0.00025882,-0.000
 43130,0.00164593,0.00054404,0.00030048,0.00087284,-0.00000272,-0.00118
 628,-0.00040127,-0.00139878,0.00078628,-0.00351117,0.00202750,-0.01678
 532,-0.00636800,-0.00418529,-0.00754148,-0.00676258,-0.00078462,0.0180
 8676,0.00766554,0.03984187,0.00094115,0.00167440,-0.00071013,-0.303920
 26,-0.04340374,0.08263926,-0.01111459,-0.00457965,0.01056641,-0.003529
 81,0.00170088,0.00085529,-0.00145097,-0.00152115,-0.00259407,0.0006214
 7,0.00067098,0.00039210,-0.00050379,-0.00015195,0.00009479,0.00055109,
 -0.00020507,-0.00063444,-0.00165886,-0.00141235,-0.00096010,0.00090313
 ,0.00004623,0.00021577,0.00044359,0.00045489,-0.00019546,0.31797458,-0
 .02683387,-0.00494566,0.00592629,-0.04611919,-0.04308565,0.02060089,0.
 00389092,0.00001589,-0.00336414,0.00395170,-0.00031023,-0.00162954,0.0
 0217595,0.00134502,-0.00203994,-0.00045521,-0.00057193,0.00001289,0.00
 075626,0.00041689,0.00000465,-0.00069301,0.00060124,0.00220234,0.01830
 790,0.00143979,-0.00133666,0.00098573,0.00094787,-0.00294020,-0.001149
 58,-0.00099314,0.00532107,0.04530827,0.04538925,0.00792099,0.00061918,
 -0.00717363,0.07931192,0.01774269,-0.07123079,-0.01584155,-0.00447351,
 0.00986789,-0.00457944,0.00179153,-0.00007736,-0.00005467,0.00202695,-
 0.00562710,-0.00004696,-0.00023324,0.00031965,-0.00006436,-0.00003883,
 -0.00028436,0.00042131,-0.00035356,0.00317083,0.02126856,0.00739574,-0
 .00686670,0.00036322,0.00081834,0.00104523,-0.00013001,-0.00105052,-0.
 00085039,-0.08901486,-0.02285741,0.07710533,0.00177252,0.00085716,0.00
 254691,-0.00485119,-0.01664039,-0.01756888,-0.07110575,-0.06266648,-0.
 05507127,0.00265841,0.02019681,0.03002308,-0.00576624,0.00151572,-0.00
 132968,0.00166218,0.00141006,0.00092385,-0.00087897,0.00028694,0.00019
 631,0.00084107,0.00072852,-0.00130324,-0.00445111,-0.00098374,-0.00047
 356,-0.00004052,0.00005342,0.00020626,0.00025889,0.00065947,-0.0007095
 3,-0.00068656,0.00003522,-0.00040763,0.07951897,-0.00018149,0.00189474
 ,-0.00133847,0.00212271,0.00863573,0.00768949,-0.05769343,-0.18670387,
 -0.11309687,0.00398784,0.00028255,-0.00871686,0.00159622,-0.00017583,0
 .00289937,-0.00052653,-0.00019048,-0.00009255,0.00013330,-0.00016493,0
 .00019485,-0.00038239,-0.00021660,0.00057061,0.00145021,0.00064419,0.0
 0275685,0.00010752,0.00012656,-0.00021394,-0.00048059,-0.00018772,-0.0
 0041666,0.00017049,-0.00013982,-0.00039703,0.06015253,0.19568777,0.000
 58875,-0.00056257,0.00159429,-0.00647040,-0.01036294,-0.00918969,-0.04
 766491,-0.10910106,-0.14205156,0.00178786,-0.01472063,-0.02227038,0.00
 238569,-0.00125003,0.00130190,-0.00076186,-0.00167854,-0.00096124,0.00
 070099,0.00019770,-0.00019349,0.00008493,0.00060284,-0.00084320,-0.001
 26423,-0.00104690,-0.00143322,0.00004862,0.00016917,0.00015751,0.00035
 101,0.00035807,-0.00050367,-0.00077373,-0.00010692,-0.00103482,0.04756
 819,0.12616407,0.16518058,-0.00408381,0.00055139,-0.00266315,0.0060480
 8,0.02241718,-0.01417088,-0.05852237,-0.04443148,0.02132335,-0.0146571
 2,-0.01577931,0.02706426,-0.00387571,-0.00451800,-0.00403469,0.0010150
 0,0.00157743,0.00033770,-0.00057017,0.00011285,-0.00014951,0.00028743,
 -0.00020680,0.00011075,0.00084609,0.00065692,0.00093141,0.00039200,0.0
 0018901,-0.00145129,-0.00011081,-0.00000136,0.00036958,0.00093194,-0.0
 0022957,0.00088118,0.00037488,-0.01046604,0.00402355,0.07125632,0.0019
 3159,0.00100956,0.00013809,-0.00168292,-0.00682599,0.00335797,-0.04526
 924,-0.22453325,0.10137373,-0.00001057,0.01443255,-0.00356259,0.000068
 67,0.00021660,-0.00106641,0.00027518,0.00034599,0.00059531,-0.00019781
 ,-0.00015614,0.00021275,-0.00008603,0.00002726,-0.00007969,-0.00041132
 ,-0.00011166,0.00075921,-0.00011186,0.00012444,0.00058092,0.00006843,0
 .00020162,-0.00053684,0.00056044,0.00041543,0.00005986,-0.00492094,-0.
 01981336,0.01167681,0.04959171,0.23450856,-0.00341226,0.00038647,-0.00
 013669,0.00159154,0.01780166,-0.01091652,0.02302239,0.09786441,-0.1111
 6448,0.01480503,0.01202966,-0.01749868,0.00329995,0.00405390,0.0019690
 1,-0.00097079,-0.00151358,0.00038955,0.00051035,0.00024622,-0.00054959
 ,-0.00005504,0.00015298,0.00006842,0.00051028,-0.00044075,0.00136011,0
 .00038663,0.00020444,-0.00091795,0.00011123,-0.00014270,0.00010587,-0.
 00015030,-0.00039270,0.00084426,-0.00501157,-0.01585956,0.01095659,-0.
 03409041,-0.11314059,0.12641058,0.00166372,-0.00078672,-0.00105332,-0.
 00354017,-0.00093500,-0.00046662,-0.00152129,0.00003556,-0.00229941,0.
 01018173,0.00115158,-0.01143725,-0.18402031,-0.05606252,0.11579369,0.0
 0200170,-0.00782419,-0.00063958,0.00033378,0.00005949,0.00099872,0.000
 04698,-0.00009648,0.00065141,-0.01435061,-0.00623010,0.01673488,0.0001
 1409,0.00020548,-0.00003451,0.00010273,0.00094081,0.00034390,-0.000137
 46,0.00089744,0.00091028,0.00044687,-0.00005620,-0.00012796,0.00036451
 ,-0.00006266,-0.00000847,0.18921537,-0.00098877,0.00203480,0.00079001,
 0.00253556,0.00047045,-0.00118214,0.00179148,0.00166618,-0.00147830,0.
 00118561,0.00483481,-0.00525525,-0.05188736,-0.06887963,0.05591691,-0.
 03087518,-0.03228283,0.00673844,0.00331753,-0.00397936,0.00522247,0.00
 033993,-0.00025068,-0.00019157,0.00812108,0.00513749,-0.00830232,-0.00
 004738,0.00000411,0.00009064,-0.00048960,-0.00031784,-0.00002743,0.000
 20441,-0.00055692,-0.00083456,-0.00023054,0.00002417,0.00008791,0.0005
 0677,-0.00006071,-0.00069049,0.06930501,0.09228869,0.00092894,-0.00089
 579,-0.00016657,-0.00252809,0.00015978,-0.00020498,-0.00398740,0.00312
 338,-0.00375745,0.02097359,-0.00171346,-0.04036147,0.10631938,0.056265
 51,-0.13671739,-0.00205604,-0.00475512,0.00854149,-0.00061729,-0.00033
 831,0.00030760,0.00061108,0.00024171,0.00000469,-0.00360074,-0.0010510
 3,0.00638984,-0.00009080,-0.00018556,0.00004105,0.00024278,-0.00007385
 ,-0.00018627,0.00014151,0.00019611,0.00061449,0.00071777,-0.00008506,-
 0.00059518,0.00141700,-0.00031706,-0.00111408,-0.11828564,-0.05054597,
 0.16723573,0.00140970,0.00024737,0.00012153,-0.00007412,-0.00026270,-0
 .00040000,-0.00118052,0.00005895,0.00043923,-0.00005944,-0.00288079,-0
 .00263868,-0.00329912,0.00512199,-0.00247111,-0.01196542,-0.03327141,-
 0.02414139,-0.04656306,0.01381110,0.01460103,0.00259349,0.00819403,0.0
 1115352,-0.00219139,0.00287386,-0.00129734,0.00004095,-0.00010914,-0.0
 0011206,-0.00010492,0.00036098,0.00026081,0.00007731,-0.00016782,0.000
 07727,0.00024492,-0.00003852,-0.00017895,0.00014617,0.00007392,-0.0001
 3291,-0.00007118,-0.00054600,0.00010503,0.05838685,-0.00102165,-0.0002
 5943,-0.00022787,0.00012901,0.00021926,0.00003507,-0.00018845,-0.00009
 090,0.00035776,-0.00048516,-0.00068902,-0.00064719,0.00007338,0.001094
 96,-0.00097196,-0.00515877,-0.00511521,-0.00462707,0.00646114,-0.17183
 745,-0.12767196,0.00076766,-0.01566030,-0.01780732,0.00204078,-0.00384
 581,0.00148006,-0.00001330,0.00005118,0.00006933,0.00008609,-0.0002167
 0,-0.00036059,0.00005252,-0.00002515,-0.00012494,0.00001094,0.00003239
 ,-0.00008097,0.00001238,0.00009233,-0.00012205,-0.00015005,-0.00021121
 ,0.00001948,-0.00206250,0.18741985,0.00046499,0.00019572,0.00043596,0.
 00002691,0.00019274,0.00023924,-0.00016340,0.00018231,0.00003283,-0.00
 001985,-0.00070839,-0.00069510,0.00033059,0.00389401,-0.00056993,-0.00
 880477,-0.00743565,-0.00022034,0.01006763,-0.13044641,-0.18832061,0.00
 093463,0.00996019,0.00868869,-0.00121885,0.00215934,-0.00054126,0.0000
 5135,-0.00008234,-0.00007798,-0.00004155,0.00008509,0.00019689,-0.0000
 2942,0.00002590,0.00008910,0.00006342,-0.00012554,-0.00000647,0.000036
 68,-0.00009262,0.00009466,-0.00001873,-0.00004733,0.00003330,-0.005273
 86,0.14163211,0.19847476,0.00015754,0.00009017,0.00041351,0.00026938,0
 .00012190,0.00018849,-0.00082457,-0.00000317,0.00072147,0.00025870,-0.
 00066866,-0.00165975,-0.00211918,0.00608211,0.00554050,-0.03400121,-0.
 02059900,0.01443226,-0.09075100,-0.03681475,0.08886598,0.00667836,0.00
 625224,-0.01258585,-0.00026357,-0.00088100,-0.00065217,0.00008556,-0.0
 0010211,-0.00013030,-0.00002723,0.00004025,0.00003355,0.00014128,-0.00
 010293,-0.00007196,0.00012125,0.00008545,-0.00017258,0.00014395,0.0001
 3920,-0.00035394,-0.00032766,-0.00219039,-0.00031333,0.00225570,-0.000
 45353,0.00372929,0.11710822,0.00029223,0.00023619,-0.00018775,0.000033
 21,-0.00005249,-0.00057846,-0.00040962,-0.00024337,0.00017497,0.000260
 29,-0.00011839,-0.00069299,-0.00081442,0.00068582,0.00154521,-0.010011
 36,-0.00042636,0.00353384,-0.03682939,-0.08453385,0.06685618,-0.009902
 12,-0.00976776,0.02450954,-0.00012620,0.00109422,0.00135729,-0.0000194
 5,0.00004207,0.00001607,-0.00000048,0.00011489,-0.00009834,0.00016766,
 -0.00013753,-0.00013515,0.00003331,0.00007179,-0.00008348,-0.00003221,
 0.00009541,-0.00032727,-0.00017168,-0.00049748,-0.00021248,0.00968358,
 0.00863347,-0.01854914,0.04629411,0.08788449,-0.00009949,-0.00001205,-
 0.00008563,0.00033407,-0.00006381,0.00040879,0.00022213,0.00001642,-0.
 00006522,-0.00004439,0.00061004,0.00039047,-0.00083956,-0.00093648,0.0
 0028159,-0.00392789,-0.00390088,0.01550647,0.08993307,0.06908824,-0.21
 709659,0.00298605,0.00284237,-0.00894440,0.00002366,-0.00050546,0.0002
 8506,0.00000933,-0.00000936,-0.00001946,-0.00004725,0.00000468,0.00010
 620,-0.00010221,0.00013757,0.00008777,-0.00001189,-0.00007259,0.000069
 91,0.00003787,0.00000117,0.00014432,-0.00009048,-0.00038629,-0.0000299
 8,0.01006388,0.00876820,-0.01921131,-0.09693369,-0.07780498,0.22678099
 ,0.00067374,0.00034384,0.00099457,-0.00121115,-0.00029546,-0.00101304,
 0.00031316,-0.00043113,-0.00041016,-0.00008047,0.00000791,0.00023496,0
 .00069638,-0.00028663,-0.00047437,0.00030278,0.00032863,0.00127897,0.0
 0226786,0.00171730,-0.01207481,-0.06149584,-0.00886665,0.04857308,0.00
 359046,0.00260414,-0.01604743,0.00005703,-0.00022859,0.00004476,-0.000
 04665,0.00004982,0.00002447,0.00007642,-0.00012863,-0.00023761,-0.0002
 0333,0.00006039,-0.00010291,-0.00005074,0.00000652,0.00000806,-0.00021
 792,-0.00009968,-0.00002327,0.00059392,-0.00063695,0.00011989,0.000064
 99,0.00151303,-0.00104176,0.05998457,0.00140467,0.00125752,0.00149469,
 -0.00415851,-0.00046272,-0.00285124,0.00068058,-0.00152171,-0.00078509
 ,-0.00018500,0.00007260,0.00042741,0.00039105,-0.00061560,-0.00047999,
 0.00067074,0.00132204,-0.00109616,-0.00849005,-0.00854725,0.03023428,-
 0.00801765,-0.05305207,0.04340455,0.00559788,0.00319532,-0.02450226,0.
 00018075,-0.00049092,-0.00004441,-0.00012339,0.00018520,0.00017527,-0.
 00007140,0.00033644,0.00041180,-0.00052615,0.00023136,-0.00028127,0.00
 000928,0.00002783,-0.00007361,-0.00019724,0.00032284,0.00007512,-0.000
 86045,0.00156399,-0.00060766,0.00349661,-0.00460067,0.00199942,0.01000
 953,0.06072310,0.00032840,-0.00057266,0.00081623,-0.00311858,0.0001827
 9,0.00050686,0.00060323,-0.00124621,-0.00042362,-0.00047935,0.00010069
 ,0.00039133,0.00061476,-0.00053149,-0.00077307,-0.00087572,0.00001783,
 0.00054148,0.00300764,0.00154081,-0.00685797,0.04851841,0.04489286,-0.
 28397835,0.00324928,0.00073553,-0.01967694,0.00002240,-0.00050832,-0.0
 0016333,0.00005358,-0.00022659,0.00005554,-0.00005805,0.00031941,0.000
 28856,-0.00044890,0.00016462,-0.00018152,-0.00000365,0.00001359,0.0000
 2102,-0.00054285,-0.00000890,-0.00000505,-0.00019270,0.00009307,0.0013
 2089,-0.00096475,0.00091926,0.00084492,-0.05060758,-0.04680118,0.31130
 159,-0.00018493,0.00017014,0.00028447,0.00111252,0.00087277,0.00065992
 ,-0.00034788,0.00026289,0.00034152,-0.00028995,-0.00018310,-0.00097014
 ,-0.00000159,-0.00011162,-0.00031049,-0.00085039,0.00055139,-0.0013176
 8,-0.00904634,-0.00325215,0.00249723,-0.30599615,0.00454782,0.03983078
 ,-0.01257572,0.00172054,0.00173720,0.00013294,-0.00039933,-0.00007885,
 0.00006106,-0.00016338,-0.00007354,0.00034034,-0.00042958,-0.00070569,
 0.00008371,-0.00004145,-0.00002206,0.00006436,0.00003768,-0.00005977,-
 0.00028488,0.00004754,0.00004553,-0.00023984,0.00053648,-0.00025496,0.
 00102951,0.00003950,-0.00047146,-0.00531522,0.00018876,0.00089442,0.33
 230842,-0.00054677,0.00097444,0.00060177,0.00083847,0.00135841,0.00112
 503,-0.00008171,0.00013422,0.00042422,-0.00117090,0.00114246,-0.000906
 04,-0.00012559,-0.00659989,-0.00259739,0.00565158,-0.00235338,0.002963
 19,0.02581557,0.00434120,-0.00573374,0.00410390,-0.04616331,-0.0000840
 0,-0.02425645,0.00081981,0.00321691,0.00030805,-0.00026151,-0.00000081
 ,0.00015948,-0.00030669,0.00010493,0.00033414,-0.00014179,-0.00036734,
 0.00002815,-0.00003865,0.00001874,0.00003987,0.00000352,-0.00003645,-0
 .00002252,0.00025311,0.00009258,-0.00022644,-0.00115626,-0.00023232,-0
 .00078650,0.00151956,0.00022379,-0.00566740,0.00005269,0.00091485,-0.0
 0439492,0.04642205,0.00005041,0.00023556,0.00043240,-0.00048114,0.0009
 1777,0.00179368,-0.00043423,0.00016597,0.00035443,-0.00076080,0.000247
 76,-0.00117269,-0.00172296,-0.00117108,-0.00134313,-0.00307615,0.00034
 475,-0.00022298,-0.00764596,-0.00118268,-0.00048977,0.04402282,-0.0004
 3224,-0.05312206,-0.01889263,0.00149250,0.00090460,0.00024462,-0.00002
 941,0.00000450,0.00002812,-0.00013205,0.00001240,0.00031763,-0.0000796
 3,-0.00028796,0.00009037,-0.00002473,0.00000366,0.00003025,0.00002638,
 -0.00006641,-0.00042806,0.00010417,-0.00002977,0.00001670,0.00018685,0
 .00003668,-0.00008673,-0.00024232,0.00054611,0.03075417,-0.00069966,-0
 .00402857,-0.04202643,0.00027211,0.05667487\\-0.00005592,-0.00010083,0
 .00004140,0.00000728,0.00003882,-0.00000963,0.00000699,0.00001130,-0.0
 0001942,0.00003517,0.00000289,0.00001036,-0.00004671,-0.00003364,-0.00
 002623,0.00004739,0.00002733,0.00000939,-0.00001579,0.00000669,0.00000
 807,-0.00002864,0.00001495,0.00000007,0.00007105,-0.00000703,-0.000003
 39,0.00000119,0.00002540,-0.00000544,-0.00001662,0.00002351,-0.0000216
 3,-0.00000639,-0.00000756,-0.00001397,0.00001112,0.00001042,-0.0000035
 0,0.00001847,0.00001554,-0.00000101,-0.00000858,0.00000319,-0.00000693
 ,-0.00000034,-0.00000471,0.00001433,0.00000674,-0.00000073,0.00000684,
 -0.00001757,-0.00001654,0.00000795,-0.00000884,-0.00000900,0.00001274\
 \\@


 SATCHEL PAIGE'S GUIDE TO LONGEVITY

    1.  AVOID FRIED MEATS, WHICH ANGRY UP THE BLOOD.

    2.  IF YOUR STOMACH DISPUTES YOU, LIE DOWN AND PACIFY IT WITH COOL
        THOUGHTS.

    3.  KEEP THE JUICES FLOWING BY JANGLING AROUND GENTLY AS YOU MOVE.

    4.  GO VERY LIGHT ON THE VICES, SUCH AS CARRYING ON IN SOCIETY.
        THE SOCIAL RUMBLE AIN'T RESTFUL.

    5.  AVOID RUNNING AT ALL TIMES.

    6.  DON'T LOOK BACK.  SOMETHING MAY BE GAINING ON YOU.
 Job cpu time:       0 days  2 hours 19 minutes 15.0 seconds.
 File lengths (MBytes):  RWF=    152 Int=      0 D2E=      0 Chk=      8 Scr=      1
 Normal termination of Gaussian 09 at Mon Jan 27 13:48:14 2020.
