 Entering Gaussian System, Link 0=/home/puck/opt/gaussian_09/g09
 Input=dsC7O2H10nsd_2631.com
 Output=dsC7O2H10nsd_2631.log
 Initial command:
 /home/puck/opt/gaussian_09/l1.exe "/scratch/puck/g09_2d45004a-4eb2-4224-86ca-11c3bbcf3bba/Gau-76265.inp" -scrdir="/scratch/puck/g09_2d45004a-4eb2-4224-86ca-11c3bbcf3bba/"
 Entering Link 1 = /home/puck/opt/gaussian_09/l1.exe PID=     76273.
  
 Copyright (c) 1988,1990,1992,1993,1995,1998,2003,2009,2013,
            Gaussian, Inc.  All Rights Reserved.
  
 This is part of the Gaussian(R) 09 program.  It is based on
 the Gaussian(R) 03 system (copyright 2003, Gaussian, Inc.),
 the Gaussian(R) 98 system (copyright 1998, Gaussian, Inc.),
 the Gaussian(R) 94 system (copyright 1995, Gaussian, Inc.),
 the Gaussian 92(TM) system (copyright 1992, Gaussian, Inc.),
 the Gaussian 90(TM) system (copyright 1990, Gaussian, Inc.),
 the Gaussian 88(TM) system (copyright 1988, Gaussian, Inc.),
 the Gaussian 86(TM) system (copyright 1986, Carnegie Mellon
 University), and the Gaussian 82(TM) system (copyright 1983,
 Carnegie Mellon University). Gaussian is a federally registered
 trademark of Gaussian, Inc.
  
 This software contains proprietary and confidential information,
 including trade secrets, belonging to Gaussian, Inc.
  
 This software is provided under written license and may be
 used, copied, transmitted, or stored only in accord with that
 written license.
  
 The following legend is applicable only to US Government
 contracts under FAR:
  
                    RESTRICTED RIGHTS LEGEND
  
 Use, reproduction and disclosure by the US Government is
 subject to restrictions as set forth in subparagraphs (a)
 and (c) of the Commercial Computer Software - Restricted
 Rights clause in FAR 52.227-19.
  
 Gaussian, Inc.
 340 Quinnipiac St., Bldg. 40, Wallingford CT 06492
  
  
 ---------------------------------------------------------------
 Warning -- This program may not be used in any manner that
 competes with the business of Gaussian, Inc. or will provide
 assistance to any competitor of Gaussian, Inc.  The licensee
 of this program is prohibited from giving any competitor of
 Gaussian, Inc. access to this program.  By using this program,
 the user acknowledges that Gaussian, Inc. is engaged in the
 business of creating and licensing software in the field of
 computational chemistry and represents and warrants to the
 licensee that it is not a competitor of Gaussian, Inc. and that
 it will not use this program in any manner prohibited above.
 ---------------------------------------------------------------
  

 Cite this work as:
 Gaussian 09, Revision D.01,
 M. J. Frisch, G. W. Trucks, H. B. Schlegel, G. E. Scuseria, 
 M. A. Robb, J. R. Cheeseman, G. Scalmani, V. Barone, B. Mennucci, 
 G. A. Petersson, H. Nakatsuji, M. Caricato, X. Li, H. P. Hratchian, 
 A. F. Izmaylov, J. Bloino, G. Zheng, J. L. Sonnenberg, M. Hada, 
 M. Ehara, K. Toyota, R. Fukuda, J. Hasegawa, M. Ishida, T. Nakajima, 
 Y. Honda, O. Kitao, H. Nakai, T. Vreven, J. A. Montgomery, Jr., 
 J. E. Peralta, F. Ogliaro, M. Bearpark, J. J. Heyd, E. Brothers, 
 K. N. Kudin, V. N. Staroverov, T. Keith, R. Kobayashi, J. Normand, 
 K. Raghavachari, A. Rendell, J. C. Burant, S. S. Iyengar, J. Tomasi, 
 M. Cossi, N. Rega, J. M. Millam, M. Klene, J. E. Knox, J. B. Cross, 
 V. Bakken, C. Adamo, J. Jaramillo, R. Gomperts, R. E. Stratmann, 
 O. Yazyev, A. J. Austin, R. Cammi, C. Pomelli, J. W. Ochterski, 
 R. L. Martin, K. Morokuma, V. G. Zakrzewski, G. A. Voth, 
 P. Salvador, J. J. Dannenberg, S. Dapprich, A. D. Daniels, 
 O. Farkas, J. B. Foresman, J. V. Ortiz, J. Cioslowski, 
 and D. J. Fox, Gaussian, Inc., Wallingford CT, 2013.
 
 ******************************************
 Gaussian 09:  ES64L-G09RevD.01 24-Apr-2013
                27-Jan-2020 
 ******************************************
 -----------------------------
 # b3lyp 6-31G(2df,p) opt Freq
 -----------------------------
 1/14=-1,18=20,19=15,26=3,38=1/1,3;
 2/9=110,12=2,17=6,18=5,40=1/2;
 3/5=1,6=6,7=104,11=2,16=1,25=1,30=1,71=1,74=-5/1,2,3;
 4//1;
 5/5=2,38=5/2;
 6/7=2,8=2,9=2,10=2,28=1/1;
 7//1,2,3,16;
 1/14=-1,18=20,19=15,26=3/3(2);
 2/9=110/2;
 99//99;
 2/9=110/2;
 3/5=1,6=6,7=104,11=2,16=1,25=1,30=1,71=1,74=-5/1,2,3;
 4/5=5,16=3,69=1/1;
 5/5=2,38=5/2;
 7//1,2,3,16;
 1/14=-1,18=20,19=15,26=3/3(-5);
 2/9=110/2;
 6/7=2,8=2,9=2,10=2,19=2,28=1/1;
 99/9=1/99;
 -----
 titel
 -----
 Symbolic Z-matrix:
 Charge =  0 Multiplicity = 1
 C                     1.87591   2.27352   0.37696 
 C                     2.0416    0.93041   1.04142 
 O                     2.48979   1.04332   2.37078 
 C                     2.60269  -0.28115   0.3528 
 O                     3.52231  -1.05695   1.02798 
 C                     1.10405  -0.26637   0.74688 
 C                     0.0626   -0.17634  -0.35876 
 C                     0.70827  -1.00972   1.90683 
 C                     0.37247  -1.57499   2.91719 
 H                     1.0639    2.84264   0.84182 
 H                     2.7999    2.84946   0.48939 
 H                     1.66481   2.17722  -0.69018 
 H                     1.82598   0.64534   2.9525 
 H                     2.79135  -0.23948  -0.71713 
 H                     3.6513   -0.61981   1.88404 
 H                    -0.25773  -1.17957  -0.65495 
 H                    -0.82209   0.3796   -0.03234 
 H                     0.46638   0.31911  -1.24523 
 H                     0.07686  -2.12047   3.77917 
 

 GradGradGradGradGradGradGradGradGradGradGradGradGradGradGradGradGradGrad
 Berny optimization.
 Initialization pass.
                           ----------------------------
                           !    Initial Parameters    !
                           ! (Angstroms and Degrees)  !
 --------------------------                            --------------------------
 ! Name  Definition              Value          Derivative Info.                !
 --------------------------------------------------------------------------------
 ! R1    R(1,2)                  1.5076         estimate D2E/DX2                !
 ! R2    R(1,10)                 1.0952         estimate D2E/DX2                !
 ! R3    R(1,11)                 1.0946         estimate D2E/DX2                !
 ! R4    R(1,12)                 1.0921         estimate D2E/DX2                !
 ! R5    R(2,3)                  1.4074         estimate D2E/DX2                !
 ! R6    R(2,4)                  1.5023         estimate D2E/DX2                !
 ! R7    R(2,6)                  1.5486         estimate D2E/DX2                !
 ! R8    R(3,13)                 0.9682         estimate D2E/DX2                !
 ! R9    R(4,5)                  1.3797         estimate D2E/DX2                !
 ! R10   R(4,6)                  1.5497         estimate D2E/DX2                !
 ! R11   R(4,14)                 1.0872         estimate D2E/DX2                !
 ! R12   R(5,15)                 0.9698         estimate D2E/DX2                !
 ! R13   R(6,7)                  1.5216         estimate D2E/DX2                !
 ! R14   R(6,8)                  1.4334         estimate D2E/DX2                !
 ! R15   R(7,16)                 1.094          estimate D2E/DX2                !
 ! R16   R(7,17)                 1.0947         estimate D2E/DX2                !
 ! R17   R(7,18)                 1.0929         estimate D2E/DX2                !
 ! R18   R(8,9)                  1.2055         estimate D2E/DX2                !
 ! R19   R(9,19)                 1.062          estimate D2E/DX2                !
 ! A1    A(2,1,10)             110.9394         estimate D2E/DX2                !
 ! A2    A(2,1,11)             109.3121         estimate D2E/DX2                !
 ! A3    A(2,1,12)             111.9231         estimate D2E/DX2                !
 ! A4    A(10,1,11)            107.9906         estimate D2E/DX2                !
 ! A5    A(10,1,12)            108.4985         estimate D2E/DX2                !
 ! A6    A(11,1,12)            108.056          estimate D2E/DX2                !
 ! A7    A(1,2,3)              112.3228         estimate D2E/DX2                !
 ! A8    A(1,2,4)              123.8828         estimate D2E/DX2                !
 ! A9    A(1,2,6)              122.5568         estimate D2E/DX2                !
 ! A10   A(3,2,4)              112.2542         estimate D2E/DX2                !
 ! A11   A(3,2,6)              115.7504         estimate D2E/DX2                !
 ! A12   A(2,3,13)             108.4325         estimate D2E/DX2                !
 ! A13   A(2,4,5)              118.5629         estimate D2E/DX2                !
 ! A14   A(2,4,14)             119.0109         estimate D2E/DX2                !
 ! A15   A(5,4,6)              121.704          estimate D2E/DX2                !
 ! A16   A(5,4,14)             112.7981         estimate D2E/DX2                !
 ! A17   A(6,4,14)             114.6892         estimate D2E/DX2                !
 ! A18   A(4,5,15)             105.4955         estimate D2E/DX2                !
 ! A19   A(2,6,7)              120.4558         estimate D2E/DX2                !
 ! A20   A(2,6,8)              114.4583         estimate D2E/DX2                !
 ! A21   A(4,6,7)              118.5351         estimate D2E/DX2                !
 ! A22   A(4,6,8)              117.8951         estimate D2E/DX2                !
 ! A23   A(7,6,8)              115.45           estimate D2E/DX2                !
 ! A24   A(6,7,16)             110.0531         estimate D2E/DX2                !
 ! A25   A(6,7,17)             111.5016         estimate D2E/DX2                !
 ! A26   A(6,7,18)             111.3068         estimate D2E/DX2                !
 ! A27   A(16,7,17)            108.0487         estimate D2E/DX2                !
 ! A28   A(16,7,18)            107.7169         estimate D2E/DX2                !
 ! A29   A(17,7,18)            108.0733         estimate D2E/DX2                !
 ! A30   L(6,8,9,13,-1)        177.1919         estimate D2E/DX2                !
 ! A31   L(8,9,19,13,-1)       182.586          estimate D2E/DX2                !
 ! A32   L(6,8,9,13,-2)        178.2601         estimate D2E/DX2                !
 ! A33   L(8,9,19,13,-2)       181.7734         estimate D2E/DX2                !
 ! D1    D(10,1,2,3)           -66.6634         estimate D2E/DX2                !
 ! D2    D(10,1,2,4)           153.0838         estimate D2E/DX2                !
 ! D3    D(10,1,2,6)            78.3573         estimate D2E/DX2                !
 ! D4    D(11,1,2,3)            52.317          estimate D2E/DX2                !
 ! D5    D(11,1,2,4)           -87.9358         estimate D2E/DX2                !
 ! D6    D(11,1,2,6)          -162.6624         estimate D2E/DX2                !
 ! D7    D(12,1,2,3)           171.9909         estimate D2E/DX2                !
 ! D8    D(12,1,2,4)            31.7381         estimate D2E/DX2                !
 ! D9    D(12,1,2,6)           -42.9884         estimate D2E/DX2                !
 ! D10   D(1,2,3,13)           119.7555         estimate D2E/DX2                !
 ! D11   D(4,2,3,13)           -95.242          estimate D2E/DX2                !
 ! D12   D(6,2,3,13)           -27.801          estimate D2E/DX2                !
 ! D13   D(1,2,4,5)            135.8704         estimate D2E/DX2                !
 ! D14   D(1,2,4,14)            -7.8719         estimate D2E/DX2                !
 ! D15   D(3,2,4,5)             -4.4057         estimate D2E/DX2                !
 ! D16   D(3,2,4,14)          -148.1481         estimate D2E/DX2                !
 ! D17   D(1,2,6,7)              7.1144         estimate D2E/DX2                !
 ! D18   D(1,2,6,8)           -137.4832         estimate D2E/DX2                !
 ! D19   D(3,2,6,7)            151.0434         estimate D2E/DX2                !
 ! D20   D(3,2,6,8)              6.4458         estimate D2E/DX2                !
 ! D21   D(2,4,5,15)            -1.2018         estimate D2E/DX2                !
 ! D22   D(6,4,5,15)           -72.9378         estimate D2E/DX2                !
 ! D23   D(14,4,5,15)          144.6704         estimate D2E/DX2                !
 ! D24   D(5,4,6,7)           -142.6382         estimate D2E/DX2                !
 ! D25   D(5,4,6,8)              4.6383         estimate D2E/DX2                !
 ! D26   D(14,4,6,7)            -0.8948         estimate D2E/DX2                !
 ! D27   D(14,4,6,8)           146.3817         estimate D2E/DX2                !
 ! D28   D(2,6,7,16)           160.5798         estimate D2E/DX2                !
 ! D29   D(2,6,7,17)           -79.5334         estimate D2E/DX2                !
 ! D30   D(2,6,7,18)            41.2335         estimate D2E/DX2                !
 ! D31   D(4,6,7,16)            92.9016         estimate D2E/DX2                !
 ! D32   D(4,6,7,17)          -147.2116         estimate D2E/DX2                !
 ! D33   D(4,6,7,18)           -26.4447         estimate D2E/DX2                !
 ! D34   D(8,6,7,16)           -55.1525         estimate D2E/DX2                !
 ! D35   D(8,6,7,17)            64.7342         estimate D2E/DX2                !
 ! D36   D(8,6,7,18)          -174.4989         estimate D2E/DX2                !
 --------------------------------------------------------------------------------
 Trust Radius=3.00D-01 FncErr=1.00D-07 GrdErr=1.00D-06
 Number of steps in this run=     98 maximum allowed number of steps=    114.
 GradGradGradGradGradGradGradGradGradGradGradGradGradGradGradGradGradGrad

                          Input orientation:                          
 ---------------------------------------------------------------------
 Center     Atomic      Atomic             Coordinates (Angstroms)
 Number     Number       Type             X           Y           Z
 ---------------------------------------------------------------------
      1          6           0        1.875910    2.273517    0.376959
      2          6           0        2.041603    0.930414    1.041423
      3          8           0        2.489793    1.043322    2.370780
      4          6           0        2.602690   -0.281154    0.352803
      5          8           0        3.522314   -1.056954    1.027979
      6          6           0        1.104046   -0.266375    0.746884
      7          6           0        0.062602   -0.176344   -0.358763
      8          6           0        0.708273   -1.009725    1.906832
      9          6           0        0.372467   -1.574987    2.917193
     10          1           0        1.063900    2.842644    0.841819
     11          1           0        2.799902    2.849459    0.489389
     12          1           0        1.664809    2.177217   -0.690180
     13          1           0        1.825980    0.645340    2.952498
     14          1           0        2.791347   -0.239480   -0.717129
     15          1           0        3.651299   -0.619809    1.884039
     16          1           0       -0.257728   -1.179571   -0.654953
     17          1           0       -0.822085    0.379602   -0.032338
     18          1           0        0.466377    0.319106   -1.245230
     19          1           0        0.076862   -2.120468    3.779175
 ---------------------------------------------------------------------
                    Distance matrix (angstroms):
                    1          2          3          4          5
     1  C    0.000000
     2  C    1.507612   0.000000
     3  O    2.421891   1.407413   0.000000
     4  C    2.656151   1.502303   2.416447   0.000000
     5  O    3.771805   2.478370   2.698217   1.379651   0.000000
     6  C    2.680237   1.548570   2.504523   1.549662   2.559697
     7  C    3.135473   2.664935   3.850876   2.639954   3.829900
     8  C    3.805728   2.508154   2.757546   2.556293   2.948463
     9  C    4.850166   3.547050   3.411331   3.636481   3.709316
    10  H    1.095153   2.156935   2.758342   3.516408   4.613601
    11  H    1.094583   2.136000   2.626391   3.139792   4.008993
    12  H    1.092072   2.166781   3.366866   2.830375   4.106368
    13  H    3.047434   1.944214   0.968211   2.867069   3.078819
    14  H    2.889673   2.241266   3.357335   1.087236   2.061063
    15  H    3.714112   2.388370   2.086149   1.886518   0.969830
    16  H    4.188206   3.551992   4.652438   3.163022   4.139566
    17  H    3.321689   3.107582   4.145363   3.509133   4.696996
    18  H    2.904824   2.843205   4.206450   2.734566   4.049663
    19  H    5.841126   4.545698   4.220827   4.637122   4.535557
                    6          7          8          9         10
     6  C    0.000000
     7  C    1.521567   0.000000
     8  C    1.433417   2.498867   0.000000
     9  C    2.637786   3.575487   1.205453   0.000000
    10  H    3.110727   3.399748   4.012663   4.929576   0.000000
    11  H    3.556776   4.167453   4.612739   5.600214   1.771428
    12  H    2.889766   2.866383   4.220904   5.363051   1.775079
    13  H    2.493420   3.840457   2.254312   2.654016   3.140680
    14  H    2.234065   2.752900   3.437680   4.565398   3.861849
    15  H    2.811856   4.255063   2.968830   3.567984   4.446283
    16  H    2.157198   1.093985   2.743127   3.648798   4.490572
    17  H    2.175880   1.094670   2.834186   3.734583   3.222990
    18  H    2.172079   1.092853   3.429256   4.574076   3.328821
    19  H    3.699669   4.571909   2.266737   1.062047   5.851050
                   11         12         13         14         15
    11  H    0.000000
    12  H    1.769670   0.000000
    13  H    3.445804   3.954961   0.000000
    14  H    3.316219   2.666503   3.896280   0.000000
    15  H    3.834807   4.289067   2.464548   2.765907   0.000000
    16  H    5.185721   3.868515   4.548168   3.191315   4.694710
    17  H    4.414883   3.138282   3.999013   3.729490   4.968147
    18  H    3.854469   2.279670   4.424462   2.448754   4.562632
    19  H    6.552695   6.400531   3.375278   5.578825   4.315103
                   16         17         18         19
    16  H    0.000000
    17  H    1.771206   0.000000
    18  H    1.766009   1.770565   0.000000
    19  H    4.545187   4.646083   5.598918   0.000000
 Stoichiometry    C7H10O2
 Framework group  C1[X(C7H10O2)]
 Deg. of freedom    51
 Full point group                 C1      NOp   1
 Largest Abelian subgroup         C1      NOp   1
 Largest concise Abelian subgroup C1      NOp   1
                         Standard orientation:                         
 ---------------------------------------------------------------------
 Center     Atomic      Atomic             Coordinates (Angstroms)
 Number     Number       Type             X           Y           Z
 ---------------------------------------------------------------------
      1          6           0       -2.174659    0.423818   -0.746665
      2          6           0       -0.863775   -0.191889   -0.327878
      3          8           0       -0.506668   -1.288866   -1.134060
      4          6           0       -0.444515   -0.376888    1.102824
      5          8           0        0.127017   -1.576839    1.472833
      6          6           0        0.313652    0.649416    0.223429
      7          6           0        0.132083    2.131552    0.515783
      8          6           0        1.600158    0.275143   -0.285990
      9          6           0        2.652076   -0.051465   -0.775796
     10          1           0       -2.091182    0.887423   -1.735332
     11          1           0       -2.939733   -0.356958   -0.802899
     12          1           0       -2.514931    1.180640   -0.036696
     13          1           0        0.340311   -1.092739   -1.560199
     14          1           0       -1.051683    0.061362    1.891091
     15          1           0        0.130421   -2.120720    0.669868
     16          1           0        0.914105    2.477901    1.197903
     17          1           0        0.189660    2.730842   -0.398459
     18          1           0       -0.833098    2.327552    0.989426
     19          1           0        3.603206   -0.327780   -1.159132
 ---------------------------------------------------------------------
 Rotational constants (GHZ):      1.9300613      1.5392679      1.3205510
 Standard basis: 6-31G(2df,p) (6D, 7F)
 There are   329 symmetry adapted cartesian basis functions of A   symmetry.
 There are   302 symmetry adapted basis functions of A   symmetry.
   302 basis functions,   466 primitive gaussians,   329 cartesian basis functions
    34 alpha electrons       34 beta electrons
       nuclear repulsion energy       458.6433842760 Hartrees.
 NAtoms=   19 NActive=   19 NUniq=   19 SFac= 1.00D+00 NAtFMM=   60 NAOKFM=F Big=F
 Integral buffers will be    131072 words long.
 Raffenetti 2 integral format.
 Two-electron integral symmetry is turned on.
 One-electron integrals computed using PRISM.
 NBasis=   302 RedAO= T EigKep=  1.37D-04  NBF=   302
 NBsUse=   302 1.00D-06 EigRej= -1.00D+00 NBFU=   302
 ExpMin= 1.61D-01 ExpMax= 5.48D+03 ExpMxC= 8.25D+02 IAcc=1 IRadAn=         1 AccDes= 0.00D+00
 Harris functional with IExCor=  402 and IRadAn=       1 diagonalized for initial guess.
 HarFok:  IExCor=  402 AccDes= 0.00D+00 IRadAn=         1 IDoV= 1 UseB2=F ITyADJ=14
 ICtDFT=  3500011 ScaDFX=  1.000000  1.000000  1.000000  1.000000
 FoFCou: FMM=F IPFlag=           0 FMFlag=      100000 FMFlg1=           0
         NFxFlg=           0 DoJE=T BraDBF=F KetDBF=T FulRan=T
         wScrn=  0.000000 ICntrl=     500 IOpCl=  0 I1Cent=   200000004 NGrid=           0
         NMat0=    1 NMatS0=      1 NMatT0=    0 NMatD0=    1 NMtDS0=    0 NMtDT0=    0
 Petite list used in FoFCou.
 Requested convergence on RMS density matrix=1.00D-08 within 128 cycles.
 Requested convergence on MAX density matrix=1.00D-06.
 Requested convergence on             energy=1.00D-06.
 No special actions if energy rises.
 Integral accuracy reduced to 1.0D-05 until final iterations.
 Initial convergence to 1.0D-05 achieved.  Increase integral accuracy.
 SCF Done:  E(RB3LYP) =  -423.133824292     A.U. after   14 cycles
            NFock= 14  Conv=0.36D-08     -V/T= 2.0074

 **********************************************************************

            Population analysis using the SCF density.

 **********************************************************************

 Orbital symmetries:
       Occupied  (A) (A) (A) (A) (A) (A) (A) (A) (A) (A) (A) (A)
                 (A) (A) (A) (A) (A) (A) (A) (A) (A) (A) (A) (A)
                 (A) (A) (A) (A) (A) (A) (A) (A) (A) (A)
       Virtual   (A) (A) (A) (A) (A) (A) (A) (A) (A) (A) (A) (A)
                 (A) (A) (A) (A) (A) (A) (A) (A) (A) (A) (A) (A)
                 (A) (A) (A) (A) (A) (A) (A) (A) (A) (A) (A) (A)
                 (A) (A) (A) (A) (A) (A) (A) (A) (A) (A) (A) (A)
                 (A) (A) (A) (A) (A) (A) (A) (A) (A) (A) (A) (A)
                 (A) (A) (A) (A) (A) (A) (A) (A) (A) (A) (A) (A)
                 (A) (A) (A) (A) (A) (A) (A) (A) (A) (A) (A) (A)
                 (A) (A) (A) (A) (A) (A) (A) (A) (A) (A) (A) (A)
                 (A) (A) (A) (A) (A) (A) (A) (A) (A) (A) (A) (A)
                 (A) (A) (A) (A) (A) (A) (A) (A) (A) (A) (A) (A)
                 (A) (A) (A) (A) (A) (A) (A) (A) (A) (A) (A) (A)
                 (A) (A) (A) (A) (A) (A) (A) (A) (A) (A) (A) (A)
                 (A) (A) (A) (A) (A) (A) (A) (A) (A) (A) (A) (A)
                 (A) (A) (A) (A) (A) (A) (A) (A) (A) (A) (A) (A)
                 (A) (A) (A) (A) (A) (A) (A) (A) (A) (A) (A) (A)
                 (A) (A) (A) (A) (A) (A) (A) (A) (A) (A) (A) (A)
                 (A) (A) (A) (A) (A) (A) (A) (A) (A) (A) (A) (A)
                 (A) (A) (A) (A) (A) (A) (A) (A) (A) (A) (A) (A)
                 (A) (A) (A) (A) (A) (A) (A) (A) (A) (A) (A) (A)
                 (A) (A) (A) (A) (A) (A) (A) (A) (A) (A) (A) (A)
                 (A) (A) (A) (A) (A) (A) (A) (A) (A) (A) (A) (A)
                 (A) (A) (A) (A) (A) (A) (A) (A) (A) (A) (A) (A)
                 (A) (A) (A) (A)
 The electronic state is 1-A.
 Alpha  occ. eigenvalues --  -19.15628 -19.13863 -10.25067 -10.23901 -10.21778
 Alpha  occ. eigenvalues --  -10.19088 -10.19084 -10.18628 -10.18134  -1.05394
 Alpha  occ. eigenvalues --   -1.01728  -0.85873  -0.76203  -0.72621  -0.70877
 Alpha  occ. eigenvalues --   -0.62148  -0.59251  -0.55296  -0.51474  -0.48341
 Alpha  occ. eigenvalues --   -0.47918  -0.43926  -0.41994  -0.41286  -0.40879
 Alpha  occ. eigenvalues --   -0.39719  -0.38614  -0.38271  -0.34870  -0.31425
 Alpha  occ. eigenvalues --   -0.30274  -0.28352  -0.25426  -0.23025
 Alpha virt. eigenvalues --    0.03814   0.04175   0.07900   0.09630   0.10768
 Alpha virt. eigenvalues --    0.12499   0.14295   0.14497   0.14756   0.15436
 Alpha virt. eigenvalues --    0.16481   0.18243   0.20451   0.20693   0.21868
 Alpha virt. eigenvalues --    0.23859   0.29618   0.30500   0.31462   0.33232
 Alpha virt. eigenvalues --    0.39658   0.40446   0.44267   0.44730   0.45875
 Alpha virt. eigenvalues --    0.47627   0.49063   0.51105   0.51960   0.53525
 Alpha virt. eigenvalues --    0.55166   0.56534   0.57895   0.59409   0.60114
 Alpha virt. eigenvalues --    0.61646   0.63118   0.65272   0.66410   0.69097
 Alpha virt. eigenvalues --    0.69934   0.71451   0.72251   0.73200   0.74461
 Alpha virt. eigenvalues --    0.75686   0.76782   0.77200   0.78871   0.79740
 Alpha virt. eigenvalues --    0.80350   0.82342   0.84883   0.86775   0.87532
 Alpha virt. eigenvalues --    0.89792   0.91707   0.93533   0.94267   0.95250
 Alpha virt. eigenvalues --    0.96997   0.98479   1.00816   1.04377   1.07331
 Alpha virt. eigenvalues --    1.09968   1.11149   1.13457   1.14862   1.16159
 Alpha virt. eigenvalues --    1.19598   1.20073   1.24684   1.26233   1.27796
 Alpha virt. eigenvalues --    1.27912   1.31360   1.32527   1.34104   1.36007
 Alpha virt. eigenvalues --    1.39214   1.39969   1.42055   1.44219   1.45788
 Alpha virt. eigenvalues --    1.47948   1.52049   1.54383   1.55888   1.56400
 Alpha virt. eigenvalues --    1.59178   1.62929   1.63672   1.67305   1.68316
 Alpha virt. eigenvalues --    1.70084   1.74532   1.76394   1.77603   1.83051
 Alpha virt. eigenvalues --    1.84151   1.85744   1.89911   1.92737   1.95595
 Alpha virt. eigenvalues --    1.96817   1.98905   2.00722   2.09080   2.10981
 Alpha virt. eigenvalues --    2.14696   2.16578   2.24017   2.28101   2.31988
 Alpha virt. eigenvalues --    2.33798   2.38097   2.43691   2.45208   2.47665
 Alpha virt. eigenvalues --    2.50920   2.51753   2.54175   2.55354   2.57193
 Alpha virt. eigenvalues --    2.60376   2.63069   2.65658   2.66620   2.67370
 Alpha virt. eigenvalues --    2.70954   2.71910   2.72566   2.74346   2.78220
 Alpha virt. eigenvalues --    2.79247   2.82872   2.84141   2.85525   2.89507
 Alpha virt. eigenvalues --    2.91267   2.92989   2.94020   2.95763   2.97425
 Alpha virt. eigenvalues --    2.99106   3.02053   3.03575   3.07047   3.08246
 Alpha virt. eigenvalues --    3.10130   3.11297   3.16528   3.17172   3.19819
 Alpha virt. eigenvalues --    3.22427   3.24265   3.24864   3.29902   3.31437
 Alpha virt. eigenvalues --    3.33566   3.35507   3.35809   3.40827   3.43861
 Alpha virt. eigenvalues --    3.45474   3.48025   3.49485   3.51299   3.54209
 Alpha virt. eigenvalues --    3.57779   3.59508   3.62503   3.65359   3.66911
 Alpha virt. eigenvalues --    3.70631   3.71392   3.74296   3.80582   3.83589
 Alpha virt. eigenvalues --    3.86742   3.88657   3.92965   3.96872   3.99402
 Alpha virt. eigenvalues --    4.03260   4.09495   4.10748   4.13625   4.17545
 Alpha virt. eigenvalues --    4.19989   4.24417   4.26194   4.27586   4.28880
 Alpha virt. eigenvalues --    4.31488   4.35002   4.38450   4.38989   4.40430
 Alpha virt. eigenvalues --    4.43153   4.43951   4.47823   4.49043   4.52458
 Alpha virt. eigenvalues --    4.53452   4.56203   4.56692   4.59123   4.61820
 Alpha virt. eigenvalues --    4.62681   4.66586   4.70386   4.71410   4.72303
 Alpha virt. eigenvalues --    4.72943   4.76725   4.78232   4.80100   4.81176
 Alpha virt. eigenvalues --    4.82605   4.83924   4.88185   4.92492   4.97505
 Alpha virt. eigenvalues --    5.00488   5.01685   5.04892   5.14936   5.18490
 Alpha virt. eigenvalues --    5.23647   5.23983   5.25180   5.26887   5.33949
 Alpha virt. eigenvalues --    5.36346   5.41888   5.46173   5.47031   5.48390
 Alpha virt. eigenvalues --    5.50670   5.51996   5.53657   5.59039   5.61757
 Alpha virt. eigenvalues --    5.66704   5.70611   5.82286   5.92944   6.02759
 Alpha virt. eigenvalues --    6.06968   6.09045   6.17123   6.21913   6.37543
 Alpha virt. eigenvalues --    6.43215   7.08778   7.20698   7.31931   9.77719
 Alpha virt. eigenvalues --   10.78091  11.50742  11.70459  11.83930  12.42271
 Alpha virt. eigenvalues --   12.74545  13.33026  13.52959
          Condensed to atoms (all electrons):
               1          2          3          4          5          6
     1  C    5.152691   0.386491  -0.049413  -0.074539   0.001385  -0.033328
     2  C    0.386491   4.574981   0.415214   0.282012  -0.013581   0.266172
     3  O   -0.049413   0.415214   7.846948  -0.043308  -0.011566  -0.031266
     4  C   -0.074539   0.282012  -0.043308   4.939963   0.430735   0.162281
     5  O    0.001385  -0.013581  -0.011566   0.430735   7.773382  -0.041527
     6  C   -0.033328   0.266172  -0.031266   0.162281  -0.041527   4.986575
     7  C   -0.013511  -0.034334   0.002043  -0.030862   0.001093   0.404594
     8  C    0.001821  -0.007050  -0.011786  -0.016911  -0.000501   0.439988
     9  C    0.000081  -0.006776  -0.002801  -0.006898  -0.001942  -0.006250
    10  H    0.353122  -0.014464   0.002286   0.005084  -0.000048  -0.003536
    11  H    0.364420  -0.015231  -0.000817  -0.001966   0.000093   0.004017
    12  H    0.358610  -0.014936   0.002354   0.001189   0.000018  -0.002612
    13  H    0.004318  -0.086561   0.312935   0.011437   0.000170  -0.005090
    14  H   -0.005495  -0.026039   0.000690   0.378851  -0.025341  -0.063498
    15  H    0.001381  -0.001938   0.040487  -0.096034   0.314562   0.004070
    16  H    0.000038   0.002928  -0.000032  -0.001185   0.000041  -0.019443
    17  H    0.002555  -0.003316   0.000026   0.002575  -0.000030  -0.019139
    18  H   -0.000768  -0.002530   0.000014  -0.003797   0.000033  -0.017350
    19  H    0.000000   0.000076   0.000009   0.000027  -0.000016  -0.001061
               7          8          9         10         11         12
     1  C   -0.013511   0.001821   0.000081   0.353122   0.364420   0.358610
     2  C   -0.034334  -0.007050  -0.006776  -0.014464  -0.015231  -0.014936
     3  O    0.002043  -0.011786  -0.002801   0.002286  -0.000817   0.002354
     4  C   -0.030862  -0.016911  -0.006898   0.005084  -0.001966   0.001189
     5  O    0.001093  -0.000501  -0.001942  -0.000048   0.000093   0.000018
     6  C    0.404594   0.439988  -0.006250  -0.003536   0.004017  -0.002612
     7  C    5.115843  -0.064391  -0.004360   0.001804  -0.000012   0.000102
     8  C   -0.064391   4.481640   0.881768  -0.000122  -0.000034   0.000366
     9  C   -0.004360   0.881768   5.193073  -0.000017  -0.000004   0.000006
    10  H    0.001804  -0.000122  -0.000017   0.592734  -0.033001  -0.028897
    11  H   -0.000012  -0.000034  -0.000004  -0.033001   0.575401  -0.028908
    12  H    0.000102   0.000366   0.000006  -0.028897  -0.028908   0.588105
    13  H    0.000872   0.020963   0.013020   0.001066  -0.000531  -0.000194
    14  H   -0.006823   0.002104  -0.000086  -0.000031   0.001005   0.001146
    15  H   -0.000236   0.002684   0.000726  -0.000058   0.000114  -0.000069
    16  H    0.366844  -0.001010   0.001029  -0.000032   0.000002  -0.000007
    17  H    0.367570  -0.000866   0.000545  -0.000201  -0.000041   0.000071
    18  H    0.360423   0.004389   0.000045   0.000271  -0.000025   0.003615
    19  H   -0.000058  -0.002347   0.378046   0.000000   0.000000   0.000000
              13         14         15         16         17         18
     1  C    0.004318  -0.005495   0.001381   0.000038   0.002555  -0.000768
     2  C   -0.086561  -0.026039  -0.001938   0.002928  -0.003316  -0.002530
     3  O    0.312935   0.000690   0.040487  -0.000032   0.000026   0.000014
     4  C    0.011437   0.378851  -0.096034  -0.001185   0.002575  -0.003797
     5  O    0.000170  -0.025341   0.314562   0.000041  -0.000030   0.000033
     6  C   -0.005090  -0.063498   0.004070  -0.019443  -0.019139  -0.017350
     7  C    0.000872  -0.006823  -0.000236   0.366844   0.367570   0.360423
     8  C    0.020963   0.002104   0.002684  -0.001010  -0.000866   0.004389
     9  C    0.013020  -0.000086   0.000726   0.001029   0.000545   0.000045
    10  H    0.001066  -0.000031  -0.000058  -0.000032  -0.000201   0.000271
    11  H   -0.000531   0.001005   0.000114   0.000002  -0.000041  -0.000025
    12  H   -0.000194   0.001146  -0.000069  -0.000007   0.000071   0.003615
    13  H    0.439920  -0.000288  -0.003891  -0.000045   0.000000  -0.000012
    14  H   -0.000288   0.630276   0.005910   0.001598  -0.000325   0.003252
    15  H   -0.003891   0.005910   0.442524   0.000012   0.000008  -0.000013
    16  H   -0.000045   0.001598   0.000012   0.575212  -0.033796  -0.028153
    17  H    0.000000  -0.000325   0.000008  -0.033796   0.588062  -0.032385
    18  H   -0.000012   0.003252  -0.000013  -0.028153  -0.032385   0.592621
    19  H   -0.000083   0.000001   0.000000   0.000000  -0.000005   0.000001
              19
     1  C    0.000000
     2  C    0.000076
     3  O    0.000009
     4  C    0.000027
     5  O   -0.000016
     6  C   -0.001061
     7  C   -0.000058
     8  C   -0.002347
     9  C    0.378046
    10  H    0.000000
    11  H    0.000000
    12  H    0.000000
    13  H   -0.000083
    14  H    0.000001
    15  H    0.000000
    16  H    0.000000
    17  H   -0.000005
    18  H    0.000001
    19  H    0.426206
 Mulliken charges:
               1
     1  C   -0.449861
     2  C    0.298884
     3  O   -0.472017
     4  C    0.061347
     5  O   -0.426961
     6  C   -0.023595
     7  C   -0.466601
     8  C    0.269297
     9  C   -0.439206
    10  H    0.124039
    11  H    0.135517
    12  H    0.120041
    13  H    0.291996
    14  H    0.103094
    15  H    0.289763
    16  H    0.135999
    17  H    0.128690
    18  H    0.120369
    19  H    0.199205
 Sum of Mulliken charges =   0.00000
 Mulliken charges with hydrogens summed into heavy atoms:
               1
     1  C   -0.070264
     2  C    0.298884
     3  O   -0.180020
     4  C    0.164440
     5  O   -0.137198
     6  C   -0.023595
     7  C   -0.081543
     8  C    0.269297
     9  C   -0.240001
 Electronic spatial extent (au):  <R**2>=           1121.9535
 Charge=              0.0000 electrons
 Dipole moment (field-independent basis, Debye):
    X=             -0.2189    Y=              1.4590    Z=             -1.2219  Tot=              1.9157
 Quadrupole moment (field-independent basis, Debye-Ang):
   XX=            -49.1170   YY=            -53.6904   ZZ=            -55.1807
   XY=             -2.8111   XZ=             -4.0905   YZ=              3.1513
 Traceless Quadrupole moment (field-independent basis, Debye-Ang):
   XX=              3.5457   YY=             -1.0277   ZZ=             -2.5180
   XY=             -2.8111   XZ=             -4.0905   YZ=              3.1513
 Octapole moment (field-independent basis, Debye-Ang**2):
  XXX=             12.6503  YYY=            -13.3810  ZZZ=             -4.9172  XYY=              0.4073
  XXY=             -8.2880  XXZ=             -8.0527  XZZ=             -0.0668  YZZ=              3.0705
  YYZ=             -1.3209  XYZ=              4.9307
 Hexadecapole moment (field-independent basis, Debye-Ang**3):
 XXXX=           -585.2812 YYYY=           -452.4496 ZZZZ=           -309.7306 XXXY=            -14.7786
 XXXZ=            -36.5499 YYYX=             -4.0347 YYYZ=             -1.1039 ZZZX=             -4.8623
 ZZZY=             11.2321 XXYY=           -194.6425 XXZZ=           -156.3498 YYZZ=           -139.4455
 XXYZ=              8.9474 YYXZ=             -1.6866 ZZXY=             -5.5988
 N-N= 4.586433842760D+02 E-N=-1.903893585972D+03  KE= 4.200129767078D+02
 Calling FoFJK, ICntrl=      2127 FMM=F ISym2X=0 I1Cent= 0 IOpClX= 0 NMat=1 NMatS=1 NMatT=0.
 ***** Axes restored to original set *****
 -------------------------------------------------------------------
 Center     Atomic                   Forces (Hartrees/Bohr)
 Number     Number              X              Y              Z
 -------------------------------------------------------------------
      1        6           0.000005812   -0.000016361    0.000013305
      2        6          -0.000013797    0.000025397   -0.000056402
      3        8           0.000002460   -0.000015203    0.000033533
      4        6           0.000045640   -0.000037986   -0.000008389
      5        8          -0.000012269    0.000029216   -0.000002815
      6        6          -0.000013820    0.000008100    0.000030617
      7        6           0.000001892    0.000005386    0.000001801
      8        6          -0.000010355   -0.000023978    0.000014060
      9        6           0.000029228    0.000027720   -0.000028750
     10        1           0.000001012    0.000003558    0.000006189
     11        1          -0.000001342    0.000001410   -0.000002453
     12        1          -0.000004999    0.000008878    0.000003582
     13        1           0.000021306   -0.000000542   -0.000007075
     14        1          -0.000020237    0.000003526   -0.000005033
     15        1          -0.000002322   -0.000015828   -0.000029787
     16        1          -0.000007878    0.000007152    0.000003300
     17        1          -0.000006123    0.000003555    0.000009745
     18        1          -0.000012145    0.000008015    0.000005463
     19        1          -0.000002063   -0.000022015    0.000019108
 -------------------------------------------------------------------
 Cartesian Forces:  Max     0.000056402 RMS     0.000018094

 GradGradGradGradGradGradGradGradGradGradGradGradGradGradGradGradGradGrad
 Berny optimization.
 FormGI is forming the generalized inverse of G from B-inverse, IUseBI=4.
 Internal  Forces:  Max     0.000029956 RMS     0.000007510
 Search for a local minimum.
 Step number   1 out of a maximum of   98
 All quantities printed in internal units (Hartrees-Bohrs-Radians)
 Mixed Optimization -- En-DIIS/RFO-DIIS
 Second derivative matrix not updated -- first step.
 ITU=  0
     Eigenvalues ---    0.00481   0.00605   0.00605   0.00665   0.01594
     Eigenvalues ---    0.01961   0.02088   0.02224   0.02462   0.03169
     Eigenvalues ---    0.04485   0.04550   0.04662   0.04662   0.05524
     Eigenvalues ---    0.05631   0.05690   0.05909   0.10159   0.11017
     Eigenvalues ---    0.13477   0.16000   0.16000   0.16000   0.16000
     Eigenvalues ---    0.16000   0.16000   0.16000   0.16000   0.19426
     Eigenvalues ---    0.20806   0.21563   0.24000   0.25992   0.29737
     Eigenvalues ---    0.30216   0.31592   0.34224   0.34278   0.34288
     Eigenvalues ---    0.34356   0.34485   0.34574   0.35134   0.38254
     Eigenvalues ---    0.40502   0.44414   0.49166   0.53412   0.53744
     Eigenvalues ---    1.02130
 RFO step:  Lambda=-5.96749810D-08 EMin= 4.80656672D-03
 Linear search not attempted -- first point.
 Iteration  1 RMS(Cart)=  0.00047264 RMS(Int)=  0.00000058
 Iteration  2 RMS(Cart)=  0.00000058 RMS(Int)=  0.00000000
 Variable       Old X    -DE/DX   Delta X   Delta X   Delta X     New X
                                 (Linear)    (Quad)   (Total)
    R1        2.84897  -0.00001   0.00000  -0.00003  -0.00003   2.84894
    R2        2.06954   0.00000   0.00000   0.00001   0.00001   2.06955
    R3        2.06846   0.00000   0.00000   0.00000   0.00000   2.06846
    R4        2.06372   0.00000   0.00000   0.00000   0.00000   2.06372
    R5        2.65963   0.00003   0.00000   0.00007   0.00007   2.65969
    R6        2.83894   0.00001   0.00000   0.00004   0.00004   2.83898
    R7        2.92637   0.00000   0.00000  -0.00002  -0.00002   2.92635
    R8        1.82965  -0.00001   0.00000  -0.00002  -0.00002   1.82963
    R9        2.60716  -0.00003   0.00000  -0.00006  -0.00006   2.60711
   R10        2.92844   0.00001   0.00000   0.00006   0.00006   2.92850
   R11        2.05458   0.00000   0.00000  -0.00001  -0.00001   2.05457
   R12        1.83271  -0.00002   0.00000  -0.00004  -0.00004   1.83267
   R13        2.87535   0.00000   0.00000   0.00000   0.00000   2.87535
   R14        2.70876   0.00001   0.00000   0.00002   0.00002   2.70878
   R15        2.06733   0.00000   0.00000   0.00000   0.00000   2.06733
   R16        2.06863   0.00000   0.00000   0.00000   0.00000   2.06863
   R17        2.06519   0.00000   0.00000   0.00000   0.00000   2.06519
   R18        2.27798  -0.00002   0.00000  -0.00002  -0.00002   2.27796
   R19        2.00698   0.00003   0.00000   0.00007   0.00007   2.00705
    A1        1.93626   0.00000   0.00000   0.00001   0.00001   1.93627
    A2        1.90786   0.00000   0.00000   0.00002   0.00002   1.90788
    A3        1.95343   0.00001   0.00000   0.00004   0.00004   1.95347
    A4        1.88479   0.00000   0.00000  -0.00002  -0.00002   1.88477
    A5        1.89366   0.00000   0.00000  -0.00003  -0.00003   1.89363
    A6        1.88593   0.00000   0.00000  -0.00003  -0.00003   1.88590
    A7        1.96040   0.00000   0.00000   0.00000   0.00000   1.96041
    A8        2.16216   0.00000   0.00000   0.00004   0.00004   2.16221
    A9        2.13902   0.00000   0.00000   0.00003   0.00003   2.13905
   A10        1.95921  -0.00001   0.00000  -0.00004  -0.00004   1.95917
   A11        2.02023  -0.00001   0.00000  -0.00006  -0.00006   2.02016
   A12        1.89250   0.00000   0.00000   0.00003   0.00003   1.89253
   A13        2.06931   0.00000   0.00000  -0.00005  -0.00005   2.06927
   A14        2.07713  -0.00001   0.00000   0.00000   0.00000   2.07713
   A15        2.12413   0.00000   0.00000   0.00003   0.00003   2.12416
   A16        1.96870   0.00001   0.00000   0.00007   0.00007   1.96877
   A17        2.00170   0.00000   0.00000  -0.00007  -0.00007   2.00163
   A18        1.84124   0.00000   0.00000  -0.00001  -0.00001   1.84124
   A19        2.10235  -0.00001   0.00000  -0.00005  -0.00005   2.10230
   A20        1.99767   0.00001   0.00000   0.00009   0.00009   1.99776
   A21        2.06883  -0.00001   0.00000  -0.00006  -0.00006   2.06877
   A22        2.05766   0.00000   0.00000   0.00000   0.00000   2.05766
   A23        2.01498   0.00000   0.00000   0.00001   0.00001   2.01499
   A24        1.92079   0.00000   0.00000   0.00001   0.00001   1.92080
   A25        1.94607   0.00000   0.00000   0.00001   0.00001   1.94608
   A26        1.94267   0.00000   0.00000   0.00001   0.00001   1.94268
   A27        1.88581   0.00000   0.00000  -0.00001  -0.00001   1.88580
   A28        1.88002   0.00000   0.00000  -0.00001  -0.00001   1.88001
   A29        1.88623   0.00000   0.00000  -0.00002  -0.00002   1.88622
   A30        3.09258   0.00000   0.00000  -0.00004  -0.00004   3.09254
   A31        3.18673   0.00001   0.00000   0.00237   0.00237   3.18910
   A32        3.11122   0.00000   0.00000  -0.00010  -0.00010   3.11113
   A33        3.17254   0.00000   0.00000  -0.00067  -0.00067   3.17188
    D1       -1.16350   0.00000   0.00000  -0.00001  -0.00001  -1.16350
    D2        2.67182   0.00000   0.00000  -0.00001  -0.00001   2.67180
    D3        1.36759   0.00000   0.00000  -0.00008  -0.00008   1.36751
    D4        0.91310   0.00000   0.00000  -0.00001  -0.00001   0.91309
    D5       -1.53477   0.00000   0.00000  -0.00002  -0.00002  -1.53479
    D6       -2.83899   0.00000   0.00000  -0.00008  -0.00008  -2.83908
    D7        3.00181   0.00000   0.00000  -0.00001  -0.00001   3.00180
    D8        0.55393   0.00000   0.00000  -0.00001  -0.00001   0.55392
    D9       -0.75029   0.00000   0.00000  -0.00008  -0.00008  -0.75037
   D10        2.09013   0.00000   0.00000   0.00005   0.00005   2.09017
   D11       -1.66229   0.00000   0.00000   0.00008   0.00008  -1.66221
   D12       -0.48522   0.00000   0.00000   0.00008   0.00008  -0.48514
   D13        2.37139   0.00000   0.00000  -0.00007  -0.00007   2.37131
   D14       -0.13739  -0.00001   0.00000  -0.00013  -0.00013  -0.13753
   D15       -0.07689   0.00000   0.00000  -0.00009  -0.00009  -0.07699
   D16       -2.58567  -0.00001   0.00000  -0.00015  -0.00015  -2.58582
   D17        0.12417   0.00000   0.00000   0.00011   0.00011   0.12428
   D18       -2.39953   0.00000   0.00000   0.00002   0.00002  -2.39952
   D19        2.63620   0.00000   0.00000   0.00006   0.00006   2.63626
   D20        0.11250   0.00000   0.00000  -0.00003  -0.00003   0.11247
   D21       -0.02097   0.00000   0.00000   0.00008   0.00008  -0.02089
   D22       -1.27300   0.00001   0.00000   0.00013   0.00013  -1.27288
   D23        2.52497   0.00000   0.00000   0.00012   0.00012   2.52509
   D24       -2.48951  -0.00001   0.00000  -0.00011  -0.00011  -2.48961
   D25        0.08095  -0.00001   0.00000  -0.00019  -0.00019   0.08076
   D26       -0.01562   0.00000   0.00000  -0.00005  -0.00005  -0.01567
   D27        2.55484   0.00000   0.00000  -0.00013  -0.00013   2.55471
   D28        2.80265   0.00000   0.00000  -0.00031  -0.00031   2.80233
   D29       -1.38812   0.00000   0.00000  -0.00031  -0.00031  -1.38843
   D30        0.71966   0.00000   0.00000  -0.00032  -0.00032   0.71934
   D31        1.62144   0.00000   0.00000  -0.00028  -0.00028   1.62116
   D32       -2.56933   0.00000   0.00000  -0.00027  -0.00027  -2.56960
   D33       -0.46155   0.00000   0.00000  -0.00028  -0.00028  -0.46183
   D34       -0.96259   0.00000   0.00000  -0.00020  -0.00020  -0.96279
   D35        1.12983   0.00000   0.00000  -0.00019  -0.00019   1.12963
   D36       -3.04558   0.00000   0.00000  -0.00020  -0.00020  -3.04578
         Item               Value     Threshold  Converged?
 Maximum Force            0.000030     0.000450     YES
 RMS     Force            0.000008     0.000300     YES
 Maximum Displacement     0.002728     0.001800     NO 
 RMS     Displacement     0.000473     0.001200     YES
 Predicted change in Energy=-2.983756D-08
 GradGradGradGradGradGradGradGradGradGradGradGradGradGradGradGradGradGrad

                          Input orientation:                          
 ---------------------------------------------------------------------
 Center     Atomic      Atomic             Coordinates (Angstroms)
 Number     Number       Type             X           Y           Z
 ---------------------------------------------------------------------
      1          6           0        1.875941    2.273536    0.376807
      2          6           0        2.041716    0.930497    1.041346
      3          8           0        2.490043    1.043506    2.370685
      4          6           0        2.602748   -0.281166    0.352805
      5          8           0        3.522474   -1.056783    1.027992
      6          6           0        1.104122   -0.266318    0.747086
      7          6           0        0.062606   -0.176389   -0.358504
      8          6           0        0.708464   -1.009622    1.907113
      9          6           0        0.372690   -1.574737    2.917555
     10          1           0        1.063963    2.842693    0.841693
     11          1           0        2.799921    2.849520    0.489106
     12          1           0        1.664745    2.177201   -0.690308
     13          1           0        1.826334    0.645529    2.952504
     14          1           0        2.791192   -0.239657   -0.717165
     15          1           0        3.651478   -0.619526    1.883968
     16          1           0       -0.257561   -1.179645   -0.654763
     17          1           0       -0.822172    0.379373   -0.032005
     18          1           0        0.466238    0.319208   -1.244952
     19          1           0        0.075419   -2.121465    3.778218
 ---------------------------------------------------------------------
                    Distance matrix (angstroms):
                    1          2          3          4          5
     1  C    0.000000
     2  C    1.507596   0.000000
     3  O    2.421910   1.407449   0.000000
     4  C    2.656186   1.502322   2.416464   0.000000
     5  O    3.771755   2.478327   2.698138   1.379622   0.000000
     6  C    2.680237   1.548560   2.504494   1.549696   2.559720
     7  C    3.135442   2.664893   3.850853   2.639936   3.829903
     8  C    3.805780   2.508222   2.757582   2.556332   2.948514
     9  C    4.850193   3.547112   3.411370   3.636541   3.709430
    10  H    1.095156   2.156932   2.758369   3.516442   4.613556
    11  H    1.094581   2.135999   2.626415   3.139848   4.008950
    12  H    1.092071   2.166796   3.366907   2.830459   4.106381
    13  H    3.047471   1.944253   0.968198   2.867057   3.078718
    14  H    2.889740   2.241279   3.357382   1.087230   2.061078
    15  H    3.714010   2.388287   2.086024   1.886473   0.969809
    16  H    4.188129   3.551923   4.652426   3.162883   4.139497
    17  H    3.321866   3.107680   4.145451   3.509198   4.697030
    18  H    2.904611   2.843055   4.206332   2.734584   4.049717
    19  H    5.841876   4.546567   4.222393   4.637624   4.536462
                    6          7          8          9         10
     6  C    0.000000
     7  C    1.521569   0.000000
     8  C    1.433426   2.498885   0.000000
     9  C    2.637781   3.575485   1.205443   0.000000
    10  H    3.110710   3.399713   4.012709   4.929579   0.000000
    11  H    3.556787   4.167429   4.612799   5.600256   1.771416
    12  H    2.889841   2.866414   4.221008   5.363126   1.775063
    13  H    2.493376   3.840450   2.254329   2.654031   3.140742
    14  H    2.234042   2.752784   3.437649   4.565389   3.861896
    15  H    2.811810   4.255003   2.968845   3.568078   4.446181
    16  H    2.157204   1.093983   2.743232   3.648942   4.490547
    17  H    2.175893   1.094671   2.834136   3.734454   3.223166
    18  H    2.172085   1.092853   3.429282   4.574084   3.328565
    19  H    3.699671   4.571209   2.266711   1.062084   5.851775
                   11         12         13         14         15
    11  H    0.000000
    12  H    1.769649   0.000000
    13  H    3.445834   3.955023   0.000000
    14  H    3.316350   2.666609   3.896276   0.000000
    15  H    3.834718   4.289019   2.464403   2.765914   0.000000
    16  H    5.185634   3.868454   4.548214   3.190982   4.694622
    17  H    4.415059   3.138519   3.999089   3.729482   4.968127
    18  H    3.854285   2.279514   4.424362   2.448734   4.562577
    19  H    6.553767   6.400954   3.376946   5.578987   4.316504
                   16         17         18         19
    16  H    0.000000
    17  H    1.771200   0.000000
    18  H    1.766003   1.770554   0.000000
    19  H    4.544142   4.645176   5.598381   0.000000
 Stoichiometry    C7H10O2
 Framework group  C1[X(C7H10O2)]
 Deg. of freedom    51
 Full point group                 C1      NOp   1
 Largest Abelian subgroup         C1      NOp   1
 Largest concise Abelian subgroup C1      NOp   1
                         Standard orientation:                         
 ---------------------------------------------------------------------
 Center     Atomic      Atomic             Coordinates (Angstroms)
 Number     Number       Type             X           Y           Z
 ---------------------------------------------------------------------
      1          6           0       -2.174577    0.424378   -0.746621
      2          6           0       -0.863857   -0.191668   -0.327877
      3          8           0       -0.506981   -1.288682   -1.134173
      4          6           0       -0.444596   -0.376924    1.102813
      5          8           0        0.126565   -1.577078    1.472626
      6          6           0        0.313809    0.649275    0.223441
      7          6           0        0.132557    2.131417    0.515973
      8          6           0        1.600258    0.274761   -0.285969
      9          6           0        2.652077   -0.051985   -0.775874
     10          1           0       -2.090988    0.888067   -1.735243
     11          1           0       -2.939844   -0.356200   -0.802956
     12          1           0       -2.514723    1.181214   -0.036608
     13          1           0        0.340059   -1.092755   -1.560253
     14          1           0       -1.051566    0.061489    1.891134
     15          1           0        0.129819   -2.120811    0.669586
     16          1           0        0.914502    2.477469    1.198328
     17          1           0        0.190501    2.730841   -0.398160
     18          1           0       -0.832685    2.327606    0.989412
     19          1           0        3.604221   -0.326371   -1.158178
 ---------------------------------------------------------------------
 Rotational constants (GHZ):      1.9301060      1.5392269      1.3205102
 Standard basis: 6-31G(2df,p) (6D, 7F)
 There are   329 symmetry adapted cartesian basis functions of A   symmetry.
 There are   302 symmetry adapted basis functions of A   symmetry.
   302 basis functions,   466 primitive gaussians,   329 cartesian basis functions
    34 alpha electrons       34 beta electrons
       nuclear repulsion energy       458.6420420000 Hartrees.
 NAtoms=   19 NActive=   19 NUniq=   19 SFac= 1.00D+00 NAtFMM=   60 NAOKFM=F Big=F
 Integral buffers will be    131072 words long.
 Raffenetti 2 integral format.
 Two-electron integral symmetry is turned on.
 One-electron integrals computed using PRISM.
 NBasis=   302 RedAO= T EigKep=  1.37D-04  NBF=   302
 NBsUse=   302 1.00D-06 EigRej= -1.00D+00 NBFU=   302
 Initial guess from the checkpoint file:  "/scratch/puck/g09_2d45004a-4eb2-4224-86ca-11c3bbcf3bba/Gau-76273.chk"
 B after Tr=     0.000000    0.000000    0.000000
         Rot=    1.000000   -0.000058    0.000013    0.000100 Ang=  -0.01 deg.
 Requested convergence on RMS density matrix=1.00D-08 within 128 cycles.
 Requested convergence on MAX density matrix=1.00D-06.
 Requested convergence on             energy=1.00D-06.
 No special actions if energy rises.
 SCF Done:  E(RB3LYP) =  -423.133824142     A.U. after    7 cycles
            NFock=  7  Conv=0.28D-08     -V/T= 2.0074
 Calling FoFJK, ICntrl=      2127 FMM=F ISym2X=0 I1Cent= 0 IOpClX= 0 NMat=1 NMatS=1 NMatT=0.
 ***** Axes restored to original set *****
 -------------------------------------------------------------------
 Center     Atomic                   Forces (Hartrees/Bohr)
 Number     Number              X              Y              Z
 -------------------------------------------------------------------
      1        6           0.000002653   -0.000003677    0.000012953
      2        6          -0.000011317    0.000010331   -0.000034239
      3        8           0.000012066   -0.000006293    0.000006339
      4        6           0.000020821   -0.000012819   -0.000003139
      5        8          -0.000007881    0.000005176   -0.000018956
      6        6           0.000012413    0.000010800    0.000035760
      7        6          -0.000003053    0.000001215    0.000007054
      8        6           0.000000415    0.000007247   -0.000018658
      9        6          -0.000053928   -0.000050976   -0.000032676
     10        1           0.000002035    0.000001914    0.000007138
     11        1           0.000000930    0.000000330   -0.000000940
     12        1          -0.000004379    0.000004574    0.000003082
     13        1           0.000010913   -0.000005364   -0.000001079
     14        1          -0.000012323    0.000004070   -0.000007263
     15        1           0.000002420   -0.000007009   -0.000010310
     16        1          -0.000008899    0.000004936    0.000003062
     17        1          -0.000004650    0.000004080    0.000011222
     18        1          -0.000010108    0.000006800    0.000006655
     19        1           0.000051870    0.000024665    0.000033994
 -------------------------------------------------------------------
 Cartesian Forces:  Max     0.000053928 RMS     0.000017284

 GradGradGradGradGradGradGradGradGradGradGradGradGradGradGradGradGradGrad
 Berny optimization.
 Using GEDIIS/GDIIS optimizer.
 FormGI is forming the generalized inverse of G from B-inverse, IUseBI=4.
 Internal  Forces:  Max     0.000116413 RMS     0.000014961
 Search for a local minimum.
 Step number   2 out of a maximum of   98
 All quantities printed in internal units (Hartrees-Bohrs-Radians)
 Mixed Optimization -- En-DIIS/RFO-DIIS
 Swapping is turned off.
 Update second derivatives using D2CorX and points    1    2
 DE=  1.50D-07 DEPred=-2.98D-08 R=-5.03D+00
 Trust test=-5.03D+00 RLast= 2.65D-03 DXMaxT set to 1.50D-01
 ITU= -1  0
     Eigenvalues ---    0.00444   0.00604   0.00664   0.01583   0.01895
     Eigenvalues ---    0.02032   0.02214   0.02462   0.03022   0.03200
     Eigenvalues ---    0.04179   0.04523   0.04649   0.05523   0.05631
     Eigenvalues ---    0.05690   0.05908   0.08224   0.09903   0.10992
     Eigenvalues ---    0.13454   0.15736   0.16000   0.16000   0.16000
     Eigenvalues ---    0.16000   0.16000   0.16000   0.16009   0.19435
     Eigenvalues ---    0.20348   0.21508   0.24004   0.25861   0.29118
     Eigenvalues ---    0.30221   0.31450   0.34212   0.34278   0.34287
     Eigenvalues ---    0.34354   0.34485   0.34573   0.35092   0.37062
     Eigenvalues ---    0.40468   0.43103   0.48323   0.52941   0.53680
     Eigenvalues ---    1.01876
 En-DIIS/RFO-DIIS IScMMF=        0 using points:     2    1
 RFO step:  Lambda=-7.10737690D-08.
 DidBck=T Rises=F RFO-DIIS coefs:    0.17257    0.82743
 Iteration  1 RMS(Cart)=  0.00047277 RMS(Int)=  0.00000050
 Iteration  2 RMS(Cart)=  0.00000050 RMS(Int)=  0.00000000
 Variable       Old X    -DE/DX   Delta X   Delta X   Delta X     New X
                                 (Linear)    (Quad)   (Total)
    R1        2.84894  -0.00001   0.00002  -0.00004  -0.00002   2.84893
    R2        2.06955   0.00000  -0.00001   0.00001   0.00000   2.06955
    R3        2.06846   0.00000   0.00000   0.00000   0.00000   2.06846
    R4        2.06372   0.00000   0.00000   0.00000   0.00000   2.06371
    R5        2.65969   0.00001  -0.00006   0.00010   0.00004   2.65973
    R6        2.83898   0.00000  -0.00003   0.00005   0.00002   2.83900
    R7        2.92635   0.00000   0.00002  -0.00003  -0.00001   2.92634
    R8        1.82963   0.00000   0.00002  -0.00003  -0.00001   1.82962
    R9        2.60711  -0.00001   0.00005  -0.00008  -0.00003   2.60707
   R10        2.92850   0.00001  -0.00005   0.00009   0.00004   2.92854
   R11        2.05457   0.00000   0.00001  -0.00002  -0.00001   2.05456
   R12        1.83267   0.00000   0.00003  -0.00005  -0.00002   1.83265
   R13        2.87535   0.00000   0.00000   0.00000   0.00000   2.87535
   R14        2.70878  -0.00001  -0.00001   0.00002   0.00001   2.70879
   R15        2.06733   0.00000   0.00000  -0.00001   0.00000   2.06733
   R16        2.06863   0.00000   0.00000   0.00000   0.00000   2.06863
   R17        2.06519   0.00000   0.00000   0.00000   0.00000   2.06519
   R18        2.27796   0.00001   0.00002  -0.00002  -0.00001   2.27795
   R19        2.00705   0.00000  -0.00006   0.00010   0.00004   2.00709
    A1        1.93627   0.00000  -0.00001   0.00002   0.00001   1.93628
    A2        1.90788   0.00000  -0.00002   0.00003   0.00001   1.90789
    A3        1.95347   0.00000  -0.00003   0.00006   0.00002   1.95349
    A4        1.88477   0.00000   0.00002  -0.00003  -0.00001   1.88476
    A5        1.89363   0.00000   0.00002  -0.00004  -0.00002   1.89361
    A6        1.88590   0.00000   0.00002  -0.00004  -0.00002   1.88589
    A7        1.96041   0.00000   0.00000   0.00000   0.00000   1.96041
    A8        2.16221   0.00000  -0.00004   0.00007   0.00003   2.16224
    A9        2.13905   0.00001  -0.00003   0.00005   0.00002   2.13907
   A10        1.95917   0.00000   0.00003  -0.00006  -0.00003   1.95914
   A11        2.02016   0.00000   0.00005  -0.00009  -0.00004   2.02012
   A12        1.89253   0.00000  -0.00002   0.00004   0.00001   1.89255
   A13        2.06927   0.00000   0.00004  -0.00006  -0.00002   2.06924
   A14        2.07713   0.00000   0.00000   0.00000   0.00000   2.07713
   A15        2.12416   0.00000  -0.00002   0.00003   0.00001   2.12417
   A16        1.96877   0.00000  -0.00006   0.00010   0.00004   1.96881
   A17        2.00163   0.00000   0.00006  -0.00010  -0.00004   2.00159
   A18        1.84124   0.00000   0.00001  -0.00001   0.00000   1.84124
   A19        2.10230   0.00000   0.00004  -0.00006  -0.00002   2.10228
   A20        1.99776   0.00001  -0.00007   0.00012   0.00005   1.99781
   A21        2.06877   0.00000   0.00005  -0.00009  -0.00004   2.06873
   A22        2.05766   0.00001   0.00000   0.00001   0.00001   2.05767
   A23        2.01499   0.00000  -0.00001   0.00001   0.00000   2.01500
   A24        1.92080   0.00000  -0.00001   0.00001   0.00001   1.92080
   A25        1.94608   0.00000  -0.00001   0.00002   0.00001   1.94609
   A26        1.94268   0.00000   0.00000   0.00001   0.00000   1.94268
   A27        1.88580   0.00000   0.00001  -0.00001   0.00000   1.88579
   A28        1.88001   0.00000   0.00000  -0.00001   0.00000   1.88001
   A29        1.88622   0.00000   0.00001  -0.00002  -0.00001   1.88621
   A30        3.09254  -0.00006   0.00003  -0.00030  -0.00026   3.09228
   A31        3.18910  -0.00012  -0.00196  -0.00007  -0.00203   3.18707
   A32        3.11113   0.00002   0.00008  -0.00006   0.00001   3.11114
   A33        3.17188   0.00003   0.00055  -0.00015   0.00040   3.17228
    D1       -1.16350   0.00000   0.00001  -0.00002  -0.00001  -1.16352
    D2        2.67180   0.00000   0.00001  -0.00002  -0.00001   2.67180
    D3        1.36751   0.00000   0.00006  -0.00012  -0.00005   1.36746
    D4        0.91309   0.00000   0.00001  -0.00002  -0.00002   0.91308
    D5       -1.53479   0.00000   0.00001  -0.00002  -0.00001  -1.53479
    D6       -2.83908   0.00000   0.00007  -0.00012  -0.00005  -2.83913
    D7        3.00180   0.00000   0.00001  -0.00002  -0.00001   3.00179
    D8        0.55392   0.00000   0.00001  -0.00002  -0.00001   0.55392
    D9       -0.75037   0.00000   0.00006  -0.00012  -0.00005  -0.75042
   D10        2.09017   0.00000  -0.00004   0.00007   0.00003   2.09020
   D11       -1.66221   0.00000  -0.00007   0.00011   0.00005  -1.66216
   D12       -0.48514   0.00000  -0.00006   0.00011   0.00004  -0.48510
   D13        2.37131   0.00000   0.00006  -0.00010  -0.00004   2.37127
   D14       -0.13753   0.00000   0.00011  -0.00019  -0.00008  -0.13761
   D15       -0.07699   0.00000   0.00008  -0.00012  -0.00004  -0.07703
   D16       -2.58582   0.00000   0.00013  -0.00021  -0.00009  -2.58591
   D17        0.12428   0.00000  -0.00009   0.00016   0.00007   0.12435
   D18       -2.39952   0.00000  -0.00001   0.00004   0.00002  -2.39950
   D19        2.63626   0.00000  -0.00005   0.00009   0.00005   2.63631
   D20        0.11247   0.00000   0.00003  -0.00003  -0.00001   0.11246
   D21       -0.02089   0.00000  -0.00007   0.00012   0.00006  -0.02084
   D22       -1.27288   0.00000  -0.00011   0.00019   0.00008  -1.27279
   D23        2.52509   0.00000  -0.00010   0.00018   0.00008   2.52518
   D24       -2.48961   0.00000   0.00009  -0.00014  -0.00005  -2.48966
   D25        0.08076   0.00000   0.00016  -0.00026  -0.00010   0.08066
   D26       -0.01567   0.00000   0.00004  -0.00006  -0.00002  -0.01568
   D27        2.55471   0.00000   0.00011  -0.00018  -0.00007   2.55464
   D28        2.80233   0.00000   0.00026  -0.00046  -0.00020   2.80213
   D29       -1.38843   0.00000   0.00025  -0.00045  -0.00020  -1.38862
   D30        0.71934   0.00000   0.00026  -0.00046  -0.00020   0.71914
   D31        1.62116   0.00000   0.00023  -0.00041  -0.00018   1.62098
   D32       -2.56960   0.00000   0.00023  -0.00040  -0.00017  -2.56977
   D33       -0.46183   0.00000   0.00023  -0.00041  -0.00018  -0.46201
   D34       -0.96279   0.00000   0.00016  -0.00030  -0.00013  -0.96292
   D35        1.12963   0.00000   0.00016  -0.00029  -0.00013   1.12951
   D36       -3.04578   0.00000   0.00017  -0.00030  -0.00013  -3.04591
         Item               Value     Threshold  Converged?
 Maximum Force            0.000116     0.000450     YES
 RMS     Force            0.000015     0.000300     YES
 Maximum Displacement     0.002267     0.001800     NO 
 RMS     Displacement     0.000473     0.001200     YES
 Predicted change in Energy=-1.346173D-07
 GradGradGradGradGradGradGradGradGradGradGradGradGradGradGradGradGradGrad

                          Input orientation:                          
 ---------------------------------------------------------------------
 Center     Atomic      Atomic             Coordinates (Angstroms)
 Number     Number       Type             X           Y           Z
 ---------------------------------------------------------------------
      1          6           0        1.875916    2.273497    0.376963
      2          6           0        2.041617    0.930387    1.041354
      3          8           0        2.489833    1.043239    2.370767
      4          6           0        2.602706   -0.281232    0.352757
      5          8           0        3.522375   -1.056867    1.027965
      6          6           0        1.104030   -0.266386    0.746933
      7          6           0        0.062641   -0.176339   -0.358767
      8          6           0        0.708246   -1.009830    1.906832
      9          6           0        0.372531   -1.574855    2.917339
     10          1           0        1.063894    2.842611    0.841830
     11          1           0        2.799881    2.849474    0.489419
     12          1           0        1.664827    2.177316   -0.690187
     13          1           0        1.826094    0.645183    2.952485
     14          1           0        2.791184   -0.239653   -0.717200
     15          1           0        3.651262   -0.619691    1.883987
     16          1           0       -0.257387   -1.179563   -0.655279
     17          1           0       -0.822238    0.379265   -0.032272
     18          1           0        0.466329    0.319486   -1.245063
     19          1           0        0.076618   -2.120286    3.779318
 ---------------------------------------------------------------------
                    Distance matrix (angstroms):
                    1          2          3          4          5
     1  C    0.000000
     2  C    1.507586   0.000000
     3  O    2.421918   1.407470   0.000000
     4  C    2.656209   1.502334   2.416470   0.000000
     5  O    3.771731   2.478306   2.698092   1.379604   0.000000
     6  C    2.680240   1.548554   2.504477   1.549717   2.559732
     7  C    3.135436   2.664869   3.850843   2.639924   3.829897
     8  C    3.805810   2.508261   2.757604   2.556361   2.948549
     9  C    4.850102   3.547028   3.411177   3.636512   3.709388
    10  H    1.095158   2.156931   2.758386   3.516465   4.613534
    11  H    1.094581   2.135998   2.626420   3.139884   4.008931
    12  H    1.092070   2.166803   3.366929   2.830513   4.106393
    13  H    3.047491   1.944277   0.968191   2.867047   3.078656
    14  H    2.889780   2.241285   3.357404   1.087226   2.061087
    15  H    3.713961   2.388248   2.085955   1.886449   0.969798
    16  H    4.188094   3.551883   4.652421   3.162794   4.139440
    17  H    3.321991   3.107745   4.145513   3.509237   4.697046
    18  H    2.904490   2.842962   4.206259   2.734592   4.049743
    19  H    5.841132   4.545797   4.220842   4.637301   4.535862
                    6          7          8          9         10
     6  C    0.000000
     7  C    1.521569   0.000000
     8  C    1.433429   2.498890   0.000000
     9  C    2.637773   3.575577   1.205439   0.000000
    10  H    3.110703   3.399705   4.012732   4.929475   0.000000
    11  H    3.556796   4.167427   4.612832   5.600135   1.771409
    12  H    2.889893   2.866449   4.221073   5.363121   1.775053
    13  H    2.493349   3.840450   2.254339   2.653799   3.140780
    14  H    2.234030   2.752714   3.437637   4.565361   3.861923
    15  H    2.811779   4.254962   2.968850   3.567945   4.446133
    16  H    2.157209   1.093982   2.743295   3.649199   4.490546
    17  H    2.175899   1.094672   2.834094   3.734470   3.223294
    18  H    2.172085   1.092852   3.429292   4.574157   3.328417
    19  H    3.699713   4.571966   2.266775   1.062105   5.850974
                   11         12         13         14         15
    11  H    0.000000
    12  H    1.769637   0.000000
    13  H    3.445845   3.955059   0.000000
    14  H    3.316430   2.666673   3.896270   0.000000
    15  H    3.834680   4.289002   2.464312   2.765923   0.000000
    16  H    5.185591   3.868431   4.548247   3.190776   4.694556
    17  H    4.415183   3.138684   3.999144   3.729478   4.968115
    18  H    3.854184   2.279433   4.424301   2.448719   4.562543
    19  H    6.552717   6.400645   3.375224   5.578918   4.315338
                   16         17         18         19
    16  H    0.000000
    17  H    1.771197   0.000000
    18  H    1.766000   1.770548   0.000000
    19  H    4.545566   4.645849   5.598996   0.000000
 Stoichiometry    C7H10O2
 Framework group  C1[X(C7H10O2)]
 Deg. of freedom    51
 Full point group                 C1      NOp   1
 Largest Abelian subgroup         C1      NOp   1
 Largest concise Abelian subgroup C1      NOp   1
                         Standard orientation:                         
 ---------------------------------------------------------------------
 Center     Atomic      Atomic             Coordinates (Angstroms)
 Number     Number       Type             X           Y           Z
 ---------------------------------------------------------------------
      1          6           0       -2.174598    0.423768   -0.746829
      2          6           0       -0.863763   -0.191871   -0.327882
      3          8           0       -0.506508   -1.288904   -1.134021
      4          6           0       -0.444555   -0.376867    1.102869
      5          8           0        0.126844   -1.576843    1.472827
      6          6           0        0.313657    0.649427    0.223405
      7          6           0        0.131973    2.131547    0.515782
      8          6           0        1.600266    0.275210   -0.285828
      9          6           0        2.652074   -0.051515   -0.775761
     10          1           0       -2.091039    0.887373   -1.735495
     11          1           0       -2.939654   -0.357015   -0.803163
     12          1           0       -2.515046    1.180594   -0.036950
     13          1           0        0.340527   -1.092827   -1.560024
     14          1           0       -1.051660    0.061529    1.891091
     15          1           0        0.130317   -2.120625    0.669836
     16          1           0        0.913664    2.477847    1.198299
     17          1           0        0.189984    2.730923   -0.398378
     18          1           0       -0.833432    2.327536    0.988972
     19          1           0        3.603319   -0.327549   -1.159174
 ---------------------------------------------------------------------
 Rotational constants (GHZ):      1.9300464      1.5392734      1.3205556
 Standard basis: 6-31G(2df,p) (6D, 7F)
 There are   329 symmetry adapted cartesian basis functions of A   symmetry.
 There are   302 symmetry adapted basis functions of A   symmetry.
   302 basis functions,   466 primitive gaussians,   329 cartesian basis functions
    34 alpha electrons       34 beta electrons
       nuclear repulsion energy       458.6433290564 Hartrees.
 NAtoms=   19 NActive=   19 NUniq=   19 SFac= 1.00D+00 NAtFMM=   60 NAOKFM=F Big=F
 Integral buffers will be    131072 words long.
 Raffenetti 2 integral format.
 Two-electron integral symmetry is turned on.
 One-electron integrals computed using PRISM.
 NBasis=   302 RedAO= T EigKep=  1.37D-04  NBF=   302
 NBsUse=   302 1.00D-06 EigRej= -1.00D+00 NBFU=   302
 Initial guess from the checkpoint file:  "/scratch/puck/g09_2d45004a-4eb2-4224-86ca-11c3bbcf3bba/Gau-76273.chk"
 B after Tr=     0.000000    0.000000    0.000000
         Rot=    1.000000    0.000065    0.000021   -0.000107 Ang=   0.01 deg.
 Requested convergence on RMS density matrix=1.00D-08 within 128 cycles.
 Requested convergence on MAX density matrix=1.00D-06.
 Requested convergence on             energy=1.00D-06.
 No special actions if energy rises.
 SCF Done:  E(RB3LYP) =  -423.133824319     A.U. after    7 cycles
            NFock=  7  Conv=0.22D-08     -V/T= 2.0074
 Calling FoFJK, ICntrl=      2127 FMM=F ISym2X=0 I1Cent= 0 IOpClX= 0 NMat=1 NMatS=1 NMatT=0.
 ***** Axes restored to original set *****
 -------------------------------------------------------------------
 Center     Atomic                   Forces (Hartrees/Bohr)
 Number     Number              X              Y              Z
 -------------------------------------------------------------------
      1        6          -0.000000665    0.000003820    0.000011399
      2        6          -0.000012581   -0.000001170   -0.000012437
      3        8           0.000020355    0.000001388   -0.000008678
      4        6           0.000002576   -0.000002160   -0.000001598
      5        8          -0.000003027   -0.000007285   -0.000027094
      6        6          -0.000002432   -0.000011819    0.000011325
      7        6          -0.000001145    0.000003397    0.000002186
      8        6           0.000006793    0.000025459   -0.000008403
      9        6          -0.000006769   -0.000021346    0.000027342
     10        1           0.000002663    0.000000477    0.000007561
     11        1           0.000002387   -0.000000749    0.000000201
     12        1          -0.000004391    0.000001785    0.000003020
     13        1           0.000003831   -0.000008835   -0.000002238
     14        1          -0.000007531    0.000003495   -0.000008477
     15        1           0.000004714   -0.000001799   -0.000000321
     16        1          -0.000009303    0.000003924    0.000003478
     17        1          -0.000003913    0.000004279    0.000012216
     18        1          -0.000010665    0.000006337    0.000005443
     19        1           0.000019102    0.000000800   -0.000014926
 -------------------------------------------------------------------
 Cartesian Forces:  Max     0.000027342 RMS     0.000009824

 GradGradGradGradGradGradGradGradGradGradGradGradGradGradGradGradGradGrad
 Berny optimization.
 Using GEDIIS/GDIIS optimizer.
 FormGI is forming the generalized inverse of G from B-inverse, IUseBI=4.
 Internal  Forces:  Max     0.000018348 RMS     0.000004480
 Search for a local minimum.
 Step number   3 out of a maximum of   98
 All quantities printed in internal units (Hartrees-Bohrs-Radians)
 Mixed Optimization -- En-DIIS/RFO-DIIS
 Swapping is turned off.
 Update second derivatives using D2CorX and points    1    2    3
 DE= -1.77D-07 DEPred=-1.35D-07 R= 1.32D+00
 Trust test= 1.32D+00 RLast= 2.17D-03 DXMaxT set to 1.50D-01
 ITU=  0 -1  0
     Eigenvalues ---    0.00358   0.00657   0.00675   0.01565   0.01832
     Eigenvalues ---    0.02099   0.02299   0.02466   0.03029   0.03269
     Eigenvalues ---    0.03819   0.04528   0.05345   0.05522   0.05634
     Eigenvalues ---    0.05691   0.05913   0.09345   0.09692   0.11181
     Eigenvalues ---    0.13506   0.15724   0.16000   0.16000   0.16000
     Eigenvalues ---    0.16000   0.16000   0.16007   0.16590   0.19434
     Eigenvalues ---    0.19939   0.21494   0.24057   0.25614   0.28864
     Eigenvalues ---    0.30222   0.31391   0.34217   0.34278   0.34292
     Eigenvalues ---    0.34366   0.34484   0.34574   0.35132   0.39595
     Eigenvalues ---    0.40909   0.43293   0.48078   0.53666   0.54274
     Eigenvalues ---    1.03411
 En-DIIS/RFO-DIIS IScMMF=        0 using points:     3    2    1
 RFO step:  Lambda= 0.00000000D+00.
 DidBck=F Rises=F RFO-DIIS coefs:    0.77695    0.03676    0.18629
 Iteration  1 RMS(Cart)=  0.00021426 RMS(Int)=  0.00000011
 Iteration  2 RMS(Cart)=  0.00000013 RMS(Int)=  0.00000000
 Variable       Old X    -DE/DX   Delta X   Delta X   Delta X     New X
                                 (Linear)    (Quad)   (Total)
    R1        2.84893   0.00000   0.00001  -0.00004  -0.00003   2.84890
    R2        2.06955   0.00000   0.00000   0.00001   0.00000   2.06955
    R3        2.06846   0.00000   0.00000   0.00000   0.00000   2.06846
    R4        2.06371   0.00000   0.00000   0.00000   0.00000   2.06371
    R5        2.65973   0.00000  -0.00002   0.00006   0.00004   2.65977
    R6        2.83900   0.00000  -0.00001   0.00004   0.00003   2.83903
    R7        2.92634   0.00000   0.00001  -0.00003  -0.00002   2.92632
    R8        1.82962   0.00001   0.00001  -0.00002  -0.00001   1.82961
    R9        2.60707   0.00000   0.00002  -0.00006  -0.00004   2.60704
   R10        2.92854   0.00000  -0.00002   0.00007   0.00005   2.92859
   R11        2.05456   0.00000   0.00000  -0.00001   0.00000   2.05456
   R12        1.83265   0.00001   0.00001  -0.00002  -0.00001   1.83264
   R13        2.87535   0.00000   0.00000   0.00000   0.00000   2.87535
   R14        2.70879  -0.00001   0.00000   0.00000   0.00000   2.70879
   R15        2.06733   0.00000   0.00000   0.00000   0.00000   2.06733
   R16        2.06863   0.00000   0.00000   0.00000   0.00000   2.06863
   R17        2.06519   0.00000   0.00000   0.00000   0.00000   2.06519
   R18        2.27795   0.00002   0.00001   0.00000   0.00000   2.27795
   R19        2.00709  -0.00002  -0.00002   0.00003   0.00001   2.00709
    A1        1.93628   0.00000   0.00000   0.00002   0.00001   1.93629
    A2        1.90789   0.00000  -0.00001   0.00001   0.00000   1.90789
    A3        1.95349   0.00000  -0.00001   0.00003   0.00002   1.95351
    A4        1.88476   0.00000   0.00001  -0.00002  -0.00001   1.88475
    A5        1.89361   0.00000   0.00001  -0.00002  -0.00001   1.89360
    A6        1.88589   0.00000   0.00001  -0.00003  -0.00002   1.88587
    A7        1.96041   0.00000   0.00000  -0.00002  -0.00002   1.96038
    A8        2.16224   0.00000  -0.00002   0.00008   0.00006   2.16230
    A9        2.13907   0.00000  -0.00001   0.00006   0.00005   2.13912
   A10        1.95914   0.00000   0.00001  -0.00008  -0.00007   1.95908
   A11        2.02012   0.00000   0.00002  -0.00005  -0.00003   2.02010
   A12        1.89255  -0.00001  -0.00001  -0.00003  -0.00003   1.89251
   A13        2.06924   0.00000   0.00001   0.00000   0.00001   2.06925
   A14        2.07713   0.00000   0.00000  -0.00002  -0.00002   2.07711
   A15        2.12417   0.00000  -0.00001   0.00001   0.00000   2.12417
   A16        1.96881   0.00000  -0.00002   0.00006   0.00004   1.96885
   A17        2.00159   0.00000   0.00002  -0.00006  -0.00004   2.00156
   A18        1.84124   0.00000   0.00000   0.00001   0.00001   1.84125
   A19        2.10228   0.00000   0.00001  -0.00003  -0.00001   2.10227
   A20        1.99781   0.00000  -0.00003   0.00006   0.00003   1.99784
   A21        2.06873   0.00000   0.00002  -0.00010  -0.00008   2.06865
   A22        2.05767   0.00000   0.00000   0.00005   0.00005   2.05772
   A23        2.01500   0.00000   0.00000   0.00001   0.00001   2.01501
   A24        1.92080   0.00000   0.00000   0.00002   0.00001   1.92082
   A25        1.94609   0.00000   0.00000   0.00000   0.00000   1.94609
   A26        1.94268   0.00000   0.00000   0.00001   0.00001   1.94268
   A27        1.88579   0.00000   0.00000  -0.00001   0.00000   1.88579
   A28        1.88001   0.00000   0.00000   0.00000   0.00000   1.88000
   A29        1.88621   0.00000   0.00001  -0.00002  -0.00001   1.88619
[...]
 -0.00426869,-0.00001507,0.00152412,-0.05585867,0.08876775,0.03423453,0
 .00321733,-0.00130854,-0.00511705,0.41450351,0.01429789,-0.01576508,-0
 .00598412,0.03717968,-0.15023896,-0.06095648,0.00257671,-0.00904383,-0
 .01039773,-0.15216886,0.37719266,-0.01199051,0.00508386,0.00995378,0.0
 0119933,-0.05194140,-0.08820820,0.01504354,-0.01240966,-0.04149518,-0.
 02151944,-0.02223995,0.69153954,-0.00118519,-0.00080169,0.00119272,-0.
 01087448,0.01018370,0.00018636,0.00384013,0.00178464,-0.00230152,-0.14
 693301,0.09674565,-0.05848309,0.21276856,0.00627100,-0.00074863,-0.004
 37962,0.02428834,-0.02284843,0.02012986,0.00019372,-0.00051541,0.00336
 360,0.07438030,-0.14025999,0.02644736,-0.11674802,0.28750724,0.0000025
 5,0.00042511,0.00097779,0.00429396,0.00088191,-0.00274591,0.00796774,-
 0.01274633,0.00032403,-0.07924566,0.06916086,-0.14120257,0.15460049,0.
 12725547,0.51937918,0.00317293,0.00018575,-0.00051125,-0.06442270,-0.0
 8486076,-0.02725523,-0.00954619,-0.00309471,-0.00985072,-0.12491925,0.
 02519326,0.04921850,-0.02707449,0.00989678,-0.01132130,0.45042349,-0.0
 2254914,-0.01542484,-0.00072465,-0.02963858,-0.11076783,-0.00191080,-0
 .00051581,-0.00275806,-0.00790129,-0.01675925,-0.03003078,0.02440623,0
 .01789284,0.00920846,-0.00415373,0.08402947,0.32862734,0.01493802,0.00
 205915,0.00170223,-0.01030395,0.00494108,-0.06095494,-0.02870262,-0.01
 608582,-0.01024606,0.01619343,0.01030691,-0.06936331,-0.01684071,-0.00
 935447,0.00307866,0.03502816,-0.12348863,0.51223774,0.00195321,-0.0009
 1465,-0.00090359,-0.00926965,-0.00320736,-0.00198453,0.00069412,0.0019
 5499,0.00127249,-0.01855589,0.00119190,-0.01703317,-0.00370577,-0.0018
 5073,-0.00111351,-0.12754875,0.00241852,-0.05876870,0.51535153,0.00066
 261,0.00111652,0.00039145,-0.01319905,0.00640136,-0.02103641,-0.007279
 15,-0.00292924,-0.00378520,0.00514538,-0.00398013,0.01120491,0.0052842
 9,0.00048686,0.00085577,0.00378537,-0.07138784,0.00824204,0.00622668,0
 .56443197,0.00025518,0.00029706,0.00225799,-0.00730246,-0.00156740,-0.
 00691545,-0.00060622,-0.00012916,0.00002787,-0.00162666,-0.00190668,0.
 00875103,0.00557423,-0.00066147,0.00131591,-0.05863525,0.00845753,-0.1
 3529914,-0.05499406,-0.00354218,0.51446936,0.00104099,0.00122054,0.000
 67500,-0.01711460,-0.00560816,0.00491707,-0.00162932,-0.00616873,0.003
 44352,-0.01264420,-0.02347790,0.02094674,0.00343433,0.00243246,0.00030
 716,-0.07464922,-0.03076614,0.04881620,0.00937998,0.01202247,-0.016183
 65,0.20469294,-0.00327255,0.00004242,-0.00029744,-0.02225169,-0.023053
 03,0.02262133,-0.00055214,-0.00282813,0.00876250,-0.01431832,0.0016126
 9,-0.01616700,0.00117990,-0.00232895,0.00485743,-0.02104967,-0.1146792
 1,0.09542911,0.00285563,-0.00195371,0.00782370,0.18983008,0.40397705,-
 0.00444513,-0.00117770,-0.00180532,0.01917529,0.00375537,0.01200434,-0
 .00173051,0.00071280,-0.00828721,0.02215252,0.01249296,-0.01065460,-0.
 00683210,0.00306610,-0.00343883,0.03158687,0.09140160,-0.21067733,0.00
 206098,0.01510779,-0.03054490,-0.30236168,-0.53259869,1.00275812,-0.00
 050257,-0.00014914,-0.00015551,0.00246179,0.00016471,-0.00054733,-0.00
 012226,-0.00122724,0.00044942,0.00114861,0.00208426,0.00007202,-0.0002
 2462,-0.00062194,0.00033049,0.00133433,-0.00233887,0.00340146,-0.00173
 849,-0.00084434,-0.00071945,-0.10885562,-0.14074971,0.24577426,0.15655
 252,-0.00000838,-0.00023632,-0.00007981,0.00108589,0.00145783,-0.00224
 248,-0.00070123,-0.00042405,0.00077394,0.00716221,-0.00038642,0.003588
 32,-0.00109290,0.00199386,-0.00249094,-0.00743084,0.00263469,0.0089763
 2,-0.00220138,-0.00058566,-0.00099861,-0.14171293,-0.26665860,0.420540
 61,0.20393324,0.38777150,0.00236063,0.00034872,0.00100113,-0.01026485,
 -0.00349303,-0.00728995,-0.00133353,-0.00273096,0.00740419,-0.01021333
 ,-0.00073168,-0.00291438,0.00223046,-0.00271569,0.00353323,0.01387962,
 0.01023428,-0.00896467,0.00369249,0.00074804,0.00198623,0.24591177,0.4
 1716976,-0.75651605,-0.34028141,-0.59693632,1.05291528,-0.19198959,0.0
 9845267,0.08465230,-0.00157781,0.00232598,0.00083051,0.00047953,-0.000
 96589,-0.00076364,0.00132879,-0.00148375,-0.00033887,-0.00003073,0.000
 15196,-0.00036035,0.00102666,0.00090097,-0.00053686,-0.00015628,0.0002
 9925,-0.00007787,0.00010799,0.00006755,0.00031728,0.00004661,0.0000538
 4,-0.00023962,0.20555000,0.09823488,-0.11255957,-0.05655553,0.02426720
 ,-0.02255652,-0.01601579,-0.00205944,0.00267696,0.00000158,0.00172714,
 0.00009767,0.00486391,0.00044213,-0.00275130,0.00045194,-0.00112939,0.
 00216606,-0.00070714,-0.00034396,-0.00025538,0.00007070,-0.00007559,0.
 00017032,-0.00017686,-0.00010043,-0.00006700,0.00019465,-0.10971641,0.
 12609081,0.08460551,-0.05753719,-0.09663130,-0.01278242,0.00900965,0.0
 0651915,0.00086938,-0.00141112,0.00166572,-0.00030445,0.00117582,-0.00
 158190,-0.00050044,0.00087641,0.00000287,0.00069236,-0.00105619,0.0004
 7796,0.00026764,0.00015272,-0.00036349,-0.00008114,-0.00017961,0.00004
 179,0.00000069,0.00001872,-0.00006709,-0.09322831,0.06148455,0.0998067
 5,-0.23755545,-0.11567998,-0.02431596,0.00375516,0.00134996,0.00045800
 ,0.00071540,0.00028526,0.00073768,0.00059426,-0.00104684,-0.00000811,0
 .00023808,-0.00029643,0.00007613,0.00098800,0.00182874,-0.00094948,-0.
 00000211,0.00004507,-0.00002513,0.00021194,0.00037689,0.00024437,0.000
 05211,0.00005333,-0.00004984,-0.01985279,-0.01232829,-0.00349193,0.255
 48698,-0.11516794,-0.11551877,-0.01494461,-0.02732637,-0.02124757,-0.0
 0292673,0.00129037,0.00238926,-0.00183725,-0.00049670,0.00180625,-0.00
 085145,0.00047674,0.00008843,0.00029555,0.00085359,-0.00248176,0.00418
 335,0.00055802,0.00040255,0.00050048,0.00038260,-0.00114292,-0.0013427
 2,-0.00014722,-0.00002057,0.00076154,0.01434664,0.00903092,0.00229537,
 0.12716773,0.12897984,-0.02462180,-0.01603444,-0.04863565,0.01265830,0
 .00980319,0.00025783,0.00026533,-0.00101270,0.00148974,-0.00014551,-0.
 00084977,0.00015989,-0.00003726,0.00002957,-0.00015068,-0.00063945,0.0
 0216510,-0.00186107,-0.00005829,-0.00046147,-0.00065433,-0.00007889,0.
 00039528,0.00080704,0.00009002,0.00002789,-0.00041990,0.01263313,0.007
 80166,0.00103853,0.02704983,0.01476025,0.04895208,-0.05525916,-0.00396
 143,-0.05058416,-0.00330265,-0.00140497,-0.00224274,0.00170377,0.00052
 410,-0.00110111,0.00040502,0.00003228,-0.00028192,0.00002611,-0.000178
 58,0.00023313,0.00020411,0.00024738,-0.00017082,-0.00038504,-0.0005811
 9,0.00016062,-0.00013426,0.00014280,0.00001660,0.00004928,0.00004617,-
 0.00003208,0.00531084,0.00136364,0.02425479,-0.00456308,-0.00152741,-0
 .02705458,0.05677151,-0.00457925,-0.05095170,-0.02705066,0.00543437,0.
 00662000,0.02628363,0.00048808,-0.00500044,0.00594307,0.00045675,0.000
 66247,0.00023164,-0.00021097,0.00014510,-0.00058944,-0.00020434,0.0006
 9780,0.00002720,-0.00060461,-0.00107536,0.00014589,-0.00022159,0.00000
 641,0.00008123,0.00001234,0.00003776,-0.00023159,-0.00471892,-0.001828
 77,-0.01534865,-0.00171570,-0.00181900,-0.01650732,0.00574642,0.053775
 17,-0.05061443,-0.02272549,-0.30225594,-0.00194483,-0.00506968,-0.0123
 7307,-0.00005186,0.00344632,-0.00160136,-0.00000508,-0.00047329,-0.000
 27914,-0.00002126,0.00013609,0.00056079,0.00011233,0.00016743,-0.00053
 652,-0.00040511,-0.00082246,-0.00104575,0.00013768,0.00015720,0.000190
 67,0.00003309,0.00000230,0.00013935,-0.00314360,-0.00089016,-0.0120072
 5,0.00002578,-0.00027202,-0.00216949,0.05719514,0.02721881,0.32943925,
 -0.00144105,-0.00042835,-0.00360468,0.01181102,0.00784378,-0.01016770,
 -0.25569368,-0.14779747,0.19904054,0.00119196,0.00038091,0.00063310,0.
 00027094,0.00019167,-0.00089952,-0.00075904,-0.00221906,-0.00247332,-0
 .00014581,-0.00047254,0.00000263,0.00131153,0.00308462,-0.00449513,-0.
 00108987,0.00067580,0.00314403,-0.00015108,0.00029339,0.00005093,-0.00
 013993,-0.00028795,0.00012722,-0.00038756,0.00108370,-0.00086062,0.247
 32126,-0.00071676,0.00005583,0.00230611,0.00572695,-0.00313357,-0.0006
 9704,-0.14416111,-0.08399194,0.12043698,0.00111992,0.00009374,-0.00566
 975,-0.00111216,-0.00088261,-0.00014872,-0.00249218,-0.00016282,-0.002
 22291,-0.00056973,-0.00062079,0.00026019,0.00089965,0.00245962,-0.0055
 3338,0.00043173,-0.00050420,0.00384906,0.00045265,-0.00033344,0.000270
 98,0.00007566,0.00005460,-0.00010252,0.00050675,-0.00046966,0.00016784
 ,0.13835454,0.08654837,0.00009551,-0.00126121,-0.00309946,0.02232229,0
 .01306959,-0.03769915,0.15811859,0.09935818,-0.18670089,0.00004606,0.0
 0189356,-0.00515949,-0.00063424,0.00102291,0.00114736,0.00161471,0.002
 64299,0.00281943,-0.00018049,0.00122085,-0.00004723,-0.00180104,-0.004
 30437,0.00291611,0.00008836,-0.00023032,-0.00301148,0.00000375,0.00018
 742,0.00014727,0.00011041,-0.00007124,0.00009158,-0.00019312,0.0007484
 7,-0.00003154,-0.18156417,-0.11249885,0.22780470,0.00067873,0.00082267
 ,0.00086880,-0.00223387,-0.00033896,-0.00144652,0.00053826,-0.00084891
 ,-0.00132385,-0.05180282,0.00241045,0.05752948,-0.00071718,0.00254394,
 -0.02957005,-0.00848571,-0.00098103,0.02541849,0.00238840,-0.00245282,
 0.00115085,-0.00236871,0.00448193,-0.00014508,-0.00029548,-0.00108326,
 0.00150945,-0.00003962,-0.00000644,-0.00002637,-0.00003137,0.00029761,
 -0.00015811,-0.00004532,0.00008517,0.00001133,-0.00039282,-0.00029575,
 -0.00008117,0.06402439,-0.00178667,0.00182342,0.00011060,0.00241637,0.
 00615035,-0.02232539,0.00287770,-0.00098810,-0.00562349,0.00486638,-0.
 04392562,0.00455315,0.00356543,0.00000706,0.02264092,-0.00432938,-0.00
 176692,0.01329807,0.00234075,0.00056921,-0.00039185,-0.00194665,0.0016
 9133,-0.00014259,-0.00008528,-0.00070237,0.00099443,-0.00003833,0.0002
 6585,0.00029191,-0.00008855,-0.00040610,-0.00005935,0.00036232,-0.0002
 6659,0.00026813,-0.00059898,-0.00145061,-0.00094556,-0.00902485,0.0427
 8972,-0.00098055,0.00057186,0.00000398,0.00292772,0.00267841,-0.006515
 84,0.00126331,0.00001483,-0.00002776,0.05248646,0.00651068,-0.31615407
 ,-0.00727399,0.00323285,-0.01551488,0.00043804,-0.00208280,-0.00317786
 ,-0.00091716,0.00084720,0.00039814,-0.00046431,-0.00057327,0.00010187,
 0.00010832,-0.00010546,0.00010689,0.00002176,0.00005579,0.00017790,0.0
 0011950,-0.00031002,0.00019658,0.00015480,-0.00037041,0.00061231,-0.00
 027516,-0.00029859,-0.00016858,-0.04873082,-0.01301206,0.33938498,0.00
 011839,0.00025932,0.00040064,0.00054527,0.00242980,-0.00575569,0.00106
 704,-0.00584081,0.00220397,-0.01064622,-0.00740091,-0.03099897,-0.0279
 7066,-0.00012769,-0.04489964,-0.00258390,-0.00043471,-0.00297746,-0.00
 106424,0.00044022,0.00033128,-0.00033531,0.00048969,-0.00080145,0.0003
 7758,-0.00026959,0.00067333,-0.00015927,0.00004241,-0.00005261,-0.0000
 1771,-0.00013189,-0.00002207,0.00001247,-0.00016175,0.00019112,-0.0016
 5314,0.00170360,0.00141688,-0.00100974,0.00061263,0.00083157,0.0435248
 4,-0.00065603,-0.00031428,-0.00067577,0.00596270,-0.00115227,0.0052211
 3,-0.00501197,0.00054391,0.00152557,0.00467619,0.01128937,0.02686277,-
 0.01750250,-0.12855660,-0.20617138,0.00010690,-0.00026172,0.00020278,0
 .00028419,-0.00089764,-0.00024161,-0.00009686,0.00005889,-0.00070170,0
 .00032097,-0.00055417,0.00025311,-0.00001796,0.00000470,0.00010715,-0.
 00003574,-0.00030855,0.00019667,-0.00014288,0.00039550,-0.00040363,-0.
 00013492,0.00244004,-0.00121667,0.00385949,-0.00372394,0.00347888,0.00
 852131,0.12077468,0.00035814,-0.00031595,-0.00167741,0.00220276,-0.002
 76552,0.00259647,-0.00137102,0.00169993,-0.00094821,-0.01275259,-0.000
 64558,-0.03164680,-0.06783922,-0.16911971,-0.36699655,0.00166661,0.000
 12377,-0.00083767,0.00011311,-0.00050425,-0.00058962,0.00013345,-0.000
 47043,0.00126549,0.00007707,0.00030204,-0.00102725,0.00014487,-0.00058
 844,0.00033262,-0.00007871,-0.00004242,0.00013086,-0.00008966,0.000299
 51,-0.00012881,0.00127712,-0.00030958,-0.00002187,-0.00333507,0.000744
 55,-0.00072503,0.07929868,0.17166357,0.39988820,0.00009987,0.00033746,
 0.00012475,0.00036813,0.00162634,-0.00357270,-0.00170049,-0.00067445,-
 0.00084562,0.00119653,-0.00022912,0.00140205,0.00017001,0.00021099,-0.
 00006793,-0.00957747,-0.02183356,-0.00793430,-0.06747870,-0.06857073,-
 0.01827227,0.00034864,-0.00026365,0.00150561,0.00016848,0.00029298,-0.
 00033487,-0.00000857,-0.00020630,-0.00015472,0.00004135,-0.00008205,0.
 00001346,-0.00008209,0.00002596,-0.00009839,-0.00013330,-0.00007065,0.
 00035735,-0.00053899,0.00013144,0.00016169,0.00008372,-0.00016816,-0.0
 0008307,0.07282559,0.00003630,0.00007012,0.00026778,0.00094623,0.00053
 225,0.00099445,0.00022805,0.00040785,0.00019860,-0.00084149,0.00007707
 ,0.00013169,-0.00032885,0.00010640,-0.00007389,0.00085766,0.00413185,0
 .00064123,-0.06940307,-0.27334239,-0.06408762,-0.00012050,0.00062384,0
 .00063015,0.00022484,0.00012092,-0.00044524,0.00002772,0.00008258,0.00
 000713,-0.00004541,0.00006464,-0.00010847,0.00004746,0.00004239,-0.000
 28647,0.00012184,0.00003028,-0.00009404,-0.00021603,-0.00010647,-0.000
 28764,0.00002853,-0.00001463,0.00001883,0.07610069,0.29437931,0.000413
 86,0.00058965,-0.00055180,0.00011390,0.00277495,-0.00314356,-0.0018008
 7,-0.00074881,-0.00126782,0.00054337,0.00017404,0.00100910,0.00004604,
 0.00012379,-0.00002356,-0.01015338,-0.02268789,-0.00943931,-0.01801496
 ,-0.06293442,-0.06314191,-0.00013751,-0.00125809,0.00160966,0.00037708
 ,0.00049724,-0.00008471,0.00009412,-0.00002866,0.00007777,0.00001192,-
 0.00011142,0.00022941,-0.00009501,-0.00014255,0.00044900,-0.00022429,-
 0.00038017,0.00044487,-0.00026625,0.00016102,0.00040013,0.00005089,-0.
 00020006,-0.00003088,0.02493826,0.06951890,0.06876612,-0.00013784,-0.0
 0020552,-0.00018838,0.00090455,-0.00006349,0.00124825,0.00027054,-0.00
 021188,-0.00009542,0.00133486,0.00201751,-0.00333459,-0.00205655,-0.00
 039966,-0.00089609,-0.02095108,0.00997963,0.00422327,-0.21370261,0.106
 84990,0.06691672,0.00012948,-0.00122000,0.00149029,0.00044292,0.000448
 04,-0.00079545,0.00009559,-0.00051975,-0.00020884,0.00013940,-0.000223
 90,0.00003140,-0.00012514,0.00011357,0.00006318,-0.00012391,0.00006194
 ,0.00003419,0.00050486,0.00024992,-0.00005781,-0.00031266,0.00020038,0
 .00024209,0.00823053,-0.00487879,-0.00281610,0.23473504,0.00044050,-0.
 00001156,0.00001440,-0.00016778,0.00092861,0.00053589,0.00017115,0.000
 06790,0.00028492,-0.00193344,0.00070168,0.00015433,0.00011705,-0.00039
 373,0.00004935,0.00086534,-0.00000887,0.00107534,0.10708983,-0.1159128
 8,-0.04241969,0.00039535,0.00019266,-0.00049180,-0.00031296,-0.0000801
 8,0.00018330,-0.00013295,-0.00013817,-0.00005601,0.00009337,0.00006205
 ,-0.00006201,-0.00002447,0.00010912,0.00007572,0.00008174,0.00007616,-
 0.00007718,0.00022970,0.00000355,-0.00012507,-0.00001480,0.00006922,-0
 .00009896,0.02468591,-0.01467950,-0.00987844,-0.11830116,0.12113961,-0
 .00009887,-0.00031541,-0.00023837,0.00149147,-0.00050313,0.00155936,0.
 00039050,0.00020703,0.00003696,0.00054052,0.00163196,-0.00340197,-0.00
 246167,0.00018836,-0.00041986,-0.02387129,0.01299719,0.00644942,0.0674
 8238,-0.04227626,-0.07265086,-0.00047749,-0.00046070,0.00191735,0.0004
 7229,-0.00004210,-0.00025393,-0.00003818,-0.00017146,0.00020676,0.0000
 1992,0.00001338,0.00001627,0.00010055,-0.00014592,-0.00002209,-0.00014
 223,-0.00001787,-0.00002804,-0.00034912,-0.00005619,0.00006952,-0.0001
 5063,0.00009432,0.00025056,0.00649287,-0.00304776,-0.00314868,-0.06932
 899,0.04632660,0.07748573,-0.00071810,-0.00059689,0.00000079,0.0011360
 2,-0.00016134,0.00000680,0.00010838,-0.00018210,0.00018257,0.00082787,
 0.00112964,-0.00109277,0.00022112,-0.00025279,0.00049612,0.00717245,0.
 01118412,-0.01910962,-0.08555802,-0.04676308,0.08314553,-0.00302480,-0
 .00014862,-0.00279300,0.00055700,0.00050674,-0.00079254,0.00003864,0.0
 0008284,0.00008312,-0.00005170,0.00001597,-0.00004571,-0.00020851,-0.0
 0104050,-0.00060560,0.00006290,0.00016718,0.00001757,-0.00040731,0.000
 28029,0.00019662,0.00004842,-0.00005133,-0.00001872,-0.00398816,-0.002
 78012,0.00698862,-0.00932552,-0.01331015,0.01994601,0.09291956,-0.0002
 7632,-0.00079590,-0.00049463,-0.00012923,0.00042495,-0.00016134,0.0002
 4571,-0.00015278,0.00008834,-0.00058729,0.00029017,0.00083415,0.000004
 52,-0.00021840,-0.00037915,-0.00003101,-0.00180044,0.00032826,-0.04568
 964,-0.10056877,0.09816139,0.00026749,0.00037134,0.00083226,0.00012048
 ,0.00026151,0.00000448,-0.00000410,-0.00007789,-0.00011181,-0.00001828
 ,-0.00000459,0.00004170,-0.00118383,-0.00108360,-0.00066873,-0.0000082
 2,-0.00008372,-0.00001750,0.00071060,0.00014035,-0.00022164,-0.0000700
 8,0.00011888,-0.00001798,-0.01131626,-0.01249516,0.02452610,0.00609248
 ,0.00788767,-0.01440707,0.05188727,0.10779767,0.00017401,0.00038072,-0
 .00091619,0.00114348,0.00085035,-0.00076266,-0.00025471,-0.00066043,0.
 00040905,0.00255055,0.00053135,0.00016994,-0.00033190,0.00030413,0.000
 33813,0.00755885,0.00999459,-0.01818545,0.07995479,0.09679971,-0.21830
 623,-0.00342712,0.00016179,-0.00370350,-0.00000962,0.00017142,-0.00028
 112,0.00001114,0.00004211,0.00014859,0.00008985,-0.00005829,0.00050638
 ,-0.00027828,-0.00060435,0.00107099,0.00023123,0.00030554,0.00007978,-
 0.00087656,-0.00043329,0.00080232,0.00015767,-0.00001789,0.00009813,-0
 .00362672,-0.00398576,0.00790853,0.00345045,0.00450608,-0.00778301,-0.
 08671268,-0.10828686,0.23826086,0.00000552,-0.00002791,0.00000013,0.00
 020956,-0.00010168,-0.00014005,-0.00020778,0.00009158,-0.00004951,-0.0
 0011996,0.00056723,-0.00096331,-0.00019661,-0.00008530,0.00006627,0.00
 619585,-0.00044553,0.00074881,-0.00045587,-0.00059834,0.00090600,0.000
 09822,0.00131726,-0.00071998,-0.05036232,-0.05975774,0.09093574,-0.000
 01893,0.00003239,0.00000678,-0.00000853,0.00000217,-0.00000700,0.00000
 970,0.00001127,-0.00001889,0.00014160,-0.00008223,0.00022855,0.0002343
 1,0.00019546,-0.00000999,-0.00002489,-0.00011378,0.00005417,-0.0000250
 7,-0.00000507,-0.00006970,-0.00005244,0.00002776,-0.00001806,0.0001897
 7,-0.00001429,0.00019558,0.04438789,0.00020044,0.00004251,0.00002714,0
 .00036369,0.00046984,-0.00059390,-0.00011699,-0.00011123,-0.00037902,0
 .00012695,-0.00019295,0.00091688,0.00012019,-0.00003936,-0.00012071,-0
 .00115185,0.00406488,0.00214812,-0.00013538,0.00010131,0.00022934,0.00
 274440,0.00143798,-0.00645542,-0.06071545,-0.12405855,0.17254313,-0.00
 000091,-0.00001784,0.00001018,-0.00002080,0.00007128,-0.00002324,-0.00
 001457,0.00000337,-0.00002792,-0.00016449,-0.00012529,0.00057295,-0.00
 019351,-0.00010411,-0.00000352,-0.00007529,0.00008860,0.00002663,0.000
 00315,-0.00003134,0.00000483,0.00001079,-0.00001335,-0.00001500,0.0000
 3287,-0.00001129,-0.00000092,0.05898675,0.11842552,-0.00005438,-0.0000
 0094,-0.00004358,0.00074882,0.00030601,-0.00044593,-0.00031711,-0.0003
 1657,-0.00017555,0.00065821,0.00030715,0.00047835,-0.00027290,0.000054
 47,-0.00016512,0.00044181,0.00141527,0.00277789,-0.00047031,-0.0002078
 4,0.00035239,-0.00027577,-0.00106850,0.00201528,0.09043877,0.16822724,
 -0.28625579,0.00001843,-0.00002027,0.00000737,-0.00002423,-0.00004175,
 0.00001492,0.00000786,0.00001145,-0.00001140,0.00020002,0.00028267,0.0
 0051662,-0.00017943,-0.00007302,0.00002941,0.00010247,0.00002279,0.000
 06777,-0.00000545,0.00000814,-0.00006236,0.00002185,0.00000323,-0.0000
 4512,0.00010688,-0.00004997,0.00014547,-0.09114554,-0.16885956,0.28079
 937\\0.00000068,-0.00000379,-0.00001141,0.00001259,0.00000120,0.000012
 44,-0.00002035,-0.00000139,0.00000872,-0.00000256,0.00000213,0.0000015
 7,0.00000303,0.00000728,0.00002709,0.00000238,0.00001177,-0.00001130,0
 .00000115,-0.00000341,-0.00000218,-0.00000681,-0.00002548,0.00000847,0
 .00000680,0.00002138,-0.00002743,-0.00000267,-0.00000048,-0.00000756,-
 0.00000239,0.00000074,-0.00000020,0.00000439,-0.00000179,-0.00000302,-
 0.00000383,0.00000884,0.00000222,0.00000753,-0.00000349,0.00000848,-0.
 00000472,0.00000181,0.00000032,0.00000931,-0.00000391,-0.00000347,0.00
 000391,-0.00000428,-0.00001221,0.00001067,-0.00000633,-0.00000545,-0.0
 0001910,-0.00000080,0.00001492\\\@


 A leading authority is anyone who has guessed right more than once.
 -- Frank A. Clark
 Job cpu time:       0 days  0 hours 40 minutes  2.8 seconds.
 File lengths (MBytes):  RWF=    152 Int=      0 D2E=      0 Chk=      8 Scr=      1
 Normal termination of Gaussian 09 at Mon Jan 27 22:52:33 2020.
