 Entering Gaussian System, Link 0=/home/puck/opt/gaussian_09/g09
 Input=dsC7O2H10nsd_3699.com
 Output=dsC7O2H10nsd_3699.log
 Initial command:
 /home/puck/opt/gaussian_09/l1.exe "/scratch/puck/g09_9f5f80f7-3ba8-416c-af4c-8cb91251e510/Gau-190723.inp" -scrdir="/scratch/puck/g09_9f5f80f7-3ba8-416c-af4c-8cb91251e510/"
 Entering Link 1 = /home/puck/opt/gaussian_09/l1.exe PID=    190727.
  
 Copyright (c) 1988,1990,1992,1993,1995,1998,2003,2009,2013,
            Gaussian, Inc.  All Rights Reserved.
  
 This is part of the Gaussian(R) 09 program.  It is based on
 the Gaussian(R) 03 system (copyright 2003, Gaussian, Inc.),
 the Gaussian(R) 98 system (copyright 1998, Gaussian, Inc.),
 the Gaussian(R) 94 system (copyright 1995, Gaussian, Inc.),
 the Gaussian 92(TM) system (copyright 1992, Gaussian, Inc.),
 the Gaussian 90(TM) system (copyright 1990, Gaussian, Inc.),
 the Gaussian 88(TM) system (copyright 1988, Gaussian, Inc.),
 the Gaussian 86(TM) system (copyright 1986, Carnegie Mellon
 University), and the Gaussian 82(TM) system (copyright 1983,
 Carnegie Mellon University). Gaussian is a federally registered
 trademark of Gaussian, Inc.
  
 This software contains proprietary and confidential information,
 including trade secrets, belonging to Gaussian, Inc.
  
 This software is provided under written license and may be
 used, copied, transmitted, or stored only in accord with that
 written license.
  
 The following legend is applicable only to US Government
 contracts under FAR:
  
                    RESTRICTED RIGHTS LEGEND
  
 Use, reproduction and disclosure by the US Government is
 subject to restrictions as set forth in subparagraphs (a)
 and (c) of the Commercial Computer Software - Restricted
 Rights clause in FAR 52.227-19.
  
 Gaussian, Inc.
 340 Quinnipiac St., Bldg. 40, Wallingford CT 06492
  
  
 ---------------------------------------------------------------
 Warning -- This program may not be used in any manner that
 competes with the business of Gaussian, Inc. or will provide
 assistance to any competitor of Gaussian, Inc.  The licensee
 of this program is prohibited from giving any competitor of
 Gaussian, Inc. access to this program.  By using this program,
 the user acknowledges that Gaussian, Inc. is engaged in the
 business of creating and licensing software in the field of
 computational chemistry and represents and warrants to the
 licensee that it is not a competitor of Gaussian, Inc. and that
 it will not use this program in any manner prohibited above.
 ---------------------------------------------------------------
  

 Cite this work as:
 Gaussian 09, Revision D.01,
 M. J. Frisch, G. W. Trucks, H. B. Schlegel, G. E. Scuseria, 
 M. A. Robb, J. R. Cheeseman, G. Scalmani, V. Barone, B. Mennucci, 
 G. A. Petersson, H. Nakatsuji, M. Caricato, X. Li, H. P. Hratchian, 
 A. F. Izmaylov, J. Bloino, G. Zheng, J. L. Sonnenberg, M. Hada, 
 M. Ehara, K. Toyota, R. Fukuda, J. Hasegawa, M. Ishida, T. Nakajima, 
 Y. Honda, O. Kitao, H. Nakai, T. Vreven, J. A. Montgomery, Jr., 
 J. E. Peralta, F. Ogliaro, M. Bearpark, J. J. Heyd, E. Brothers, 
 K. N. Kudin, V. N. Staroverov, T. Keith, R. Kobayashi, J. Normand, 
 K. Raghavachari, A. Rendell, J. C. Burant, S. S. Iyengar, J. Tomasi, 
 M. Cossi, N. Rega, J. M. Millam, M. Klene, J. E. Knox, J. B. Cross, 
 V. Bakken, C. Adamo, J. Jaramillo, R. Gomperts, R. E. Stratmann, 
 O. Yazyev, A. J. Austin, R. Cammi, C. Pomelli, J. W. Ochterski, 
 R. L. Martin, K. Morokuma, V. G. Zakrzewski, G. A. Voth, 
 P. Salvador, J. J. Dannenberg, S. Dapprich, A. D. Daniels, 
 O. Farkas, J. B. Foresman, J. V. Ortiz, J. Cioslowski, 
 and D. J. Fox, Gaussian, Inc., Wallingford CT, 2013.
 
 ******************************************
 Gaussian 09:  ES64L-G09RevD.01 24-Apr-2013
                28-Jan-2020 
 ******************************************
 -----------------------------
 # b3lyp 6-31G(2df,p) opt Freq
 -----------------------------
 1/14=-1,18=20,19=15,26=3,38=1/1,3;
 2/9=110,12=2,17=6,18=5,40=1/2;
 3/5=1,6=6,7=104,11=2,16=1,25=1,30=1,71=1,74=-5/1,2,3;
 4//1;
 5/5=2,38=5/2;
 6/7=2,8=2,9=2,10=2,28=1/1;
 7//1,2,3,16;
 1/14=-1,18=20,19=15,26=3/3(2);
 2/9=110/2;
 99//99;
 2/9=110/2;
 3/5=1,6=6,7=104,11=2,16=1,25=1,30=1,71=1,74=-5/1,2,3;
 4/5=5,16=3,69=1/1;
 5/5=2,38=5/2;
 7//1,2,3,16;
 1/14=-1,18=20,19=15,26=3/3(-5);
 2/9=110/2;
 6/7=2,8=2,9=2,10=2,19=2,28=1/1;
 99/9=1/99;
 -----
 titel
 -----
 Symbolic Z-matrix:
 Charge =  0 Multiplicity = 1
 O                    -0.64328   1.02014   0.45366 
 C                    -1.81567   0.29627   0.69428 
 C                    -3.07095   1.02907   1.12334 
 C                    -2.92304   0.49241  -0.2812 
 C                    -3.73363  -0.61281  -0.99304 
 C                    -3.64679   0.23374  -2.27541 
 O                    -3.41758  -0.2954   -3.53292 
 C                    -4.21149   1.61106  -2.0668 
 C                    -2.81679   1.29299  -1.56145 
 H                    -0.29787   1.31747   1.30183 
 H                    -1.66093  -0.70992   1.08807 
 H                    -3.74935   0.53104   1.8093 
 H                    -2.9913    2.10406   1.25346 
 H                    -3.16775  -1.54378  -1.08695 
 H                    -4.73662  -0.83143  -0.6091 
 H                    -4.26929  -0.4428   -3.95874 
 H                    -4.231     2.21734  -2.96735 
 H                    -5.02461   1.79839  -1.36839 
 H                    -1.93786   1.82886  -1.89359 
 

 GradGradGradGradGradGradGradGradGradGradGradGradGradGradGradGradGradGrad
 Berny optimization.
 Initialization pass.
                           ----------------------------
                           !    Initial Parameters    !
                           ! (Angstroms and Degrees)  !
 --------------------------                            --------------------------
 ! Name  Definition              Value          Derivative Info.                !
 --------------------------------------------------------------------------------
 ! R1    R(1,2)                  1.3987         estimate D2E/DX2                !
 ! R2    R(1,10)                 0.9629         estimate D2E/DX2                !
 ! R3    R(2,3)                  1.5155         estimate D2E/DX2                !
 ! R4    R(2,4)                  1.4887         estimate D2E/DX2                !
 ! R5    R(2,11)                 1.0915         estimate D2E/DX2                !
 ! R6    R(3,4)                  1.5108         estimate D2E/DX2                !
 ! R7    R(3,12)                 1.0857         estimate D2E/DX2                !
 ! R8    R(3,13)                 1.0858         estimate D2E/DX2                !
 ! R9    R(4,5)                  1.5444         estimate D2E/DX2                !
 ! R10   R(4,9)                  1.5137         estimate D2E/DX2                !
 ! R11   R(5,6)                  1.539          estimate D2E/DX2                !
 ! R12   R(5,14)                 1.0935         estimate D2E/DX2                !
 ! R13   R(5,15)                 1.096          estimate D2E/DX2                !
 ! R14   R(6,7)                  1.3834         estimate D2E/DX2                !
 ! R15   R(6,8)                  1.5031         estimate D2E/DX2                !
 ! R16   R(6,9)                  1.5234         estimate D2E/DX2                !
 ! R17   R(7,16)                 0.9636         estimate D2E/DX2                !
 ! R18   R(8,9)                  1.5172         estimate D2E/DX2                !
 ! R19   R(8,17)                 1.0858         estimate D2E/DX2                !
 ! R20   R(8,18)                 1.0881         estimate D2E/DX2                !
 ! R21   R(9,19)                 1.0817         estimate D2E/DX2                !
 ! A1    A(2,1,10)             107.9969         estimate D2E/DX2                !
 ! A2    A(1,2,3)              119.5194         estimate D2E/DX2                !
 ! A3    A(1,2,4)              116.2683         estimate D2E/DX2                !
 ! A4    A(1,2,11)             114.8541         estimate D2E/DX2                !
 ! A5    A(3,2,11)             117.452          estimate D2E/DX2                !
 ! A6    A(4,2,11)             117.5998         estimate D2E/DX2                !
 ! A7    A(2,3,12)             118.3341         estimate D2E/DX2                !
 ! A8    A(2,3,13)             116.8661         estimate D2E/DX2                !
 ! A9    A(4,3,12)             119.0505         estimate D2E/DX2                !
 ! A10   A(4,3,13)             117.124          estimate D2E/DX2                !
 ! A11   A(12,3,13)            115.1044         estimate D2E/DX2                !
 ! A12   A(2,4,5)              126.7359         estimate D2E/DX2                !
 ! A13   A(2,4,9)              124.8661         estimate D2E/DX2                !
 ! A14   A(3,4,5)              129.1455         estimate D2E/DX2                !
 ! A15   A(3,4,9)              127.2488         estimate D2E/DX2                !
 ! A16   A(5,4,9)               91.4613         estimate D2E/DX2                !
 ! A17   A(4,5,6)               87.7534         estimate D2E/DX2                !
 ! A18   A(4,5,14)             112.1619         estimate D2E/DX2                !
 ! A19   A(4,5,15)             117.49           estimate D2E/DX2                !
 ! A20   A(6,5,14)             111.5636         estimate D2E/DX2                !
 ! A21   A(6,5,15)             116.9525         estimate D2E/DX2                !
 ! A22   A(14,5,15)            109.5022         estimate D2E/DX2                !
 ! A23   A(5,6,7)              123.8035         estimate D2E/DX2                !
 ! A24   A(5,6,8)              111.5413         estimate D2E/DX2                !
 ! A25   A(5,6,9)               91.3007         estimate D2E/DX2                !
 ! A26   A(7,6,8)              122.6069         estimate D2E/DX2                !
 ! A27   A(7,6,9)              126.9918         estimate D2E/DX2                !
 ! A28   A(6,7,16)             108.2857         estimate D2E/DX2                !
 ! A29   A(6,8,17)             113.7834         estimate D2E/DX2                !
 ! A30   A(6,8,18)             121.8407         estimate D2E/DX2                !
 ! A31   A(9,8,17)             114.1952         estimate D2E/DX2                !
 ! A32   A(9,8,18)             120.6141         estimate D2E/DX2                !
 ! A33   A(17,8,18)            115.0106         estimate D2E/DX2                !
 ! A34   A(4,9,6)               89.4495         estimate D2E/DX2                !
 ! A35   A(4,9,8)              109.1522         estimate D2E/DX2                !
 ! A36   A(4,9,19)             125.3641         estimate D2E/DX2                !
 ! A37   A(6,9,19)             130.0376         estimate D2E/DX2                !
 ! A38   A(8,9,19)             122.7411         estimate D2E/DX2                !
 ! D1    D(10,1,2,3)            72.142          estimate D2E/DX2                !
 ! D2    D(10,1,2,4)           141.4094         estimate D2E/DX2                !
 ! D3    D(10,1,2,11)          -75.6514         estimate D2E/DX2                !
 ! D4    D(1,2,3,12)          -146.1309         estimate D2E/DX2                !
 ! D5    D(1,2,3,13)            -1.692          estimate D2E/DX2                !
 ! D6    D(11,2,3,12)            0.8461         estimate D2E/DX2                !
 ! D7    D(11,2,3,13)          145.2849         estimate D2E/DX2                !
 ! D8    D(1,2,4,5)            130.4528         estimate D2E/DX2                !
 ! D9    D(1,2,4,9)              6.4808         estimate D2E/DX2                !
 ! D10   D(11,2,4,5)           -11.4453         estimate D2E/DX2                !
 ! D11   D(11,2,4,9)          -135.4173         estimate D2E/DX2                !
 ! D12   D(12,3,4,5)             7.8989         estimate D2E/DX2                !
 ! D13   D(12,3,4,9)           139.2184         estimate D2E/DX2                !
 ! D14   D(13,3,4,5)          -138.183          estimate D2E/DX2                !
 ! D15   D(13,3,4,9)            -6.8635         estimate D2E/DX2                !
 ! D16   D(2,4,5,6)           -138.5167         estimate D2E/DX2                !
 ! D17   D(2,4,5,14)           -26.1101         estimate D2E/DX2                !
 ! D18   D(2,4,5,15)           102.0821         estimate D2E/DX2                !
 ! D19   D(3,4,5,6)            141.8587         estimate D2E/DX2                !
 ! D20   D(3,4,5,14)          -105.7346         estimate D2E/DX2                !
 ! D21   D(3,4,5,15)            22.4576         estimate D2E/DX2                !
 ! D22   D(9,4,5,6)             -1.4122         estimate D2E/DX2                !
 ! D23   D(9,4,5,14)           110.9945         estimate D2E/DX2                !
 ! D24   D(9,4,5,15)          -120.8133         estimate D2E/DX2                !
 ! D25   D(2,4,9,6)            139.7566         estimate D2E/DX2                !
 ! D26   D(2,4,9,8)           -163.2352         estimate D2E/DX2                !
 ! D27   D(2,4,9,19)            -1.6925         estimate D2E/DX2                !
 ! D28   D(3,4,9,6)           -142.9368         estimate D2E/DX2                !
 ! D29   D(3,4,9,8)            -85.9287         estimate D2E/DX2                !
 ! D30   D(3,4,9,19)            75.614          estimate D2E/DX2                !
 ! D31   D(5,4,9,6)              1.4257         estimate D2E/DX2                !
 ! D32   D(5,4,9,8)             58.4338         estimate D2E/DX2                !
 ! D33   D(5,4,9,19)          -140.0235         estimate D2E/DX2                !
 ! D34   D(4,5,6,7)            139.092          estimate D2E/DX2                !
 ! D35   D(4,5,6,8)            -56.8602         estimate D2E/DX2                !
 ! D36   D(4,5,6,9)              1.4031         estimate D2E/DX2                !
 ! D37   D(14,5,6,7)            26.1112         estimate D2E/DX2                !
 ! D38   D(14,5,6,8)          -169.8409         estimate D2E/DX2                !
 ! D39   D(14,5,6,9)          -111.5777         estimate D2E/DX2                !
 ! D40   D(15,5,6,7)          -101.021          estimate D2E/DX2                !
 ! D41   D(15,5,6,8)            63.0269         estimate D2E/DX2                !
 ! D42   D(15,5,6,9)           121.2901         estimate D2E/DX2                !
 ! D43   D(5,6,7,16)            94.3357         estimate D2E/DX2                !
 ! D44   D(8,6,7,16)           -67.9983         estimate D2E/DX2                !
 ! D45   D(9,6,7,16)          -143.0774         estimate D2E/DX2                !
 ! D46   D(5,6,8,17)          -176.0287         estimate D2E/DX2                !
 ! D47   D(5,6,8,18)           -31.1889         estimate D2E/DX2                !
 ! D48   D(7,6,8,17)           -11.7587         estimate D2E/DX2                !
 ! D49   D(7,6,8,18)           133.0812         estimate D2E/DX2                !
 ! D50   D(5,6,9,4)             -1.4306         estimate D2E/DX2                !
 ! D51   D(5,6,9,19)           136.9791         estimate D2E/DX2                !
 ! D52   D(7,6,9,4)           -136.978          estimate D2E/DX2                !
 ! D53   D(7,6,9,19)             1.4317         estimate D2E/DX2                !
 ! D54   D(17,8,9,4)           177.8907         estimate D2E/DX2                !
 ! D55   D(17,8,9,19)           15.7662         estimate D2E/DX2                !
 ! D56   D(18,8,9,4)            34.3341         estimate D2E/DX2                !
 ! D57   D(18,8,9,19)         -127.7904         estimate D2E/DX2                !
 --------------------------------------------------------------------------------
 Trust Radius=3.00D-01 FncErr=1.00D-07 GrdErr=1.00D-06
 Number of steps in this run=    114 maximum allowed number of steps=    114.
 GradGradGradGradGradGradGradGradGradGradGradGradGradGradGradGradGradGrad

                          Input orientation:                          
 ---------------------------------------------------------------------
 Center     Atomic      Atomic             Coordinates (Angstroms)
 Number     Number       Type             X           Y           Z
 ---------------------------------------------------------------------
      1          8           0       -0.643285    1.020137    0.453658
      2          6           0       -1.815667    0.296265    0.694276
      3          6           0       -3.070945    1.029070    1.123338
      4          6           0       -2.923041    0.492405   -0.281203
      5          6           0       -3.733634   -0.612807   -0.993039
      6          6           0       -3.646791    0.233744   -2.275409
      7          8           0       -3.417577   -0.295403   -3.532916
      8          6           0       -4.211493    1.611064   -2.066799
      9          6           0       -2.816790    1.292987   -1.561448
     10          1           0       -0.297865    1.317466    1.301831
     11          1           0       -1.660932   -0.709918    1.088072
     12          1           0       -3.749353    0.531042    1.809301
     13          1           0       -2.991302    2.104064    1.253459
     14          1           0       -3.167750   -1.543783   -1.086952
     15          1           0       -4.736620   -0.831426   -0.609095
     16          1           0       -4.269287   -0.442797   -3.958736
     17          1           0       -4.231002    2.217342   -2.967351
     18          1           0       -5.024609    1.798395   -1.368395
     19          1           0       -1.937855    1.828860   -1.893593
 ---------------------------------------------------------------------
                    Distance matrix (angstroms):
                    1          2          3          4          5
     1  O    0.000000
     2  C    1.398702   0.000000
     3  C    2.518350   1.515526   0.000000
     4  C    2.452715   1.488727   1.510834   0.000000
     5  C    3.782816   2.711465   2.759341   1.544430   0.000000
     6  C    4.133675   3.489406   3.537742   2.137189   1.539047
     7  O    5.031909   4.559094   4.853358   3.382136   2.579072
     8  C    4.408402   3.884870   3.437519   2.469789   2.515336
     9  C    2.976445   2.661577   2.709672   1.513687   2.189918
    10  H    0.962869   1.927614   2.793744   3.174629   4.560360
    11  H    2.105036   1.091523   2.239076   2.216622   2.938800
    12  H    3.424126   2.244446   1.085732   2.248219   3.026837
    13  H    2.706984   2.227765   1.085765   2.226497   3.602665
    14  H    3.914088   2.895976   3.393276   2.203446   1.093509
    15  H    4.616614   3.391524   3.039284   2.269165   1.095987
    16  H    5.895531   5.311966   5.424932   4.026317   3.018474
    17  H    5.099835   4.788726   4.414913   3.449863   3.486406
    18  H    4.808488   4.099794   3.258434   2.702624   2.760688
    19  H    2.799916   3.010124   3.320456   2.314413   3.161891
                    6          7          8          9         10
     6  C    0.000000
     7  O    1.383423   0.000000
     8  C    1.503136   2.532671   0.000000
     9  C    1.523364   2.602041   1.517152   0.000000
    10  H    5.018605   5.975678   5.172074   3.813653   0.000000
    11  H    4.018350   4.960963   4.673920   3.516759   2.452331
    12  H    4.096799   5.415936   4.050206   3.579411   3.576137
    13  H    4.047304   5.371083   3.571558   2.934621   2.806364
    14  H    2.191236   2.757463   3.464471   2.897513   4.704175
    15  H    2.258079   3.252064   2.892476   3.017591   5.288849
    16  H    1.918019   0.963565   2.793047   3.296920   6.822337
    17  H    2.180538   2.701002   1.085793   2.197951   5.874117
    18  H    2.273585   3.413457   1.088126   2.273141   5.450092
    19  H    2.368678   3.064221   2.290604   1.081668   3.627923
                   11         12         13         14         15
    11  H    0.000000
    12  H    2.534098   0.000000
    13  H    3.117006   1.832484   0.000000
    14  H    2.774268   3.609909   4.337677   0.000000
    15  H    3.514968   2.946126   3.890032   1.788058   0.000000
    16  H    5.687279   5.872729   5.940263   3.266909   3.404339
    17  H    5.623216   5.088418   4.400560   4.337334   3.887416
    18  H    4.862117   3.651056   3.331950   3.833704   2.752350
    19  H    3.925863   4.321722   3.330079   3.679406   4.069416
                   16         17         18         19
    16  H    0.000000
    17  H    2.839128   0.000000
    18  H    3.507608   1.833572   0.000000
    19  H    3.854973   2.561718   3.131263   0.000000
 Stoichiometry    C7H10O2
 Framework group  C1[X(C7H10O2)]
 Deg. of freedom    51
 Full point group                 C1      NOp   1
 Largest Abelian subgroup         C1      NOp   1
 Largest concise Abelian subgroup C1      NOp   1
                         Standard orientation:                         
 ---------------------------------------------------------------------
 Center     Atomic      Atomic             Coordinates (Angstroms)
 Number     Number       Type             X           Y           Z
 ---------------------------------------------------------------------
      1          8           0        2.375749   -1.221666   -0.354097
      2          6           0        1.904205   -0.207190    0.485459
      3          6           0        1.739041    1.197062   -0.060082
      4          6           0        0.540520    0.311847    0.190040
      5          6           0       -0.615472    0.497526    1.197249
      6          6           0       -1.562904   -0.060037    0.120142
      7          8           0       -2.593865   -0.943772    0.384701
      8          6           0       -1.489884    0.743018   -1.148396
      9          6           0       -0.401280   -0.268644   -0.843057
     10          1           0        3.313092   -1.066661   -0.510555
     11          1           0        2.190280   -0.309317    1.533864
     12          1           0        1.924617    2.033908    0.606300
     13          1           0        2.027767    1.358829   -1.094178
     14          1           0       -0.532532   -0.181736    2.050177
     15          1           0       -0.815024    1.513492    1.556665
     16          1           0       -3.402787   -0.435620    0.510738
     17          1           0       -2.193896    0.422813   -1.910486
     18          1           0       -1.273252    1.809337   -1.141099
     19          1           0       -0.178692   -1.103037   -1.494400
 ---------------------------------------------------------------------
 Rotational constants (GHZ):      3.3766807      1.1123640      1.0788310
 Standard basis: 6-31G(2df,p) (6D, 7F)
 There are   329 symmetry adapted cartesian basis functions of A   symmetry.
 There are   302 symmetry adapted basis functions of A   symmetry.
   302 basis functions,   466 primitive gaussians,   329 cartesian basis functions
    34 alpha electrons       34 beta electrons
       nuclear repulsion energy       460.3726375074 Hartrees.
 NAtoms=   19 NActive=   19 NUniq=   19 SFac= 1.00D+00 NAtFMM=   60 NAOKFM=F Big=F
 Integral buffers will be    131072 words long.
 Raffenetti 2 integral format.
 Two-electron integral symmetry is turned on.
 One-electron integrals computed using PRISM.
 NBasis=   302 RedAO= T EigKep=  3.47D-04  NBF=   302
 NBsUse=   302 1.00D-06 EigRej= -1.00D+00 NBFU=   302
 ExpMin= 1.61D-01 ExpMax= 5.48D+03 ExpMxC= 8.25D+02 IAcc=1 IRadAn=         1 AccDes= 0.00D+00
 Harris functional with IExCor=  402 and IRadAn=       1 diagonalized for initial guess.
 HarFok:  IExCor=  402 AccDes= 0.00D+00 IRadAn=         1 IDoV= 1 UseB2=F ITyADJ=14
 ICtDFT=  3500011 ScaDFX=  1.000000  1.000000  1.000000  1.000000
 FoFCou: FMM=F IPFlag=           0 FMFlag=      100000 FMFlg1=           0
         NFxFlg=           0 DoJE=T BraDBF=F KetDBF=T FulRan=T
         wScrn=  0.000000 ICntrl=     500 IOpCl=  0 I1Cent=   200000004 NGrid=           0
         NMat0=    1 NMatS0=      1 NMatT0=    0 NMatD0=    1 NMtDS0=    0 NMtDT0=    0
 Petite list used in FoFCou.
 Requested convergence on RMS density matrix=1.00D-08 within 128 cycles.
 Requested convergence on MAX density matrix=1.00D-06.
 Requested convergence on             energy=1.00D-06.
 No special actions if energy rises.
 Integral accuracy reduced to 1.0D-05 until final iterations.
 Initial convergence to 1.0D-05 achieved.  Increase integral accuracy.
 SCF Done:  E(RB3LYP) =  -423.124415995     A.U. after   13 cycles
            NFock= 13  Conv=0.31D-08     -V/T= 2.0074

 **********************************************************************

            Population analysis using the SCF density.

 **********************************************************************

 Orbital symmetries:
       Occupied  (A) (A) (A) (A) (A) (A) (A) (A) (A) (A) (A) (A)
                 (A) (A) (A) (A) (A) (A) (A) (A) (A) (A) (A) (A)
                 (A) (A) (A) (A) (A) (A) (A) (A) (A) (A)
       Virtual   (A) (A) (A) (A) (A) (A) (A) (A) (A) (A) (A) (A)
                 (A) (A) (A) (A) (A) (A) (A) (A) (A) (A) (A) (A)
                 (A) (A) (A) (A) (A) (A) (A) (A) (A) (A) (A) (A)
                 (A) (A) (A) (A) (A) (A) (A) (A) (A) (A) (A) (A)
                 (A) (A) (A) (A) (A) (A) (A) (A) (A) (A) (A) (A)
                 (A) (A) (A) (A) (A) (A) (A) (A) (A) (A) (A) (A)
                 (A) (A) (A) (A) (A) (A) (A) (A) (A) (A) (A) (A)
                 (A) (A) (A) (A) (A) (A) (A) (A) (A) (A) (A) (A)
                 (A) (A) (A) (A) (A) (A) (A) (A) (A) (A) (A) (A)
                 (A) (A) (A) (A) (A) (A) (A) (A) (A) (A) (A) (A)
                 (A) (A) (A) (A) (A) (A) (A) (A) (A) (A) (A) (A)
                 (A) (A) (A) (A) (A) (A) (A) (A) (A) (A) (A) (A)
                 (A) (A) (A) (A) (A) (A) (A) (A) (A) (A) (A) (A)
                 (A) (A) (A) (A) (A) (A) (A) (A) (A) (A) (A) (A)
                 (A) (A) (A) (A) (A) (A) (A) (A) (A) (A) (A) (A)
                 (A) (A) (A) (A) (A) (A) (A) (A) (A) (A) (A) (A)
                 (A) (A) (A) (A) (A) (A) (A) (A) (A) (A) (A) (A)
                 (A) (A) (A) (A) (A) (A) (A) (A) (A) (A) (A) (A)
                 (A) (A) (A) (A) (A) (A) (A) (A) (A) (A) (A) (A)
                 (A) (A) (A) (A) (A) (A) (A) (A) (A) (A) (A) (A)
                 (A) (A) (A) (A) (A) (A) (A) (A) (A) (A) (A) (A)
                 (A) (A) (A) (A) (A) (A) (A) (A) (A) (A) (A) (A)
                 (A) (A) (A) (A)
 The electronic state is 1-A.
 Alpha  occ. eigenvalues --  -19.14271 -19.14000 -10.23503 -10.22968 -10.19356
 Alpha  occ. eigenvalues --  -10.18329 -10.18034 -10.17994 -10.17754  -1.02904
 Alpha  occ. eigenvalues --   -1.02427  -0.89060  -0.82233  -0.70694  -0.61838
 Alpha  occ. eigenvalues --   -0.60108  -0.58353  -0.52207  -0.51552  -0.51132
 Alpha  occ. eigenvalues --   -0.46885  -0.44586  -0.42605  -0.42020  -0.39904
 Alpha  occ. eigenvalues --   -0.38150  -0.36252  -0.34787  -0.31900  -0.30847
 Alpha  occ. eigenvalues --   -0.28301  -0.26705  -0.24407  -0.23597
 Alpha virt. eigenvalues --    0.08029   0.08384   0.10962   0.11390   0.11797
 Alpha virt. eigenvalues --    0.13105   0.13570   0.14985   0.15316   0.17388
 Alpha virt. eigenvalues --    0.18885   0.19600   0.20693   0.23103   0.25011
 Alpha virt. eigenvalues --    0.26337   0.27450   0.28382   0.29372   0.31352
 Alpha virt. eigenvalues --    0.35433   0.43507   0.44880   0.45616   0.46690
 Alpha virt. eigenvalues --    0.47292   0.50631   0.51193   0.53213   0.53450
 Alpha virt. eigenvalues --    0.54677   0.56853   0.57791   0.58922   0.60860
 Alpha virt. eigenvalues --    0.61275   0.63908   0.64839   0.66612   0.67946
 Alpha virt. eigenvalues --    0.69395   0.71456   0.73582   0.74058   0.75429
 Alpha virt. eigenvalues --    0.76213   0.76965   0.77637   0.79443   0.81495
 Alpha virt. eigenvalues --    0.83432   0.86184   0.87888   0.89448   0.90924
 Alpha virt. eigenvalues --    0.92116   0.93748   0.94703   0.98221   0.99631
 Alpha virt. eigenvalues --    0.99810   1.01540   1.06011   1.06728   1.11852
 Alpha virt. eigenvalues --    1.13573   1.15132   1.16465   1.19232   1.21381
 Alpha virt. eigenvalues --    1.23283   1.26711   1.29051   1.30739   1.33151
 Alpha virt. eigenvalues --    1.33699   1.37148   1.38762   1.39478   1.44184
 Alpha virt. eigenvalues --    1.45254   1.47705   1.48269   1.50501   1.52208
 Alpha virt. eigenvalues --    1.53480   1.55540   1.56311   1.57296   1.59211
 Alpha virt. eigenvalues --    1.62052   1.62991   1.64158   1.67679   1.68927
 Alpha virt. eigenvalues --    1.71233   1.73520   1.75141   1.78162   1.80109
 Alpha virt. eigenvalues --    1.81018   1.86262   1.89792   1.93751   1.95920
 Alpha virt. eigenvalues --    1.97437   2.00338   2.06912   2.10485   2.15735
 Alpha virt. eigenvalues --    2.22427   2.26178   2.28548   2.30446   2.31569
 Alpha virt. eigenvalues --    2.33614   2.35663   2.38255   2.41542   2.48676
 Alpha virt. eigenvalues --    2.50086   2.53441   2.55783   2.57278   2.62242
 Alpha virt. eigenvalues --    2.65916   2.67717   2.69445   2.70892   2.74846
 Alpha virt. eigenvalues --    2.75297   2.79531   2.82366   2.84791   2.86227
 Alpha virt. eigenvalues --    2.87194   2.88199   2.89468   2.93289   2.93746
 Alpha virt. eigenvalues --    2.97184   2.97372   3.00847   3.01791   3.04978
 Alpha virt. eigenvalues --    3.05243   3.07678   3.09608   3.13714   3.14086
 Alpha virt. eigenvalues --    3.15687   3.17394   3.19664   3.20290   3.23242
 Alpha virt. eigenvalues --    3.27146   3.29025   3.29528   3.30677   3.35316
 Alpha virt. eigenvalues --    3.37232   3.37702   3.41371   3.46270   3.46754
 Alpha virt. eigenvalues --    3.50050   3.53458   3.55260   3.56830   3.60299
 Alpha virt. eigenvalues --    3.65534   3.72303   3.74811   3.78906   3.83522
 Alpha virt. eigenvalues --    3.87930   3.90070   3.91930   3.97550   4.00346
 Alpha virt. eigenvalues --    4.01720   4.03485   4.08512   4.11134   4.12888
 Alpha virt. eigenvalues --    4.14482   4.16380   4.20479   4.21414   4.27700
 Alpha virt. eigenvalues --    4.29131   4.30299   4.35469   4.37208   4.39998
 Alpha virt. eigenvalues --    4.42093   4.43836   4.46673   4.48827   4.50805
 Alpha virt. eigenvalues --    4.53401   4.53553   4.56819   4.59149   4.59323
 Alpha virt. eigenvalues --    4.61163   4.67066   4.69732   4.72143   4.73315
 Alpha virt. eigenvalues --    4.73524   4.73873   4.77188   4.78047   4.79237
 Alpha virt. eigenvalues --    4.80612   4.83831   4.86815   4.88635   4.89605
 Alpha virt. eigenvalues --    4.90722   4.92005   4.94107   4.97537   5.00886
 Alpha virt. eigenvalues --    5.03357   5.07052   5.10185   5.14009   5.16829
 Alpha virt. eigenvalues --    5.23551   5.29189   5.30882   5.34153   5.38640
 Alpha virt. eigenvalues --    5.40839   5.43034   5.47621   5.49292   5.50860
 Alpha virt. eigenvalues --    5.54321   5.55416   5.60955   5.62624   5.67927
 Alpha virt. eigenvalues --    5.69807   5.72770   5.82727   5.89746   5.96553
 Alpha virt. eigenvalues --    6.00202   6.08453   6.10406   6.12815   6.18890
 Alpha virt. eigenvalues --    6.40638   7.10064   7.19087   7.24052  10.82120
 Alpha virt. eigenvalues --   11.07099  11.77960  12.02545  12.13067  12.21972
 Alpha virt. eigenvalues --   13.01530  13.36880  13.55092
          Condensed to atoms (all electrons):
               1          2          3          4          5          6
     1  O    7.799318   0.412219  -0.025493  -0.047346   0.000658   0.000292
     2  C    0.412219   4.790684   0.257101   0.285145  -0.032539   0.007086
     3  C   -0.025493   0.257101   5.267061   0.297943  -0.035438   0.001887
     4  C   -0.047346   0.285145   0.297943   4.543716   0.374302  -0.054836
     5  C    0.000658  -0.032539  -0.035438   0.374302   5.311945   0.376659
     6  C    0.000292   0.007086   0.001887  -0.054836   0.376659   4.366600
     7  O    0.000000   0.000025  -0.000068   0.001775  -0.052200   0.448585
     8  C    0.000179   0.001988  -0.009716   0.016947  -0.049315   0.319054
     9  C    0.005671  -0.032518  -0.022769   0.365591  -0.150645   0.280478
    10  H    0.311294  -0.065512  -0.005362   0.008075  -0.000121  -0.000006
    11  H   -0.041748   0.381232  -0.046151  -0.065588  -0.006221   0.000199
    12  H    0.001652  -0.010754   0.352924  -0.009972  -0.008568   0.000087
    13  H   -0.001105  -0.005292   0.357188  -0.017876   0.003327   0.000142
    14  H    0.000027  -0.009596   0.004547  -0.011326   0.330553  -0.011194
    15  H   -0.000024   0.003951  -0.005611  -0.014237   0.323226  -0.012913
    16  H    0.000000   0.000001   0.000019  -0.000519   0.000861  -0.074592
    17  H    0.000000  -0.000148   0.000163   0.001617   0.004871  -0.006674
    18  H    0.000000   0.000621   0.005052  -0.012600  -0.007917  -0.018792
    19  H    0.005208  -0.003830   0.002404  -0.041860   0.012114  -0.029086
               7          8          9         10         11         12
     1  O    0.000000   0.000179   0.005671   0.311294  -0.041748   0.001652
     2  C    0.000025   0.001988  -0.032518  -0.065512   0.381232  -0.010754
     3  C   -0.000068  -0.009716  -0.022769  -0.005362  -0.046151   0.352924
     4  C    0.001775   0.016947   0.365591   0.008075  -0.065588  -0.009972
     5  C   -0.052200  -0.049315  -0.150645  -0.000121  -0.006221  -0.008568
     6  C    0.448585   0.319054   0.280478  -0.000006   0.000199   0.000087
     7  O    7.802844  -0.048992  -0.009000   0.000000  -0.000004   0.000000
     8  C   -0.048992   5.191541   0.268397   0.000010  -0.000091   0.000285
     9  C   -0.009000   0.268397   5.104241  -0.000329   0.005112   0.002442
    10  H    0.000000   0.000010  -0.000329   0.464612  -0.001991   0.000294
    11  H   -0.000004  -0.000091   0.005112  -0.001991   0.689012  -0.003736
    12  H    0.000000   0.000285   0.002442   0.000294  -0.003736   0.603528
    13  H    0.000000   0.000963  -0.006298   0.001921   0.002940  -0.037855
    14  H   -0.000623   0.005442   0.002330  -0.000018   0.004477   0.000022
    15  H    0.002134  -0.009743   0.009132   0.000005   0.000049   0.002387
    16  H    0.317253  -0.006842   0.008720   0.000000   0.000001   0.000000
    17  H   -0.001083   0.354652  -0.017529   0.000000   0.000002   0.000001
    18  H    0.001543   0.352328  -0.008885  -0.000001   0.000014  -0.000237
    19  H   -0.001139  -0.039168   0.378183  -0.000420   0.000187  -0.000134
              13         14         15         16         17         18
     1  O   -0.001105   0.000027  -0.000024   0.000000   0.000000   0.000000
     2  C   -0.005292  -0.009596   0.003951   0.000001  -0.000148   0.000621
     3  C    0.357188   0.004547  -0.005611   0.000019   0.000163   0.005052
     4  C   -0.017876  -0.011326  -0.014237  -0.000519   0.001617  -0.012600
     5  C    0.003327   0.330553   0.323226   0.000861   0.004871  -0.007917
     6  C    0.000142  -0.011194  -0.012913  -0.074592  -0.006674  -0.018792
     7  O    0.000000  -0.000623   0.002134   0.317253  -0.001083   0.001543
     8  C    0.000963   0.005442  -0.009743  -0.006842   0.354652   0.352328
     9  C   -0.006298   0.002330   0.009132   0.008720  -0.017529  -0.008885
    10  H    0.001921  -0.000018   0.000005   0.000000   0.000000  -0.000001
    11  H    0.002940   0.004477   0.000049   0.000001   0.000002   0.000014
    12  H   -0.037855   0.000022   0.002387   0.000000   0.000001  -0.000237
    13  H    0.588194  -0.000099   0.000033   0.000000  -0.000048   0.000269
    14  H   -0.000099   0.618756  -0.045657  -0.000145  -0.000112  -0.000038
    15  H    0.000033  -0.045657   0.654197   0.000624   0.000005   0.004720
    16  H    0.000000  -0.000145   0.000624   0.469341   0.000569   0.000759
    17  H   -0.000048  -0.000112   0.000005   0.000569   0.595810  -0.039780
    18  H    0.000269  -0.000038   0.004720   0.000759  -0.039780   0.619051
    19  H    0.000500   0.000036  -0.000444  -0.000061  -0.002764   0.001698
              19
     1  O    0.005208
     2  C   -0.003830
     3  C    0.002404
     4  C   -0.041860
     5  C    0.012114
     6  C   -0.029086
     7  O   -0.001139
     8  C   -0.039168
     9  C    0.378183
    10  H   -0.000420
    11  H    0.000187
    12  H   -0.000134
    13  H    0.000500
    14  H    0.000036
    15  H   -0.000444
    16  H   -0.000061
    17  H   -0.002764
    18  H    0.001698
    19  H    0.611491
 Mulliken charges:
               1
     1  O   -0.420802
     2  C    0.020137
     3  C   -0.395681
     4  C    0.381049
     5  C   -0.395552
     6  C    0.407026
     7  O   -0.461049
     8  C   -0.347918
     9  C   -0.182322
    10  H    0.287551
    11  H    0.082307
    12  H    0.107634
    13  H    0.113095
    14  H    0.112619
    15  H    0.088164
    16  H    0.284011
    17  H    0.110448
    18  H    0.102196
    19  H    0.107086
 Sum of Mulliken charges =   0.00000
 Mulliken charges with hydrogens summed into heavy atoms:
               1
     1  O   -0.133251
     2  C    0.102444
     3  C   -0.174952
     4  C    0.381049
     5  C   -0.194768
     6  C    0.407026
     7  O   -0.177037
     8  C   -0.135274
     9  C   -0.075236
 Electronic spatial extent (au):  <R**2>=           1203.3488
 Charge=              0.0000 electrons
 Dipole moment (field-independent basis, Debye):
    X=              0.4359    Y=              1.9244    Z=              0.2702  Tot=              1.9915
 Quadrupole moment (field-independent basis, Debye-Ang):
   XX=            -42.2617   YY=            -56.8767   ZZ=            -51.8362
   XY=             -2.3146   XZ=             -0.2366   YZ=              0.8294
 Traceless Quadrupole moment (field-independent basis, Debye-Ang):
   XX=              8.0632   YY=             -6.5518   ZZ=             -1.5113
   XY=             -2.3146   XZ=             -0.2366   YZ=              0.8294
 Octapole moment (field-independent basis, Debye-Ang**2):
  XXX=              3.1588  YYY=             -2.7395  ZZZ=              0.7382  XYY=              2.5558
  XXY=             -0.5642  XXZ=             -1.3891  XZZ=              0.5025  YZZ=             -4.1984
  YYZ=             -0.3615  XYZ=             -1.2194
 Hexadecapole moment (field-independent basis, Debye-Ang**3):
 XXXX=           -731.6831 YYYY=           -270.5652 ZZZZ=           -254.7275 XXXY=            -45.1155
 XXXZ=            -45.0979 YYYX=             -2.4594 YYYZ=              4.1848 ZZZX=             -5.4232
 ZZZY=              1.3484 XXYY=           -223.4385 XXZZ=           -193.7257 YYZZ=            -84.9232
 XXYZ=              5.4037 YYXZ=             -1.0933 ZZXY=             -0.9628
 N-N= 4.603726375074D+02 E-N=-1.907913379630D+03  KE= 4.200120619231D+02
 Calling FoFJK, ICntrl=      2127 FMM=F ISym2X=0 I1Cent= 0 IOpClX= 0 NMat=1 NMatS=1 NMatT=0.
 ***** Axes restored to original set *****
 -------------------------------------------------------------------
 Center     Atomic                   Forces (Hartrees/Bohr)
 Number     Number              X              Y              Z
 -------------------------------------------------------------------
      1        8          -0.000025007   -0.000005715    0.000013322
      2        6           0.000069291    0.000010079   -0.000010972
      3        6           0.000005753    0.000016310   -0.000043201
      4        6           0.000005057   -0.000027013    0.000037013
      5        6          -0.000016542    0.000016629    0.000007001
      6        6           0.000015706    0.000023129    0.000025028
      7        8           0.000002794   -0.000018285   -0.000032600
      8        6           0.000026960   -0.000015529    0.000018115
      9        6          -0.000047168    0.000011661   -0.000039860
     10        1          -0.000002778   -0.000004473   -0.000007865
     11        1          -0.000029075   -0.000009465    0.000003066
     12        1          -0.000000163   -0.000015447   -0.000001917
     13        1          -0.000019074   -0.000000606    0.000021095
     14        1           0.000005176    0.000005430   -0.000007685
     15        1          -0.000002055   -0.000003285    0.000002930
     16        1           0.000003370    0.000005290    0.000002189
     17        1          -0.000003434    0.000001001   -0.000002325
     18        1          -0.000004358    0.000005529    0.000002430
     19        1           0.000015547    0.000004759    0.000014236
 -------------------------------------------------------------------
 Cartesian Forces:  Max     0.000069291 RMS     0.000019474

 GradGradGradGradGradGradGradGradGradGradGradGradGradGradGradGradGradGrad
 Berny optimization.
 FormGI is forming the generalized inverse of G from B-inverse, IUseBI=4.
 Internal  Forces:  Max     0.000032978 RMS     0.000008056
 Search for a local minimum.
 Step number   1 out of a maximum of  114
 All quantities printed in internal units (Hartrees-Bohrs-Radians)
 Mixed Optimization -- En-DIIS/RFO-DIIS
 Second derivative matrix not updated -- first step.
 ITU=  0
     Eigenvalues ---    0.00624   0.01709   0.01732   0.01847   0.01911
     Eigenvalues ---    0.02149   0.02588   0.02890   0.03034   0.03049
     Eigenvalues ---    0.03155   0.03884   0.03943   0.04578   0.04685
     Eigenvalues ---    0.05462   0.05520   0.06364   0.08484   0.10332
     Eigenvalues ---    0.10623   0.10753   0.12043   0.12806   0.13322
     Eigenvalues ---    0.15691   0.16000   0.16000   0.16912   0.17552
     Eigenvalues ---    0.19239   0.23041   0.23722   0.26677   0.27136
     Eigenvalues ---    0.27814   0.30086   0.30676   0.32076   0.34130
     Eigenvalues ---    0.34410   0.34637   0.35030   0.35303   0.35307
     Eigenvalues ---    0.35311   0.35794   0.45836   0.48482   0.54714
     Eigenvalues ---    0.54861
 RFO step:  Lambda=-5.00797826D-08 EMin= 6.24468508D-03
 Linear search not attempted -- first point.
 Iteration  1 RMS(Cart)=  0.00010074 RMS(Int)=  0.00000001
 Iteration  2 RMS(Cart)=  0.00000001 RMS(Int)=  0.00000000
 Variable       Old X    -DE/DX   Delta X   Delta X   Delta X     New X
                                 (Linear)    (Quad)   (Total)
    R1        2.64316  -0.00003   0.00000  -0.00006  -0.00006   2.64311
    R2        1.81956  -0.00001   0.00000  -0.00002  -0.00002   1.81954
    R3        2.86393   0.00001   0.00000   0.00006   0.00006   2.86399
    R4        2.81329   0.00000   0.00000   0.00000   0.00000   2.81329
    R5        2.06268   0.00000   0.00000   0.00001   0.00001   2.06269
    R6        2.85506  -0.00002   0.00000  -0.00010  -0.00010   2.85496
    R7        2.05174   0.00000   0.00000   0.00001   0.00001   2.05175
    R8        2.05180   0.00000   0.00000   0.00001   0.00001   2.05181
    R9        2.91855  -0.00001   0.00000  -0.00004  -0.00004   2.91851
   R10        2.86045   0.00001   0.00000   0.00006   0.00006   2.86052
   R11        2.90838   0.00000   0.00000  -0.00002  -0.00002   2.90836
   R12        2.06643   0.00000   0.00000   0.00000   0.00000   2.06643
   R13        2.07112   0.00000   0.00000   0.00001   0.00001   2.07113
   R14        2.61429   0.00003   0.00000   0.00007   0.00007   2.61436
   R15        2.84052  -0.00001   0.00000  -0.00002  -0.00002   2.84050
   R16        2.87874  -0.00001   0.00000  -0.00002  -0.00002   2.87872
   R17        1.82087   0.00000   0.00000  -0.00001  -0.00001   1.82087
   R18        2.86700  -0.00002   0.00000  -0.00007  -0.00007   2.86693
   R19        2.05185   0.00000   0.00000   0.00001   0.00001   2.05186
   R20        2.05626   0.00001   0.00000   0.00001   0.00001   2.05627
   R21        2.04406   0.00001   0.00000   0.00003   0.00003   2.04409
    A1        1.88490   0.00000   0.00000   0.00002   0.00002   1.88493
    A2        2.08601   0.00001   0.00000   0.00003   0.00003   2.08604
    A3        2.02926   0.00001   0.00000   0.00000   0.00000   2.02927
    A4        2.00458   0.00001   0.00000   0.00016   0.00016   2.00474
    A5        2.04992  -0.00002   0.00000  -0.00015  -0.00015   2.04977
    A6        2.05250  -0.00002   0.00000  -0.00011  -0.00011   2.05239
    A7        2.06532  -0.00001   0.00000  -0.00012  -0.00012   2.06520
    A8        2.03970   0.00002   0.00000   0.00016   0.00016   2.03986
    A9        2.07782  -0.00002   0.00000  -0.00011  -0.00011   2.07771
   A10        2.04420   0.00002   0.00000   0.00016   0.00016   2.04436
   A11        2.00895  -0.00001   0.00000  -0.00005  -0.00005   2.00890
   A12        2.21196   0.00000   0.00000   0.00004   0.00004   2.21199
   A13        2.17932   0.00000   0.00000   0.00000   0.00000   2.17933
   A14        2.25401  -0.00001   0.00000  -0.00010  -0.00010   2.25392
   A15        2.22091   0.00001   0.00000   0.00002   0.00002   2.22093
   A16        1.59630   0.00000   0.00000   0.00001   0.00001   1.59631
   A17        1.53159   0.00000   0.00000   0.00000   0.00000   1.53159
   A18        1.95759   0.00000   0.00000  -0.00004  -0.00004   1.95756
   A19        2.05059   0.00000   0.00000   0.00001   0.00001   2.05060
   A20        1.94715  -0.00001   0.00000  -0.00008  -0.00008   1.94707
   A21        2.04121   0.00000   0.00000   0.00007   0.00007   2.04128
   A22        1.91117   0.00000   0.00000   0.00002   0.00002   1.91120
   A23        2.16078   0.00000   0.00000  -0.00001  -0.00001   2.16077
   A24        1.94676  -0.00001   0.00000  -0.00005  -0.00005   1.94671
   A25        1.59350   0.00000   0.00000   0.00003   0.00003   1.59353
   A26        2.13989   0.00001   0.00000   0.00003   0.00003   2.13993
   A27        2.21643   0.00001   0.00000   0.00006   0.00006   2.21649
   A28        1.88994  -0.00001   0.00000  -0.00003  -0.00003   1.88991
   A29        1.98589   0.00000   0.00000  -0.00004  -0.00004   1.98585
   A30        2.12652   0.00000   0.00000   0.00004   0.00004   2.12656
   A31        1.99308   0.00000   0.00000   0.00004   0.00004   1.99312
   A32        2.10511   0.00000   0.00000   0.00000   0.00000   2.10511
   A33        2.00731   0.00000   0.00000  -0.00002  -0.00002   2.00729
   A34        1.56119   0.00000   0.00000  -0.00003  -0.00003   1.56116
   A35        1.90507   0.00000   0.00000   0.00004   0.00004   1.90510
   A36        2.18802  -0.00001   0.00000  -0.00010  -0.00010   2.18791
   A37        2.26958   0.00001   0.00000   0.00007   0.00007   2.26965
   A38        2.14224   0.00001   0.00000   0.00007   0.00007   2.14231
    D1        1.25911   0.00000   0.00000   0.00005   0.00005   1.25916
    D2        2.46806   0.00000   0.00000   0.00000   0.00000   2.46806
    D3       -1.32037   0.00000   0.00000   0.00003   0.00003  -1.32034
    D4       -2.55046  -0.00001   0.00000  -0.00011  -0.00011  -2.55057
    D5       -0.02953  -0.00001   0.00000  -0.00015  -0.00015  -0.02968
    D6        0.01477   0.00001   0.00000   0.00001   0.00001   0.01478
    D7        2.53570   0.00000   0.00000  -0.00003  -0.00003   2.53567
    D8        2.27683   0.00001   0.00000   0.00009   0.00009   2.27692
    D9        0.11311   0.00001   0.00000   0.00003   0.00003   0.11314
   D10       -0.19976  -0.00001   0.00000  -0.00005  -0.00005  -0.19981
   D11       -2.36348  -0.00001   0.00000  -0.00011  -0.00011  -2.36359
   D12        0.13786   0.00001   0.00000   0.00020   0.00020   0.13806
   D13        2.42982   0.00000   0.00000   0.00007   0.00007   2.42989
   D14       -2.41175   0.00001   0.00000   0.00023   0.00023  -2.41152
   D15       -0.11979   0.00000   0.00000   0.00011   0.00011  -0.11969
   D16       -2.41757   0.00000   0.00000   0.00010   0.00010  -2.41748
   D17       -0.45571   0.00000   0.00000   0.00000   0.00000  -0.45570
   D18        1.78167   0.00000   0.00000   0.00001   0.00001   1.78168
   D19        2.47590   0.00000   0.00000   0.00007   0.00007   2.47597
   D20       -1.84542   0.00000   0.00000  -0.00003  -0.00003  -1.84544
   D21        0.39196   0.00000   0.00000  -0.00002  -0.00002   0.39194
   D22       -0.02465   0.00000   0.00000   0.00014   0.00014  -0.02451
   D23        1.93722   0.00000   0.00000   0.00004   0.00004   1.93726
   D24       -2.10859   0.00000   0.00000   0.00005   0.00005  -2.10854
   D25        2.43921  -0.00001   0.00000  -0.00008  -0.00008   2.43914
   D26       -2.84899  -0.00001   0.00000  -0.00009  -0.00009  -2.84908
   D27       -0.02954  -0.00001   0.00000  -0.00005  -0.00005  -0.02959
   D28       -2.49472   0.00000   0.00000  -0.00001  -0.00001  -2.49472
   D29       -1.49974   0.00001   0.00000  -0.00001  -0.00001  -1.49975
   D30        1.31971   0.00001   0.00000   0.00002   0.00002   1.31973
   D31        0.02488   0.00000   0.00000  -0.00014  -0.00014   0.02474
   D32        1.01986   0.00000   0.00000  -0.00015  -0.00015   1.01971
   D33       -2.44387   0.00000   0.00000  -0.00012  -0.00012  -2.44399
   D34        2.42761   0.00000   0.00000  -0.00003  -0.00003   2.42759
   D35       -0.99240   0.00000   0.00000  -0.00014  -0.00014  -0.99254
   D36        0.02449   0.00000   0.00000  -0.00014  -0.00014   0.02435
   D37        0.45573   0.00000   0.00000   0.00002   0.00002   0.45575
   D38       -2.96428   0.00000   0.00000  -0.00009  -0.00009  -2.96437
   D39       -1.94740   0.00000   0.00000  -0.00009  -0.00009  -1.94748
   D40       -1.76315   0.00000   0.00000   0.00001   0.00001  -1.76314
   D41        1.10003   0.00000   0.00000  -0.00011  -0.00011   1.09992
   D42        2.11691   0.00000   0.00000  -0.00010  -0.00010   2.11681
   D43        1.64647   0.00000   0.00000  -0.00008  -0.00008   1.64639
   D44       -1.18679   0.00000   0.00000   0.00006   0.00006  -1.18673
   D45       -2.49717   0.00000   0.00000   0.00004   0.00004  -2.49713
   D46       -3.07228   0.00000   0.00000   0.00013   0.00013  -3.07215
   D47       -0.54435   0.00000   0.00000   0.00007   0.00007  -0.54428
   D48       -0.20523   0.00000   0.00000   0.00001   0.00001  -0.20521
   D49        2.32271   0.00000   0.00000  -0.00004  -0.00004   2.32266
   D50       -0.02497   0.00000   0.00000   0.00014   0.00014  -0.02483
   D51        2.39074  -0.00001   0.00000   0.00000   0.00000   2.39073
   D52       -2.39072   0.00001   0.00000   0.00007   0.00007  -2.39064
   D53        0.02499   0.00000   0.00000  -0.00007  -0.00007   0.02492
   D54        3.10478   0.00000   0.00000   0.00013   0.00013   3.10491
   D55        0.27517   0.00000   0.00000   0.00013   0.00013   0.27531
   D56        0.59924   0.00000   0.00000   0.00011   0.00011   0.59935
   D57       -2.23036   0.00001   0.00000   0.00011   0.00011  -2.23025
         Item               Value     Threshold  Converged?
 Maximum Force            0.000033     0.000450     YES
 RMS     Force            0.000008     0.000300     YES
 Maximum Displacement     0.000457     0.001800     YES
 RMS     Displacement     0.000101     0.001200     YES
 Predicted change in Energy=-2.503999D-08
 Optimization completed.
    -- Stationary point found.
                           ----------------------------
                           !   Optimized Parameters   !
                           ! (Angstroms and Degrees)  !
 --------------------------                            --------------------------
 ! Name  Definition              Value          Derivative Info.                !
 --------------------------------------------------------------------------------
 ! R1    R(1,2)                  1.3987         -DE/DX =    0.0                 !
 ! R2    R(1,10)                 0.9629         -DE/DX =    0.0                 !
 ! R3    R(2,3)                  1.5155         -DE/DX =    0.0                 !
 ! R4    R(2,4)                  1.4887         -DE/DX =    0.0                 !
 ! R5    R(2,11)                 1.0915         -DE/DX =    0.0                 !
 ! R6    R(3,4)                  1.5108         -DE/DX =    0.0                 !
 ! R7    R(3,12)                 1.0857         -DE/DX =    0.0                 !
 ! R8    R(3,13)                 1.0858         -DE/DX =    0.0                 !
 ! R9    R(4,5)                  1.5444         -DE/DX =    0.0                 !
 ! R10   R(4,9)                  1.5137         -DE/DX =    0.0                 !
 ! R11   R(5,6)                  1.539          -DE/DX =    0.0                 !
 ! R12   R(5,14)                 1.0935         -DE/DX =    0.0                 !
 ! R13   R(5,15)                 1.096          -DE/DX =    0.0                 !
 ! R14   R(6,7)                  1.3834         -DE/DX =    0.0                 !
 ! R15   R(6,8)                  1.5031         -DE/DX =    0.0                 !
 ! R16   R(6,9)                  1.5234         -DE/DX =    0.0                 !
 ! R17   R(7,16)                 0.9636         -DE/DX =    0.0                 !
 ! R18   R(8,9)                  1.5172         -DE/DX =    0.0                 !
 ! R19   R(8,17)                 1.0858         -DE/DX =    0.0                 !
 ! R20   R(8,18)                 1.0881         -DE/DX =    0.0                 !
 ! R21   R(9,19)                 1.0817         -DE/DX =    0.0                 !
 ! A1    A(2,1,10)             107.9969         -DE/DX =    0.0                 !
 ! A2    A(1,2,3)              119.5194         -DE/DX =    0.0                 !
 ! A3    A(1,2,4)              116.2683         -DE/DX =    0.0                 !
 ! A4    A(1,2,11)             114.8541         -DE/DX =    0.0                 !
 ! A5    A(3,2,11)             117.452          -DE/DX =    0.0                 !
 ! A6    A(4,2,11)             117.5998         -DE/DX =    0.0                 !
 ! A7    A(2,3,12)             118.3341         -DE/DX =    0.0                 !
 ! A8    A(2,3,13)             116.8661         -DE/DX =    0.0                 !
 ! A9    A(4,3,12)             119.0505         -DE/DX =    0.0                 !
 ! A10   A(4,3,13)             117.124          -DE/DX =    0.0                 !
 ! A11   A(12,3,13)            115.1044         -DE/DX =    0.0                 !
 ! A12   A(2,4,5)              126.7359         -DE/DX =    0.0                 !
 ! A13   A(2,4,9)              124.8661         -DE/DX =    0.0                 !
 ! A14   A(3,4,5)              129.1455         -DE/DX =    0.0                 !
 ! A15   A(3,4,9)              127.2488         -DE/DX =    0.0                 !
 ! A16   A(5,4,9)               91.4613         -DE/DX =    0.0                 !
 ! A17   A(4,5,6)               87.7534         -DE/DX =    0.0                 !
 ! A18   A(4,5,14)             112.1619         -DE/DX =    0.0                 !
 ! A19   A(4,5,15)             117.49           -DE/DX =    0.0                 !
 ! A20   A(6,5,14)             111.5636         -DE/DX =    0.0                 !
 ! A21   A(6,5,15)             116.9525         -DE/DX =    0.0                 !
 ! A22   A(14,5,15)            109.5022         -DE/DX =    0.0                 !
 ! A23   A(5,6,7)              123.8035         -DE/DX =    0.0                 !
 ! A24   A(5,6,8)              111.5413         -DE/DX =    0.0                 !
 ! A25   A(5,6,9)               91.3007         -DE/DX =    0.0                 !
 ! A26   A(7,6,8)              122.6069         -DE/DX =    0.0                 !
 ! A27   A(7,6,9)              126.9918         -DE/DX =    0.0                 !
 ! A28   A(6,7,16)             108.2857         -DE/DX =    0.0                 !
 ! A29   A(6,8,17)             113.7834         -DE/DX =    0.0                 !
 ! A30   A(6,8,18)             121.8407         -DE/DX =    0.0                 !
 ! A31   A(9,8,17)             114.1952         -DE/DX =    0.0                 !
 ! A32   A(9,8,18)             120.6141         -DE/DX =    0.0                 !
 ! A33   A(17,8,18)            115.0106         -DE/DX =    0.0                 !
 ! A34   A(4,9,6)               89.4495         -DE/DX =    0.0                 !
 ! A35   A(4,9,8)              109.1522         -DE/DX =    0.0                 !
 ! A36   A(4,9,19)             125.3641         -DE/DX =    0.0                 !
 ! A37   A(6,9,19)             130.0376         -DE/DX =    0.0                 !
 ! A38   A(8,9,19)             122.7411         -DE/DX =    0.0                 !
 ! D1    D(10,1,2,3)            72.142          -DE/DX =    0.0                 !
 ! D2    D(10,1,2,4)           141.4094         -DE/DX =    0.0                 !
 ! D3    D(10,1,2,11)          -75.6514         -DE/DX =    0.0                 !
 ! D4    D(1,2,3,12)          -146.1309         -DE/DX =    0.0                 !
 ! D5    D(1,2,3,13)            -1.692          -DE/DX =    0.0                 !
 ! D6    D(11,2,3,12)            0.8461         -DE/DX =    0.0                 !
 ! D7    D(11,2,3,13)          145.2849         -DE/DX =    0.0                 !
 ! D8    D(1,2,4,5)            130.4528         -DE/DX =    0.0                 !
 ! D9    D(1,2,4,9)              6.4808         -DE/DX =    0.0                 !
 ! D10   D(11,2,4,5)           -11.4453         -DE/DX =    0.0                 !
 ! D11   D(11,2,4,9)          -135.4173         -DE/DX =    0.0                 !
 ! D12   D(12,3,4,5)             7.8989         -DE/DX =    0.0                 !
 ! D13   D(12,3,4,9)           139.2184         -DE/DX =    0.0                 !
 ! D14   D(13,3,4,5)          -138.183          -DE/DX =    0.0                 !
 ! D15   D(13,3,4,9)            -6.8635         -DE/DX =    0.0                 !
 ! D16   D(2,4,5,6)           -138.5167         -DE/DX =    0.0                 !
 ! D17   D(2,4,5,14)           -26.1101         -DE/DX =    0.0                 !
 ! D18   D(2,4,5,15)           102.0821         -DE/DX =    0.0                 !
 ! D19   D(3,4,5,6)            141.8587         -DE/DX =    0.0                 !
 ! D20   D(3,4,5,14)          -105.7346         -DE/DX =    0.0                 !
 ! D21   D(3,4,5,15)            22.4576         -DE/DX =    0.0                 !
 ! D22   D(9,4,5,6)             -1.4122         -DE/DX =    0.0                 !
 ! D23   D(9,4,5,14)           110.9945         -DE/DX =    0.0                 !
 ! D24   D(9,4,5,15)          -120.8133         -DE/DX =    0.0                 !
 ! D25   D(2,4,9,6)            139.7566         -DE/DX =    0.0                 !
 ! D26   D(2,4,9,8)           -163.2352         -DE/DX =    0.0                 !
 ! D27   D(2,4,9,19)            -1.6925         -DE/DX =    0.0                 !
 ! D28   D(3,4,9,6)           -142.9368         -DE/DX =    0.0                 !
 ! D29   D(3,4,9,8)            -85.9287         -DE/DX =    0.0                 !
 ! D30   D(3,4,9,19)            75.614          -DE/DX =    0.0                 !
 ! D31   D(5,4,9,6)              1.4257         -DE/DX =    0.0                 !
 ! D32   D(5,4,9,8)             58.4338         -DE/DX =    0.0                 !
 ! D33   D(5,4,9,19)          -140.0235         -DE/DX =    0.0                 !
 ! D34   D(4,5,6,7)            139.092          -DE/DX =    0.0                 !
 ! D35   D(4,5,6,8)            -56.8602         -DE/DX =    0.0                 !
 ! D36   D(4,5,6,9)              1.4031         -DE/DX =    0.0                 !
 ! D37   D(14,5,6,7)            26.1112         -DE/DX =    0.0                 !
 ! D38   D(14,5,6,8)          -169.8409         -DE/DX =    0.0                 !
 ! D39   D(14,5,6,9)          -111.5777         -DE/DX =    0.0                 !
 ! D40   D(15,5,6,7)          -101.021          -DE/DX =    0.0                 !
 ! D41   D(15,5,6,8)            63.0269         -DE/DX =    0.0                 !
 ! D42   D(15,5,6,9)           121.2901         -DE/DX =    0.0                 !
 ! D43   D(5,6,7,16)            94.3357         -DE/DX =    0.0                 !
 ! D44   D(8,6,7,16)           -67.9983         -DE/DX =    0.0                 !
 ! D45   D(9,6,7,16)          -143.0774         -DE/DX =    0.0                 !
 ! D46   D(5,6,8,17)          -176.0287         -DE/DX =    0.0                 !
 ! D47   D(5,6,8,18)           -31.1889         -DE/DX =    0.0                 !
 ! D48   D(7,6,8,17)           -11.7587         -DE/DX =    0.0                 !
 ! D49   D(7,6,8,18)           133.0812         -DE/DX =    0.0                 !
 ! D50   D(5,6,9,4)             -1.4306         -DE/DX =    0.0                 !
 ! D51   D(5,6,9,19)           136.9791         -DE/DX =    0.0                 !
 ! D52   D(7,6,9,4)           -136.978          -DE/DX =    0.0                 !
 ! D53   D(7,6,9,19)             1.4317         -DE/DX =    0.0                 !
 ! D54   D(17,8,9,4)           177.8907         -DE/DX =    0.0                 !
 ! D55   D(17,8,9,19)           15.7662         -DE/DX =    0.0                 !
 ! D56   D(18,8,9,4)            34.3341         -DE/DX =    0.0                 !
 ! D57   D(18,8,9,19)         -127.7904         -DE/DX =    0.0                 !
 --------------------------------------------------------------------------------
 GradGradGradGradGradGradGradGradGradGradGradGradGradGradGradGradGradGrad

                          Input orientation:                          
 ---------------------------------------------------------------------
 Center     Atomic      Atomic             Coordinates (Angstroms)
 Number     Number       Type             X           Y           Z
 ---------------------------------------------------------------------
      1          8           0       -0.643285    1.020137    0.453658
      2          6           0       -1.815667    0.296265    0.694276
      3          6           0       -3.070945    1.029070    1.123338
      4          6           0       -2.923041    0.492405   -0.281203
      5          6           0       -3.733634   -0.612807   -0.993039
      6          6           0       -3.646791    0.233744   -2.275409
      7          8           0       -3.417577   -0.295403   -3.532916
      8          6           0       -4.211493    1.611064   -2.066799
      9          6           0       -2.816790    1.292987   -1.561448
     10          1           0       -0.297865    1.317466    1.301831
     11          1           0       -1.660932   -0.709918    1.088072
     12          1           0       -3.749353    0.531042    1.809301
     13          1           0       -2.991302    2.104064    1.253459
     14          1           0       -3.167750   -1.543783   -1.086952
     15          1           0       -4.736620   -0.831426   -0.609095
     16          1           0       -4.269287   -0.442797   -3.958736
     17          1           0       -4.231002    2.217342   -2.967351
     18          1           0       -5.024609    1.798395   -1.368395
     19          1           0       -1.937855    1.828860   -1.893593
 ---------------------------------------------------------------------
                    Distance matrix (angstroms):
                    1          2          3          4          5
     1  O    0.000000
     2  C    1.398702   0.000000
     3  C    2.518350   1.515526   0.000000
     4  C    2.452715   1.488727   1.510834   0.000000
     5  C    3.782816   2.711465   2.759341   1.544430   0.000000
     6  C    4.133675   3.489406   3.537742   2.137189   1.539047
     7  O    5.031909   4.559094   4.853358   3.382136   2.579072
     8  C    4.408402   3.884870   3.437519   2.469789   2.515336
     9  C    2.976445   2.661577   2.709672   1.513687   2.189918
    10  H    0.962869   1.927614   2.793744   3.174629   4.560360
    11  H    2.105036   1.091523   2.239076   2.216622   2.938800
    12  H    3.424126   2.244446   1.085732   2.248219   3.026837
    13  H    2.706984   2.227765   1.085765   2.226497   3.602665
    14  H    3.914088   2.895976   3.393276   2.203446   1.093509
    15  H    4.616614   3.391524   3.039284   2.269165   1.095987
    16  H    5.895531   5.311966   5.424932   4.026317   3.018474
    17  H    5.099835   4.788726   4.414913   3.449863   3.486406
    18  H    4.808488   4.099794   3.258434   2.702624   2.760688
    19  H    2.799916   3.010124   3.320456   2.314413   3.161891
                    6          7          8          9         10
     6  C    0.000000
     7  O    1.383423   0.000000
     8  C    1.503136   2.532671   0.000000
     9  C    1.523364   2.602041   1.517152   0.000000
    10  H    5.018605   5.975678   5.172074   3.813653   0.000000
    11  H    4.018350   4.960963   4.673920   3.516759   2.452331
    12  H    4.096799   5.415936   4.050206   3.579411   3.576137
    13  H    4.047304   5.371083   3.571558   2.934621   2.806364
    14  H    2.191236   2.757463   3.464471   2.897513   4.704175
    15  H    2.258079   3.252064   2.892476   3.017591   5.288849
    16  H    1.918019   0.963565   2.793047   3.296920   6.822337
    17  H    2.180538   2.701002   1.085793   2.197951   5.874117
    18  H    2.273585   3.413457   1.088126   2.273141   5.450092
    19  H    2.368678   3.064221   2.290604   1.081668   3.627923
                   11         12         13         14         15
    11  H    0.000000
    12  H    2.534098   0.000000
    13  H    3.117006   1.832484   0.000000
    14  H    2.774268   3.609909   4.337677   0.000000
    15  H    3.514968   2.946126   3.890032   1.788058   0.000000
    16  H    5.687279   5.872729   5.940263   3.266909   3.404339
    17  H    5.623216   5.088418   4.400560   4.337334   3.887416
    18  H    4.862117   3.651056   3.331950   3.833704   2.752350
    19  H    3.925863   4.321722   3.330079   3.679406   4.069416
                   16         17         18         19
    16  H    0.000000
    17  H    2.839128   0.000000
    18  H    3.507608   1.833572   0.000000
    19  H    3.854973   2.561718   3.131263   0.000000
 Stoichiometry    C7H10O2
 Framework group  C1[X(C7H10O2)]
 Deg. of freedom    51
 Full point group                 C1      NOp   1
 Largest Abelian subgroup         C1      NOp   1
 Largest concise Abelian subgroup C1      NOp   1
                         Standard orientation:                         
 ---------------------------------------------------------------------
 Center     Atomic      Atomic             Coordinates (Angstroms)
 Number     Number       Type             X           Y           Z
 ---------------------------------------------------------------------
      1          8           0        2.375749   -1.221666   -0.354097
      2          6           0        1.904205   -0.207190    0.485459
      3          6           0        1.739041    1.197062   -0.060082
      4          6           0        0.540520    0.311847    0.190040
      5          6           0       -0.615472    0.497526    1.197249
      6          6           0       -1.562904   -0.060037    0.120142
      7          8           0       -2.593865   -0.943772    0.384701
      8          6           0       -1.489884    0.743018   -1.148396
      9          6           0       -0.401280   -0.268644   -0.843057
     10          1           0        3.313092   -1.066661   -0.510555
     11          1           0        2.190280   -0.309317    1.533864
     12          1           0        1.924617    2.033908    0.606300
     13          1           0        2.027767    1.358829   -1.094178
     14          1           0       -0.532532   -0.181736    2.050177
     15          1           0       -0.815024    1.513492    1.556665
     16          1           0       -3.402787   -0.435620    0.510738
     17          1           0       -2.193896    0.422813   -1.910486
     18          1           0       -1.273252    1.809337   -1.141099
     19          1           0       -0.178692   -1.103037   -1.494400
 ---------------------------------------------------------------------
 Rotational constants (GHZ):      3.3766807      1.1123640      1.0788310
 1\1\GINC-ALCHEMY-MN\FOpt\RB3LYP\6-31G(2df,p)\C7H10O2\PUCK\28-Jan-2020\
 0\\# b3lyp 6-31G(2df,p) opt Freq\\titel\\0,1\O,-0.6432846449,1.0201367
 457,0.4536575337\C,-1.8156669959,0.2962652612,0.6942763213\C,-3.070945
 1706,1.0290704269,1.1233376654\C,-2.9230414612,0.4924051135,-0.2812029
 617\C,-3.7336341038,-0.6128067193,-0.9930385151\C,-3.6467906433,0.2337
 442293,-2.2754090569\O,-3.4175770699,-0.2954033679,-3.5329158848\C,-4.
 2114933285,1.6110642204,-2.066799001\C,-2.8167899423,1.2929871542,-1.5
 614480145\H,-0.2978650627,1.3174658999,1.3018307314\H,-1.6609317282,-0
 .7099175377,1.0880718996\H,-3.7493525954,0.5310422418,1.8093008947\H,-
 2.9913016568,2.1040636525,1.2534589607\H,-3.167750081,-1.5437829046,-1
 .0869518738\H,-4.7366203336,-0.8314263547,-0.6090952273\H,-4.269286965
 ,-0.4427972737,-3.9587356616\H,-4.2310022313,2.2173416822,-2.967350875
 7\H,-5.0246085004,1.7983945655,-1.368394833\H,-1.9378550952,1.82885980
 48,-1.8935932314\\Version=ES64L-G09RevD.01\State=1-A\HF=-423.124416\RM
 SD=3.074e-09\RMSF=1.947e-05\Dipole=-0.5758573,0.03621,0.53009\Quadrupo
 le=-0.5704412,-1.3126209,1.8830621,1.6181625,5.3309944,0.0347445\PG=C0
 1 [X(C7H10O2)]\\@


 A warm smile is the universal language of kindness.
                             -- William Arthur Ward
 Job cpu time:       0 days  0 hours  7 minutes  7.4 seconds.
 File lengths (MBytes):  RWF=     52 Int=      0 D2E=      0 Chk=      7 Scr=      1
 Normal termination of Gaussian 09 at Tue Jan 28 01:53:17 2020.
 Link1:  Proceeding to internal job step number  2.
 ----------------------------------------------------------------------
 #N Geom=AllCheck Guess=TCheck SCRF=Check GenChk RB3LYP/6-31G(2df,p) Fr
 eq
 ----------------------------------------------------------------------
 1/10=4,29=7,30=1,38=1,40=1/1,3;
 2/12=2,40=1/2;
 3/5=1,6=6,7=104,11=2,14=-4,16=1,25=1,30=1,70=2,71=2,74=-5,116=1,140=1/1,2,3;
 4/5=101/1;
 5/5=2,98=1/2;
 8/6=4,10=90,11=11/1;
 11/6=1,8=1,9=11,15=111,16=1/1,2,10;
 10/6=1/2;
 6/7=2,8=2,9=2,10=2,18=1,28=1/1;
 7/8=1,10=1,25=1/1,2,3,16;
 1/10=4,30=1/3;
 99//99;
 Structure from the checkpoint file:  "/scratch/puck/g09_9f5f80f7-3ba8-416c-af4c-8cb91251e510/Gau-190727.chk"
 -----
 titel
 -----
 Charge =  0 Multiplicity = 1
 Redundant internal coordinates found in file.
 O,0,-0.6432846449,1.0201367457,0.4536575337
 C,0,-1.8156669959,0.2962652612,0.6942763213
 C,0,-3.0709451706,1.0290704269,1.1233376654
 C,0,-2.9230414612,0.4924051135,-0.2812029617
 C,0,-3.7336341038,-0.6128067193,-0.9930385151
 C,0,-3.6467906433,0.2337442293,-2.2754090569
 O,0,-3.4175770699,-0.2954033679,-3.5329158848
 C,0,-4.2114933285,1.6110642204,-2.066799001
 C,0,-2.8167899423,1.2929871542,-1.5614480145
 H,0,-0.2978650627,1.3174658999,1.3018307314
 H,0,-1.6609317282,-0.7099175377,1.0880718996
 H,0,-3.7493525954,0.5310422418,1.8093008947
 H,0,-2.9913016568,2.1040636525,1.2534589607
 H,0,-3.167750081,-1.5437829046,-1.0869518738
 H,0,-4.7366203336,-0.8314263547,-0.6090952273
 H,0,-4.269286965,-0.4427972737,-3.9587356616
 H,0,-4.2310022313,2.2173416822,-2.9673508757
 H,0,-5.0246085004,1.7983945655,-1.368394833
 H,0,-1.9378550952,1.8288598048,-1.8935932314
 Recover connectivity data from disk.

 GradGradGradGradGradGradGradGradGradGradGradGradGradGradGradGradGradGrad
 Berny optimization.
 Initialization pass.
                           ----------------------------
                           !    Initial Parameters    !
                           ! (Angstroms and Degrees)  !
 --------------------------                            --------------------------
 ! Name  Definition              Value          Derivative Info.                !
 --------------------------------------------------------------------------------
 ! R1    R(1,2)                  1.3987         calculate D2E/DX2 analytically  !
 ! R2    R(1,10)                 0.9629         calculate D2E/DX2 analytically  !
 ! R3    R(2,3)                  1.5155         calculate D2E/DX2 analytically  !
 ! R4    R(2,4)                  1.4887         calculate D2E/DX2 analytically  !
 ! R5    R(2,11)                 1.0915         calculate D2E/DX2 analytically  !
 ! R6    R(3,4)                  1.5108         calculate D2E/DX2 analytically  !
 ! R7    R(3,12)                 1.0857         calculate D2E/DX2 analytically  !
 ! R8    R(3,13)                 1.0858         calculate D2E/DX2 analytically  !
 ! R9    R(4,5)                  1.5444         calculate D2E/DX2 analytically  !
 ! R10   R(4,9)                  1.5137         calculate D2E/DX2 analytically  !
 ! R11   R(5,6)                  1.539          calculate D2E/DX2 analytically  !
 ! R12   R(5,14)                 1.0935         calculate D2E/DX2 analytically  !
 ! R13   R(5,15)                 1.096          calculate D2E/DX2 analytically  !
 ! R14   R(6,7)                  1.3834         calculate D2E/DX2 analytically  !
 ! R15   R(6,8)                  1.5031         calculate D2E/DX2 analytically  !
 ! R16   R(6,9)                  1.5234         calculate D2E/DX2 analytically  !
 ! R17   R(7,16)                 0.9636         calculate D2E/DX2 analytically  !
 ! R18   R(8,9)                  1.5172         calculate D2E/DX2 analytically  !
 ! R19   R(8,17)                 1.0858         calculate D2E/DX2 analytically  !
 ! R20   R(8,18)                 1.0881         calculate D2E/DX2 analytically  !
 ! R21   R(9,19)                 1.0817         calculate D2E/DX2 analytically  !
 ! A1    A(2,1,10)             107.9969         calculate D2E/DX2 analytically  !
 ! A2    A(1,2,3)              119.5194         calculate D2E/DX2 analytically  !
 ! A3    A(1,2,4)              116.2683         calculate D2E/DX2 analytically  !
 ! A4    A(1,2,11)             114.8541         calculate D2E/DX2 analytically  !
 ! A5    A(3,2,11)             117.452          calculate D2E/DX2 analytically  !
 ! A6    A(4,2,11)             117.5998         calculate D2E/DX2 analytically  !
 ! A7    A(2,3,12)             118.3341         calculate D2E/DX2 analytically  !
 ! A8    A(2,3,13)             116.8661         calculate D2E/DX2 analytically  !
 ! A9    A(4,3,12)             119.0505         calculate D2E/DX2 analytically  !
 ! A10   A(4,3,13)             117.124          calculate D2E/DX2 analytically  !
 ! A11   A(12,3,13)            115.1044         calculate D2E/DX2 analytically  !
 ! A12   A(2,4,5)              126.7359         calculate D2E/DX2 analytically  !
 ! A13   A(2,4,9)              124.8661         calculate D2E/DX2 analytically  !
 ! A14   A(3,4,5)              129.1455         calculate D2E/DX2 analytically  !
 ! A15   A(3,4,9)              127.2488         calculate D2E/DX2 analytically  !
 ! A16   A(5,4,9)               91.4613         calculate D2E/DX2 analytically  !
 ! A17   A(4,5,6)               87.7534         calculate D2E/DX2 analytically  !
 ! A18   A(4,5,14)             112.1619         calculate D2E/DX2 analytically  !
 ! A19   A(4,5,15)             117.49           calculate D2E/DX2 analytically  !
 ! A20   A(6,5,14)             111.5636         calculate D2E/DX2 analytically  !
 ! A21   A(6,5,15)             116.9525         calculate D2E/DX2 analytically  !
 ! A22   A(14,5,15)            109.5022         calculate D2E/DX2 analytically  !
 ! A23   A(5,6,7)              123.8035         calculate D2E/DX2 analytically  !
 ! A24   A(5,6,8)              111.5413         calculate D2E/DX2 analytically  !
 ! A25   A(5,6,9)               91.3007         calculate D2E/DX2 analytically  !
 ! A26   A(7,6,8)              122.6069         calculate D2E/DX2 analytically  !
 ! A27   A(7,6,9)              126.9918         calculate D2E/DX2 analytically  !
 ! A28   A(6,7,16)             108.2857         calculate D2E/DX2 analytically  !
 ! A29   A(6,8,17)             113.7834         calculate D2E/DX2 analytically  !
 ! A30   A(6,8,18)             121.8407         calculate D2E/DX2 analytically  !
 ! A31   A(9,8,17)             114.1952         calculate D2E/DX2 analytically  !
 ! A32   A(9,8,18)             120.6141         calculate D2E/DX2 analytically  !
 ! A33   A(17,8,18)            115.0106         calculate D2E/DX2 analytically  !
 ! A34   A(4,9,6)               89.4495         calculate D2E/DX2 analytically  !
 ! A35   A(4,9,8)              109.1522         calculate D2E/DX2 analytically  !
 ! A36   A(4,9,19)             125.3641         calculate D2E/DX2 analytically  !
 ! A37   A(6,9,19)             130.0376         calculate D2E/DX2 analytically  !
 ! A38   A(8,9,19)             122.7411         calculate D2E/DX2 analytically  !
 ! D1    D(10,1,2,3)            72.142          calculate D2E/DX2 analytically  !
 ! D2    D(10,1,2,4)           141.4094         calculate D2E/DX2 analytically  !
 ! D3    D(10,1,2,11)          -75.6514         calculate D2E/DX2 analytically  !
 ! D4    D(1,2,3,12)          -146.1309         calculate D2E/DX2 analytically  !
 ! D5    D(1,2,3,13)            -1.692          calculate D2E/DX2 analytically  !
 ! D6    D(11,2,3,12)            0.8461         calculate D2E/DX2 analytically  !
 ! D7    D(11,2,3,13)          145.2849         calculate D2E/DX2 analytically  !
 ! D8    D(1,2,4,5)            130.4528         calculate D2E/DX2 analytically  !
 ! D9    D(1,2,4,9)              6.4808         calculate D2E/DX2 analytically  !
 ! D10   D(11,2,4,5)           -11.4453         calculate D2E/DX2 analytically  !
 ! D11   D(11,2,4,9)          -135.4173         calculate D2E/DX2 analytically  !
 ! D12   D(12,3,4,5)             7.8989         calculate D2E/DX2 analytically  !
 ! D13   D(12,3,4,9)           139.2184         calculate D2E/DX2 analytically  !
 ! D14   D(13,3,4,5)          -138.183          calculate D2E/DX2 analytically  !
 ! D15   D(13,3,4,9)            -6.8635         calculate D2E/DX2 analytically  !
 ! D16   D(2,4,5,6)           -138.5167         calculate D2E/DX2 analytically  !
 ! D17   D(2,4,5,14)           -26.1101         calculate D2E/DX2 analytically  !
 ! D18   D(2,4,5,15)           102.0821         calculate D2E/DX2 analytically  !
 ! D19   D(3,4,5,6)            141.8587         calculate D2E/DX2 analytically  !
 ! D20   D(3,4,5,14)          -105.7346         calculate D2E/DX2 analytically  !
 ! D21   D(3,4,5,15)            22.4576         calculate D2E/DX2 analytically  !
 ! D22   D(9,4,5,6)             -1.4122         calculate D2E/DX2 analytically  !
 ! D23   D(9,4,5,14)           110.9945         calculate D2E/DX2 analytically  !
 ! D24   D(9,4,5,15)          -120.8133         calculate D2E/DX2 analytically  !
 ! D25   D(2,4,9,6)            139.7566         calculate D2E/DX2 analytically  !
 ! D26   D(2,4,9,8)           -163.2352         calculate D2E/DX2 analytically  !
 ! D27   D(2,4,9,19)            -1.6925         calculate D2E/DX2 analytically  !
 ! D28   D(3,4,9,6)           -142.9368         calculate D2E/DX2 analytically  !
 ! D29   D(3,4,9,8)            -85.9287         calculate D2E/DX2 analytically  !
 ! D30   D(3,4,9,19)            75.614          calculate D2E/DX2 analytically  !
 ! D31   D(5,4,9,6)              1.4257         calculate D2E/DX2 analytically  !
 ! D32   D(5,4,9,8)             58.4338         calculate D2E/DX2 analytically  !
 ! D33   D(5,4,9,19)          -140.0235         calculate D2E/DX2 analytically  !
 ! D34   D(4,5,6,7)            139.092          calculate D2E/DX2 analytically  !
 ! D35   D(4,5,6,8)            -56.8602         calculate D2E/DX2 analytically  !
 ! D36   D(4,5,6,9)              1.4031         calculate D2E/DX2 analytically  !
 ! D37   D(14,5,6,7)            26.1112         calculate D2E/DX2 analytically  !
 ! D38   D(14,5,6,8)          -169.8409         calculate D2E/DX2 analytically  !
 ! D39   D(14,5,6,9)          -111.5777         calculate D2E/DX2 analytically  !
 ! D40   D(15,5,6,7)          -101.021          calculate D2E/DX2 analytically  !
 ! D41   D(15,5,6,8)            63.0269         calculate D2E/DX2 analytically  !
 ! D42   D(15,5,6,9)           121.2901         calculate D2E/DX2 analytically  !
 ! D43   D(5,6,7,16)            94.3357         calculate D2E/DX2 analytically  !
 ! D44   D(8,6,7,16)           -67.9983         calculate D2E/DX2 analytically  !
 ! D45   D(9,6,7,16)          -143.0774         calculate D2E/DX2 analytically  !
 ! D46   D(5,6,8,17)          -176.0287         calculate D2E/DX2 analytically  !
 ! D47   D(5,6,8,18)           -31.1889         calculate D2E/DX2 analytically  !
 ! D48   D(7,6,8,17)           -11.7587         calculate D2E/DX2 analytically  !
[...]
 .05931919,0.00743739,0.01846308,0.29803507,-0.00030055,-0.00057731,-0.
 00077942,-0.00098189,-0.00331533,-0.00147446,-0.00178597,-0.00106725,0
 .00073923,-0.01060829,0.00265671,-0.01202916,0.01295427,-0.10353089,0.
 05705897,-0.00158226,0.52496791,0.00148340,0.00090288,0.00030011,-0.00
 222080,-0.00258368,-0.00192655,-0.00089460,0.00240637,-0.00463677,-0.0
 1323377,-0.01712556,-0.06998026,0.01015940,0.05062442,-0.12844238,-0.0
 0452027,0.07907428,0.60233768,0.00017306,0.00021389,0.00021609,0.00023
 994,0.00008633,-0.00017230,-0.00000087,0.00049804,-0.00184774,0.001659
 29,-0.00294748,-0.00289862,0.00016585,0.00466624,-0.00075602,-0.091332
 83,0.00043152,0.01245600,0.49423790,-0.00021651,0.00033204,0.00008880,
 0.00025914,0.00048200,0.00021936,0.00056783,0.00120844,-0.00031221,0.0
 0098628,-0.00189463,0.00263964,-0.00118589,0.01274651,0.00552453,0.020
 32689,-0.09449107,-0.07210971,0.03364043,0.10789314,-0.00172113,-0.000
 50706,-0.00045230,0.00155940,-0.00076371,0.00044230,-0.00058273,-0.000
 20202,-0.00132600,0.00062000,-0.00028436,-0.00395645,0.00671604,-0.016
 08601,-0.02425844,0.05213876,-0.07426578,-0.24586058,0.13991638,0.1458
 9066,0.41158433,0.00034192,0.00007651,-0.00026428,0.00054038,-0.000262
 36,0.00205504,0.00056789,-0.00134270,0.00105881,-0.00078816,0.00407064
 ,-0.00479243,0.00102990,-0.00613155,0.00335577,-0.04548722,0.08963222,
 0.02992285,-0.00324754,0.00724088,0.00435757,0.48733916,0.00029325,0.0
 0066857,-0.00064769,-0.00168329,-0.00399403,-0.00023975,-0.00176095,0.
 00154795,-0.00099549,0.01433643,-0.00659189,0.00245223,0.01606477,-0.0
 1687002,0.00278738,0.04393678,-0.18316585,-0.01640814,0.00325263,-0.01
 178070,-0.00535869,-0.14384307,0.41984814,-0.00007612,-0.00074676,0.00
 096647,0.00217471,0.00662171,-0.00188302,-0.00096843,-0.00262007,0.004
 48093,-0.02765325,0.02090375,-0.01172244,-0.01658796,0.01785911,0.0025
 7906,0.01283954,-0.00620937,-0.07053165,0.02261271,-0.02948732,-0.0098
 5710,-0.12385447,-0.13123937,0.56905460,0.00163632,0.00002084,0.004149
 75,0.00505241,0.02268056,-0.02326179,-0.00407342,-0.01147540,0.0057085
 6,-0.07456281,-0.00639440,0.01332356,-0.01268170,-0.02860737,0.0066646
 7,-0.09320773,-0.09585963,-0.03439942,0.01352925,0.00698951,-0.0035712
 8,-0.19043427,0.04237959,-0.01816283,0.60929708,-0.00292294,0.00008724
 ,-0.00140628,0.00187051,-0.00792812,0.00841349,0.00390977,0.01104849,-
 0.01196604,-0.00703867,-0.09326567,0.07015525,-0.04561617,-0.04755721,
 0.02226583,-0.05023944,-0.09606206,-0.04105242,0.00149545,-0.00464230,
 -0.00768252,-0.00207162,-0.03246030,0.01878186,0.19978615,0.38555206,0
 .00116063,0.00200430,0.00023407,-0.00292544,0.00030052,-0.01163240,0.0
 0003253,0.00956031,-0.02070130,0.01776294,0.07953292,-0.14820647,0.010
 26835,0.00960337,-0.00642908,-0.00998884,-0.05797228,-0.06473684,-0.02
 037866,-0.00771267,-0.01441561,-0.04810127,0.04067578,-0.06574693,-0.0
 1867695,-0.11831970,0.41312177,-0.08032778,-0.06024436,-0.11545496,-0.
 02305825,-0.01516145,-0.03464897,0.00263350,0.00253125,-0.00118988,-0.
 00391213,-0.00602097,0.00097035,-0.00176132,0.00091170,0.00027007,-0.0
 0036482,-0.00037882,0.00003890,0.00010915,0.00014274,0.00012386,-0.000
 01076,-0.00001849,0.00003105,0.00089608,-0.00029614,0.00064234,0.10480
 976,-0.06524965,-0.05486450,-0.11466283,-0.01302714,-0.01016538,-0.021
 05238,-0.00031432,0.00301744,0.00140319,0.00102073,-0.00231482,0.00337
 054,-0.00025673,0.00014248,-0.00016418,0.00008509,-0.00005388,-0.00006
 481,0.00000411,-0.00003272,-0.00003028,0.00001180,0.00000278,0.0001424
 4,0.00035027,0.00005740,-0.00008142,0.07783231,0.06486719,-0.16012903,
 -0.14064677,-0.41762622,0.00916756,0.00607596,0.00650476,-0.00038347,0
 .00183881,-0.00022936,0.00101004,0.00009708,0.00181025,0.00012003,-0.0
 0014378,0.00029127,-0.00000501,0.00008924,0.00007761,0.00000655,-0.000
 01280,0.00000618,-0.00004118,-0.00004450,0.00006444,0.00028000,-0.0002
 1684,0.00014840,0.14899080,0.13234401,0.40870273,-0.00586867,-0.035367
 53,0.01349379,-0.05513165,0.04245403,-0.01893474,-0.00326253,0.0150256
 6,-0.00601867,-0.00332604,0.01229127,-0.00454884,0.00163915,0.00042326
 ,0.00044192,0.00039231,0.00023011,0.00023243,-0.00000874,-0.00008240,-
 0.00021628,0.00004459,0.00059183,-0.00082286,-0.00217336,0.00071897,0.
 00100883,0.00096598,-0.00025414,0.00109205,0.06784114,-0.01153453,-0.0
 1552746,0.00610728,0.04210124,-0.26931561,0.08971079,0.00298711,-0.010
 41065,0.00674264,0.00232629,0.00190799,-0.00408165,0.00036204,0.001173
 06,0.00017120,-0.00002097,0.00023002,-0.00003118,-0.00000621,0.0001090
 1,0.00011066,-0.00006918,0.00026042,-0.00047651,-0.00123772,0.00020179
 ,-0.00056766,-0.00008784,-0.00053747,0.00090617,-0.03623794,0.29048444
 ,0.00387765,0.00622602,0.00127680,-0.01762668,0.08908016,-0.07594660,0
 .00093493,-0.01899146,0.00547232,-0.00346756,0.02378581,-0.00997309,0.
 00271664,-0.00020643,0.00235835,0.00075927,0.00079126,0.00094889,-0.00
 002436,-0.00028565,0.00000970,0.00032846,0.00109048,-0.00153160,-0.004
 41147,0.00134476,0.00081933,0.00010702,-0.00086790,-0.00040361,0.01556
 539,-0.09955816,0.07643108,-0.00615822,0.00241610,0.00403299,-0.010324
 96,-0.01715214,0.01392996,-0.15025115,-0.08504705,0.11673854,0.0041421
 4,0.01052060,-0.00445933,0.00063555,0.00033905,0.00090179,0.00053124,0
 .00075403,-0.00067678,-0.00026949,-0.00026932,0.00001746,0.00018399,0.
 00001823,0.00040219,0.00051189,-0.00164846,-0.00248460,0.00103485,-0.0
 0005864,0.00047934,0.00180231,-0.00067476,-0.00194340,0.15853997,0.001
 20449,0.00038490,-0.00215592,0.00762725,0.00435706,-0.00862917,-0.0866
 1867,-0.11386822,0.08399796,0.00538672,0.00054623,-0.00547344,-0.00020
 094,0.00163412,-0.00026651,-0.00017521,-0.00003562,-0.00009525,0.00013
 220,0.00005764,-0.00005798,-0.00026532,0.00013741,0.00012299,0.0010763
 0,-0.00015601,-0.00001287,-0.00010924,-0.00025839,0.00020370,0.0002020
 1,0.00117269,0.00115783,0.08964288,0.11467562,-0.00390469,0.00080775,0
 .00171082,-0.00214231,-0.00741197,-0.00115812,0.11706174,0.08413383,-0
 .15346485,0.01740910,0.01534360,-0.01423803,-0.00103670,0.00172951,0.0
 0251892,0.00062774,0.00086597,-0.00030397,-0.00039040,-0.00042520,-0.0
 0023230,0.00037793,0.00022841,0.00065017,0.00265362,-0.00368379,-0.001
 36323,0.00029143,0.00004009,0.00026935,0.00131506,-0.00045180,0.000305
 31,-0.12640405,-0.08772543,0.16297837,0.00467873,-0.00294210,-0.002918
 56,0.00336776,0.03070609,0.00357245,-0.04179144,-0.02699922,0.00435189
 ,-0.00543754,-0.00964748,0.00243027,0.00106443,-0.00028935,-0.00167409
 ,-0.00018355,-0.00054483,0.00037525,0.00010276,0.00033017,-0.00019939,
 -0.00010258,0.00013737,-0.00014822,0.00084348,0.00130551,0.00082260,-0
 .00110501,-0.00007267,-0.00071995,-0.00276542,0.00162374,0.00361651,-0
 .00004072,-0.01784947,-0.00425261,0.04136595,-0.00103599,0.00291001,0.
 00169550,-0.00358996,-0.01149988,-0.00179182,-0.02481220,-0.32892918,-
 0.03121627,0.00215069,-0.00340528,-0.00047195,0.00082416,0.00024285,0.
 00090718,0.00012741,-0.00005357,0.00042718,-0.00000489,0.00008054,-0.0
 0005918,0.00004654,0.00035201,-0.00062827,-0.00011606,0.00087370,0.000
 43485,0.00086464,-0.00010500,-0.00028802,0.00058995,-0.00005676,-0.001
 88020,0.00117664,-0.00871690,-0.00261856,0.02426262,0.34829329,0.00157
 098,-0.00076306,0.00012051,0.00064929,0.00563622,-0.00537315,0.0052675
 7,-0.02989260,-0.04279833,-0.00118224,-0.03068800,-0.00294664,0.004580
 11,-0.00191450,-0.00146757,-0.00027318,-0.00043117,0.00100446,0.000180
 52,0.00048599,-0.00018987,-0.00044078,0.00063380,-0.00090089,-0.001698
 04,0.00168124,0.00260078,0.00021433,0.00005347,0.00020789,-0.00196662,
 0.00073731,0.00090846,-0.00068053,0.01885936,0.00344676,-0.00494579,0.
 03604708,0.04646777,0.00010790,0.00020034,0.00021965,0.00198495,0.0002
 5356,0.00099337,-0.00026327,-0.00241258,0.00005007,0.00678733,-0.01640
 609,-0.00221416,-0.12180949,0.11957025,0.01531328,-0.00142622,0.001505
 99,0.00022342,0.00058812,-0.00079310,-0.00041802,0.00010500,0.00026034
 ,-0.00070308,-0.00117422,-0.00003057,-0.00153454,0.00012831,-0.0000635
 9,0.00000833,0.00009900,0.00059180,-0.00005193,-0.00007759,0.00016440,
 -0.00001826,0.00002423,-0.00016656,-0.00083921,0.12904545,-0.00025246,
 0.00017216,0.00025637,0.00110544,0.00266854,0.00118547,-0.00018729,-0.
 00198566,0.00164547,0.00618306,-0.01756525,-0.00265201,0.11980527,-0.2
 3439496,-0.01618333,0.00895413,-0.01306841,-0.00358956,-0.00064537,0.0
 0216919,-0.00011318,-0.00086356,0.00039464,0.00274727,-0.00168612,0.00
 015372,-0.00210635,0.00012179,0.00002653,-0.00000369,-0.00063063,0.000
 13418,-0.00131314,0.00000087,0.00009163,-0.00000974,-0.00028933,0.0000
 0264,-0.00076600,-0.12755547,0.25556297,0.00003295,0.00048046,0.000009
 81,0.00105076,0.00052858,0.00244807,-0.00099282,-0.00277811,0.00040271
 ,0.00996472,-0.01675975,-0.00282744,0.01564577,-0.01913884,-0.04659148
 ,-0.01755710,0.02739260,0.00414573,0.00031857,-0.00264922,0.00321841,0
 .00048685,0.00267356,-0.00593036,-0.00085166,-0.00294990,-0.00094200,0
 .00013366,-0.00009915,-0.00004794,-0.00020187,0.00074036,-0.00044062,0
 .00008098,0.00012904,0.00022358,-0.00036842,-0.00013287,-0.00100397,-0
 .01342014,0.02011256,0.04653832,-0.00028184,-0.00038575,-0.00089097,0.
 00006156,-0.00138541,0.00183784,0.00139846,0.00027419,0.00004684,-0.01
 076458,0.00231743,0.00462561,-0.26544086,-0.04047132,0.07885236,0.0029
 0060,-0.00213065,-0.00112648,-0.00020542,0.00003545,0.00026971,0.00155
 568,-0.00105686,0.00006404,0.00006687,0.00067475,0.00176704,-0.0002177
 6,-0.00004722,0.00001357,-0.00008262,0.00004252,0.00003769,-0.00005581
 ,-0.00024060,-0.00099797,0.00021325,-0.00000717,-0.00015418,-0.0144376
 3,-0.00389657,0.00555452,0.28483259,-0.00046259,-0.00015735,-0.0008327
 2,-0.00028149,-0.00151756,0.00204264,0.00110952,0.00181326,0.00102848,
 -0.01600760,-0.00117738,0.00683119,-0.04130509,-0.05546835,0.01319572,
 -0.01245258,-0.00592519,0.00360654,-0.00039265,0.00025174,0.00110347,-
 0.00092442,0.00213115,0.00031021,-0.00301165,-0.00351292,0.00278566,-0
 .00023803,0.00000363,0.00001902,-0.00000869,0.00007106,-0.00020898,0.0
 0005906,0.00008756,-0.00073823,0.00013283,0.00000802,0.00023685,0.0248
 2994,0.00638203,-0.00943252,0.04800045,0.05890526,-0.00076088,-0.00052
 149,-0.00100751,-0.00084640,-0.00224943,0.00122685,0.00088054,0.001286
 72,0.00169798,-0.01676476,0.00095939,0.00394251,0.08063010,0.01453399,
 -0.08031384,0.02419264,0.00244008,-0.00306587,0.00027531,0.00047406,-0
 .00338347,-0.00043268,-0.00272402,0.00150264,0.00162655,0.00279843,-0.
 00172754,-0.00041774,-0.00003704,-0.00003158,0.00004212,0.00007163,0.0
 0006391,0.00046031,0.00029386,-0.00034901,0.00012873,-0.00005533,0.000
 08968,0.00183184,0.00070376,-0.00012238,-0.09033455,-0.01916186,0.0800
 4018,-0.00001182,0.00001158,0.00003551,0.00002168,0.00009767,-0.000006
 36,0.00001995,0.00005853,0.00013475,0.00030831,0.00005723,-0.00055223,
 -0.00077542,0.00005316,0.00087086,0.00696303,0.00332622,0.00812221,-0.
 41796561,-0.06570712,-0.19794745,0.00044387,-0.00113681,0.00057245,0.0
 0236276,0.00190749,0.00203264,0.00001936,-0.00000392,-0.00000340,-0.00
 003120,0.00001066,-0.00002388,-0.00002260,-0.00000238,-0.00002829,0.00
 000337,-0.00000733,-0.00000374,-0.00004420,0.00001943,-0.00009839,-0.0
 0016202,-0.00002341,0.00026915,0.40846059,-0.00006714,-0.00002316,-0.0
 0003417,0.00005466,-0.00019810,0.00011166,0.00013745,0.00032645,-0.000
 33716,0.00037231,-0.00093137,-0.00054726,-0.00007654,0.00044138,0.0005
 1698,-0.01664264,-0.00686316,-0.01183089,-0.04427857,-0.01558047,-0.03
 815015,-0.00178157,0.00141583,0.00181548,0.00032310,-0.00056711,-0.004
 26714,-0.00001119,0.00001168,-0.00000611,0.00002675,0.00000291,0.00003
 432,-0.00007572,0.00000009,-0.00013732,0.00000974,0.00000764,0.0000409
 4,0.00025750,0.00000826,0.00005994,-0.00002255,0.00028211,0.00005816,0
 .06141765,0.02217806,0.00013329,0.00012778,0.00013652,-0.00000641,0.00
 006866,-0.00026589,-0.00010846,0.00010694,-0.00033880,0.00062691,-0.00
 066463,-0.00135827,-0.00130754,0.00006465,-0.00171963,-0.03788184,-0.0
 1253253,-0.02858793,-0.15306131,-0.04101700,-0.11270246,0.00103669,-0.
 00130626,0.00279890,0.00368793,0.00317924,-0.00150474,0.00003051,-0.00
 000877,0.00001055,-0.00001485,-0.00000129,-0.00000962,-0.00007829,0.00
 003879,-0.00005903,0.00002617,0.00001208,0.00005263,0.00011335,0.00008
 600,0.00002590,0.00002664,-0.00003377,0.00000707,0.18619556,0.05177602
 ,0.14290792,-0.00006860,-0.00019086,0.00027167,0.00082440,0.00192265,-
 0.00042424,0.00028861,-0.00064022,0.00037748,-0.00596173,0.00265203,-0
 .00041445,-0.00014987,-0.00183399,-0.00027765,-0.00209874,-0.00333191,
 -0.00025555,-0.00038308,0.00105682,0.00030875,-0.04466671,0.00721190,0
 .00751813,0.00048208,0.01885938,-0.02266707,0.00003628,0.00004138,0.00
 000802,-0.00026149,-0.00017614,-0.00059852,-0.00001250,0.00002710,-0.0
 0009237,-0.00000920,-0.00014979,-0.00025396,0.00027289,-0.00033722,0.0
 0019125,0.00030017,0.00024282,-0.00009815,0.00018169,-0.00013376,0.000
 06975,0.04731031,0.00007332,0.00002550,0.00015818,-0.00009055,0.000553
 33,-0.00057874,-0.00005914,0.00018258,0.00043021,-0.00270430,0.0000157
 2,-0.00184819,0.00419945,-0.00414831,-0.00158798,0.00199833,-0.0166085
 1,0.02934308,-0.00277345,0.00500863,-0.00050281,0.00934500,-0.12762509
 ,0.13466182,-0.00058871,0.00317503,-0.00833937,0.00000909,-0.00000066,
 0.00000904,-0.00010106,0.00007096,-0.00019695,-0.00000998,-0.00000599,
 -0.00000742,0.00009204,-0.00003603,0.00006376,0.00023583,-0.00063936,0
 .00187793,-0.00018107,0.00012620,-0.00035803,-0.00036161,-0.00132161,-
 0.00055605,-0.00944449,0.13799688,-0.00021318,-0.00022703,0.00017292,0
 .00047877,0.00135227,-0.00002088,0.00005743,-0.00015890,0.00075412,-0.
 00334714,0.00044932,-0.00105952,0.00124708,-0.00203983,-0.00013609,0.0
 0058278,-0.00759733,0.00746362,-0.00104807,0.00096621,0.00155646,0.003
 17254,0.13774038,-0.24376554,0.00164915,0.00823055,-0.01081844,0.00002
 648,0.00003199,0.00000440,-0.00023573,-0.00005947,-0.00036426,0.000015
 58,-0.00000502,-0.00000745,0.00006120,-0.00005897,-0.00007313,0.000015
 52,-0.00045523,0.00067311,-0.00013540,-0.00007670,-0.00001410,-0.00034
 765,-0.00009272,-0.00015181,0.00002168,-0.14675279,0.25637763,0.000146
 91,0.00009797,-0.00020985,0.00012768,-0.00072799,0.00078294,0.00090633
 ,0.00006730,-0.00154412,0.00145031,-0.00198467,0.00179712,0.00097099,0
 .00062271,-0.00003518,-0.00560486,0.00331926,-0.00513696,0.00151878,-0
 .00234323,-0.00067946,-0.19291625,0.03343614,0.13753524,-0.01664374,0.
 00582587,0.01646659,-0.00000929,0.00005052,-0.00003668,0.00018323,-0.0
 0005806,0.00001671,-0.00013997,-0.00004135,-0.00037739,-0.00016394,-0.
 00008537,-0.00018488,0.00006354,0.00004336,-0.00007692,-0.00004698,0.0
 0070283,-0.00049124,0.00019692,0.00027199,0.00023248,0.00227819,-0.000
 76814,-0.00280079,0.20901601,-0.00005365,-0.00001928,-0.00005198,-0.00
 014389,-0.00024103,0.00016966,0.00000972,0.00018328,0.00029012,0.00180
 725,0.00041351,0.00011815,-0.00012390,0.00230810,-0.00171382,0.0183450
 8,0.00150753,-0.01593427,0.00386040,-0.00407206,-0.00251486,0.03408864
 ,-0.05169856,-0.02436585,0.00037751,-0.00552051,0.00656056,-0.00000946
 ,0.00000648,-0.00000786,0.00002274,0.00000707,0.00003373,0.00005498,-0
 .00006224,0.00006314,-0.00007198,-0.00004507,-0.00006452,-0.00043653,0
 .00018241,-0.00024126,-0.00090921,-0.00029235,0.00074626,0.00006813,0.
 00073560,0.00027917,-0.01387264,0.00360431,0.00966392,-0.04158350,0.05
 168326,0.00026331,0.00003763,-0.00010768,-0.00004042,-0.00023544,0.000
 34820,0.00069135,-0.00062285,-0.00017960,-0.00032220,-0.00013043,0.002
 74318,-0.00099275,0.00052202,0.00082658,0.00118172,0.00522748,-0.00540
 544,0.00178410,-0.00288679,-0.00043659,0.13855117,-0.02478287,-0.16855
 724,-0.01123751,0.00045348,0.01014781,-0.00002267,0.00000996,-0.000020
 02,0.00005920,-0.00002719,0.00005251,-0.00003232,-0.00005430,0.0000065
 6,-0.00011127,-0.00002008,-0.00014812,-0.00019154,0.00002661,-0.000110
 62,0.00031104,-0.00058026,0.00040636,0.00056375,0.00065812,0.00029718,
 0.01657828,-0.00616227,-0.01165557,-0.14573663,0.02719748,0.17196926,-
 0.00014062,0.00065021,-0.00054957,-0.00012012,-0.00071811,0.00019439,-
 0.00005783,0.00026711,0.00022549,0.00429832,0.00221193,-0.00157105,0.0
 0008322,0.00074670,0.00025682,-0.00399217,0.00535120,-0.00054924,0.001
 08949,-0.00097857,-0.00069219,-0.01449890,-0.01241981,0.00522716,-0.23
 972696,-0.12648985,0.07479290,0.00013386,-0.00004817,0.00014245,-0.000
 05599,0.00005794,0.00018751,-0.00002891,0.00003984,-0.00009160,-0.0000
 6456,-0.00006735,0.00016034,0.00002589,0.00011068,0.00010728,0.0003663
 2,0.00003076,-0.00019090,0.00003135,0.00021853,0.00027942,0.00163730,0
 .00112941,0.00079977,-0.00133386,-0.00142969,-0.00129662,0.25235416,0.
 00042885,0.00023243,-0.00033148,-0.00142657,0.00032036,-0.00070088,0.0
 0000718,-0.00019602,-0.00055346,-0.00583307,-0.00627353,-0.00018546,-0
 .00452609,-0.00245034,0.00191499,-0.01196975,-0.00454409,0.01444075,0.
 00276738,0.00215507,-0.00052619,0.01304311,0.00742758,-0.00819311,-0.1
 2500676,-0.10947721,0.04792117,0.00016248,0.00019721,-0.00021266,0.000
 10582,0.00002235,-0.00003548,-0.00004637,-0.00004158,-0.00000282,0.000
 10632,0.00007698,0.00004383,-0.00000545,-0.00029527,0.00018661,-0.0006
 1042,-0.00201094,0.00074085,0.00021482,0.00007496,0.00038099,-0.001903
 07,-0.00037357,-0.00091064,0.00315436,0.00131953,0.00136969,0.13133723
 ,0.11383608,-0.00083958,-0.00075694,-0.00022065,0.00145324,0.00025637,
 0.00255912,0.00146959,0.00193994,-0.00013697,0.01835801,0.00603729,-0.
 00070152,-0.00108091,0.00242610,-0.00184965,-0.01500145,-0.00038761,0.
 00720014,0.00281123,0.00060932,0.00025380,-0.00677660,-0.00453523,-0.0
 0167042,0.07652715,0.04997336,-0.07884758,-0.00013658,-0.00032693,0.00
 026090,-0.00029031,-0.00004313,0.00002276,-0.00029985,-0.00032762,-0.0
 0093385,-0.00004678,-0.00030233,0.00000273,0.00062205,0.00042871,0.000
 33117,0.00023265,-0.00009474,0.00103814,0.00021451,0.00033133,0.000461
 53,-0.00026304,0.00034658,0.00106452,0.00047903,-0.00022778,-0.0001767
 8,-0.07743237,-0.05534668,0.07134262\\0.00002496,0.00000569,-0.0000133
 3,-0.00006936,-0.00001010,0.00001092,-0.00000572,-0.00001634,0.0000431
 8,-0.00000503,0.00002702,-0.00003701,0.00001660,-0.00001664,-0.0000069
 6,-0.00001572,-0.00002310,-0.00002498,-0.00000274,0.00001828,0.0000325
 7,-0.00002692,0.00001556,-0.00001812,0.00004718,-0.00001170,0.00003988
 ,0.00000279,0.00000449,0.00000788,0.00002908,0.00000950,-0.00000308,0.
 00000017,0.00001545,0.00000192,0.00001907,0.00000061,-0.00002109,-0.00
 000520,-0.00000541,0.00000769,0.00000204,0.00000328,-0.00000293,-0.000
 00341,-0.00000530,-0.00000221,0.00000343,-0.00000100,0.00000232,0.0000
 0434,-0.00000553,-0.00000242,-0.00001558,-0.00000478,-0.00001423\\\@


 GETTING A SIMPLE ANSWER FROM A PROFESSOR IS LIKE
 GETTING A THIMBLE OF WATER FROM A FIRE HYDRANT.
     -- PROF. LEN SHAPIRO, NDSU
 Job cpu time:       0 days  0 hours 48 minutes 52.0 seconds.
 File lengths (MBytes):  RWF=    152 Int=      0 D2E=      0 Chk=      8 Scr=      1
 Normal termination of Gaussian 09 at Tue Jan 28 02:42:13 2020.
0002496,0.00000569,-0.0000133
 3,-0.00006936,-0.00001010,0.00001092,-0.00000572,-0.00001634,0.0000431
 8,-0.00000503,0.00002702,-0.00003701,0.00001660,-0.00001664,-0.0000069
 6,-0.00001572,-0.00002310,-0.00002498,-0.00000274,0.00001828,0.0000325
 7,-0.00002692,0.00001556,-0.00001812,0.00004718,-0.00001170,0.00003988
 ,0.00000279,0.00000449,0.00000788,0.00002908,0.00000950,-0.00000308,0.
 00000017,0.00001545,0.00000192,0.00001907,0.00000061,-0.00002109,-0.00
 000520,-0.00000541,0.00000769,0.00000204,0.00000328,-0.00000293,-0.000
 00341,-0.00000530,-0.00000221,0.00000343,-0.00000100,0.00000232,0.0000
 0434,-0.00000553,-0.00000242,-0.00001558,-0.00000478,-0.00001423\\\@


 AN OPTIMIST IS A GUY
 THAT HAS NEVER HAD
 MUCH EXPERIENCE
   (CERTAIN MAXIMS OF ARCHY  -- DON MARQUIS)
 Job cpu time:       0 days  0 hours 46 minutes  1.2 seconds.
 File lengths (MBytes):  RWF=    152 Int=      0 D2E=      0 Chk=      8 Scr=      1
 Normal termination of Gaussian 09 at Tue Jan 28 01:46:49 2020.
