 Entering Gaussian System, Link 0=/home/puck/opt/gaussian_09/g09
 Input=dsC7O2H10nsd_4532.com
 Output=dsC7O2H10nsd_4532.log
 Initial command:
 /home/puck/opt/gaussian_09/l1.exe "/scratch/puck/g09_9edbc848-799a-4688-8aef-383126829454/Gau-14504.inp" -scrdir="/scratch/puck/g09_9edbc848-799a-4688-8aef-383126829454/"
 Entering Link 1 = /home/puck/opt/gaussian_09/l1.exe PID=     14505.
  
 Copyright (c) 1988,1990,1992,1993,1995,1998,2003,2009,2013,
            Gaussian, Inc.  All Rights Reserved.
  
 This is part of the Gaussian(R) 09 program.  It is based on
 the Gaussian(R) 03 system (copyright 2003, Gaussian, Inc.),
 the Gaussian(R) 98 system (copyright 1998, Gaussian, Inc.),
 the Gaussian(R) 94 system (copyright 1995, Gaussian, Inc.),
 the Gaussian 92(TM) system (copyright 1992, Gaussian, Inc.),
 the Gaussian 90(TM) system (copyright 1990, Gaussian, Inc.),
 the Gaussian 88(TM) system (copyright 1988, Gaussian, Inc.),
 the Gaussian 86(TM) system (copyright 1986, Carnegie Mellon
 University), and the Gaussian 82(TM) system (copyright 1983,
 Carnegie Mellon University). Gaussian is a federally registered
 trademark of Gaussian, Inc.
  
 This software contains proprietary and confidential information,
 including trade secrets, belonging to Gaussian, Inc.
  
 This software is provided under written license and may be
 used, copied, transmitted, or stored only in accord with that
 written license.
  
 The following legend is applicable only to US Government
 contracts under FAR:
  
                    RESTRICTED RIGHTS LEGEND
  
 Use, reproduction and disclosure by the US Government is
 subject to restrictions as set forth in subparagraphs (a)
 and (c) of the Commercial Computer Software - Restricted
 Rights clause in FAR 52.227-19.
  
 Gaussian, Inc.
 340 Quinnipiac St., Bldg. 40, Wallingford CT 06492
  
  
 ---------------------------------------------------------------
 Warning -- This program may not be used in any manner that
 competes with the business of Gaussian, Inc. or will provide
 assistance to any competitor of Gaussian, Inc.  The licensee
 of this program is prohibited from giving any competitor of
 Gaussian, Inc. access to this program.  By using this program,
 the user acknowledges that Gaussian, Inc. is engaged in the
 business of creating and licensing software in the field of
 computational chemistry and represents and warrants to the
 licensee that it is not a competitor of Gaussian, Inc. and that
 it will not use this program in any manner prohibited above.
 ---------------------------------------------------------------
  

 Cite this work as:
 Gaussian 09, Revision D.01,
 M. J. Frisch, G. W. Trucks, H. B. Schlegel, G. E. Scuseria, 
 M. A. Robb, J. R. Cheeseman, G. Scalmani, V. Barone, B. Mennucci, 
 G. A. Petersson, H. Nakatsuji, M. Caricato, X. Li, H. P. Hratchian, 
 A. F. Izmaylov, J. Bloino, G. Zheng, J. L. Sonnenberg, M. Hada, 
 M. Ehara, K. Toyota, R. Fukuda, J. Hasegawa, M. Ishida, T. Nakajima, 
 Y. Honda, O. Kitao, H. Nakai, T. Vreven, J. A. Montgomery, Jr., 
 J. E. Peralta, F. Ogliaro, M. Bearpark, J. J. Heyd, E. Brothers, 
 K. N. Kudin, V. N. Staroverov, T. Keith, R. Kobayashi, J. Normand, 
 K. Raghavachari, A. Rendell, J. C. Burant, S. S. Iyengar, J. Tomasi, 
 M. Cossi, N. Rega, J. M. Millam, M. Klene, J. E. Knox, J. B. Cross, 
 V. Bakken, C. Adamo, J. Jaramillo, R. Gomperts, R. E. Stratmann, 
 O. Yazyev, A. J. Austin, R. Cammi, C. Pomelli, J. W. Ochterski, 
 R. L. Martin, K. Morokuma, V. G. Zakrzewski, G. A. Voth, 
 P. Salvador, J. J. Dannenberg, S. Dapprich, A. D. Daniels, 
 O. Farkas, J. B. Foresman, J. V. Ortiz, J. Cioslowski, 
 and D. J. Fox, Gaussian, Inc., Wallingford CT, 2013.
 
 ******************************************
 Gaussian 09:  ES64L-G09RevD.01 24-Apr-2013
                28-Jan-2020 
 ******************************************
 -----------------------------
 # b3lyp 6-31G(2df,p) opt Freq
 -----------------------------
 1/14=-1,18=20,19=15,26=3,38=1/1,3;
 2/9=110,12=2,17=6,18=5,40=1/2;
 3/5=1,6=6,7=104,11=2,16=1,25=1,30=1,71=1,74=-5/1,2,3;
 4//1;
 5/5=2,38=5/2;
 6/7=2,8=2,9=2,10=2,28=1/1;
 7//1,2,3,16;
 1/14=-1,18=20,19=15,26=3/3(2);
 2/9=110/2;
 99//99;
 2/9=110/2;
 3/5=1,6=6,7=104,11=2,16=1,25=1,30=1,71=1,74=-5/1,2,3;
 4/5=5,16=3,69=1/1;
 5/5=2,38=5/2;
 7//1,2,3,16;
 1/14=-1,18=20,19=15,26=3/3(-5);
 2/9=110/2;
 6/7=2,8=2,9=2,10=2,19=2,28=1/1;
 99/9=1/99;
 -----
 titel
 -----
 Symbolic Z-matrix:
 Charge =  0 Multiplicity = 1
 C                     1.33351  -4.10286   0.38016 
 C                     0.31662  -3.2639    1.12993 
 O                    -0.52336  -3.78928   1.84677 
 C                     0.34911  -1.79578   0.99215 
 C                     1.19865  -1.04974   0.27363 
 C                     0.88459   0.42023   0.36871 
 C                    -0.12613   0.49205   1.53966 
 C                    -0.70083  -0.93191   1.68299 
 O                    -0.89676  -1.24281   3.04714 
 H                     2.35172  -3.8195    0.66645 
 H                     1.16973  -5.15575   0.61156 
 H                     1.24377  -3.94666  -0.69991 
 H                     2.01067  -1.43325  -0.33604 
 H                     1.7796    1.03153   0.52943 
 H                     0.4458    0.77097  -0.57636 
 H                     0.39641   0.71582   2.47431 
 H                    -0.89725   1.25122   1.39556 
 H                    -1.65369  -1.02789   1.13326 
 H                    -1.10218  -2.1883    3.06726 
 

 GradGradGradGradGradGradGradGradGradGradGradGradGradGradGradGradGradGrad
 Berny optimization.
 Initialization pass.
                           ----------------------------
                           !    Initial Parameters    !
                           ! (Angstroms and Degrees)  !
 --------------------------                            --------------------------
 ! Name  Definition              Value          Derivative Info.                !
 --------------------------------------------------------------------------------
 ! R1    R(1,2)                  1.5166         estimate D2E/DX2                !
 ! R2    R(1,10)                 1.095          estimate D2E/DX2                !
 ! R3    R(1,11)                 1.0904         estimate D2E/DX2                !
 ! R4    R(1,12)                 1.095          estimate D2E/DX2                !
 ! R5    R(2,3)                  1.2229         estimate D2E/DX2                !
 ! R6    R(2,4)                  1.4749         estimate D2E/DX2                !
 ! R7    R(4,5)                  1.3396         estimate D2E/DX2                !
 ! R8    R(4,8)                  1.5251         estimate D2E/DX2                !
 ! R9    R(5,6)                  1.5062         estimate D2E/DX2                !
 ! R10   R(5,13)                 1.0854         estimate D2E/DX2                !
 ! R11   R(6,7)                  1.5485         estimate D2E/DX2                !
 ! R12   R(6,14)                 1.0957         estimate D2E/DX2                !
 ! R13   R(6,15)                 1.0994         estimate D2E/DX2                !
 ! R14   R(7,8)                  1.5422         estimate D2E/DX2                !
 ! R15   R(7,16)                 1.0939         estimate D2E/DX2                !
 ! R16   R(7,17)                 1.0917         estimate D2E/DX2                !
 ! R17   R(8,9)                  1.4128         estimate D2E/DX2                !
 ! R18   R(8,18)                 1.1042         estimate D2E/DX2                !
 ! R19   R(9,19)                 0.9678         estimate D2E/DX2                !
 ! A1    A(2,1,10)             110.5536         estimate D2E/DX2                !
 ! A2    A(2,1,11)             109.1797         estimate D2E/DX2                !
 ! A3    A(2,1,12)             110.7181         estimate D2E/DX2                !
 ! A4    A(10,1,11)            109.5161         estimate D2E/DX2                !
 ! A5    A(10,1,12)            107.2884         estimate D2E/DX2                !
 ! A6    A(11,1,12)            109.5581         estimate D2E/DX2                !
 ! A7    A(1,2,3)              120.8431         estimate D2E/DX2                !
 ! A8    A(1,2,4)              119.3198         estimate D2E/DX2                !
 ! A9    A(3,2,4)              119.8367         estimate D2E/DX2                !
 ! A10   A(2,4,5)              128.1996         estimate D2E/DX2                !
 ! A11   A(2,4,8)              120.4207         estimate D2E/DX2                !
 ! A12   A(5,4,8)              111.3525         estimate D2E/DX2                !
 ! A13   A(4,5,6)              112.1743         estimate D2E/DX2                !
 ! A14   A(4,5,13)             125.3754         estimate D2E/DX2                !
 ! A15   A(6,5,13)             122.4317         estimate D2E/DX2                !
 ! A16   A(5,6,7)              103.2447         estimate D2E/DX2                !
 ! A17   A(5,6,14)             112.5468         estimate D2E/DX2                !
 ! A18   A(5,6,15)             109.896          estimate D2E/DX2                !
 ! A19   A(7,6,14)             113.3511         estimate D2E/DX2                !
 ! A20   A(7,6,15)             112.0071         estimate D2E/DX2                !
 ! A21   A(14,6,15)            105.9094         estimate D2E/DX2                !
 ! A22   A(6,7,8)              105.7047         estimate D2E/DX2                !
 ! A23   A(6,7,16)             110.1075         estimate D2E/DX2                !
 ! A24   A(6,7,17)             113.1721         estimate D2E/DX2                !
 ! A25   A(8,7,16)             106.7055         estimate D2E/DX2                !
 ! A26   A(8,7,17)             113.0256         estimate D2E/DX2                !
 ! A27   A(16,7,17)            107.9356         estimate D2E/DX2                !
 ! A28   A(4,8,7)              102.9652         estimate D2E/DX2                !
 ! A29   A(4,8,9)              114.0928         estimate D2E/DX2                !
 ! A30   A(4,8,18)             108.6215         estimate D2E/DX2                !
 ! A31   A(7,8,9)              110.1577         estimate D2E/DX2                !
 ! A32   A(7,8,18)             110.8261         estimate D2E/DX2                !
 ! A33   A(9,8,18)             109.9928         estimate D2E/DX2                !
 ! A34   A(8,9,19)             105.3374         estimate D2E/DX2                !
 ! D1    D(10,1,2,3)          -121.2153         estimate D2E/DX2                !
 ! D2    D(10,1,2,4)            58.5824         estimate D2E/DX2                !
 ! D3    D(11,1,2,3)            -0.6731         estimate D2E/DX2                !
 ! D4    D(11,1,2,4)           179.1246         estimate D2E/DX2                !
 ! D5    D(12,1,2,3)           120.0244         estimate D2E/DX2                !
 ! D6    D(12,1,2,4)           -60.1779         estimate D2E/DX2                !
 ! D7    D(1,2,4,5)             -0.7646         estimate D2E/DX2                !
 ! D8    D(1,2,4,8)            177.1643         estimate D2E/DX2                !
 ! D9    D(3,2,4,5)            179.0352         estimate D2E/DX2                !
 ! D10   D(3,2,4,8)             -3.0359         estimate D2E/DX2                !
 ! D11   D(2,4,5,6)            178.8094         estimate D2E/DX2                !
 ! D12   D(2,4,5,13)             0.3526         estimate D2E/DX2                !
 ! D13   D(8,4,5,6)              0.727          estimate D2E/DX2                !
 ! D14   D(8,4,5,13)          -177.7299         estimate D2E/DX2                !
 ! D15   D(2,4,8,7)            168.1161         estimate D2E/DX2                !
 ! D16   D(2,4,8,9)             48.7548         estimate D2E/DX2                !
 ! D17   D(2,4,8,18)           -74.3312         estimate D2E/DX2                !
 ! D18   D(5,4,8,7)            -13.6313         estimate D2E/DX2                !
 ! D19   D(5,4,8,9)           -132.9927         estimate D2E/DX2                !
 ! D20   D(5,4,8,18)           103.9214         estimate D2E/DX2                !
 ! D21   D(4,5,6,7)             12.4638         estimate D2E/DX2                !
 ! D22   D(4,5,6,14)           135.0531         estimate D2E/DX2                !
 ! D23   D(4,5,6,15)          -107.1784         estimate D2E/DX2                !
 ! D24   D(13,5,6,7)          -169.0269         estimate D2E/DX2                !
 ! D25   D(13,5,6,14)          -46.4376         estimate D2E/DX2                !
 ! D26   D(13,5,6,15)           71.3309         estimate D2E/DX2                !
 ! D27   D(5,6,7,8)            -20.1735         estimate D2E/DX2                !
 ! D28   D(5,6,7,16)            94.7191         estimate D2E/DX2                !
 ! D29   D(5,6,7,17)          -144.3896         estimate D2E/DX2                !
 ! D30   D(14,6,7,8)          -142.2245         estimate D2E/DX2                !
 ! D31   D(14,6,7,16)          -27.3319         estimate D2E/DX2                !
 ! D32   D(14,6,7,17)           93.5594         estimate D2E/DX2                !
 ! D33   D(15,6,7,8)            98.0049         estimate D2E/DX2                !
 ! D34   D(15,6,7,16)         -147.1025         estimate D2E/DX2                !
 ! D35   D(15,6,7,17)          -26.2111         estimate D2E/DX2                !
 ! D36   D(6,7,8,4)             20.4689         estimate D2E/DX2                !
 ! D37   D(6,7,8,9)            142.5245         estimate D2E/DX2                !
 ! D38   D(6,7,8,18)           -95.5169         estimate D2E/DX2                !
 ! D39   D(16,7,8,4)           -96.74           estimate D2E/DX2                !
 ! D40   D(16,7,8,9)            25.3156         estimate D2E/DX2                !
 ! D41   D(16,7,8,18)          147.2742         estimate D2E/DX2                !
 ! D42   D(17,7,8,4)           144.7767         estimate D2E/DX2                !
 ! D43   D(17,7,8,9)           -93.1677         estimate D2E/DX2                !
 ! D44   D(17,7,8,18)           28.7909         estimate D2E/DX2                !
 ! D45   D(4,8,9,19)           -54.9302         estimate D2E/DX2                !
 ! D46   D(7,8,9,19)          -170.1415         estimate D2E/DX2                !
 ! D47   D(18,8,9,19)           67.4077         estimate D2E/DX2                !
 --------------------------------------------------------------------------------
 Trust Radius=3.00D-01 FncErr=1.00D-07 GrdErr=1.00D-06
 Number of steps in this run=    110 maximum allowed number of steps=    114.
 GradGradGradGradGradGradGradGradGradGradGradGradGradGradGradGradGradGrad

                          Input orientation:                          
 ---------------------------------------------------------------------
 Center     Atomic      Atomic             Coordinates (Angstroms)
 Number     Number       Type             X           Y           Z
 ---------------------------------------------------------------------
      1          6           0        1.333511   -4.102864    0.380162
      2          6           0        0.316618   -3.263898    1.129929
      3          8           0       -0.523358   -3.789283    1.846774
      4          6           0        0.349107   -1.795780    0.992155
      5          6           0        1.198654   -1.049744    0.273632
      6          6           0        0.884588    0.420231    0.368712
      7          6           0       -0.126134    0.492054    1.539657
      8          6           0       -0.700830   -0.931912    1.682992
      9          8           0       -0.896764   -1.242811    3.047144
     10          1           0        2.351721   -3.819503    0.666448
     11          1           0        1.169727   -5.155747    0.611560
     12          1           0        1.243770   -3.946659   -0.699912
     13          1           0        2.010666   -1.433253   -0.336044
     14          1           0        1.779601    1.031533    0.529433
     15          1           0        0.445795    0.770966   -0.576362
     16          1           0        0.396411    0.715817    2.474311
     17          1           0       -0.897248    1.251222    1.395556
     18          1           0       -1.653685   -1.027889    1.133257
     19          1           0       -1.102177   -2.188298    3.067256
 ---------------------------------------------------------------------
                    Distance matrix (angstroms):
                    1          2          3          4          5
     1  C    0.000000
     2  C    1.516603   0.000000
     3  O    2.386891   1.222888   0.000000
     4  C    2.581903   1.474927   2.337868   0.000000
     5  C    3.057953   2.532531   3.597941   1.339618   0.000000
     6  C    4.545332   3.804582   4.678353   2.363498   1.506155
     7  C    4.958656   3.804088   4.310680   2.399958   2.394792
     8  C    3.986332   2.603697   2.867558   1.525088   2.368169
     9  O    4.501869   3.038553   2.839866   2.465958   3.481440
    10  H    1.094991   2.159897   3.108080   2.865659   3.025794
    11  H    1.090382   2.139063   2.501902   3.479605   4.119987
    12  H    1.094995   2.161965   3.103727   2.879200   3.056458
    13  H    2.845753   2.893119   4.091070   2.157849   1.085424
    14  H    5.155901   4.577297   5.502661   3.202206   2.175925
    15  H    5.045512   4.382721   5.254210   3.009614   2.145756
    16  H    5.336975   4.201412   4.640658   2.916701   2.933222
    17  H    5.888425   4.682984   5.074455   3.316678   3.308469
    18  H    4.352696   2.980242   3.067905   2.149591   2.979140
    19  H    4.101050   2.631184   2.094699   2.562487   3.794004
                    6          7          8          9         10
     6  C    0.000000
     7  C    1.548493   0.000000
     8  C    2.463569   1.542239   0.000000
     9  O    3.621176   2.424076   1.412783   0.000000
    10  H    4.496272   5.048939   4.323148   4.781183   0.000000
    11  H    5.588542   5.868414   4.742123   5.051091   1.784845
    12  H    4.510066   5.156984   4.306785   5.092456   1.763708
    13  H    2.280380   3.433799   3.417610   4.464904   2.610651
    14  H    1.095705   2.223379   3.367247   4.321393   4.886578
    15  H    1.099418   2.209622   3.052741   4.357471   5.123430
    16  H    2.181567   1.093938   2.131932   2.415918   5.259347
    17  H    2.218083   1.091659   2.210719   2.991311   6.066272
    18  H    3.020664   2.192898   1.104244   2.069320   4.904518
    19  H    4.246622   3.235816   1.912007   0.967752   4.511554
                   11         12         13         14         15
    11  H    0.000000
    12  H    1.785311   0.000000
    13  H    3.932187   2.652874   0.000000
    14  H    6.217807   5.155657   2.622520   0.000000
    15  H    6.087788   4.786231   2.713881   1.752060   0.000000
    16  H    6.208310   5.703717   3.888754   2.407373   3.051571
    17  H    6.777632   5.999409   4.319815   2.822047   2.433695
    18  H    5.028223   4.502773   3.968706   4.048861   3.250614
    19  H    4.471884   4.773558   4.673578   5.011238   4.942612
                   16         17         18         19
    16  H    0.000000
    17  H    1.767464   0.000000
    18  H    3.006964   2.415646   0.000000
    19  H    3.321330   3.829736   2.321867   0.000000
 Stoichiometry    C7H10O2
 Framework group  C1[X(C7H10O2)]
 Deg. of freedom    51
 Full point group                 C1      NOp   1
 Largest Abelian subgroup         C1      NOp   1
 Largest concise Abelian subgroup C1      NOp   1
                         Standard orientation:                         
 ---------------------------------------------------------------------
 Center     Atomic      Atomic             Coordinates (Angstroms)
 Number     Number       Type             X           Y           Z
 ---------------------------------------------------------------------
      1          6           0        2.577739   -1.079670   -0.144267
      2          6           0        1.573716    0.038086    0.062238
      3          8           0        1.944105    1.194041    0.210690
      4          6           0        0.133335   -0.278831    0.078824
      5          6           0       -0.454378   -1.471652   -0.083491
      6          6           0       -1.953905   -1.386569    0.029132
      7          6           0       -2.228053    0.136426   -0.027041
      8          6           0       -0.894901    0.814699    0.348664
      9          8           0       -0.709236    1.983867   -0.422395
     10          1           0        2.394660   -1.589968   -1.095626
     11          1           0        3.584713   -0.661418   -0.143133
     12          1           0        2.491343   -1.829446    0.649071
     13          1           0        0.064447   -2.410165   -0.251304
     14          1           0       -2.466995   -1.949548   -0.758499
     15          1           0       -2.283448   -1.829698    0.979793
     16          1           0       -2.457058    0.439742   -1.052837
     17          1           0       -3.059244    0.447015    0.608863
     18          1           0       -0.870613    1.063905    1.424146
     19          1           0        0.201925    2.261391   -0.251192
 ---------------------------------------------------------------------
 Rotational constants (GHZ):      2.5787235      1.4008368      0.9497841
 Standard basis: 6-31G(2df,p) (6D, 7F)
 There are   329 symmetry adapted cartesian basis functions of A   symmetry.
 There are   302 symmetry adapted basis functions of A   symmetry.
   302 basis functions,   466 primitive gaussians,   329 cartesian basis functions
    34 alpha electrons       34 beta electrons
       nuclear repulsion energy       451.7874380622 Hartrees.
 NAtoms=   19 NActive=   19 NUniq=   19 SFac= 1.00D+00 NAtFMM=   60 NAOKFM=F Big=F
 Integral buffers will be    131072 words long.
 Raffenetti 2 integral format.
 Two-electron integral symmetry is turned on.
 One-electron integrals computed using PRISM.
 NBasis=   302 RedAO= T EigKep=  4.54D-04  NBF=   302
 NBsUse=   302 1.00D-06 EigRej= -1.00D+00 NBFU=   302
 ExpMin= 1.61D-01 ExpMax= 5.48D+03 ExpMxC= 8.25D+02 IAcc=1 IRadAn=         1 AccDes= 0.00D+00
 Harris functional with IExCor=  402 and IRadAn=       1 diagonalized for initial guess.
 HarFok:  IExCor=  402 AccDes= 0.00D+00 IRadAn=         1 IDoV= 1 UseB2=F ITyADJ=14
 ICtDFT=  3500011 ScaDFX=  1.000000  1.000000  1.000000  1.000000
 FoFCou: FMM=F IPFlag=           0 FMFlag=      100000 FMFlg1=           0
         NFxFlg=           0 DoJE=T BraDBF=F KetDBF=T FulRan=T
         wScrn=  0.000000 ICntrl=     500 IOpCl=  0 I1Cent=   200000004 NGrid=           0
         NMat0=    1 NMatS0=      1 NMatT0=    0 NMatD0=    1 NMtDS0=    0 NMtDT0=    0
 Petite list used in FoFCou.
 Requested convergence on RMS density matrix=1.00D-08 within 128 cycles.
 Requested convergence on MAX density matrix=1.00D-06.
 Requested convergence on             energy=1.00D-06.
 No special actions if energy rises.
 Integral accuracy reduced to 1.0D-05 until final iterations.
 Initial convergence to 1.0D-05 achieved.  Increase integral accuracy.
 SCF Done:  E(RB3LYP) =  -423.226541205     A.U. after   14 cycles
            NFock= 14  Conv=0.69D-08     -V/T= 2.0075

 **********************************************************************

            Population analysis using the SCF density.

 **********************************************************************

 Orbital symmetries:
       Occupied  (A) (A) (A) (A) (A) (A) (A) (A) (A) (A) (A) (A)
                 (A) (A) (A) (A) (A) (A) (A) (A) (A) (A) (A) (A)
                 (A) (A) (A) (A) (A) (A) (A) (A) (A) (A)
       Virtual   (A) (A) (A) (A) (A) (A) (A) (A) (A) (A) (A) (A)
                 (A) (A) (A) (A) (A) (A) (A) (A) (A) (A) (A) (A)
                 (A) (A) (A) (A) (A) (A) (A) (A) (A) (A) (A) (A)
                 (A) (A) (A) (A) (A) (A) (A) (A) (A) (A) (A) (A)
                 (A) (A) (A) (A) (A) (A) (A) (A) (A) (A) (A) (A)
                 (A) (A) (A) (A) (A) (A) (A) (A) (A) (A) (A) (A)
                 (A) (A) (A) (A) (A) (A) (A) (A) (A) (A) (A) (A)
                 (A) (A) (A) (A) (A) (A) (A) (A) (A) (A) (A) (A)
                 (A) (A) (A) (A) (A) (A) (A) (A) (A) (A) (A) (A)
                 (A) (A) (A) (A) (A) (A) (A) (A) (A) (A) (A) (A)
                 (A) (A) (A) (A) (A) (A) (A) (A) (A) (A) (A) (A)
                 (A) (A) (A) (A) (A) (A) (A) (A) (A) (A) (A) (A)
                 (A) (A) (A) (A) (A) (A) (A) (A) (A) (A) (A) (A)
                 (A) (A) (A) (A) (A) (A) (A) (A) (A) (A) (A) (A)
                 (A) (A) (A) (A) (A) (A) (A) (A) (A) (A) (A) (A)
                 (A) (A) (A) (A) (A) (A) (A) (A) (A) (A) (A) (A)
                 (A) (A) (A) (A) (A) (A) (A) (A) (A) (A) (A) (A)
                 (A) (A) (A) (A) (A) (A) (A) (A) (A) (A) (A) (A)
                 (A) (A) (A) (A) (A) (A) (A) (A) (A) (A) (A) (A)
                 (A) (A) (A) (A) (A) (A) (A) (A) (A) (A) (A) (A)
                 (A) (A) (A) (A) (A) (A) (A) (A) (A) (A) (A) (A)
                 (A) (A) (A) (A) (A) (A) (A) (A) (A) (A) (A) (A)
                 (A) (A) (A) (A)
 The electronic state is 1-A.
 Alpha  occ. eigenvalues --  -19.13593 -19.11676 -10.27662 -10.23011 -10.21042
 Alpha  occ. eigenvalues --  -10.19839 -10.19273 -10.19213 -10.18218  -1.04419
 Alpha  occ. eigenvalues --   -1.00273  -0.85090  -0.76230  -0.71710  -0.70120
 Alpha  occ. eigenvalues --   -0.59993  -0.57906  -0.53411  -0.50067  -0.48758
 Alpha  occ. eigenvalues --   -0.45377  -0.44557  -0.43509  -0.42173  -0.40318
 Alpha  occ. eigenvalues --   -0.38340  -0.37353  -0.36983  -0.35921  -0.35096
 Alpha  occ. eigenvalues --   -0.32160  -0.26774  -0.25833  -0.24864
 Alpha virt. eigenvalues --   -0.05828   0.05805   0.08952   0.10357   0.11412
 Alpha virt. eigenvalues --    0.13458   0.15023   0.15637   0.16470   0.16731
 Alpha virt. eigenvalues --    0.17017   0.17718   0.19716   0.20781   0.22922
 Alpha virt. eigenvalues --    0.26248   0.27697   0.30242   0.33543   0.36024
 Alpha virt. eigenvalues --    0.37194   0.42268   0.44878   0.47548   0.48259
 Alpha virt. eigenvalues --    0.49365   0.50215   0.52288   0.53683   0.54378
 Alpha virt. eigenvalues --    0.55858   0.56873   0.57452   0.58958   0.59855
 Alpha virt. eigenvalues --    0.61244   0.63997   0.64368   0.67677   0.69699
 Alpha virt. eigenvalues --    0.71141   0.72111   0.72696   0.73389   0.74531
 Alpha virt. eigenvalues --    0.75964   0.76076   0.76747   0.77977   0.79954
 Alpha virt. eigenvalues --    0.80477   0.82278   0.83311   0.84316   0.88318
 Alpha virt. eigenvalues --    0.89267   0.90394   0.91669   0.94453   0.95722
 Alpha virt. eigenvalues --    0.97074   0.98207   1.00790   1.01872   1.07448
 Alpha virt. eigenvalues --    1.07691   1.11509   1.15538   1.16930   1.18394
 Alpha virt. eigenvalues --    1.20812   1.21524   1.24037   1.25617   1.27488
 Alpha virt. eigenvalues --    1.29625   1.31909   1.35957   1.37843   1.39623
 Alpha virt. eigenvalues --    1.40314   1.41590   1.44792   1.46467   1.47192
 Alpha virt. eigenvalues --    1.47829   1.49762   1.53760   1.56563   1.58992
 Alpha virt. eigenvalues --    1.60122   1.60735   1.61174   1.63754   1.66749
 Alpha virt. eigenvalues --    1.69691   1.70650   1.73661   1.77944   1.82010
 Alpha virt. eigenvalues --    1.84752   1.87255   1.88202   1.91101   1.91506
 Alpha virt. eigenvalues --    1.93339   1.94046   1.96488   2.03935   2.06308
 Alpha virt. eigenvalues --    2.11235   2.15369   2.19194   2.22105   2.26216
 Alpha virt. eigenvalues --    2.27374   2.29867   2.34723   2.38991   2.40814
 Alpha virt. eigenvalues --    2.41897   2.44309   2.48022   2.49747   2.55327
 Alpha virt. eigenvalues --    2.56163   2.58144   2.65790   2.68363   2.69268
 Alpha virt. eigenvalues --    2.71858   2.74838   2.76522   2.78940   2.80984
 Alpha virt. eigenvalues --    2.84341   2.87694   2.88835   2.89974   2.92651
 Alpha virt. eigenvalues --    2.93581   2.95680   2.97864   2.98855   3.00868
 Alpha virt. eigenvalues --    3.04712   3.05599   3.08074   3.09843   3.11614
 Alpha virt. eigenvalues --    3.13475   3.16604   3.17495   3.19306   3.24944
 Alpha virt. eigenvalues --    3.25616   3.26827   3.27997   3.30724   3.33641
 Alpha virt. eigenvalues --    3.38552   3.39607   3.40944   3.44767   3.46951
 Alpha virt. eigenvalues --    3.51393   3.54417   3.55787   3.57664   3.58999
 Alpha virt. eigenvalues --    3.62373   3.64673   3.66617   3.68240   3.73252
 Alpha virt. eigenvalues --    3.75068   3.76533   3.85238   3.87452   3.88850
 Alpha virt. eigenvalues --    3.91785   3.96790   4.02882   4.06880   4.10344
 Alpha virt. eigenvalues --    4.11959   4.15900   4.18704   4.19802   4.21387
 Alpha virt. eigenvalues --    4.26504   4.28046   4.30012   4.31763   4.35960
 Alpha virt. eigenvalues --    4.36933   4.39168   4.40315   4.43712   4.45272
 Alpha virt. eigenvalues --    4.46838   4.47576   4.51606   4.53137   4.55055
 Alpha virt. eigenvalues --    4.57521   4.60048   4.60219   4.62486   4.64043
 Alpha virt. eigenvalues --    4.67327   4.68376   4.69655   4.71143   4.71968
 Alpha virt. eigenvalues --    4.75438   4.76118   4.77184   4.80084   4.81006
 Alpha virt. eigenvalues --    4.81887   4.84046   4.86145   4.89164   4.91981
 Alpha virt. eigenvalues --    4.94438   4.98532   5.01281   5.04821   5.06778
 Alpha virt. eigenvalues --    5.09360   5.10243   5.15366   5.22127   5.24782
 Alpha virt. eigenvalues --    5.33912   5.34193   5.38481   5.40914   5.46169
 Alpha virt. eigenvalues --    5.49132   5.50217   5.53524   5.55934   5.61787
 Alpha virt. eigenvalues --    5.65885   5.73565   5.75982   5.93226   5.99172
 Alpha virt. eigenvalues --    6.00486   6.07213   6.08642   6.14624   6.39727
 Alpha virt. eigenvalues --    6.52611   6.60546   6.81660   7.22677  10.13613
 Alpha virt. eigenvalues --   10.93578  11.38242  11.60421  12.02665  12.40753
 Alpha virt. eigenvalues --   12.54659  13.14038  13.41456
          Condensed to atoms (all electrons):
               1          2          3          4          5          6
     1  C    5.279647   0.326851  -0.068167  -0.104380  -0.018558  -0.000168
     2  C    0.326851   4.392249   0.756725   0.311981  -0.034335   0.005045
     3  O   -0.068167   0.756725   7.703110  -0.091864   0.004689  -0.000120
     4  C   -0.104380   0.311981  -0.091864   5.031686   0.518561   0.005287
     5  C   -0.018558  -0.034335   0.004689   0.518561   5.083062   0.358712
     6  C   -0.000168   0.005045  -0.000120   0.005287   0.358712   4.954030
     7  C   -0.000162   0.001567   0.000400  -0.023594  -0.038902   0.369035
     8  C    0.006657  -0.037148  -0.000025   0.288959  -0.032098  -0.055284
     9  O   -0.000068   0.002349  -0.011127  -0.047919   0.002295   0.001176
    10  H    0.354686  -0.010882   0.000721   0.001311   0.001716   0.000046
    11  H    0.355512  -0.010902   0.003763   0.003836  -0.000082   0.000000
    12  H    0.353225  -0.009814   0.000974   0.001171   0.002041   0.000060
    13  H    0.004329  -0.011839   0.000096  -0.029628   0.362273  -0.054724
    14  H    0.000003  -0.000115   0.000001  -0.001181  -0.023164   0.366073
    15  H    0.000003  -0.000082   0.000002  -0.005959  -0.020549   0.357954
    16  H    0.000004   0.000381  -0.000012  -0.000949   0.001095  -0.020044
    17  H    0.000003  -0.000017   0.000000   0.004868   0.002344  -0.027742
    18  H    0.000020   0.002900   0.000050  -0.069630   0.004725   0.006065
    19  H    0.000829   0.003333   0.034828  -0.009784  -0.000577  -0.000324
               7          8          9         10         11         12
     1  C   -0.000162   0.006657  -0.000068   0.354686   0.355512   0.353225
     2  C    0.001567  -0.037148   0.002349  -0.010882  -0.010902  -0.009814
     3  O    0.000400  -0.000025  -0.011127   0.000721   0.003763   0.000974
     4  C   -0.023594   0.288959  -0.047919   0.001311   0.003836   0.001171
     5  C   -0.038902  -0.032098   0.002295   0.001716  -0.000082   0.002041
     6  C    0.369035  -0.055284   0.001176   0.000046   0.000000   0.000060
     7  C    4.975494   0.357493  -0.028124   0.000008   0.000002  -0.000006
     8  C    0.357493   4.781595   0.377461   0.000001  -0.000099  -0.000185
     9  O   -0.028124   0.377461   7.870508   0.000004   0.000004   0.000001
    10  H    0.000008   0.000001   0.000004   0.560718  -0.024087  -0.028865
    11  H    0.000002  -0.000099   0.000004  -0.024087   0.551965  -0.024246
    12  H   -0.000006  -0.000185   0.000001  -0.028865  -0.024246   0.563090
    13  H    0.003981   0.006355  -0.000066   0.001390  -0.000114   0.001402
    14  H   -0.021425   0.003446   0.000001  -0.000003   0.000000   0.000000
    15  H   -0.023605  -0.000343  -0.000074   0.000000   0.000000  -0.000002
    16  H    0.343479  -0.019580   0.004262   0.000000   0.000000   0.000000
    17  H    0.366818  -0.021941   0.000930   0.000000   0.000000   0.000000
    18  H   -0.058203   0.360187  -0.038940   0.000002   0.000002  -0.000008
    19  H    0.007562  -0.061976   0.311169  -0.000044  -0.000012  -0.000010
              13         14         15         16         17         18
     1  C    0.004329   0.000003   0.000003   0.000004   0.000003   0.000020
     2  C   -0.011839  -0.000115  -0.000082   0.000381  -0.000017   0.002900
     3  O    0.000096   0.000001   0.000002  -0.000012   0.000000   0.000050
     4  C   -0.029628  -0.001181  -0.005959  -0.000949   0.004868  -0.069630
     5  C    0.362273  -0.023164  -0.020549   0.001095   0.002344   0.004725
     6  C   -0.054724   0.366073   0.357954  -0.020044  -0.027742   0.006065
     7  C    0.003981  -0.021425  -0.023605   0.343479   0.366818  -0.058203
     8  C    0.006355   0.003446  -0.000343  -0.019580  -0.021941   0.360187
     9  O   -0.000066   0.000001  -0.000074   0.004262   0.000930  -0.038940
    10  H    0.001390  -0.000003   0.000000   0.000000   0.000000   0.000002
    11  H   -0.000114   0.000000   0.000000   0.000000   0.000000   0.000002
    12  H    0.001402   0.000000  -0.000002   0.000000   0.000000  -0.000008
    13  H    0.611788  -0.000407   0.001657  -0.000193  -0.000109  -0.000351
    14  H   -0.000407   0.610837  -0.043125  -0.009604   0.002832  -0.000341
    15  H    0.001657  -0.043125   0.614117   0.004767  -0.006470   0.001252
    16  H   -0.000193  -0.009604   0.004767   0.601621  -0.036322   0.007343
    17  H   -0.000109   0.002832  -0.006470  -0.036322   0.616735  -0.006409
    18  H   -0.000351  -0.000341   0.001252   0.007343  -0.006409   0.723316
    19  H   -0.000006   0.000008   0.000008  -0.000123  -0.000180  -0.003041
              19
     1  C    0.000829
     2  C    0.003333
     3  O    0.034828
     4  C   -0.009784
     5  C   -0.000577
     6  C   -0.000324
     7  C    0.007562
     8  C   -0.061976
     9  O    0.311169
    10  H   -0.000044
    11  H   -0.000012
    12  H   -0.000010
    13  H   -0.000006
    14  H    0.000008
    15  H    0.000008
    16  H   -0.000123
    17  H   -0.000180
    18  H   -0.003041
    19  H    0.424828
 Mulliken charges:
               1
     1  C   -0.490267
     2  C    0.311752
     3  O   -0.334044
     4  C    0.217229
     5  C   -0.173246
     6  C   -0.265080
     7  C   -0.231820
     8  C    0.046526
     9  O   -0.443842
    10  H    0.143276
    11  H    0.144458
    12  H    0.141174
    13  H    0.104166
    14  H    0.116162
    15  H    0.120450
    16  H    0.123875
    17  H    0.104660
    18  H    0.071061
    19  H    0.293510
 Sum of Mulliken charges =   0.00000
 Mulliken charges with hydrogens summed into heavy atoms:
               1
     1  C   -0.061360
     2  C    0.311752
     3  O   -0.334044
     4  C    0.217229
     5  C   -0.069081
     6  C   -0.028467
     7  C   -0.003285
     8  C    0.117587
     9  O   -0.150331
 Electronic spatial extent (au):  <R**2>=           1242.4295
 Charge=              0.0000 electrons
 Dipole moment (field-independent basis, Debye):
    X=             -0.2776    Y=             -3.7405    Z=              0.4307  Tot=              3.7754
 Quadrupole moment (field-independent basis, Debye-Ang):
   XX=            -52.4759   YY=            -54.7835   ZZ=            -52.8840
   XY=             -1.0735   XZ=             -1.7947   YZ=              1.2893
 Traceless Quadrupole moment (field-independent basis, Debye-Ang):
   XX=              0.9052   YY=             -1.4023   ZZ=              0.4971
   XY=             -1.0735   XZ=             -1.7947   YZ=              1.2893
 Octapole moment (field-independent basis, Debye-Ang**2):
  XXX=              0.5147  YYY=              1.6632  ZZZ=             -0.4893  XYY=              4.9778
  XXY=             -9.2262  XXZ=             -1.3369  XZZ=              1.4676  YZZ=              2.8686
  YYZ=              0.8425  XYZ=             -3.0717
 Hexadecapole moment (field-independent basis, Debye-Ang**3):
 XXXX=           -975.1657 YYYY=           -508.6544 ZZZZ=            -91.1891 XXXY=            -15.3743
 XXXZ=             -2.7296 YYYX=             17.6823 YYYZ=              1.6027 ZZZX=              1.9282
 ZZZY=             -0.8838 XXYY=           -264.1688 XXZZ=           -174.9214 YYZZ=           -100.3973
 XXYZ=             -1.3684 YYXZ=             -4.0789 ZZXY=              1.5583
 N-N= 4.517874380622D+02 E-N=-1.890612098206D+03  KE= 4.200801606507D+02
 Calling FoFJK, ICntrl=      2127 FMM=F ISym2X=0 I1Cent= 0 IOpClX= 0 NMat=1 NMatS=1 NMatT=0.
 ***** Axes restored to original set *****
 -------------------------------------------------------------------
 Center     Atomic                   Forces (Hartrees/Bohr)
 Number     Number              X              Y              Z
 -------------------------------------------------------------------
      1        6           0.000008454   -0.000017571   -0.000017907
      2        6          -0.000013817   -0.000023800    0.000023260
      3        8           0.000011454    0.000010380   -0.000022753
      4        6          -0.000004347    0.000022422   -0.000001111
      5        6           0.000006882   -0.000008599   -0.000008753
      6        6           0.000008249    0.000023123    0.000014291
      7        6          -0.000002155   -0.000005280    0.000002927
      8        6           0.000006080    0.000005676   -0.000032597
      9        8           0.000001234   -0.000004881    0.000021610
     10        1          -0.000002817    0.000005639   -0.000003372
     11        1          -0.000000457    0.000004209   -0.000002809
     12        1          -0.000002952    0.000009253   -0.000001723
     13        1          -0.000001162   -0.000000705    0.000004354
     14        1          -0.000003977   -0.000002084    0.000003404
     15        1          -0.000007040   -0.000001990    0.000001994
     16        1           0.000000777   -0.000003314    0.000005605
     17        1           0.000000458    0.000000117    0.000001810
     18        1          -0.000000758    0.000001007    0.000008460
     19        1          -0.000004106   -0.000013601    0.000003311
 -------------------------------------------------------------------
 Cartesian Forces:  Max     0.000032597 RMS     0.000010732

 GradGradGradGradGradGradGradGradGradGradGradGradGradGradGradGradGradGrad
 Berny optimization.
 FormGI is forming the generalized inverse of G from B-inverse, IUseBI=4.
 Internal  Forces:  Max     0.000027194 RMS     0.000005005
 Search for a local minimum.
 Step number   1 out of a maximum of  110
 All quantities printed in internal units (Hartrees-Bohrs-Radians)
 Mixed Optimization -- En-DIIS/RFO-DIIS
 Second derivative matrix not updated -- first step.
 ITU=  0
     Eigenvalues ---    0.00350   0.00546   0.00764   0.00947   0.01098
     Eigenvalues ---    0.01194   0.01523   0.01728   0.03300   0.03514
     Eigenvalues ---    0.05216   0.05314   0.05875   0.05968   0.06853
     Eigenvalues ---    0.07129   0.07249   0.07309   0.08047   0.08283
     Eigenvalues ---    0.10332   0.13509   0.15992   0.16000   0.16000
     Eigenvalues ---    0.16000   0.16000   0.21221   0.22456   0.24978
     Eigenvalues ---    0.25000   0.25000   0.27122   0.27304   0.29065
     Eigenvalues ---    0.30696   0.31017   0.33217   0.33747   0.34162
     Eigenvalues ---    0.34242   0.34242   0.34361   0.34622   0.34769
     Eigenvalues ---    0.35157   0.35347   0.43566   0.53839   0.54342
     Eigenvalues ---    0.94115
 RFO step:  Lambda=-1.60308646D-08 EMin= 3.50027562D-03
 Linear search not attempted -- first point.
 Iteration  1 RMS(Cart)=  0.00010623 RMS(Int)=  0.00000001
 Iteration  2 RMS(Cart)=  0.00000002 RMS(Int)=  0.00000000
 Variable       Old X    -DE/DX   Delta X   Delta X   Delta X     New X
                                 (Linear)    (Quad)   (Total)
    R1        2.86596   0.00001   0.00000   0.00002   0.00002   2.86599
    R2        2.06923   0.00000   0.00000   0.00000   0.00000   2.06923
    R3        2.06052   0.00000   0.00000  -0.00001  -0.00001   2.06052
    R4        2.06924   0.00000   0.00000  -0.00001  -0.00001   2.06923
    R5        2.31092  -0.00002   0.00000  -0.00003  -0.00003   2.31090
    R6        2.78721   0.00002   0.00000   0.00005   0.00005   2.78725
    R7        2.53151   0.00000   0.00000   0.00000   0.00000   2.53151
    R8        2.88200   0.00000   0.00000  -0.00001  -0.00001   2.88198
    R9        2.84622   0.00001   0.00000   0.00004   0.00004   2.84626
   R10        2.05115   0.00000   0.00000  -0.00001  -0.00001   2.05115
   R11        2.92623   0.00000   0.00000  -0.00001  -0.00001   2.92622
   R12        2.07058  -0.00001   0.00000  -0.00001  -0.00001   2.07057
   R13        2.07760   0.00000   0.00000   0.00001   0.00001   2.07761
   R14        2.91441   0.00000   0.00000   0.00000   0.00000   2.91441
   R15        2.06724   0.00000   0.00000   0.00000   0.00000   2.06725
   R16        2.06294   0.00000   0.00000   0.00000   0.00000   2.06294
   R17        2.66977   0.00003   0.00000   0.00006   0.00006   2.66984
   R18        2.08672   0.00000   0.00000  -0.00001  -0.00001   2.08671
   R19        1.82879   0.00001   0.00000   0.00002   0.00002   1.82881
    A1        1.92952  -0.00001   0.00000  -0.00005  -0.00005   1.92948
    A2        1.90555   0.00000   0.00000   0.00000   0.00000   1.90555
    A3        1.93239  -0.00001   0.00000  -0.00005  -0.00005   1.93235
    A4        1.91142   0.00000   0.00000   0.00003   0.00003   1.91144
    A5        1.87254   0.00000   0.00000   0.00001   0.00001   1.87254
    A6        1.91215   0.00001   0.00000   0.00006   0.00006   1.91221
    A7        2.10911   0.00000   0.00000   0.00002   0.00002   2.10913
    A8        2.08252   0.00000   0.00000  -0.00001  -0.00001   2.08251
    A9        2.09155   0.00000   0.00000  -0.00001  -0.00001   2.09154
   A10        2.23751   0.00000   0.00000  -0.00001  -0.00001   2.23750
   A11        2.10174   0.00000   0.00000  -0.00001  -0.00001   2.10173
   A12        1.94347   0.00000   0.00000   0.00002   0.00002   1.94349
   A13        1.95781   0.00000   0.00000  -0.00002  -0.00002   1.95779
   A14        2.18821   0.00000   0.00000  -0.00002  -0.00002   2.18819
   A15        2.13684   0.00001   0.00000   0.00004   0.00004   2.13687
   A16        1.80196   0.00000   0.00000   0.00000   0.00000   1.80196
   A17        1.96431   0.00000   0.00000   0.00003   0.00003   1.96434
   A18        1.91805   0.00000   0.00000  -0.00006  -0.00006   1.91799
   A19        1.97835   0.00000   0.00000   0.00003   0.00003   1.97838
   A20        1.95489   0.00000   0.00000  -0.00004  -0.00004   1.95485
   A21        1.84847   0.00000   0.00000   0.00004   0.00004   1.84851
   A22        1.84489   0.00000   0.00000   0.00001   0.00001   1.84491
   A23        1.92174   0.00000   0.00000   0.00001   0.00001   1.92174
   A24        1.97523   0.00000   0.00000  -0.00003  -0.00003   1.97519
   A25        1.86236   0.00000   0.00000   0.00000   0.00000   1.86236
   A26        1.97267   0.00000   0.00000   0.00000   0.00000   1.97267
   A27        1.88383   0.00000   0.00000   0.00001   0.00001   1.88385
   A28        1.79708   0.00000   0.00000   0.00001   0.00001   1.79709
   A29        1.99130   0.00000   0.00000  -0.00003  -0.00003   1.99127
   A30        1.89580   0.00000   0.00000   0.00006   0.00006   1.89586
   A31        1.92261   0.00000   0.00000   0.00000   0.00000   1.92261
   A32        1.93428   0.00000   0.00000   0.00001   0.00001   1.93428
   A33        1.91974   0.00000   0.00000  -0.00003  -0.00003   1.91970
   A34        1.83848   0.00001   0.00000   0.00005   0.00005   1.83853
    D1       -2.11561   0.00000   0.00000  -0.00039  -0.00039  -2.11600
    D2        1.02246   0.00000   0.00000   0.00004   0.00004   1.02249
    D3       -0.01175   0.00000   0.00000  -0.00039  -0.00039  -0.01213
    D4        3.12631   0.00000   0.00000   0.00004   0.00004   3.12636
    D5        2.09482   0.00000   0.00000  -0.00034  -0.00034   2.09448
    D6       -1.05030   0.00000   0.00000   0.00009   0.00009  -1.05021
    D7       -0.01334   0.00000   0.00000  -0.00013  -0.00013  -0.01348
    D8        3.09210   0.00000   0.00000  -0.00005  -0.00005   3.09205
    D9        3.12475   0.00000   0.00000   0.00029   0.00029   3.12504
   D10       -0.05299   0.00000   0.00000   0.00038   0.00038  -0.05261
   D11        3.12081   0.00000   0.00000  -0.00004  -0.00004   3.12077
   D12        0.00615   0.00000   0.00000  -0.00001  -0.00001   0.00614
   D13        0.01269   0.00000   0.00000  -0.00012  -0.00012   0.01257
   D14       -3.10197   0.00000   0.00000  -0.00009  -0.00009  -3.10206
   D15        2.93418   0.00000   0.00000   0.00005   0.00005   2.93423
   D16        0.85093   0.00000   0.00000   0.00006   0.00006   0.85099
   D17       -1.29732   0.00000   0.00000   0.00008   0.00008  -1.29725
   D18       -0.23791   0.00000   0.00000   0.00012   0.00012  -0.23780
   D19       -2.32116   0.00000   0.00000   0.00013   0.00013  -2.32103
   D20        1.81377   0.00000   0.00000   0.00015   0.00015   1.81392
   D21        0.21753   0.00000   0.00000   0.00007   0.00007   0.21760
   D22        2.35712   0.00000   0.00000   0.00012   0.00012   2.35724
   D23       -1.87062   0.00000   0.00000   0.00015   0.00015  -1.87047
   D24       -2.95008   0.00000   0.00000   0.00004   0.00004  -2.95004
   D25       -0.81049   0.00000   0.00000   0.00009   0.00009  -0.81040
   D26        1.24496   0.00000   0.00000   0.00012   0.00012   1.24507
   D27       -0.35209   0.00000   0.00000   0.00001   0.00001  -0.35209
   D28        1.65316   0.00000   0.00000   0.00002   0.00002   1.65318
   D29       -2.52007   0.00000   0.00000   0.00001   0.00001  -2.52006
   D30       -2.48229   0.00000   0.00000  -0.00004  -0.00004  -2.48233
   D31       -0.47703   0.00000   0.00000  -0.00003  -0.00003  -0.47707
   D32        1.63292   0.00000   0.00000  -0.00003  -0.00003   1.63289
   D33        1.71051   0.00000   0.00000  -0.00008  -0.00008   1.71042
   D34       -2.56742   0.00000   0.00000  -0.00008  -0.00008  -2.56750
   D35       -0.45747   0.00000   0.00000  -0.00008  -0.00008  -0.45755
   D36        0.35725   0.00000   0.00000  -0.00007  -0.00007   0.35718
   D37        2.48752   0.00000   0.00000  -0.00010  -0.00010   2.48742
   D38       -1.66708   0.00000   0.00000  -0.00014  -0.00014  -1.66722
   D39       -1.68843   0.00000   0.00000  -0.00008  -0.00008  -1.68851
   D40        0.44184   0.00000   0.00000  -0.00011  -0.00011   0.44173
   D41        2.57042   0.00000   0.00000  -0.00015  -0.00015   2.57027
   D42        2.52683   0.00000   0.00000  -0.00010  -0.00010   2.52673
   D43       -1.62608   0.00000   0.00000  -0.00013  -0.00013  -1.62621
   D44        0.50250   0.00000   0.00000  -0.00017  -0.00017   0.50233
   D45       -0.95871   0.00000   0.00000  -0.00008  -0.00008  -0.95880
   D46       -2.96953   0.00000   0.00000  -0.00007  -0.00007  -2.96960
   D47        1.17649   0.00000   0.00000  -0.00006  -0.00006   1.17643
         Item               Value     Threshold  Converged?
 Maximum Force            0.000027     0.000450     YES
 RMS     Force            0.000005     0.000300     YES
 Maximum Displacement     0.000514     0.001800     YES
 RMS     Displacement     0.000106     0.001200     YES
 Predicted change in Energy=-8.015409D-09
 Optimization completed.
    -- Stationary point found.
                           ----------------------------
                           !   Optimized Parameters   !
                           ! (Angstroms and Degrees)  !
 --------------------------                            --------------------------
 ! Name  Definition              Value          Derivative Info.                !
 --------------------------------------------------------------------------------
 ! R1    R(1,2)                  1.5166         -DE/DX =    0.0                 !
 ! R2    R(1,10)                 1.095          -DE/DX =    0.0                 !
 ! R3    R(1,11)                 1.0904         -DE/DX =    0.0                 !
 ! R4    R(1,12)                 1.095          -DE/DX =    0.0                 !
 ! R5    R(2,3)                  1.2229         -DE/DX =    0.0                 !
 ! R6    R(2,4)                  1.4749         -DE/DX =    0.0                 !
 ! R7    R(4,5)                  1.3396         -DE/DX =    0.0                 !
 ! R8    R(4,8)                  1.5251         -DE/DX =    0.0                 !
 ! R9    R(5,6)                  1.5062         -DE/DX =    0.0                 !
 ! R10   R(5,13)                 1.0854         -DE/DX =    0.0                 !
 ! R11   R(6,7)                  1.5485         -DE/DX =    0.0                 !
 ! R12   R(6,14)                 1.0957         -DE/DX =    0.0                 !
 ! R13   R(6,15)                 1.0994         -DE/DX =    0.0                 !
 ! R14   R(7,8)                  1.5422         -DE/DX =    0.0                 !
 ! R15   R(7,16)                 1.0939         -DE/DX =    0.0                 !
 ! R16   R(7,17)                 1.0917         -DE/DX =    0.0                 !
 ! R17   R(8,9)                  1.4128         -DE/DX =    0.0                 !
 ! R18   R(8,18)                 1.1042         -DE/DX =    0.0                 !
 ! R19   R(9,19)                 0.9678         -DE/DX =    0.0                 !
 ! A1    A(2,1,10)             110.5536         -DE/DX =    0.0                 !
 ! A2    A(2,1,11)             109.1797         -DE/DX =    0.0                 !
 ! A3    A(2,1,12)             110.7181         -DE/DX =    0.0                 !
 ! A4    A(10,1,11)            109.5161         -DE/DX =    0.0                 !
 ! A5    A(10,1,12)            107.2884         -DE/DX =    0.0                 !
 ! A6    A(11,1,12)            109.5581         -DE/DX =    0.0                 !
 ! A7    A(1,2,3)              120.8431         -DE/DX =    0.0                 !
 ! A8    A(1,2,4)              119.3198         -DE/DX =    0.0                 !
 ! A9    A(3,2,4)              119.8367         -DE/DX =    0.0                 !
 ! A10   A(2,4,5)              128.1996         -DE/DX =    0.0                 !
 ! A11   A(2,4,8)              120.4207         -DE/DX =    0.0                 !
 ! A12   A(5,4,8)              111.3525         -DE/DX =    0.0                 !
 ! A13   A(4,5,6)              112.1743         -DE/DX =    0.0                 !
 ! A14   A(4,5,13)             125.3754         -DE/DX =    0.0                 !
 ! A15   A(6,5,13)             122.4317         -DE/DX =    0.0                 !
 ! A16   A(5,6,7)              103.2447         -DE/DX =    0.0                 !
 ! A17   A(5,6,14)             112.5468         -DE/DX =    0.0                 !
 ! A18   A(5,6,15)             109.896          -DE/DX =    0.0                 !
 ! A19   A(7,6,14)             113.3511         -DE/DX =    0.0                 !
 ! A20   A(7,6,15)             112.0071         -DE/DX =    0.0                 !
 ! A21   A(14,6,15)            105.9094         -DE/DX =    0.0                 !
 ! A22   A(6,7,8)              105.7047         -DE/DX =    0.0                 !
 ! A23   A(6,7,16)             110.1075         -DE/DX =    0.0                 !
 ! A24   A(6,7,17)             113.1721         -DE/DX =    0.0                 !
 ! A25   A(8,7,16)             106.7055         -DE/DX =    0.0                 !
 ! A26   A(8,7,17)             113.0256         -DE/DX =    0.0                 !
 ! A27   A(16,7,17)            107.9356         -DE/DX =    0.0                 !
 ! A28   A(4,8,7)              102.9652         -DE/DX =    0.0                 !
 ! A29   A(4,8,9)              114.0928         -DE/DX =    0.0                 !
 ! A30   A(4,8,18)             108.6215         -DE/DX =    0.0                 !
 ! A31   A(7,8,9)              110.1577         -DE/DX =    0.0                 !
 ! A32   A(7,8,18)             110.8261         -DE/DX =    0.0                 !
 ! A33   A(9,8,18)             109.9928         -DE/DX =    0.0                 !
 ! A34   A(8,9,19)             105.3374         -DE/DX =    0.0                 !
 ! D1    D(10,1,2,3)          -121.2153         -DE/DX =    0.0                 !
 ! D2    D(10,1,2,4)            58.5824         -DE/DX =    0.0                 !
 ! D3    D(11,1,2,3)            -0.6731         -DE/DX =    0.0                 !
 ! D4    D(11,1,2,4)           179.1246         -DE/DX =    0.0                 !
 ! D5    D(12,1,2,3)           120.0244         -DE/DX =    0.0                 !
 ! D6    D(12,1,2,4)           -60.1779         -DE/DX =    0.0                 !
 ! D7    D(1,2,4,5)             -0.7646         -DE/DX =    0.0                 !
 ! D8    D(1,2,4,8)            177.1643         -DE/DX =    0.0                 !
 ! D9    D(3,2,4,5)            179.0352         -DE/DX =    0.0                 !
 ! D10   D(3,2,4,8)             -3.0359         -DE/DX =    0.0                 !
 ! D11   D(2,4,5,6)            178.8094         -DE/DX =    0.0                 !
 ! D12   D(2,4,5,13)             0.3526         -DE/DX =    0.0                 !
 ! D13   D(8,4,5,6)              0.727          -DE/DX =    0.0                 !
 ! D14   D(8,4,5,13)          -177.7299         -DE/DX =    0.0                 !
 ! D15   D(2,4,8,7)            168.1161         -DE/DX =    0.0                 !
 ! D16   D(2,4,8,9)             48.7548         -DE/DX =    0.0                 !
 ! D17   D(2,4,8,18)           -74.3312         -DE/DX =    0.0                 !
 ! D18   D(5,4,8,7)            -13.6313         -DE/DX =    0.0                 !
 ! D19   D(5,4,8,9)           -132.9927         -DE/DX =    0.0                 !
 ! D20   D(5,4,8,18)           103.9214         -DE/DX =    0.0                 !
 ! D21   D(4,5,6,7)             12.4638         -DE/DX =    0.0                 !
 ! D22   D(4,5,6,14)           135.0531         -DE/DX =    0.0                 !
 ! D23   D(4,5,6,15)          -107.1784         -DE/DX =    0.0                 !
 ! D24   D(13,5,6,7)          -169.0269         -DE/DX =    0.0                 !
 ! D25   D(13,5,6,14)          -46.4376         -DE/DX =    0.0                 !
 ! D26   D(13,5,6,15)           71.3309         -DE/DX =    0.0                 !
 ! D27   D(5,6,7,8)            -20.1735         -DE/DX =    0.0                 !
 ! D28   D(5,6,7,16)            94.7191         -DE/DX =    0.0                 !
 ! D29   D(5,6,7,17)          -144.3896         -DE/DX =    0.0                 !
 ! D30   D(14,6,7,8)          -142.2245         -DE/DX =    0.0                 !
 ! D31   D(14,6,7,16)          -27.3319         -DE/DX =    0.0                 !
 ! D32   D(14,6,7,17)           93.5594         -DE/DX =    0.0                 !
 ! D33   D(15,6,7,8)            98.0049         -DE/DX =    0.0                 !
 ! D34   D(15,6,7,16)         -147.1025         -DE/DX =    0.0                 !
 ! D35   D(15,6,7,17)          -26.2111         -DE/DX =    0.0                 !
 ! D36   D(6,7,8,4)             20.4689         -DE/DX =    0.0                 !
 ! D37   D(6,7,8,9)            142.5245         -DE/DX =    0.0                 !
 ! D38   D(6,7,8,18)           -95.5169         -DE/DX =    0.0                 !
 ! D39   D(16,7,8,4)           -96.74           -DE/DX =    0.0                 !
 ! D40   D(16,7,8,9)            25.3156         -DE/DX =    0.0                 !
 ! D41   D(16,7,8,18)          147.2742         -DE/DX =    0.0                 !
 ! D42   D(17,7,8,4)           144.7767         -DE/DX =    0.0                 !
 ! D43   D(17,7,8,9)           -93.1677         -DE/DX =    0.0                 !
 ! D44   D(17,7,8,18)           28.7909         -DE/DX =    0.0                 !
 ! D45   D(4,8,9,19)           -54.9302         -DE/DX =    0.0                 !
 ! D46   D(7,8,9,19)          -170.1415         -DE/DX =    0.0                 !
 ! D47   D(18,8,9,19)           67.4077         -DE/DX =    0.0                 !
 --------------------------------------------------------------------------------
 GradGradGradGradGradGradGradGradGradGradGradGradGradGradGradGradGradGrad

                          Input orientation:                          
 ---------------------------------------------------------------------
 Center     Atomic      Atomic             Coordinates (Angstroms)
 Number     Number       Type             X           Y           Z
 ---------------------------------------------------------------------
      1          6           0        1.333511   -4.102864    0.380162
      2          6           0        0.316618   -3.263898    1.129929
      3          8           0       -0.523358   -3.789283    1.846774
      4          6           0        0.349107   -1.795780    0.992155
      5          6           0        1.198654   -1.049744    0.273632
      6          6           0        0.884588    0.420231    0.368712
      7          6           0       -0.126134    0.492054    1.539657
      8          6           0       -0.700830   -0.931912    1.682992
      9          8           0       -0.896764   -1.242811    3.047144
     10          1           0        2.351721   -3.819503    0.666448
     11          1           0        1.169727   -5.155747    0.611560
     12          1           0        1.243770   -3.946659   -0.699912
     13          1           0        2.010666   -1.433253   -0.336044
     14          1           0        1.779601    1.031533    0.529433
     15          1           0        0.445795    0.770966   -0.576362
     16          1           0        0.396411    0.715817    2.474311
     17          1           0       -0.897248    1.251222    1.395556
     18          1           0       -1.653685   -1.027889    1.133257
     19          1           0       -1.102177   -2.188298    3.067256
 ---------------------------------------------------------------------
                    Distance matrix (angstroms):
                    1          2          3          4          5
     1  C    0.000000
     2  C    1.516603   0.000000
     3  O    2.386891   1.222888   0.000000
     4  C    2.581903   1.474927   2.337868   0.000000
     5  C    3.057953   2.532531   3.597941   1.339618   0.000000
     6  C    4.545332   3.804582   4.678353   2.363498   1.506155
     7  C    4.958656   3.804088   4.310680   2.399958   2.394792
     8  C    3.986332   2.603697   2.867558   1.525088   2.368169
     9  O    4.501869   3.038553   2.839866   2.465958   3.481440
    10  H    1.094991   2.159897   3.108080   2.865659   3.025794
    11  H    1.090382   2.139063   2.501902   3.479605   4.119987
    12  H    1.094995   2.161965   3.103727   2.879200   3.056458
    13  H    2.845753   2.893119   4.091070   2.157849   1.085424
    14  H    5.155901   4.577297   5.502661   3.202206   2.175925
    15  H    5.045512   4.382721   5.254210   3.009614   2.145756
    16  H    5.336975   4.201412   4.640658   2.916701   2.933222
    17  H    5.888425   4.682984   5.074455   3.316678   3.308469
    18  H    4.352696   2.980242   3.067905   2.149591   2.979140
    19  H    4.101050   2.631184   2.094699   2.562487   3.794004
                    6          7          8          9         10
     6  C    0.000000
     7  C    1.548493   0.000000
     8  C    2.463569   1.542239   0.000000
     9  O    3.621176   2.424076   1.412783   0.000000
    10  H    4.496272   5.048939   4.323148   4.781183   0.000000
    11  H    5.588542   5.868414   4.742123   5.051091   1.784845
    12  H    4.510066   5.156984   4.306785   5.092456   1.763708
    13  H    2.280380   3.433799   3.417610   4.464904   2.610651
    14  H    1.095705   2.223379   3.367247   4.321393   4.886578
    15  H    1.099418   2.209622   3.052741   4.357471   5.123430
    16  H    2.181567   1.093938   2.131932   2.415918   5.259347
    17  H    2.218083   1.091659   2.210719   2.991311   6.066272
    18  H    3.020664   2.192898   1.104244   2.069320   4.904518
    19  H    4.246622   3.235816   1.912007   0.967752   4.511554
                   11         12         13         14         15
    11  H    0.000000
    12  H    1.785311   0.000000
    13  H    3.932187   2.652874   0.000000
    14  H    6.217807   5.155657   2.622520   0.000000
    15  H    6.087788   4.786231   2.713881   1.752060   0.000000
    16  H    6.208310   5.703717   3.888754   2.407373   3.051571
    17  H    6.777632   5.999409   4.319815   2.822047   2.433695
    18  H    5.028223   4.502773   3.968706   4.048861   3.250614
    19  H    4.471884   4.773558   4.673578   5.011238   4.942612
                   16         17         18         19
    16  H    0.000000
    17  H    1.767464   0.000000
    18  H    3.006964   2.415646   0.000000
    19  H    3.321330   3.829736   2.321867   0.000000
 Stoichiometry    C7H10O2
 Framework group  C1[X(C7H10O2)]
 Deg. of freedom    51
 Full point group                 C1      NOp   1
 Largest Abelian subgroup         C1      NOp   1
 Largest concise Abelian subgroup C1      NOp   1
                         Standard orientation:                         
 ---------------------------------------------------------------------
 Center     Atomic      Atomic             Coordinates (Angstroms)
 Number     Number       Type             X           Y           Z
 ---------------------------------------------------------------------
      1          6           0        2.577739   -1.079670   -0.144267
      2          6           0        1.573716    0.038086    0.062238
      3          8           0        1.944105    1.194041    0.210690
      4          6           0        0.133335   -0.278831    0.078824
      5          6           0       -0.454378   -1.471652   -0.083491
      6          6           0       -1.953905   -1.386569    0.029132
      7          6           0       -2.228053    0.136426   -0.027041
      8          6           0       -0.894901    0.814699    0.348664
      9          8           0       -0.709236    1.983867   -0.422395
     10          1           0        2.394660   -1.589968   -1.095626
     11          1           0        3.584713   -0.661418   -0.143133
     12          1           0        2.491343   -1.829446    0.649071
     13          1           0        0.064447   -2.410165   -0.251304
     14          1           0       -2.466995   -1.949548   -0.758499
     15          1           0       -2.283448   -1.829698    0.979793
     16          1           0       -2.457058    0.439742   -1.052837
     17          1           0       -3.059244    0.447015    0.608863
     18          1           0       -0.870613    1.063905    1.424146
     19          1           0        0.201925    2.261391   -0.251192
 ---------------------------------------------------------------------
 Rotational constants (GHZ):      2.5787235      1.4008368      0.9497841
 1\1\GINC-ALCHEMY-SC\FOpt\RB3LYP\6-31G(2df,p)\C7H10O2\PUCK\28-Jan-2020\
 0\\# b3lyp 6-31G(2df,p) opt Freq\\titel\\0,1\C,1.3335112757,-4.1028639
 109,0.3801622874\C,0.3166178572,-3.2638983568,1.129929085\O,-0.5233580
 717,-3.7892833601,1.8467742872\C,0.3491071167,-1.795779838,0.992154711
 1\C,1.1986541379,-1.0497440244,0.2736315214\C,0.8845878837,0.420230581
 3,0.3687123003\C,-0.1261338247,0.4920543083,1.539657325\C,-0.700830074
 7,-0.9319123129,1.6829924153\O,-0.8967641687,-1.2428107135,3.047143507
 9\H,2.3517212578,-3.8195026784,0.6664484629\H,1.16972688,-5.1557470646
 ,0.6115603835\H,1.243770091,-3.9466590135,-0.6999117167\H,2.0106656402
 ,-1.4332529023,-0.3360436648\H,1.7796006399,1.0315333443,0.5294326029\
 H,0.4457953258,0.7709657313,-0.5763617405\H,0.3964113963,0.7158166303,
 2.4743112311\H,-0.8972481579,1.2512222176,1.3955556321\H,-1.6536851772
 ,-1.0278894621,1.1332566854\H,-1.1021765072,-2.1882979357,3.0672564634
 \\Version=ES64L-G09RevD.01\State=1-A\HF=-423.2265412\RMSD=6.912e-09\RM
 SF=1.073e-05\Dipole=0.8486135,0.2970071,-1.1823414\Quadrupole=1.034093
 2,0.3466026,-1.3806958,-1.5248101,0.5378043,-0.1112789\PG=C01 [X(C7H10
 O2)]\\@


 KNOWLEDGE IS CHIMERA - FOR BEYOND IT LIES OTHER KNOWLEDGE,
 AND THE INCOMPLETENESS OF WHAT IS KNOWN RENDERS THE KNOWING FALSE.
     -- THE THOMAS COVENANT CHRONICLES
 Job cpu time:       0 days  0 hours  6 minutes 51.6 seconds.
 File lengths (MBytes):  RWF=     52 Int=      0 D2E=      0 Chk=      7 Scr=      1
 Normal termination of Gaussian 09 at Tue Jan 28 08:11:49 2020.
 Link1:  Proceeding to internal job step number  2.
 ----------------------------------------------------------------------
 #N Geom=AllCheck Guess=TCheck SCRF=Check GenChk RB3LYP/6-31G(2df,p) Fr
 eq
 ----------------------------------------------------------------------
 1/10=4,29=7,30=1,38=1,40=1/1,3;
 2/12=2,40=1/2;
 3/5=1,6=6,7=104,11=2,14=-4,16=1,25=1,30=1,70=2,71=2,74=-5,116=1,140=1/1,2,3;
 4/5=101/1;
 5/5=2,98=1/2;
 8/6=4,10=90,11=11/1;
 11/6=1,8=1,9=11,15=111,16=1/1,2,10;
 10/6=1/2;
 6/7=2,8=2,9=2,10=2,18=1,28=1/1;
 7/8=1,10=1,25=1/1,2,3,16;
 1/10=4,30=1/3;
 99//99;
 Structure from the checkpoint file:  "/scratch/puck/g09_9edbc848-799a-4688-8aef-383126829454/Gau-14505.chk"
 -----
 titel
 -----
 Charge =  0 Multiplicity = 1
 Redundant internal coordinates found in file.
 C,0,1.3335112757,-4.1028639109,0.3801622874
 C,0,0.3166178572,-3.2638983568,1.129929085
 O,0,-0.5233580717,-3.7892833601,1.8467742872
 C,0,0.3491071167,-1.795779838,0.9921547111
 C,0,1.1986541379,-1.0497440244,0.2736315214
 C,0,0.8845878837,0.4202305813,0.3687123003
 C,0,-0.1261338247,0.4920543083,1.539657325
 C,0,-0.7008300747,-0.9319123129,1.6829924153
 O,0,-0.8967641687,-1.2428107135,3.0471435079
 H,0,2.3517212578,-3.8195026784,0.6664484629
 H,0,1.16972688,-5.1557470646,0.6115603835
 H,0,1.243770091,-3.9466590135,-0.6999117167
 H,0,2.0106656402,-1.4332529023,-0.3360436648
 H,0,1.7796006399,1.0315333443,0.5294326029
 H,0,0.4457953258,0.7709657313,-0.5763617405
 H,0,0.3964113963,0.7158166303,2.4743112311
 H,0,-0.8972481579,1.2512222176,1.3955556321
 H,0,-1.6536851772,-1.0278894621,1.1332566854
 H,0,-1.1021765072,-2.1882979357,3.0672564634
 Recover connectivity data from disk.

 GradGradGradGradGradGradGradGradGradGradGradGradGradGradGradGradGradGrad
 Berny optimization.
 Initialization pass.
                           ----------------------------
                           !    Initial Parameters    !
                           ! (Angstroms and Degrees)  !
 --------------------------                            --------------------------
 ! Name  Definition              Value          Derivative Info.                !
 --------------------------------------------------------------------------------
 ! R1    R(1,2)                  1.5166         calculate D2E/DX2 analytically  !
 ! R2    R(1,10)                 1.095          calculate D2E/DX2 analytically  !
 ! R3    R(1,11)                 1.0904         calculate D2E/DX2 analytically  !
 ! R4    R(1,12)                 1.095          calculate D2E/DX2 analytically  !
 ! R5    R(2,3)                  1.2229         calculate D2E/DX2 analytically  !
 ! R6    R(2,4)                  1.4749         calculate D2E/DX2 analytically  !
 ! R7    R(4,5)                  1.3396         calculate D2E/DX2 analytically  !
 ! R8    R(4,8)                  1.5251         calculate D2E/DX2 analytically  !
 ! R9    R(5,6)                  1.5062         calculate D2E/DX2 analytically  !
 ! R10   R(5,13)                 1.0854         calculate D2E/DX2 analytically  !
 ! R11   R(6,7)                  1.5485         calculate D2E/DX2 analytically  !
 ! R12   R(6,14)                 1.0957         calculate D2E/DX2 analytically  !
 ! R13   R(6,15)                 1.0994         calculate D2E/DX2 analytically  !
 ! R14   R(7,8)                  1.5422         calculate D2E/DX2 analytically  !
 ! R15   R(7,16)                 1.0939         calculate D2E/DX2 analytically  !
 ! R16   R(7,17)                 1.0917         calculate D2E/DX2 analytically  !
 ! R17   R(8,9)                  1.4128         calculate D2E/DX2 analytically  !
 ! R18   R(8,18)                 1.1042         calculate D2E/DX2 analytically  !
 ! R19   R(9,19)                 0.9678         calculate D2E/DX2 analytically  !
 ! A1    A(2,1,10)             110.5536         calculate D2E/DX2 analytically  !
 ! A2    A(2,1,11)             109.1797         calculate D2E/DX2 analytically  !
 ! A3    A(2,1,12)             110.7181         calculate D2E/DX2 analytically  !
 ! A4    A(10,1,11)            109.5161         calculate D2E/DX2 analytically  !
 ! A5    A(10,1,12)            107.2884         calculate D2E/DX2 analytically  !
 ! A6    A(11,1,12)            109.5581         calculate D2E/DX2 analytically  !
 ! A7    A(1,2,3)              120.8431         calculate D2E/DX2 analytically  !
 ! A8    A(1,2,4)              119.3198         calculate D2E/DX2 analytically  !
 ! A9    A(3,2,4)              119.8367         calculate D2E/DX2 analytically  !
 ! A10   A(2,4,5)              128.1996         calculate D2E/DX2 analytically  !
 ! A11   A(2,4,8)              120.4207         calculate D2E/DX2 analytically  !
 ! A12   A(5,4,8)              111.3525         calculate D2E/DX2 analytically  !
 ! A13   A(4,5,6)              112.1743         calculate D2E/DX2 analytically  !
 ! A14   A(4,5,13)             125.3754         calculate D2E/DX2 analytically  !
 ! A15   A(6,5,13)             122.4317         calculate D2E/DX2 analytically  !
 ! A16   A(5,6,7)              103.2447         calculate D2E/DX2 analytically  !
 ! A17   A(5,6,14)             112.5468         calculate D2E/DX2 analytically  !
 ! A18   A(5,6,15)             109.896          calculate D2E/DX2 analytically  !
 ! A19   A(7,6,14)             113.3511         calculate D2E/DX2 analytically  !
 ! A20   A(7,6,15)             112.0071         calculate D2E/DX2 analytically  !
 ! A21   A(14,6,15)            105.9094         calculate D2E/DX2 analytically  !
 ! A22   A(6,7,8)              105.7047         calculate D2E/DX2 analytically  !
 ! A23   A(6,7,16)             110.1075         calculate D2E/DX2 analytically  !
 ! A24   A(6,7,17)             113.1721         calculate D2E/DX2 analytically  !
 ! A25   A(8,7,16)             106.7055         calculate D2E/DX2 analytically  !
 ! A26   A(8,7,17)             113.0256         calculate D2E/DX2 analytically  !
 ! A27   A(16,7,17)            107.9356         calculate D2E/DX2 analytically  !
 ! A28   A(4,8,7)              102.9652         calculate D2E/DX2 analytically  !
 ! A29   A(4,8,9)              114.0928         calculate D2E/DX2 analytically  !
 ! A30   A(4,8,18)             108.6215         calculate D2E/DX2 analytically  !
 ! A31   A(7,8,9)              110.1577         calculate D2E/DX2 analytically  !
 ! A32   A(7,8,18)             110.8261         calculate D2E/DX2 analytically  !
 ! A33   A(9,8,18)             109.9928         calculate D2E/DX2 analytically  !
 ! A34   A(8,9,19)             105.3374         calculate D2E/DX2 analytically  !
 ! D1    D(10,1,2,3)          -121.2153         calculate D2E/DX2 analytically  !
 ! D2    D(10,1,2,4)            58.5824         calculate D2E/DX2 analytically  !
 ! D3    D(11,1,2,3)            -0.6731         calculate D2E/DX2 analytically  !
 ! D4    D(11,1,2,4)           179.1246         calculate D2E/DX2 analytically  !
 ! D5    D(12,1,2,3)           120.0244         calculate D2E/DX2 analytically  !
 ! D6    D(12,1,2,4)           -60.1779         calculate D2E/DX2 analytically  !
 ! D7    D(1,2,4,5)             -0.7646         calculate D2E/DX2 analytically  !
 ! D8    D(1,2,4,8)            177.1643         calculate D2E/DX2 analytically  !
 ! D9    D(3,2,4,5)            179.0352         calculate D2E/DX2 analytically  !
 ! D10   D(3,2,4,8)             -3.0359         calculate D2E/DX2 analytically  !
 ! D11   D(2,4,5,6)            178.8094         calculate D2E/DX2 analytically  !
 ! D12   D(2,4,5,13)             0.3526         calculate D2E/DX2 analytically  !
 ! D13   D(8,4,5,6)              0.727          calculate D2E/DX2 analytically  !
 ! D14   D(8,4,5,13)          -177.7299         calculate D2E/DX2 analytically  !
 ! D15   D(2,4,8,7)            168.1161         calculate D2E/DX2 analytically  !
 ! D16   D(2,4,8,9)             48.7548         calculate D2E/DX2 analytically  !
 ! D17   D(2,4,8,18)           -74.3312         calculate D2E/DX2 analytically  !
 ! D18   D(5,4,8,7)            -13.6313         calculate D2E/DX2 analytically  !
 ! D19   D(5,4,8,9)           -132.9927         calculate D2E/DX2 analytically  !
 ! D20   D(5,4,8,18)           103.9214         calculate D2E/DX2 analytically  !
 ! D21   D(4,5,6,7)             12.4638         calculate D2E/DX2 analytically  !
 ! D22   D(4,5,6,14)           135.0531         calculate D2E/DX2 analytically  !
 ! D23   D(4,5,6,15)          -107.1784         calculate D2E/DX2 analytically  !
 ! D24   D(13,5,6,7)          -169.0269         calculate D2E/DX2 analytically  !
 ! D25   D(13,5,6,14)          -46.4376         calculate D2E/DX2 analytically  !
 ! D26   D(13,5,6,15)           71.3309         calculate D2E/DX2 analytically  !
 ! D27   D(5,6,7,8)            -20.1735         calculate D2E/DX2 analytically  !
 ! D28   D(5,6,7,16)            94.7191         calculate D2E/DX2 analytically  !
 ! D29   D(5,6,7,17)          -144.3896         calculate D2E/DX2 analytically  !
 ! D30   D(14,6,7,8)          -142.2245         calculate D2E/DX2 analytically  !
 ! D31   D(14,6,7,16)          -27.3319         calculate D2E/DX2 analytically  !
 ! D32   D(14,6,7,17)           93.5594         calculate D2E/DX2 analytically  !
 ! D33   D(15,6,7,8)            98.0049         calculate D2E/DX2 analytically  !
 ! D34   D(15,6,7,16)         -147.1025         calculate D2E/DX2 analytically  !
 ! D35   D(15,6,7,17)          -26.2111         calculate D2E/DX2 analytically  !
 ! D36   D(6,7,8,4)             20.4689         calculate D2E/DX2 analytically  !
 ! D37   D(6,7,8,9)            142.5245         calculate D2E/DX2 analytically  !
 ! D38   D(6,7,8,18)           -95.5169         calculate D2E/DX2 analytically  !
 ! D39   D(16,7,8,4)           -96.74           calculate D2E/DX2 analytically  !
 ! D40   D(16,7,8,9)            25.3156         calculate D2E/DX2 analytically  !
 ! D41   D(16,7,8,18)          147.2742         calculate D2E/DX2 analytically  !
 ! D42   D(17,7,8,4)           144.7767         calculate D2E/DX2 analytically  !
 ! D43   D(17,7,8,9)           -93.1677         calculate D2E/DX2 analytically  !
 ! D44   D(17,7,8,18)           28.7909         calculate D2E/DX2 analytically  !
 ! D45   D(4,8,9,19)           -54.9302         calculate D2E/DX2 analytically  !
 ! D46   D(7,8,9,19)          -170.1415         calculate D2E/DX2 analytically  !
 ! D47   D(18,8,9,19)           67.4077         calculate D2E/DX2 analytically  !
 --------------------------------------------------------------------------------
 Trust Radius=3.00D-01 FncErr=1.00D-07 GrdErr=1.00D-07
 Number of steps in this run=      2 maximum allowed number of steps=      2.
 GradGradGradGradGradGradGradGradGradGradGradGradGradGradGradGradGradGrad

                          Input orientation:                          
 ---------------------------------------------------------------------
 Center     Atomic      Atomic             Coordinates (Angstroms)
 Number     Number       Type             X           Y           Z
 ---------------------------------------------------------------------
      1          6           0        1.333511   -4.102864    0.380162
      2          6           0        0.316618   -3.263898    1.129929
      3          8           0       -0.523358   -3.789283    1.846774
      4          6           0        0.349107   -1.795780    0.992155
      5          6           0        1.198654   -1.049744    0.273632
      6          6           0        0.884588    0.420231    0.368712
      7          6           0       -0.126134    0.492054    1.539657
      8          6           0       -0.700830   -0.931912    1.682992
      9          8           0       -0.896764   -1.242811    3.047144
     10          1           0        2.351721   -3.819503    0.666448
     11          1           0        1.169727   -5.155747    0.611560
     12          1           0        1.243770   -3.946659   -0.699912
     13          1           0        2.010666   -1.433253   -0.336044
     14          1           0        1.779601    1.031533    0.529433
     15          1           0        0.445795    0.770966   -0.576362
     16          1           0        0.396411    0.715817    2.474311
     17          1           0       -0.897248    1.251222    1.395556
     18          1           0       -1.653685   -1.027889    1.133257
     19          1           0       -1.102177   -2.188298    3.067256
 ---------------------------------------------------------------------
                    Distance matrix (angstroms):
                    1          2          3          4          5
     1  C    0.000000
     2  C    1.516603   0.000000
     3  O    2.386891   1.222888   0.000000
     4  C    2.581903   1.474927   2.337868   0.000000
     5  C    3.057953   2.532531   3.597941   1.339618   0.000000
     6  C    4.545332   3.804582   4.678353   2.363498   1.506155
     7  C    4.958656   3.804088   4.310680   2.399958   2.394792
     8  C    3.986332   2.603697   2.867558   1.525088   2.368169
     9  O    4.501869   3.038553   2.839866   2.465958   3.481440
    10  H    1.094991   2.159897   3.108080   2.865659   3.025794
    11  H    1.090382   2.139063   2.501902   3.479605   4.119987
    12  H    1.094995   2.161965   3.103727   2.879200   3.056458
    13  H    2.845753   2.893119   4.091070   2.157849   1.085424
    14  H    5.155901   4.577297   5.502661   3.202206   2.175925
    15  H    5.045512   4.382721   5.254210   3.009614   2.145756
    16  H    5.336975   4.201412   4.640658   2.916701   2.933222
    17  H    5.888425   4.682984   5.074455   3.316678   3.308469
    18  H    4.352696   2.980242   3.067905   2.149591   2.979140
    19  H    4.101050   2.631184   2.094699   2.562487   3.794004
                    6          7          8          9         10
     6  C    0.000000
     7  C    1.548493   0.000000
     8  C    2.463569   1.542239   0.000000
     9  O    3.621176   2.424076   1.412783   0.000000
    10  H    4.496272   5.048939   4.323148   4.781183   0.000000
    11  H    5.588542   5.868414   4.742123   5.051091   1.784845
    12  H    4.510066   5.156984   4.306785   5.092456   1.763708
    13  H    2.280380   3.433799   3.417610   4.464904   2.610651
    14  H    1.095705   2.223379   3.367247   4.321393   4.886578
    15  H    1.099418   2.209622   3.052741   4.357471   5.123430
    16  H    2.181567   1.093938   2.131932   2.415918   5.259347
    17  H    2.218083   1.091659   2.210719   2.991311   6.066272
    18  H    3.020664   2.192898   1.104244   2.069320   4.904518
    19  H    4.246622   3.235816   1.912007   0.967752   4.511554
                   11         12         13         14         15
    11  H    0.000000
    12  H    1.785311   0.000000
[...]
 07729,0.03331989,0.09294048,0.65472454,0.00422432,-0.01536586,0.013571
 43,0.00368312,-0.01271915,-0.08453288,0.02379282,0.04171284,0.00107598
 ,-0.25784270,-0.12038069,0.36167477,-0.00158825,0.00074586,0.00047978,
 -0.00110797,-0.01238722,0.00167402,0.00717994,0.00646307,-0.00391584,-
 0.24884135,-0.13261763,0.16083699,0.57228582,-0.00020317,-0.00087894,0
 .00001401,-0.02586642,-0.02077249,0.02258976,0.00344455,-0.00494358,-0
 .00185995,-0.13855673,-0.21633228,0.11946043,0.03286450,0.56141761,0.0
 0072651,-0.00054853,-0.00161859,0.00346187,0.01365375,-0.00281034,-0.0
 0417313,-0.00475114,0.00650481,0.16357366,0.11286150,-0.19235575,-0.32
 922587,-0.06056829,0.41713883,-0.00100659,0.00021695,-0.00133911,0.003
 23944,0.00193398,0.01011318,-0.00221344,-0.00206553,-0.00137870,0.0113
 9487,-0.01671990,0.00573824,-0.08347185,0.02673966,0.00477032,0.513330
 58,0.00030151,0.00016740,-0.00035670,0.00000066,0.00427760,0.00077422,
 -0.00142904,-0.00164433,0.00067733,-0.00694757,-0.04246228,0.01358855,
 0.02023622,-0.18871091,-0.00633934,0.06845750,0.49893721,-0.00146484,-
 0.00040572,-0.00115175,0.00887541,-0.00399491,0.00780624,-0.00066556,0
 .00208899,-0.00340504,0.00450542,0.02040193,0.00620476,0.00565791,-0.0
 1531904,-0.07434160,0.04134423,-0.04106116,0.49542149,0.00022020,0.001
 25033,-0.00060710,-0.00356664,0.00132561,0.00353083,0.00054534,-0.0009
 1867,-0.00026542,0.00437266,0.01569671,0.00192798,-0.01479127,0.017959
 12,0.01320960,-0.11176183,0.00122094,0.03981419,0.51545601,-0.00017030
 ,-0.00085217,0.00046234,0.00280666,-0.00096128,-0.00202601,-0.00044085
 ,0.00090267,-0.00023728,0.00301240,-0.03533846,-0.00744461,0.02084319,
 -0.01055807,-0.02352455,-0.00189882,-0.07243398,-0.00357198,-0.0834330
 8,0.51887172,-0.00045822,-0.00041119,0.00009187,0.00164073,-0.00149272
 ,0.00031623,0.00085872,0.00054293,-0.00007884,-0.00356057,-0.00302853,
 0.00186024,0.00941340,-0.01109430,-0.00693370,0.04371262,-0.00494530,-
 0.12889373,0.06889103,0.02360129,0.52362511,0.00070345,-0.00334016,0.0
 0141687,0.00804698,0.00752989,-0.00374024,-0.00475986,-0.00205275,0.00
 194884,-0.12579103,0.03280492,0.02267594,-0.02576670,0.00304619,0.0201
 6074,-0.01876991,-0.01269337,0.00214184,-0.08694869,-0.02854360,-0.006
 42512,0.54270381,-0.00180156,-0.00360775,0.00205685,0.02387183,-0.0175
 1866,-0.01621863,-0.00071925,0.00512590,0.00076542,0.03846632,-0.11516
 423,-0.01737358,-0.00282547,0.01425392,0.00240496,-0.00870136,-0.00094
 483,0.01058763,-0.03211382,-0.15357835,-0.00754202,0.03429816,0.468967
 84,0.00148382,0.00334442,0.00068854,-0.01024691,-0.00963224,0.01021864
 ,0.00566819,-0.00060019,-0.01032276,0.02278326,-0.01421713,-0.08024195
 ,0.02289546,-0.00024035,-0.00911365,0.01298607,0.01828472,-0.01047722,
 -0.00236022,0.00068251,-0.07263389,0.02382768,-0.01263083,0.48792950,-
 0.00014643,0.00019699,-0.00031784,0.00006931,-0.00341051,-0.00104352,0
 .00306250,0.00185680,0.00062440,-0.00012883,-0.00550209,0.02854236,-0.
 00035562,0.00313125,0.00131554,0.00027506,-0.00189848,0.00263213,-0.00
 080013,-0.00522226,0.01311621,-0.06379858,-0.00720620,0.01996590,0.082
 49457,0.00136016,0.00134965,-0.00038255,-0.00766645,-0.00716581,0.0067
 6158,0.00669261,-0.00637174,-0.01146002,-0.00049834,0.01259787,-0.0160
 7355,0.00104763,-0.00366058,-0.00009283,-0.00076793,-0.00568285,-0.000
 75500,-0.00840239,-0.01011246,0.03959379,-0.01284416,-0.09776884,0.043
 51664,0.11503887,0.57397060,0.00016570,-0.00105195,0.00003228,0.002680
 98,0.00712457,-0.00240922,-0.00237908,-0.00533426,0.00310989,0.0123027
 2,0.00290987,-0.03298687,0.00165058,-0.00586234,-0.00105027,-0.0016997
 7,0.00092563,-0.00076346,0.00493525,0.00849781,-0.00976821,0.00878056,
 0.00224256,-0.22028892,-0.03633136,-0.04432912,0.34997451,-0.27415672,
 -0.06380995,-0.06762021,-0.01943039,-0.00951512,-0.00689332,-0.0014280
 0,0.00352870,0.00375286,0.00127843,0.00009033,0.00142679,0.00010285,-0
 .00031089,0.00022119,0.00015061,0.00024935,-0.00013873,-0.00001035,-0.
 00002682,-0.00003145,-0.00000597,0.00007562,0.00049724,0.00008239,0.00
 035738,-0.00010402,0.29774730,-0.06176877,-0.06533933,-0.01830266,0.01
 565768,0.00801943,0.00946910,0.00077687,-0.00066967,-0.00324840,-0.002
 25374,-0.00158563,-0.00093674,0.00072542,-0.00041848,-0.00054104,0.000
 22887,-0.00025026,0.00056370,-0.00007087,0.00004603,0.00011975,-0.0000
 1299,0.00014223,-0.00024897,-0.00002628,-0.00013475,0.00008298,0.07062
 814,0.06557134,-0.06427637,-0.01838683,-0.05711825,0.01677686,0.006748
 07,0.00489980,0.00145629,-0.00228366,-0.00438671,-0.00126960,0.0000944
 3,-0.00076172,-0.00050155,-0.00025489,0.00074154,0.00032049,0.00004125
 ,0.00004826,0.00000933,-0.00004096,0.00007605,0.00000295,0.00009815,-0
 .00026084,-0.00000048,-0.00021227,-0.00006515,0.07114713,0.02102477,0.
 06403959,-0.05337283,-0.04438846,0.00925554,0.00304474,0.02533055,-0.0
 0558943,0.00169331,-0.00257234,-0.00216529,-0.00293547,0.00149230,0.00
 332576,-0.00050433,-0.00046601,0.00041851,0.00012003,0.00010874,-0.000
 05317,-0.00028783,0.00013872,0.00008378,0.00077689,0.00097039,-0.00039
 327,-0.00004752,-0.00026199,0.00010517,-0.00275878,-0.02833623,0.00745
 549,0.05457138,-0.04036860,-0.30278858,0.05662525,-0.00433523,-0.02172
 575,0.00526668,-0.00179868,0.00469112,0.00100395,0.00315482,-0.0006065
 7,-0.00221450,0.00024186,0.00057912,-0.00021673,0.00002179,0.00008086,
 -0.00002151,0.00029842,-0.00020159,-0.00007314,-0.00083984,-0.00059708
 ,0.00090073,0.00012447,0.00033826,-0.00037569,-0.00004169,-0.00540210,
 0.00131306,0.04379655,0.32785967,0.00891274,0.05993317,-0.06008107,-0.
 00300105,-0.01873104,0.00303335,-0.00219351,0.00154489,0.00039733,0.00
 343980,-0.00101075,-0.00101552,0.00033233,0.00026367,-0.00027255,-0.00
 002532,-0.00005707,0.00015414,0.00014668,-0.00005794,-0.00012123,-0.00
 029662,-0.00070491,0.00062868,-0.00001411,0.00020227,-0.00004172,-0.00
 105625,-0.00961635,0.00117934,-0.01116368,-0.06184137,0.06091484,-0.04
 073302,0.00457063,-0.01991590,0.00299172,-0.00649690,0.02363964,-0.005
 57013,0.00263033,0.00031658,-0.00072362,-0.00015004,-0.00174100,0.0006
 5892,0.00023000,-0.00034953,0.00010257,0.00005384,0.00033013,0.0000593
 7,-0.00000769,-0.00000658,-0.00025612,-0.00014739,0.00002064,0.0000393
 1,0.00012990,-0.00004146,-0.00200023,0.00452931,-0.03108937,-0.0005445
 5,-0.00025865,0.00531425,0.04640594,0.00461076,-0.05298819,0.03577098,
 -0.00665553,0.00539174,-0.01759299,0.00298745,-0.00038801,-0.00003635,
 0.00048575,-0.00150920,0.00223306,0.00073515,-0.00024842,-0.00066916,-
 0.00036550,-0.00027168,-0.00009790,-0.00011407,0.00010460,0.00001938,0
 .00023035,0.00010016,0.00005327,-0.00004192,-0.00006239,0.00009129,-0.
 00083460,0.00060645,-0.00855508,0.00382686,-0.00176731,0.03035610,-0.0
 0489933,0.05168563,-0.02344653,0.03753958,-0.30296206,-0.00223243,0.00
 516871,-0.01498289,0.00264305,-0.00272881,-0.00023079,0.00101900,0.000
 20806,0.00093331,0.00022727,0.00035376,0.00013287,-0.00007150,-0.00022
 917,0.00029872,-0.00008120,0.00007384,-0.00004928,0.00022214,-0.000042
 72,-0.00014133,-0.00009737,-0.00020269,0.00022728,-0.00038832,0.001534
 45,-0.00812669,-0.00095498,-0.00021192,-0.00469349,0.02375169,-0.04160
 397,0.32936453,0.00088947,0.00020897,0.00092051,-0.00240240,0.00063554
 ,-0.00298276,0.00069927,-0.00019200,0.00012640,-0.00934203,0.01173284,
 0.00993359,-0.20749432,0.07251849,0.12473911,-0.00027257,-0.00155659,0
 .00273415,0.00145346,0.00002183,0.00015473,0.00509794,-0.00275478,0.00
 573886,-0.00256962,0.00065059,0.00229475,0.00019000,-0.00002988,0.0000
 1884,0.00016478,-0.00002670,-0.00038363,-0.00028732,-0.00006939,-0.000
 51937,0.21292648,0.00021582,-0.00072490,0.00005911,-0.00011234,0.00150
 500,-0.00057052,0.00029422,-0.00001164,-0.00016272,-0.01462311,0.01103
 124,0.01058566,0.07680974,-0.09234051,-0.05554483,0.01886362,-0.001323
 48,-0.01587450,0.00152821,-0.00480126,0.00102751,-0.00081115,-0.004020
 55,0.00120532,-0.00078801,0.00086603,0.00115419,0.00012754,-0.00074532
 ,0.00014071,-0.00002940,0.00010987,0.00001186,-0.00003910,-0.00068600,
 -0.00014633,-0.08180661,0.08947288,0.00099705,0.00001167,0.00138271,-0
 .00272043,-0.00145427,-0.00410262,0.00017339,0.00062499,0.00076038,0.0
 1111231,-0.00896493,-0.00314571,0.12498459,-0.05238552,-0.13542930,-0.
 00085258,0.00192052,0.00357893,0.00155509,0.00125316,0.00078662,0.0071
 4434,0.00118096,0.00691770,-0.00168336,0.00096465,0.00008172,-0.000473
 61,0.00010451,-0.00039689,-0.00038533,-0.00001023,-0.00004260,-0.00007
 807,0.00003361,0.00001880,-0.14169016,0.05917667,0.13119699,0.00007278
 ,-0.00008028,0.00013311,-0.00037028,-0.00065842,-0.00089859,0.00049730
 ,0.00033667,-0.00000481,-0.00017674,0.00216197,-0.00096232,0.00996327,
 0.00342643,0.00256834,-0.22002305,-0.11534433,-0.03262113,-0.01282682,
 -0.00999809,-0.00339385,-0.00141669,0.00274403,0.00180657,-0.00022075,
 -0.00114652,0.00019630,-0.00001968,-0.00000777,-0.00001979,-0.00000696
 ,-0.00001548,-0.00001446,-0.00002219,0.00005044,0.00000240,0.00019603,
 -0.00101240,0.00006622,0.23616517,-0.00021853,-0.00015199,-0.00039660,
 0.00081669,0.00159443,0.00255576,-0.00076209,-0.00108379,-0.00010117,0
 .00213823,-0.00478522,-0.00047237,-0.02721718,-0.01809394,-0.00414359,
 -0.11580952,-0.12357389,-0.02481610,0.00413579,0.00288244,0.00101297,-
 0.00013550,-0.00149935,-0.00151142,0.00001366,0.00040349,0.00011254,0.
 00000702,0.00004597,0.00005302,0.00004296,-0.00004394,-0.00000047,0.00
 004447,-0.00009454,0.00003052,0.00086629,0.00087731,0.00022032,0.12815
 253,0.13674748,0.00007278,0.00003593,-0.00008010,0.00011823,0.00161894
 ,0.00003216,-0.00046311,-0.00045756,0.00030151,0.00015747,-0.00178234,
 0.00063440,-0.00218431,0.00210586,-0.00155892,-0.03375183,-0.02689099,
 -0.05143727,0.01840010,0.01527317,0.00297733,0.00389054,-0.00202396,-0
 .00263865,0.00003578,0.00140639,-0.00024511,0.00001243,-0.00002659,0.0
 0002037,0.00001157,0.00000161,0.00001442,-0.00001344,-0.00003879,0.000
 00148,-0.00003180,0.00001789,0.00014731,0.03605790,0.02498770,0.057084
 26,-0.00012252,0.00002293,-0.00001388,0.00011360,-0.00107753,0.0002571
 8,0.00028482,0.00022051,-0.00031668,-0.00104141,0.00087815,0.00117129,
 -0.00252295,0.00245200,-0.00573644,-0.08769014,0.03240717,-0.08975323,
 0.00877468,-0.00602439,0.01873775,0.00099364,0.00028833,0.00076340,-0.
 00048546,-0.00093233,0.00005907,0.00002295,0.00004674,0.00000016,0.000
 01115,0.00001510,0.00002620,0.00001696,0.00001028,0.00001637,0.0002485
 4,0.00025468,0.00045995,-0.01269988,0.00817679,-0.02329855,0.09463422,
 0.00051273,-0.00009006,0.00038646,-0.00251537,0.00159424,-0.00266068,0
 .00010880,-0.00074444,0.00113609,0.00104498,-0.00385910,-0.00203702,0.
 01230889,-0.01466118,0.02899223,0.03305349,-0.06650658,0.06997786,-0.0
 0117016,0.00045301,-0.00469925,0.00159041,-0.00098297,0.00098163,-0.00
 072185,0.00063863,0.00040603,-0.00002094,-0.00015403,-0.00006094,0.000
 00968,-0.00004260,-0.00003716,-0.00006420,0.00002625,-0.00002474,-0.00
 021389,0.00003448,-0.00101902,-0.00834660,0.00627966,-0.01512354,-0.03
 630714,0.07683967,0.00011787,0.00007805,0.00000834,-0.00011026,0.00124
 348,-0.00058122,-0.00033978,-0.00020656,0.00061403,-0.00067160,-0.0017
 0012,0.00069500,0.00199332,0.00270873,0.00426398,-0.08707627,0.0644469
 4,-0.22611984,-0.00932247,0.00485994,-0.01939474,-0.00028008,-0.000683
 33,-0.00116011,0.00029628,0.00091884,0.00004908,0.00001089,-0.00006931
 ,-0.00000768,-0.00001277,0.00001028,-0.00001601,-0.00001248,-0.0000210
 4,-0.00002768,-0.00025843,0.00072380,-0.00046540,-0.00361651,0.0019374
 8,-0.00581684,0.09552701,-0.07472826,0.24891152,-0.00003520,-0.0000661
 3,0.00001124,0.00009168,-0.00006618,-0.00010476,0.00008169,0.00004693,
 0.00012314,-0.00029214,0.00017605,0.00021534,-0.00023050,-0.00121850,0
 .00107985,0.00962365,0.00515223,0.02107554,-0.10892795,-0.02286314,-0.
 11115385,-0.00951741,-0.00526655,-0.01226584,0.00092978,0.00182322,0.0
 0012100,0.00000642,0.00000751,0.00001218,0.00002126,-0.00001271,-0.000
 01586,-0.00000654,-0.00000167,-0.00000299,-0.00041861,0.00022243,-0.00
 046898,0.00188474,-0.00019773,-0.00031075,-0.00178507,0.00107226,0.003
 52390,0.11912423,-0.00010742,-0.00015391,0.00002287,0.00036482,-0.0003
 3752,0.00007875,0.00015233,0.00004465,0.00015474,-0.00095866,0.0000594
 8,0.00085856,0.00022847,-0.00024842,0.00022057,-0.00079209,-0.00010792
 ,0.00142678,-0.02223203,-0.05767305,-0.04543371,-0.01760350,-0.0092654
 1,-0.02680382,0.00155409,0.00389682,-0.00068206,-0.00000601,0.00001890
 ,-0.00000159,0.00002672,-0.00003657,-0.00003417,0.00000451,0.00000816,
 -0.00000118,0.00009851,-0.00004780,-0.00006330,0.00016607,0.00065950,0
 .00025909,-0.00053750,0.00059399,0.00060755,0.02955184,0.06163047,0.00
 000980,-0.00003816,0.00000418,-0.00003512,0.00024109,-0.00026079,-0.00
 016558,-0.00001085,0.00014281,0.00025774,-0.00033498,0.00012235,0.0005
 7927,0.00090465,-0.00047324,-0.00984086,-0.00369649,-0.02058503,-0.111
 06221,-0.04711613,-0.23610442,-0.00026691,0.00087047,0.00099654,0.0012
 6508,0.00083619,0.00120122,0.00000482,-0.00000462,-0.00001723,0.000006
 30,-0.00001345,0.00000876,0.00000336,0.00000674,0.00001650,0.00025075,
 -0.00028935,0.00012065,-0.00024255,0.00049844,0.00152645,0.00300869,-0
 .00123382,-0.00231142,0.11700079,0.04955323,0.25826726,-0.00008261,-0.
 00019553,0.00006880,0.00054346,-0.00071699,-0.00033897,0.00017887,0.00
 028433,-0.00015419,-0.00068667,-0.00219352,0.00064474,-0.00207966,-0.0
 0088776,0.00230771,-0.01196878,0.01223373,-0.00449721,-0.18378337,0.13
 299969,-0.02775795,0.01018023,-0.01131199,0.00155345,0.00005197,-0.000
 08215,-0.00019253,0.00001544,-0.00000114,0.00001922,0.00005872,-0.0000
 4002,-0.00005436,-0.00001439,-0.00000205,-0.00003203,0.00027347,0.0008
 9318,0.00018179,-0.00094906,0.00028309,0.00085986,0.00162759,-0.000332
 07,-0.00020704,-0.01098700,0.01093193,-0.00169456,0.19648990,-0.000069
 38,-0.00055531,0.00020557,0.00114860,0.00019334,-0.00126554,-0.0002228
 6,-0.00008159,0.00017367,-0.00169846,-0.00461073,0.00043154,-0.0001800
 9,-0.00107475,0.00028838,-0.00192872,0.00146703,0.00042465,0.13042047,
 -0.17360991,0.02665275,0.02190248,-0.01664148,0.00270822,-0.00098151,-
 0.00095611,0.00048621,0.00000593,0.00001632,-0.00000033,0.00012882,-0.
 00013321,-0.00007159,-0.00002187,0.00003401,0.00001231,0.00001718,0.00
 015730,-0.00006827,-0.00017993,-0.00022807,-0.00010769,0.00005612,0.00
 062810,-0.00032970,-0.00539519,0.00539794,-0.00090118,-0.14252837,0.18
 829493,-0.00004416,-0.00007129,-0.00001085,0.00015621,0.00016368,-0.00
 004851,-0.00016928,-0.00010050,0.00017539,0.00111661,-0.00082771,-0.00
 011471,0.00375527,-0.00049467,-0.00297525,0.01681042,-0.01747880,0.002
 85467,-0.02945736,0.02877142,-0.05263925,-0.00328474,0.00007462,-0.001
 30689,0.00080942,0.00079443,-0.00008744,-0.00003369,0.00002106,-0.0000
 1926,-0.00000959,-0.00003282,0.00000569,0.00001817,0.00001155,0.000031
 22,-0.00004128,-0.00134639,-0.00009895,0.00092940,-0.00004313,-0.00061
 884,-0.00068424,-0.00001685,0.00162192,-0.01953582,0.01958644,-0.00276
 720,0.02886803,-0.02876954,0.05576774,0.00001093,0.00035612,0.00004210
 ,-0.00172484,-0.00237104,0.00144943,0.00163701,0.00068626,-0.00081026,
 -0.02293502,0.00058893,-0.00599519,-0.00119696,0.00272891,0.00063133,-
 0.00120272,-0.00042343,-0.00018818,-0.00705214,-0.00014226,-0.00521786
 ,-0.22945934,-0.02084625,-0.09496803,0.01169490,0.00180074,-0.00029760
 ,0.00011555,-0.00003223,0.00000681,-0.00001621,0.00011295,0.00006273,-
 0.00003775,0.00001313,-0.00004347,0.00043622,-0.00018005,0.00156248,-0
 .00000072,-0.00038729,0.00030542,-0.00011865,-0.00019853,0.00021594,0.
 00009520,-0.00120898,0.00058697,0.00123625,-0.00023290,0.00037848,0.24
 787784,-0.00012140,-0.00016837,-0.00022153,0.00055620,0.00118412,-0.00
 072647,-0.00075269,-0.00017289,0.00042211,0.02073884,0.00278929,0.0065
 5987,0.00087451,-0.00232295,-0.00052519,-0.00028851,-0.00068632,0.0002
 6920,-0.02513757,-0.00439914,-0.01498368,-0.01806765,-0.05413304,-0.01
 021207,0.00534311,0.00422101,0.01007811,-0.00009122,0.00002655,0.00001
 021,-0.00001105,-0.00006704,-0.00003048,0.00004484,-0.00002523,0.00000
 372,-0.00059406,0.00045795,-0.00147880,-0.00037153,0.00019617,0.000843
 09,0.00002121,0.00004583,0.00029601,-0.00322181,-0.00450506,0.00035504
 ,0.00064554,0.00176552,-0.00017745,0.01972247,0.05520211,-0.00011119,-
 0.00000081,-0.00019554,0.00061259,0.00096314,-0.00069283,-0.00042337,0
 .00019435,0.00134693,0.01167613,-0.00052318,0.00732084,0.00139560,-0.0
 0104604,0.00046230,-0.00012509,-0.00099949,0.00027107,0.00025042,0.000
 37148,0.00354890,-0.08922524,-0.01083634,-0.08903782,-0.02579848,0.004
 77844,-0.04190997,-0.00007329,0.00001289,-0.00000212,-0.00003346,-0.00
 002409,-0.00000949,0.00002607,-0.00003626,0.00002340,-0.00094795,-0.00
 001114,-0.00122714,-0.00026748,0.00028857,0.00005176,-0.00043761,-0.00
 005671,-0.00004828,0.00058989,0.00058744,0.00010226,0.00024156,-0.0002
 3363,0.00035900,0.10295411,0.00927290,0.11979431,0.00057281,-0.0000168
 5,0.00048672,-0.00292920,0.00036189,0.00408196,-0.00147431,-0.00123661
 ,-0.00363425,0.00032188,-0.00043081,-0.00159807,-0.00023908,-0.0010316
 3,0.00030067,0.00014408,-0.00012908,0.00027109,-0.00012471,-0.00105119
 ,0.00139648,-0.00201265,-0.00702003,0.00024374,-0.03014684,-0.09629885
 ,0.00775375,0.00009818,-0.00006064,-0.00006859,0.00001222,-0.00002835,
 -0.00001589,-0.00007893,0.00003389,-0.00001172,0.00021120,0.00019275,0
 .00011531,-0.00004648,0.00005031,0.00013172,-0.00026207,0.00018948,0.0
 0022246,0.00034175,0.00036691,0.00033423,-0.00010435,-0.00024032,0.000
 41816,0.00064044,0.00071075,-0.00030322,0.03507607,-0.00149011,-0.0010
 3789,0.00041096,0.00581765,0.00791598,-0.00503411,-0.00383668,-0.00581
 096,0.00560388,-0.00145773,-0.00000744,-0.00041244,0.00110308,-0.00098
 515,-0.00095615,-0.00017798,-0.00033077,0.00017708,-0.00024292,0.00125
 925,0.00113345,-0.00445774,-0.01286749,0.00441956,-0.10146012,-0.46636
 683,0.02352362,-0.00041276,0.00020635,0.00027288,0.00019318,-0.0002465
 6,-0.00011867,-0.00015267,0.00008398,0.00026661,0.00049366,0.00018941,
 -0.00004672,0.00012321,-0.00013172,-0.00009822,0.00002890,-0.00009291,
 -0.00009281,0.00025713,0.00006574,0.00037318,0.00002009,-0.00006331,-0
 .00006404,0.00001345,0.00059147,-0.00270151,0.10563839,0.47762884,-0.0
 0082656,-0.00032662,0.00063238,0.00590092,0.00257277,-0.00503132,-0.00
 462839,0.00256437,0.00288775,0.00116728,-0.00172841,0.00106206,-0.0000
 4820,0.00072453,-0.00031115,0.00036546,0.00139535,0.00053664,0.0004854
 9,0.00017250,-0.00666506,0.01130652,0.04777468,-0.00975556,-0.00331657
 ,-0.02626520,-0.04505963,-0.00026049,0.00006147,0.00015758,0.00009883,
 -0.00008611,-0.00004286,-0.00017270,0.00007556,0.00016610,-0.00005631,
 -0.00015694,-0.00008319,0.00028126,-0.00021246,-0.00039570,0.00021356,
 -0.00018232,-0.00021467,0.00010595,-0.00033619,0.00001034,0.00018370,0
 .00036416,-0.00012847,-0.00067520,0.00024540,-0.00015759,-0.01012455,-
 0.02665655,0.06239233\\-0.00000845,0.00001751,0.00001784,0.00001360,0.
 00002389,-0.00002308,-0.00001134,-0.00001032,0.00002266,0.00000432,-0.
 00002232,0.00000116,-0.00000698,0.00000856,0.00000884,-0.00000833,-0.0
 0002315,-0.00001430,0.00000209,0.00000513,-0.00000290,-0.00000600,-0.0
 0000572,0.00003239,-0.00000125,0.00000489,-0.00002164,0.00000289,-0.00
 000562,0.00000339,0.00000045,-0.00000424,0.00000282,0.00000295,-0.0000
 0925,0.00000170,0.00000123,0.00000069,-0.00000440,0.00000405,0.0000021
 3,-0.00000339,0.00000704,0.00000200,-0.00000201,-0.00000075,0.00000334
 ,-0.00000559,-0.00000046,-0.00000009,-0.00000182,0.00000083,-0.0000010
 0,-0.00000839,0.00000411,0.00001358,-0.00000328\\\@


 YE HAVE SOWN MUCH, AND BRING IN LITTLE.
 YE EAT, BUT YE HAVE NOT ENOUGH.
 YE DRINK, BUT YE ARE NOT FILLED WITH DRINK.
 YE CLOTHE YOU, BUT THERE IS NONE WARM.
 AND HE THAT EARNETH WAGES EARNETH WAGES TO PUT
 IT INTO A BAG WITH HOLES.
                                     HAGGAI I,6
 Job cpu time:       0 days  0 hours 45 minutes 23.1 seconds.
 File lengths (MBytes):  RWF=    152 Int=      0 D2E=      0 Chk=      8 Scr=      1
 Normal termination of Gaussian 09 at Tue Jan 28 08:57:10 2020.
