 Entering Gaussian System, Link 0=/home/puck/opt/gaussian_09/g09
 Input=dsC7O2H10nsd_5957.com
 Output=dsC7O2H10nsd_5957.log
 Initial command:
 /home/puck/opt/gaussian_09/l1.exe "/scratch/puck/g09_010850dc-2cba-4fd1-92b9-cf2b7c5233c2/Gau-3916.inp" -scrdir="/scratch/puck/g09_010850dc-2cba-4fd1-92b9-cf2b7c5233c2/"
 Entering Link 1 = /home/puck/opt/gaussian_09/l1.exe PID=      3929.
  
 Copyright (c) 1988,1990,1992,1993,1995,1998,2003,2009,2013,
            Gaussian, Inc.  All Rights Reserved.
  
 This is part of the Gaussian(R) 09 program.  It is based on
 the Gaussian(R) 03 system (copyright 2003, Gaussian, Inc.),
 the Gaussian(R) 98 system (copyright 1998, Gaussian, Inc.),
 the Gaussian(R) 94 system (copyright 1995, Gaussian, Inc.),
 the Gaussian 92(TM) system (copyright 1992, Gaussian, Inc.),
 the Gaussian 90(TM) system (copyright 1990, Gaussian, Inc.),
 the Gaussian 88(TM) system (copyright 1988, Gaussian, Inc.),
 the Gaussian 86(TM) system (copyright 1986, Carnegie Mellon
 University), and the Gaussian 82(TM) system (copyright 1983,
 Carnegie Mellon University). Gaussian is a federally registered
 trademark of Gaussian, Inc.
  
 This software contains proprietary and confidential information,
 including trade secrets, belonging to Gaussian, Inc.
  
 This software is provided under written license and may be
 used, copied, transmitted, or stored only in accord with that
 written license.
  
 The following legend is applicable only to US Government
 contracts under FAR:
  
                    RESTRICTED RIGHTS LEGEND
  
 Use, reproduction and disclosure by the US Government is
 subject to restrictions as set forth in subparagraphs (a)
 and (c) of the Commercial Computer Software - Restricted
 Rights clause in FAR 52.227-19.
  
 Gaussian, Inc.
 340 Quinnipiac St., Bldg. 40, Wallingford CT 06492
  
  
 ---------------------------------------------------------------
 Warning -- This program may not be used in any manner that
 competes with the business of Gaussian, Inc. or will provide
 assistance to any competitor of Gaussian, Inc.  The licensee
 of this program is prohibited from giving any competitor of
 Gaussian, Inc. access to this program.  By using this program,
 the user acknowledges that Gaussian, Inc. is engaged in the
 business of creating and licensing software in the field of
 computational chemistry and represents and warrants to the
 licensee that it is not a competitor of Gaussian, Inc. and that
 it will not use this program in any manner prohibited above.
 ---------------------------------------------------------------
  

 Cite this work as:
 Gaussian 09, Revision D.01,
 M. J. Frisch, G. W. Trucks, H. B. Schlegel, G. E. Scuseria, 
 M. A. Robb, J. R. Cheeseman, G. Scalmani, V. Barone, B. Mennucci, 
 G. A. Petersson, H. Nakatsuji, M. Caricato, X. Li, H. P. Hratchian, 
 A. F. Izmaylov, J. Bloino, G. Zheng, J. L. Sonnenberg, M. Hada, 
 M. Ehara, K. Toyota, R. Fukuda, J. Hasegawa, M. Ishida, T. Nakajima, 
 Y. Honda, O. Kitao, H. Nakai, T. Vreven, J. A. Montgomery, Jr., 
 J. E. Peralta, F. Ogliaro, M. Bearpark, J. J. Heyd, E. Brothers, 
 K. N. Kudin, V. N. Staroverov, T. Keith, R. Kobayashi, J. Normand, 
 K. Raghavachari, A. Rendell, J. C. Burant, S. S. Iyengar, J. Tomasi, 
 M. Cossi, N. Rega, J. M. Millam, M. Klene, J. E. Knox, J. B. Cross, 
 V. Bakken, C. Adamo, J. Jaramillo, R. Gomperts, R. E. Stratmann, 
 O. Yazyev, A. J. Austin, R. Cammi, C. Pomelli, J. W. Ochterski, 
 R. L. Martin, K. Morokuma, V. G. Zakrzewski, G. A. Voth, 
 P. Salvador, J. J. Dannenberg, S. Dapprich, A. D. Daniels, 
 O. Farkas, J. B. Foresman, J. V. Ortiz, J. Cioslowski, 
 and D. J. Fox, Gaussian, Inc., Wallingford CT, 2013.
 
 ******************************************
 Gaussian 09:  ES64L-G09RevD.01 24-Apr-2013
                28-Jan-2020 
 ******************************************
 -----------------------------
 # b3lyp 6-31G(2df,p) opt Freq
 -----------------------------
 1/14=-1,18=20,19=15,26=3,38=1/1,3;
 2/9=110,12=2,17=6,18=5,40=1/2;
 3/5=1,6=6,7=104,11=2,16=1,25=1,30=1,71=1,74=-5/1,2,3;
 4//1;
 5/5=2,38=5/2;
 6/7=2,8=2,9=2,10=2,28=1/1;
 7//1,2,3,16;
 1/14=-1,18=20,19=15,26=3/3(2);
 2/9=110/2;
 99//99;
 2/9=110/2;
 3/5=1,6=6,7=104,11=2,16=1,25=1,30=1,71=1,74=-5/1,2,3;
 4/5=5,16=3,69=1/1;
 5/5=2,38=5/2;
 7//1,2,3,16;
 1/14=-1,18=20,19=15,26=3/3(-5);
 2/9=110/2;
 6/7=2,8=2,9=2,10=2,19=2,28=1/1;
 99/9=1/99;
 -----
 titel
 -----
 Symbolic Z-matrix:
 Charge =  0 Multiplicity = 1
 C                     2.81648  -0.13188  -1.71773 
 C                     1.95571   0.30158  -0.5455 
 O                     2.2795    1.65776  -0.23447 
 C                     1.57591   2.16725   0.82506 
 C                     1.94098   1.92227   2.24613 
 C                     2.0278    3.35703   1.69675 
 C                     0.64384   3.9214    1.58433 
 O                     0.14318   4.96485   1.89301 
 C                     0.13966   2.72218   0.73205 
 H                     2.59493  -1.16885  -1.98664 
 H                     2.62692   0.50129  -2.58886 
 H                     3.87756  -0.05731  -1.4638 
 H                     0.88704   0.22156  -0.795 
 H                     2.13755  -0.33206   0.33514 
 H                     1.19974   1.66139   2.99643 
 H                     2.92075   1.48115   2.39974 
 H                     2.96313   3.90164   1.72371 
 H                    -0.67852   2.11334   1.12713 
 H                    -0.11      3.06999  -0.27496 
 

 GradGradGradGradGradGradGradGradGradGradGradGradGradGradGradGradGradGrad
 Berny optimization.
 Initialization pass.
                           ----------------------------
                           !    Initial Parameters    !
                           ! (Angstroms and Degrees)  !
 --------------------------                            --------------------------
 ! Name  Definition              Value          Derivative Info.                !
 --------------------------------------------------------------------------------
 ! R1    R(1,2)                  1.5175         estimate D2E/DX2                !
 ! R2    R(1,10)                 1.0939         estimate D2E/DX2                !
 ! R3    R(1,11)                 1.0935         estimate D2E/DX2                !
 ! R4    R(1,12)                 1.0936         estimate D2E/DX2                !
 ! R5    R(2,3)                  1.4286         estimate D2E/DX2                !
 ! R6    R(2,13)                 1.1003         estimate D2E/DX2                !
 ! R7    R(2,14)                 1.1            estimate D2E/DX2                !
 ! R8    R(3,4)                  1.3701         estimate D2E/DX2                !
 ! R9    R(4,5)                  1.4875         estimate D2E/DX2                !
 ! R10   R(4,6)                  1.5426         estimate D2E/DX2                !
 ! R11   R(4,9)                  1.5425         estimate D2E/DX2                !
 ! R12   R(5,6)                  1.5388         estimate D2E/DX2                !
 ! R13   R(5,15)                 1.0865         estimate D2E/DX2                !
 ! R14   R(5,16)                 1.0854         estimate D2E/DX2                !
 ! R15   R(6,7)                  1.4988         estimate D2E/DX2                !
 ! R16   R(6,17)                 1.0827         estimate D2E/DX2                !
 ! R17   R(7,8)                  1.1978         estimate D2E/DX2                !
 ! R18   R(7,9)                  1.5552         estimate D2E/DX2                !
 ! R19   R(9,18)                 1.0937         estimate D2E/DX2                !
 ! R20   R(9,19)                 1.0942         estimate D2E/DX2                !
 ! A1    A(2,1,10)             110.2282         estimate D2E/DX2                !
 ! A2    A(2,1,11)             110.5887         estimate D2E/DX2                !
 ! A3    A(2,1,12)             110.5797         estimate D2E/DX2                !
 ! A4    A(10,1,11)            108.5385         estimate D2E/DX2                !
 ! A5    A(10,1,12)            108.5558         estimate D2E/DX2                !
 ! A6    A(11,1,12)            108.2827         estimate D2E/DX2                !
 ! A7    A(1,2,3)              108.1061         estimate D2E/DX2                !
 ! A8    A(1,2,13)             110.7917         estimate D2E/DX2                !
 ! A9    A(1,2,14)             111.1066         estimate D2E/DX2                !
 ! A10   A(3,2,13)             109.7878         estimate D2E/DX2                !
 ! A11   A(3,2,14)             109.5765         estimate D2E/DX2                !
 ! A12   A(13,2,14)            107.4683         estimate D2E/DX2                !
 ! A13   A(2,3,4)              113.8906         estimate D2E/DX2                !
 ! A14   A(3,4,5)              123.4698         estimate D2E/DX2                !
 ! A15   A(3,4,6)              124.9846         estimate D2E/DX2                !
 ! A16   A(3,4,9)              124.4221         estimate D2E/DX2                !
 ! A17   A(5,4,9)              110.2041         estimate D2E/DX2                !
 ! A18   A(6,4,9)               91.6823         estimate D2E/DX2                !
 ! A19   A(4,5,15)             122.1296         estimate D2E/DX2                !
 ! A20   A(4,5,16)             115.0659         estimate D2E/DX2                !
 ! A21   A(6,5,15)             120.5919         estimate D2E/DX2                !
 ! A22   A(6,5,16)             112.2422         estimate D2E/DX2                !
 ! A23   A(15,5,16)            114.8675         estimate D2E/DX2                !
 ! A24   A(4,6,7)               88.7134         estimate D2E/DX2                !
 ! A25   A(4,6,17)             130.9287         estimate D2E/DX2                !
 ! A26   A(5,6,7)              109.0117         estimate D2E/DX2                !
 ! A27   A(5,6,17)             120.5885         estimate D2E/DX2                !
 ! A28   A(7,6,17)             127.6012         estimate D2E/DX2                !
 ! A29   A(6,7,8)              133.9982         estimate D2E/DX2                !
 ! A30   A(6,7,9)               92.8714         estimate D2E/DX2                !
 ! A31   A(8,7,9)              132.6447         estimate D2E/DX2                !
 ! A32   A(4,9,7)               86.7044         estimate D2E/DX2                !
 ! A33   A(4,9,18)             118.3258         estimate D2E/DX2                !
 ! A34   A(4,9,19)             112.4752         estimate D2E/DX2                !
 ! A35   A(7,9,18)             118.2812         estimate D2E/DX2                !
 ! A36   A(7,9,19)             109.4633         estimate D2E/DX2                !
 ! A37   A(18,9,19)            109.7972         estimate D2E/DX2                !
 ! D1    D(10,1,2,3)          -179.924          estimate D2E/DX2                !
 ! D2    D(10,1,2,13)          -59.5838         estimate D2E/DX2                !
 ! D3    D(10,1,2,14)           59.8056         estimate D2E/DX2                !
 ! D4    D(11,1,2,3)           -59.8987         estimate D2E/DX2                !
 ! D5    D(11,1,2,13)           60.4415         estimate D2E/DX2                !
 ! D6    D(11,1,2,14)          179.8308         estimate D2E/DX2                !
 ! D7    D(12,1,2,3)            60.035          estimate D2E/DX2                !
 ! D8    D(12,1,2,13)         -179.6247         estimate D2E/DX2                !
 ! D9    D(12,1,2,14)          -60.2354         estimate D2E/DX2                !
 ! D10   D(1,2,3,4)           -179.2874         estimate D2E/DX2                !
 ! D11   D(13,2,3,4)            59.7461         estimate D2E/DX2                !
 ! D12   D(14,2,3,4)           -58.0634         estimate D2E/DX2                !
 ! D13   D(2,3,4,5)             81.2458         estimate D2E/DX2                !
 ! D14   D(2,3,4,6)            156.9729         estimate D2E/DX2                !
 ! D15   D(2,3,4,9)            -81.4931         estimate D2E/DX2                !
 ! D16   D(3,4,5,15)          -135.2613         estimate D2E/DX2                !
 ! D17   D(3,4,5,16)            12.0834         estimate D2E/DX2                !
 ! D18   D(9,4,5,15)            29.6202         estimate D2E/DX2                !
 ! D19   D(9,4,5,16)           176.9649         estimate D2E/DX2                !
 ! D20   D(3,4,6,7)            134.0062         estimate D2E/DX2                !
 ! D21   D(3,4,6,17)            -8.0234         estimate D2E/DX2                !
 ! D22   D(9,4,6,7)             -1.2944         estimate D2E/DX2                !
 ! D23   D(9,4,6,17)          -143.3241         estimate D2E/DX2                !
 ! D24   D(3,4,9,7)           -134.4343         estimate D2E/DX2                !
 ! D25   D(3,4,9,18)           105.0284         estimate D2E/DX2                !
 ! D26   D(3,4,9,19)           -24.7178         estimate D2E/DX2                !
 ! D27   D(5,4,9,7)             60.8584         estimate D2E/DX2                !
 ! D28   D(5,4,9,18)           -59.6789         estimate D2E/DX2                !
 ! D29   D(5,4,9,19)           170.5749         estimate D2E/DX2                !
 ! D30   D(6,4,9,7)              1.2492         estimate D2E/DX2                !
 ! D31   D(6,4,9,18)          -119.2881         estimate D2E/DX2                !
 ! D32   D(6,4,9,19)           110.9657         estimate D2E/DX2                !
 ! D33   D(15,5,6,7)           -36.5822         estimate D2E/DX2                !
 ! D34   D(15,5,6,17)          125.8511         estimate D2E/DX2                !
 ! D35   D(16,5,6,7)          -176.8969         estimate D2E/DX2                !
 ! D36   D(16,5,6,17)          -14.4635         estimate D2E/DX2                !
 ! D37   D(4,6,7,8)           -171.1761         estimate D2E/DX2                !
 ! D38   D(4,6,7,9)              1.2849         estimate D2E/DX2                !
 ! D39   D(5,6,7,8)            133.7562         estimate D2E/DX2                !
 ! D40   D(5,6,7,9)            -53.7828         estimate D2E/DX2                !
 ! D41   D(17,6,7,8)           -27.1003         estimate D2E/DX2                !
 ! D42   D(17,6,7,9)           145.3607         estimate D2E/DX2                !
 ! D43   D(6,7,9,4)             -1.2868         estimate D2E/DX2                !
 ! D44   D(6,7,9,18)           119.2912         estimate D2E/DX2                !
 ! D45   D(6,7,9,19)          -113.9786         estimate D2E/DX2                !
 ! D46   D(8,7,9,4)            171.3412         estimate D2E/DX2                !
 ! D47   D(8,7,9,18)           -68.0807         estimate D2E/DX2                !
 ! D48   D(8,7,9,19)            58.6494         estimate D2E/DX2                !
 --------------------------------------------------------------------------------
 Trust Radius=3.00D-01 FncErr=1.00D-07 GrdErr=1.00D-06
 Number of steps in this run=    114 maximum allowed number of steps=    114.
 GradGradGradGradGradGradGradGradGradGradGradGradGradGradGradGradGradGrad

                          Input orientation:                          
 ---------------------------------------------------------------------
 Center     Atomic      Atomic             Coordinates (Angstroms)
 Number     Number       Type             X           Y           Z
 ---------------------------------------------------------------------
      1          6           0        2.816485   -0.131879   -1.717731
      2          6           0        1.955714    0.301577   -0.545500
      3          8           0        2.279497    1.657761   -0.234472
      4          6           0        1.575908    2.167248    0.825062
      5          6           0        1.940977    1.922266    2.246132
      6          6           0        2.027799    3.357032    1.696751
      7          6           0        0.643840    3.921400    1.584334
      8          8           0        0.143180    4.964849    1.893013
      9          6           0        0.139663    2.722181    0.732046
     10          1           0        2.594929   -1.168846   -1.986641
     11          1           0        2.626921    0.501294   -2.588864
     12          1           0        3.877564   -0.057308   -1.463797
     13          1           0        0.887041    0.221556   -0.794999
     14          1           0        2.137548   -0.332061    0.335142
     15          1           0        1.199739    1.661391    2.996433
     16          1           0        2.920746    1.481148    2.399738
     17          1           0        2.963129    3.901639    1.723711
     18          1           0       -0.678517    2.113342    1.127131
     19          1           0       -0.110002    3.069987   -0.274963
 ---------------------------------------------------------------------
                    Distance matrix (angstroms):
                    1          2          3          4          5
     1  C    0.000000
     2  C    1.517543   0.000000
     3  O    2.385628   1.428568   0.000000
     4  C    3.645657   2.345937   1.370120   0.000000
     5  C    4.549532   3.228012   2.517530   1.487525   0.000000
     6  C    4.945019   3.790605   2.584666   1.542605   1.538801
     7  C    5.661545   4.400036   3.332790   2.126568   2.473272
     8  O    6.794164   5.565764   4.475139   3.319608   3.551630
     9  C    4.616540   3.284736   2.577991   1.542531   2.485367
    10  H    1.093938   2.155835   3.340553   4.480357   5.281950
    11  H    1.093488   2.160033   2.645993   3.941437   5.085948
    12  H    1.093587   2.159995   2.646983   3.935117   4.629542
    13  H    2.167742   1.100325   2.077452   2.623900   3.640285
    14  H    2.171478   1.100042   2.074609   2.608066   2.961843
    15  H    5.296511   3.868576   3.406558   2.261028   1.086481
    16  H    4.423379   3.316188   2.716883   2.181496   1.085415
    17  H    5.304177   4.373173   3.055621   2.395842   2.288151
    18  H    5.034808   3.608235   3.288064   2.275211   2.854894
    19  H    4.571417   3.464746   2.775919   2.206193   3.446694
                    6          7          8          9         10
     6  C    0.000000
     7  C    1.498830   0.000000
     8  O    2.485032   1.197802   0.000000
     9  C    2.213311   1.555221   2.525354   0.000000
    10  H    5.862813   6.516840   7.660613   5.344126   0.000000
    11  H    5.184658   5.748505   6.795551   4.706085   1.775687
    12  H    5.006836   5.964745   7.101821   5.149679   1.775960
    13  H    4.164295   4.405589   5.502505   3.023833   2.504019
    14  H    3.933882   4.677988   5.870411   3.671168   2.509996
    15  H    2.291299   2.722258   3.639600   2.715969   5.898120
    16  H    2.193281   3.435696   4.484173   3.472144   5.135070
    17  H    1.082666   2.323557   3.018475   3.216594   6.293814
    18  H    3.032387   2.286205   3.064776   1.093707   5.584244
    19  H    2.922369   2.179488   2.890453   1.094244   5.311704
                   11         12         13         14         15
    11  H    0.000000
    12  H    1.772546   0.000000
    13  H    2.514635   3.077058   0.000000
    14  H    3.079574   2.517802   1.774114   0.000000
    15  H    5.880324   5.478898   4.067660   3.454823   0.000000
    16  H    5.092406   4.267230   3.991099   2.857216   1.830408
    17  H    5.502153   5.164267   4.919049   4.531437   3.122191
    18  H    5.228120   5.672962   3.118398   3.812803   2.688195
    19  H    4.409430   5.205188   3.062367   4.122820   3.794944
                   16         17         18         19
    16  H    0.000000
    17  H    2.513480   0.000000
    18  H    3.869611   4.100670   0.000000
    19  H    4.343255   3.759052   1.790041   0.000000
 Stoichiometry    C7H10O2
 Framework group  C1[X(C7H10O2)]
 Deg. of freedom    51
 Full point group                 C1      NOp   1
 Largest Abelian subgroup         C1      NOp   1
 Largest concise Abelian subgroup C1      NOp   1
                         Standard orientation:                         
 ---------------------------------------------------------------------
 Center     Atomic      Atomic             Coordinates (Angstroms)
 Number     Number       Type             X           Y           Z
 ---------------------------------------------------------------------
      1          6           0        3.527466   -0.320073   -0.354231
      2          6           0        2.236276   -0.162199    0.427333
      3          8           0        1.167847   -0.004043   -0.507682
      4          6           0       -0.060100    0.164590    0.076215
      5          6           0       -0.544493    1.467327    0.606282
      6          6           0       -1.273415    0.840395   -0.595191
      7          6           0       -2.128783   -0.291204   -0.111123
      8          8           0       -3.259661   -0.627132   -0.318475
      9          6           0       -0.938156   -0.986665    0.608221
     10          1           0        4.371239   -0.445417    0.330631
     11          1           0        3.476931   -1.195500   -1.007522
     12          1           0        3.711170    0.561203   -0.975149
     13          1           0        2.051408   -1.044341    1.058494
     14          1           0        2.279034    0.714828    1.089969
     15          1           0       -1.038423    1.551194    1.570357
     16          1           0        0.050451    2.329409    0.321706
     17          1           0       -1.357607    1.378837   -1.530689
     18          1           0       -1.001034   -1.134072    1.690123
     19          1           0       -0.721420   -1.939771    0.116302
 ---------------------------------------------------------------------
 Rotational constants (GHZ):      4.6562076      0.8679114      0.8138796
 Standard basis: 6-31G(2df,p) (6D, 7F)
 There are   329 symmetry adapted cartesian basis functions of A   symmetry.
 There are   302 symmetry adapted basis functions of A   symmetry.
   302 basis functions,   466 primitive gaussians,   329 cartesian basis functions
    34 alpha electrons       34 beta electrons
       nuclear repulsion energy       446.5497225608 Hartrees.
 NAtoms=   19 NActive=   19 NUniq=   19 SFac= 1.00D+00 NAtFMM=   60 NAOKFM=F Big=F
 Integral buffers will be    131072 words long.
 Raffenetti 2 integral format.
 Two-electron integral symmetry is turned on.
 One-electron integrals computed using PRISM.
 NBasis=   302 RedAO= T EigKep=  3.97D-04  NBF=   302
 NBsUse=   302 1.00D-06 EigRej= -1.00D+00 NBFU=   302
 ExpMin= 1.61D-01 ExpMax= 5.48D+03 ExpMxC= 8.25D+02 IAcc=1 IRadAn=         1 AccDes= 0.00D+00
 Harris functional with IExCor=  402 and IRadAn=       1 diagonalized for initial guess.
 HarFok:  IExCor=  402 AccDes= 0.00D+00 IRadAn=         1 IDoV= 1 UseB2=F ITyADJ=14
 ICtDFT=  3500011 ScaDFX=  1.000000  1.000000  1.000000  1.000000
 FoFCou: FMM=F IPFlag=           0 FMFlag=      100000 FMFlg1=           0
         NFxFlg=           0 DoJE=T BraDBF=F KetDBF=T FulRan=T
         wScrn=  0.000000 ICntrl=     500 IOpCl=  0 I1Cent=   200000004 NGrid=           0
         NMat0=    1 NMatS0=      1 NMatT0=    0 NMatD0=    1 NMtDS0=    0 NMtDT0=    0
 Petite list used in FoFCou.
 Requested convergence on RMS density matrix=1.00D-08 within 128 cycles.
 Requested convergence on MAX density matrix=1.00D-06.
 Requested convergence on             energy=1.00D-06.
 No special actions if energy rises.
 Integral accuracy reduced to 1.0D-05 until final iterations.
 Initial convergence to 1.0D-05 achieved.  Increase integral accuracy.
 SCF Done:  E(RB3LYP) =  -423.166821815     A.U. after   14 cycles
            NFock= 14  Conv=0.45D-08     -V/T= 2.0074

 **********************************************************************

            Population analysis using the SCF density.

 **********************************************************************

 Orbital symmetries:
       Occupied  (A) (A) (A) (A) (A) (A) (A) (A) (A) (A) (A) (A)
                 (A) (A) (A) (A) (A) (A) (A) (A) (A) (A) (A) (A)
                 (A) (A) (A) (A) (A) (A) (A) (A) (A) (A)
       Virtual   (A) (A) (A) (A) (A) (A) (A) (A) (A) (A) (A) (A)
                 (A) (A) (A) (A) (A) (A) (A) (A) (A) (A) (A) (A)
                 (A) (A) (A) (A) (A) (A) (A) (A) (A) (A) (A) (A)
                 (A) (A) (A) (A) (A) (A) (A) (A) (A) (A) (A) (A)
                 (A) (A) (A) (A) (A) (A) (A) (A) (A) (A) (A) (A)
                 (A) (A) (A) (A) (A) (A) (A) (A) (A) (A) (A) (A)
                 (A) (A) (A) (A) (A) (A) (A) (A) (A) (A) (A) (A)
                 (A) (A) (A) (A) (A) (A) (A) (A) (A) (A) (A) (A)
                 (A) (A) (A) (A) (A) (A) (A) (A) (A) (A) (A) (A)
                 (A) (A) (A) (A) (A) (A) (A) (A) (A) (A) (A) (A)
                 (A) (A) (A) (A) (A) (A) (A) (A) (A) (A) (A) (A)
                 (A) (A) (A) (A) (A) (A) (A) (A) (A) (A) (A) (A)
                 (A) (A) (A) (A) (A) (A) (A) (A) (A) (A) (A) (A)
                 (A) (A) (A) (A) (A) (A) (A) (A) (A) (A) (A) (A)
                 (A) (A) (A) (A) (A) (A) (A) (A) (A) (A) (A) (A)
                 (A) (A) (A) (A) (A) (A) (A) (A) (A) (A) (A) (A)
                 (A) (A) (A) (A) (A) (A) (A) (A) (A) (A) (A) (A)
                 (A) (A) (A) (A) (A) (A) (A) (A) (A) (A) (A) (A)
                 (A) (A) (A) (A) (A) (A) (A) (A) (A) (A) (A) (A)
                 (A) (A) (A) (A) (A) (A) (A) (A) (A) (A) (A) (A)
                 (A) (A) (A) (A) (A) (A) (A) (A) (A) (A) (A) (A)
                 (A) (A) (A) (A) (A) (A) (A) (A) (A) (A) (A) (A)
                 (A) (A) (A) (A)
 The electronic state is 1-A.
 Alpha  occ. eigenvalues --  -19.16017 -19.12907 -10.27024 -10.26058 -10.24067
 Alpha  occ. eigenvalues --  -10.20835 -10.20430 -10.19462 -10.18492  -1.05855
 Alpha  occ. eigenvalues --   -1.03944  -0.90305  -0.76467  -0.73418  -0.64479
 Alpha  occ. eigenvalues --   -0.63650  -0.57487  -0.53803  -0.51208  -0.49066
 Alpha  occ. eigenvalues --   -0.46892  -0.45503  -0.43799  -0.41537  -0.40323
 Alpha  occ. eigenvalues --   -0.39997  -0.38872  -0.38654  -0.36563  -0.34867
 Alpha  occ. eigenvalues --   -0.32213  -0.27559  -0.26631  -0.24092
 Alpha virt. eigenvalues --   -0.00953   0.08467   0.09771   0.10571   0.11520
 Alpha virt. eigenvalues --    0.13147   0.13559   0.14208   0.15019   0.15920
 Alpha virt. eigenvalues --    0.16765   0.17497   0.18329   0.18975   0.20346
 Alpha virt. eigenvalues --    0.23533   0.25513   0.26184   0.28966   0.31923
 Alpha virt. eigenvalues --    0.34849   0.41922   0.44033   0.44627   0.45915
 Alpha virt. eigenvalues --    0.47515   0.50194   0.50423   0.51674   0.52778
 Alpha virt. eigenvalues --    0.53152   0.54579   0.55898   0.57211   0.57585
 Alpha virt. eigenvalues --    0.59433   0.62183   0.62431   0.64671   0.66044
 Alpha virt. eigenvalues --    0.68073   0.70119   0.71481   0.72512   0.73669
 Alpha virt. eigenvalues --    0.73728   0.74493   0.75746   0.77408   0.77929
 Alpha virt. eigenvalues --    0.79302   0.81423   0.81469   0.83200   0.85868
 Alpha virt. eigenvalues --    0.87938   0.90286   0.92503   0.95762   0.96478
 Alpha virt. eigenvalues --    0.97532   1.00350   1.01881   1.03637   1.07432
 Alpha virt. eigenvalues --    1.08774   1.12358   1.16377   1.17412   1.18992
 Alpha virt. eigenvalues --    1.20197   1.23288   1.25608   1.27062   1.29632
 Alpha virt. eigenvalues --    1.31786   1.33102   1.35339   1.38094   1.40669
 Alpha virt. eigenvalues --    1.42097   1.43830   1.45844   1.46815   1.50055
 Alpha virt. eigenvalues --    1.50550   1.51740   1.54975   1.56069   1.57076
 Alpha virt. eigenvalues --    1.58730   1.59910   1.62166   1.64267   1.66773
 Alpha virt. eigenvalues --    1.70215   1.71521   1.74846   1.75337   1.77002
 Alpha virt. eigenvalues --    1.79753   1.81915   1.85150   1.87936   1.91304
 Alpha virt. eigenvalues --    1.94298   1.95118   1.97598   2.01690   2.09317
 Alpha virt. eigenvalues --    2.12611   2.16588   2.18290   2.22102   2.25776
 Alpha virt. eigenvalues --    2.27330   2.31049   2.32700   2.34748   2.39424
 Alpha virt. eigenvalues --    2.41975   2.44439   2.49146   2.54350   2.56150
 Alpha virt. eigenvalues --    2.58668   2.63838   2.66093   2.72514   2.74850
 Alpha virt. eigenvalues --    2.76286   2.78489   2.79036   2.79831   2.80870
 Alpha virt. eigenvalues --    2.84557   2.85722   2.87825   2.88014   2.91403
 Alpha virt. eigenvalues --    2.93952   2.95679   2.97435   2.98393   3.02398
 Alpha virt. eigenvalues --    3.03274   3.05820   3.07428   3.09597   3.10668
 Alpha virt. eigenvalues --    3.14339   3.17090   3.18069   3.20125   3.24989
 Alpha virt. eigenvalues --    3.26071   3.27989   3.31143   3.33146   3.33733
 Alpha virt. eigenvalues --    3.36616   3.38244   3.41696   3.43605   3.47355
 Alpha virt. eigenvalues --    3.49330   3.51722   3.54799   3.57373   3.58753
 Alpha virt. eigenvalues --    3.63319   3.65689   3.71747   3.74289   3.75705
 Alpha virt. eigenvalues --    3.80323   3.83310   3.87096   3.88467   3.91329
 Alpha virt. eigenvalues --    3.93257   3.98301   4.01789   4.02400   4.04986
 Alpha virt. eigenvalues --    4.06361   4.10374   4.12271   4.14857   4.23235
 Alpha virt. eigenvalues --    4.25671   4.27462   4.29668   4.32710   4.34385
 Alpha virt. eigenvalues --    4.37416   4.40443   4.42072   4.43114   4.44726
 Alpha virt. eigenvalues --    4.46649   4.48864   4.49511   4.50726   4.52994
 Alpha virt. eigenvalues --    4.56942   4.57529   4.59790   4.62481   4.62947
 Alpha virt. eigenvalues --    4.64893   4.65710   4.67937   4.69855   4.71080
 Alpha virt. eigenvalues --    4.73409   4.75986   4.76521   4.78036   4.79029
 Alpha virt. eigenvalues --    4.82384   4.83528   4.86417   4.88969   4.90548
 Alpha virt. eigenvalues --    4.93905   4.96895   5.00444   5.03814   5.05892
 Alpha virt. eigenvalues --    5.09256   5.10746   5.15555   5.20491   5.27539
 Alpha virt. eigenvalues --    5.33466   5.34853   5.39426   5.42481   5.43477
 Alpha virt. eigenvalues --    5.51871   5.56732   5.59184   5.60264   5.63237
 Alpha virt. eigenvalues --    5.68491   5.75209   5.84625   5.90395   6.02634
 Alpha virt. eigenvalues --    6.06064   6.11913   6.14575   6.26069   6.45502
 Alpha virt. eigenvalues --    6.66050   6.78869   6.92325   7.22555  10.85197
 Alpha virt. eigenvalues --   11.27483  11.48678  11.73575  11.89094  12.10146
 Alpha virt. eigenvalues --   12.65279  13.20254  13.80131
          Condensed to atoms (all electrons):
               1          2          3          4          5          6
     1  C    4.947059   0.423979  -0.033740   0.001022   0.000420  -0.000275
     2  C    0.423979   4.731727   0.361545  -0.091904  -0.006769   0.005129
     3  O   -0.033740   0.361545   7.682772   0.440173  -0.039798  -0.014201
     4  C    0.001022  -0.091904   0.440173   4.363152   0.305811   0.282537
     5  C    0.000420  -0.006769  -0.039798   0.305811   5.161994   0.243907
     6  C   -0.000275   0.005129  -0.014201   0.282537   0.243907   5.389281
     7  C   -0.000007  -0.000297   0.000536  -0.044495   0.007149   0.314668
     8  O    0.000000  -0.000001   0.000002   0.002178  -0.001970  -0.056925
     9  C    0.000052  -0.002794  -0.046897   0.356550  -0.035221  -0.246424
    10  H    0.367133  -0.021725   0.002211  -0.000056   0.000007   0.000002
    11  H    0.377457  -0.025801   0.001811   0.000509   0.000020   0.000000
    12  H    0.376941  -0.026180   0.001954   0.000483  -0.000052  -0.000009
    13  H   -0.036927   0.360280  -0.033692   0.002386  -0.001761  -0.000299
    14  H   -0.035385   0.355958  -0.034078   0.002181   0.011465   0.000266
    15  H   -0.000004   0.000431   0.001777  -0.016091   0.365715  -0.018673
    16  H   -0.000074  -0.000078  -0.001551  -0.007480   0.359104  -0.013529
    17  H    0.000007  -0.000079  -0.000044  -0.025177  -0.028154   0.368785
    18  H   -0.000008   0.000522   0.001712  -0.014558  -0.008125   0.009665
    19  H   -0.000014  -0.000095   0.000262  -0.014847   0.005557   0.001833
               7          8          9         10         11         12
     1  C   -0.000007   0.000000   0.000052   0.367133   0.377457   0.376941
     2  C   -0.000297  -0.000001  -0.002794  -0.021725  -0.025801  -0.026180
     3  O    0.000536   0.000002  -0.046897   0.002211   0.001811   0.001954
     4  C   -0.044495   0.002178   0.356550  -0.000056   0.000509   0.000483
     5  C    0.007149  -0.001970  -0.035221   0.000007   0.000020  -0.000052
     6  C    0.314668  -0.056925  -0.246424   0.000002   0.000000  -0.000009
     7  C    4.206082   0.820906   0.313045   0.000000   0.000000   0.000001
     8  O    0.820906   7.610799  -0.061252   0.000000   0.000000   0.000000
     9  C    0.313045  -0.061252   5.464602   0.000006  -0.000046   0.000020
    10  H    0.000000   0.000000   0.000006   0.589378  -0.028587  -0.028558
    11  H    0.000000   0.000000  -0.000046  -0.028587   0.575518  -0.032194
    12  H    0.000001   0.000000   0.000020  -0.028558  -0.032194   0.578240
    13  H    0.000203   0.000000   0.008496   0.000344  -0.005971   0.005743
    14  H   -0.000063   0.000000  -0.001523   0.000247   0.005699  -0.005996
    15  H   -0.010449   0.000518  -0.004198   0.000000   0.000000   0.000000
    16  H    0.001696  -0.000020   0.003696   0.000002   0.000000   0.000035
    17  H   -0.028790  -0.000361   0.012861   0.000000   0.000000   0.000001
    18  H   -0.013275   0.001196   0.337166   0.000000   0.000000   0.000000
    19  H   -0.002916  -0.001139   0.335005   0.000001   0.000024   0.000000
              13         14         15         16         17         18
     1  C   -0.036927  -0.035385  -0.000004  -0.000074   0.000007  -0.000008
     2  C    0.360280   0.355958   0.000431  -0.000078  -0.000079   0.000522
     3  O   -0.033692  -0.034078   0.001777  -0.001551  -0.000044   0.001712
     4  C    0.002386   0.002181  -0.016091  -0.007480  -0.025177  -0.014558
     5  C   -0.001761   0.011465   0.365715   0.359104  -0.028154  -0.008125
     6  C   -0.000299   0.000266  -0.018673  -0.013529   0.368785   0.009665
     7  C    0.000203  -0.000063  -0.010449   0.001696  -0.028790  -0.013275
     8  O    0.000000   0.000000   0.000518  -0.000020  -0.000361   0.001196
     9  C    0.008496  -0.001523  -0.004198   0.003696   0.012861   0.337166
    10  H    0.000344   0.000247   0.000000   0.000002   0.000000   0.000000
    11  H   -0.005971   0.005699   0.000000   0.000000   0.000000   0.000000
    12  H    0.005743  -0.005996   0.000000   0.000035   0.000001   0.000000
    13  H    0.659106  -0.057441  -0.000015   0.000198  -0.000003  -0.000502
    14  H   -0.057441   0.661283  -0.000690   0.000258   0.000019   0.000061
    15  H   -0.000015  -0.000690   0.592579  -0.038879   0.001448   0.004573
    16  H    0.000198   0.000258  -0.038879   0.570453  -0.003709   0.000065
    17  H   -0.000003   0.000019   0.001448  -0.003709   0.586044  -0.000322
    18  H   -0.000502   0.000061   0.004573   0.000065  -0.000322   0.600658
    19  H   -0.000018   0.000161  -0.000155  -0.000141  -0.000208  -0.034775
              19
     1  C   -0.000014
     2  C   -0.000095
     3  O    0.000262
     4  C   -0.014847
     5  C    0.005557
     6  C    0.001833
     7  C   -0.002916
     8  O   -0.001139
     9  C    0.335005
    10  H    0.000001
    11  H    0.000024
    12  H    0.000000
    13  H   -0.000018
    14  H    0.000161
    15  H   -0.000155
    16  H   -0.000141
    17  H   -0.000208
    18  H   -0.034775
    19  H    0.574626
 Mulliken charges:
               1
     1  C   -0.387635
     2  C   -0.063846
     3  O   -0.290754
     4  C    0.457624
     5  C   -0.339299
     6  C   -0.265740
     7  C    0.436008
     8  O   -0.313931
     9  C   -0.433145
    10  H    0.119595
    11  H    0.131562
    12  H    0.129573
    13  H    0.099870
    14  H    0.097578
    15  H    0.122113
    16  H    0.129957
    17  H    0.117683
    18  H    0.115947
    19  H    0.136840
 Sum of Mulliken charges =   0.00000
 Mulliken charges with hydrogens summed into heavy atoms:
               1
     1  C   -0.006904
     2  C    0.133602
     3  O   -0.290754
     4  C    0.457624
     5  C   -0.087230
     6  C   -0.148057
     7  C    0.436008
     8  O   -0.313931
     9  C   -0.180358
 Electronic spatial extent (au):  <R**2>=           1455.2423
 Charge=              0.0000 electrons
 Dipole moment (field-independent basis, Debye):
    X=              3.4509    Y=              0.9326    Z=              1.3839  Tot=              3.8332
 Quadrupole moment (field-independent basis, Debye-Ang):
   XX=            -63.2700   YY=            -51.0341   ZZ=            -52.1293
   XY=             -3.1447   XZ=             -0.2647   YZ=             -0.7114
 Traceless Quadrupole moment (field-independent basis, Debye-Ang):
   XX=             -7.7922   YY=              4.4437   ZZ=              3.3485
   XY=             -3.1447   XZ=             -0.2647   YZ=             -0.7114
 Octapole moment (field-independent basis, Debye-Ang**2):
  XXX=             59.1767  YYY=             -1.2603  ZZZ=             -2.5805  XYY=              1.4153
  XXY=              8.7886  XXZ=              6.8585  XZZ=             -4.8561  YZZ=              0.5686
  YYZ=             -2.2999  XYZ=              1.0283
 Hexadecapole moment (field-independent basis, Debye-Ang**3):
 XXXX=          -1596.9795 YYYY=           -258.3354 ZZZZ=           -153.2588 XXXY=            -33.1377
 XXXZ=            -13.0503 YYYX=              9.6529 YYYZ=              1.0960 ZZZX=              0.9722
 ZZZY=             -1.8962 XXYY=           -293.0258 XXZZ=           -263.1162 YYZZ=            -66.6048
 XXYZ=             -3.6666 YYXZ=             -0.0632 ZZXY=             -0.6110
 N-N= 4.465497225608D+02 E-N=-1.879350891486D+03  KE= 4.200397340044D+02
 Calling FoFJK, ICntrl=      2127 FMM=F ISym2X=0 I1Cent= 0 IOpClX= 0 NMat=1 NMatS=1 NMatT=0.
 ***** Axes restored to original set *****
 -------------------------------------------------------------------
 Center     Atomic                   Forces (Hartrees/Bohr)
 Number     Number              X              Y              Z
 -------------------------------------------------------------------
      1        6          -0.000002180   -0.000001282    0.000000903
      2        6           0.000003864    0.000038325    0.000009325
      3        8          -0.000000187   -0.000023969    0.000009759
      4        6          -0.000025146   -0.000012460   -0.000029818
      5        6          -0.000018713   -0.000000927    0.000024721
      6        6           0.000028499   -0.000023721    0.000009852
      7        6           0.000020765    0.000010271    0.000009726
      8        8          -0.000001915   -0.000007563   -0.000007638
      9        6          -0.000003447    0.000002927   -0.000008387
     10        1           0.000003755    0.000000115   -0.000001536
     11        1           0.000003929    0.000001723   -0.000001827
     12        1           0.000004619    0.000000485   -0.000000257
     13        1          -0.000002101   -0.000003243   -0.000003172
     14        1           0.000002225   -0.000006633    0.000000981
     15        1           0.000000452    0.000000163   -0.000001569
     16        1           0.000005013    0.000002972   -0.000014013
     17        1          -0.000019557    0.000023619    0.000006803
     18        1           0.000002980   -0.000001679   -0.000003656
     19        1          -0.000002855    0.000000877   -0.000000196
 -------------------------------------------------------------------
 Cartesian Forces:  Max     0.000038325 RMS     0.000012275

 GradGradGradGradGradGradGradGradGradGradGradGradGradGradGradGradGradGrad
 Berny optimization.
 FormGI is forming the generalized inverse of G from B-inverse, IUseBI=4.
 GSVD:  received Info=                   1 from GESDD.
 Internal  Forces:  Max     0.000025368 RMS     0.000005166
 Search for a local minimum.
 Step number   1 out of a maximum of  114
 All quantities printed in internal units (Hartrees-Bohrs-Radians)
 Mixed Optimization -- En-DIIS/RFO-DIIS
 Second derivative matrix not updated -- first step.
 ITU=  0
     Eigenvalues ---    0.00534   0.00537   0.00780   0.01314   0.01793
     Eigenvalues ---    0.02087   0.02551   0.03076   0.03207   0.04733
     Eigenvalues ---    0.04949   0.05330   0.05451   0.05719   0.05746
     Eigenvalues ---    0.05837   0.06050   0.07634   0.08997   0.10487
     Eigenvalues ---    0.11244   0.12796   0.13657   0.16000   0.16000
     Eigenvalues ---    0.16000   0.16589   0.19066   0.21947   0.22818
     Eigenvalues ---    0.23191   0.24286   0.25000   0.26496   0.27146
     Eigenvalues ---    0.30537   0.30604   0.31358   0.33646   0.33678
     Eigenvalues ---    0.34327   0.34362   0.34388   0.34401   0.34413
     Eigenvalues ---    0.35223   0.35348   0.35674   0.41196   0.50954
     Eigenvalues ---    1.05935
 RFO step:  Lambda=-2.60754715D-08 EMin= 5.33885782D-03
 Linear search not attempted -- first point.
 Iteration  1 RMS(Cart)=  0.00010482 RMS(Int)=  0.00000001
 Iteration  2 RMS(Cart)=  0.00000001 RMS(Int)=  0.00000000
 Variable       Old X    -DE/DX   Delta X   Delta X   Delta X     New X
                                 (Linear)    (Quad)   (Total)
    R1        2.86774   0.00001   0.00000   0.00002   0.00002   2.86776
    R2        2.06724   0.00000   0.00000   0.00000   0.00000   2.06724
    R3        2.06639   0.00000   0.00000   0.00001   0.00001   2.06640
    R4        2.06658   0.00000   0.00000   0.00001   0.00001   2.06659
    R5        2.69960  -0.00003   0.00000  -0.00006  -0.00006   2.69954
    R6        2.07931   0.00000   0.00000   0.00001   0.00001   2.07932
    R7        2.07878   0.00001   0.00000   0.00002   0.00002   2.07879
    R8        2.58915  -0.00001   0.00000  -0.00002  -0.00002   2.58913
    R9        2.81102   0.00001   0.00000   0.00004   0.00004   2.81105
   R10        2.91510   0.00001   0.00000   0.00007   0.00007   2.91517
   R11        2.91496   0.00000   0.00000  -0.00001  -0.00001   2.91495
   R12        2.90791   0.00000   0.00000  -0.00003  -0.00003   2.90788
   R13        2.05315   0.00000   0.00000  -0.00001  -0.00001   2.05314
   R14        2.05114   0.00000   0.00000   0.00001   0.00001   2.05115
   R15        2.83238  -0.00001   0.00000  -0.00003  -0.00003   2.83235
   R16        2.04594   0.00000   0.00000  -0.00001  -0.00001   2.04593
   R17        2.26352  -0.00001   0.00000  -0.00001  -0.00001   2.26351
   R18        2.93894   0.00001   0.00000   0.00002   0.00002   2.93896
   R19        2.06681   0.00000   0.00000  -0.00001  -0.00001   2.06680
   R20        2.06782   0.00000   0.00000   0.00000   0.00000   2.06782
    A1        1.92384   0.00000   0.00000   0.00001   0.00001   1.92386
    A2        1.93014   0.00000   0.00000   0.00001   0.00001   1.93015
    A3        1.92998   0.00000   0.00000   0.00001   0.00001   1.92999
    A4        1.89435   0.00000   0.00000  -0.00001  -0.00001   1.89435
    A5        1.89466   0.00000   0.00000  -0.00001  -0.00001   1.89464
    A6        1.88989   0.00000   0.00000  -0.00002  -0.00002   1.88987
    A7        1.88681   0.00000   0.00000   0.00000   0.00000   1.88681
    A8        1.93368   0.00000   0.00000  -0.00003  -0.00003   1.93365
    A9        1.93918   0.00000   0.00000  -0.00003  -0.00003   1.93915
   A10        1.91616   0.00000   0.00000   0.00004   0.00004   1.91619
   A11        1.91247   0.00000   0.00000   0.00003   0.00003   1.91250
   A12        1.87568   0.00000   0.00000   0.00000   0.00000   1.87567
   A13        1.98777   0.00000   0.00000   0.00001   0.00001   1.98778
   A14        2.15495   0.00000   0.00000  -0.00005  -0.00005   2.15490
   A15        2.18139   0.00000   0.00000  -0.00002  -0.00002   2.18138
   A16        2.17158   0.00000   0.00000   0.00003   0.00003   2.17160
   A17        1.92342   0.00000   0.00000   0.00004   0.00004   1.92346
   A18        1.60016   0.00000   0.00000   0.00000   0.00000   1.60016
   A19        2.13156   0.00000   0.00000   0.00005   0.00005   2.13162
   A20        2.00828  -0.00001   0.00000  -0.00013  -0.00013   2.00815
   A21        2.10473   0.00000   0.00000   0.00002   0.00002   2.10475
   A22        1.95900  -0.00001   0.00000  -0.00005  -0.00005   1.95894
   A23        2.00482   0.00001   0.00000   0.00006   0.00006   2.00487
   A24        1.54834   0.00000   0.00000  -0.00002  -0.00002   1.54832
   A25        2.28514   0.00001   0.00000   0.00015   0.00015   2.28528
   A26        1.90261   0.00000   0.00000   0.00003   0.00003   1.90264
   A27        2.10467   0.00001   0.00000   0.00012   0.00012   2.10479
   A28        2.22706  -0.00001   0.00000  -0.00017  -0.00017   2.22689
   A29        2.33871   0.00000   0.00000   0.00000   0.00000   2.33871
   A30        1.62091   0.00000   0.00000   0.00003   0.00003   1.62094
   A31        2.31509  -0.00001   0.00000  -0.00005  -0.00005   2.31504
   A32        1.51328   0.00000   0.00000  -0.00001  -0.00001   1.51327
   A33        2.06517   0.00000   0.00000  -0.00004  -0.00004   2.06514
   A34        1.96306   0.00000   0.00000   0.00004   0.00004   1.96310
   A35        2.06440   0.00000   0.00000   0.00002   0.00002   2.06441
   A36        1.91050   0.00000   0.00000   0.00000   0.00000   1.91050
   A37        1.91632   0.00000   0.00000  -0.00001  -0.00001   1.91632
    D1       -3.14027   0.00000   0.00000  -0.00005  -0.00005  -3.14031
    D2       -1.03993   0.00000   0.00000  -0.00002  -0.00002  -1.03995
    D3        1.04380   0.00000   0.00000  -0.00006  -0.00006   1.04374
    D4       -1.04543   0.00000   0.00000  -0.00004  -0.00004  -1.04547
    D5        1.05490   0.00000   0.00000  -0.00001  -0.00001   1.05489
    D6        3.13864   0.00000   0.00000  -0.00005  -0.00005   3.13859
    D7        1.04781   0.00000   0.00000  -0.00004  -0.00004   1.04776
    D8       -3.13504   0.00000   0.00000  -0.00002  -0.00002  -3.13506
    D9       -1.05131   0.00000   0.00000  -0.00006  -0.00006  -1.05137
   D10       -3.12916   0.00000   0.00000  -0.00019  -0.00019  -3.12934
   D11        1.04277   0.00000   0.00000  -0.00018  -0.00018   1.04259
   D12       -1.01340   0.00000   0.00000  -0.00021  -0.00021  -1.01361
   D13        1.41801   0.00000   0.00000   0.00003   0.00003   1.41803
   D14        2.73969   0.00000   0.00000  -0.00006  -0.00006   2.73964
   D15       -1.42232   0.00000   0.00000  -0.00004  -0.00004  -1.42237
   D16       -2.36075   0.00000   0.00000   0.00000   0.00000  -2.36076
   D17        0.21090   0.00000   0.00000  -0.00003  -0.00003   0.21087
   D18        0.51697   0.00000   0.00000   0.00006   0.00006   0.51703
   D19        3.08862   0.00001   0.00000   0.00003   0.00003   3.08865
   D20        2.33885   0.00000   0.00000   0.00003   0.00003   2.33888
   D21       -0.14004   0.00001   0.00000   0.00019   0.00019  -0.13984
   D22       -0.02259   0.00000   0.00000   0.00001   0.00001  -0.02258
   D23       -2.50148   0.00001   0.00000   0.00017   0.00017  -2.50131
   D24       -2.34632   0.00000   0.00000   0.00000   0.00000  -2.34633
   D25        1.83309   0.00000   0.00000  -0.00001  -0.00001   1.83308
   D26       -0.43141   0.00000   0.00000   0.00000   0.00000  -0.43141
   D27        1.06218   0.00000   0.00000  -0.00005  -0.00005   1.06213
   D28       -1.04159   0.00000   0.00000  -0.00006  -0.00006  -1.04165
   D29        2.97709   0.00000   0.00000  -0.00005  -0.00005   2.97705
   D30        0.02180   0.00000   0.00000  -0.00001  -0.00001   0.02180
   D31       -2.08197   0.00000   0.00000  -0.00001  -0.00001  -2.08198
   D32        1.93672   0.00000   0.00000   0.00000   0.00000   1.93672
   D33       -0.63848   0.00000   0.00000  -0.00011  -0.00011  -0.63859
   D34        2.19652  -0.00001   0.00000  -0.00020  -0.00020   2.19631
   D35       -3.08743  -0.00001   0.00000  -0.00016  -0.00016  -3.08760
   D36       -0.25244  -0.00001   0.00000  -0.00026  -0.00026  -0.25269
   D37       -2.98759   0.00000   0.00000   0.00015   0.00015  -2.98744
   D38        0.02243   0.00000   0.00000  -0.00001  -0.00001   0.02242
   D39        2.33449   0.00000   0.00000   0.00016   0.00016   2.33464
   D40       -0.93869   0.00000   0.00000   0.00000   0.00000  -0.93869
   D41       -0.47299   0.00000   0.00000   0.00019   0.00019  -0.47280
   D42        2.53702   0.00000   0.00000   0.00003   0.00003   2.53706
   D43       -0.02246   0.00000   0.00000   0.00001   0.00001  -0.02245
   D44        2.08202   0.00000   0.00000  -0.00004  -0.00004   2.08199
   D45       -1.98930   0.00000   0.00000  -0.00003  -0.00003  -1.98934
   D46        2.99047   0.00000   0.00000  -0.00014  -0.00014   2.99033
   D47       -1.18823   0.00000   0.00000  -0.00019  -0.00019  -1.18842
   D48        1.02363   0.00000   0.00000  -0.00018  -0.00018   1.02344
         Item               Value     Threshold  Converged?
 Maximum Force            0.000025     0.000450     YES
 RMS     Force            0.000005     0.000300     YES
 Maximum Displacement     0.000353     0.001800     YES
 RMS     Displacement     0.000105     0.001200     YES
 Predicted change in Energy=-1.303835D-08
 Optimization completed.
    -- Stationary point found.
                           ----------------------------
                           !   Optimized Parameters   !
                           ! (Angstroms and Degrees)  !
 --------------------------                            --------------------------
 ! Name  Definition              Value          Derivative Info.                !
 --------------------------------------------------------------------------------
 ! R1    R(1,2)                  1.5175         -DE/DX =    0.0                 !
 ! R2    R(1,10)                 1.0939         -DE/DX =    0.0                 !
 ! R3    R(1,11)                 1.0935         -DE/DX =    0.0                 !
 ! R4    R(1,12)                 1.0936         -DE/DX =    0.0                 !
 ! R5    R(2,3)                  1.4286         -DE/DX =    0.0                 !
 ! R6    R(2,13)                 1.1003         -DE/DX =    0.0                 !
 ! R7    R(2,14)                 1.1            -DE/DX =    0.0                 !
 ! R8    R(3,4)                  1.3701         -DE/DX =    0.0                 !
 ! R9    R(4,5)                  1.4875         -DE/DX =    0.0                 !
 ! R10   R(4,6)                  1.5426         -DE/DX =    0.0                 !
 ! R11   R(4,9)                  1.5425         -DE/DX =    0.0                 !
 ! R12   R(5,6)                  1.5388         -DE/DX =    0.0                 !
 ! R13   R(5,15)                 1.0865         -DE/DX =    0.0                 !
 ! R14   R(5,16)                 1.0854         -DE/DX =    0.0                 !
 ! R15   R(6,7)                  1.4988         -DE/DX =    0.0                 !
 ! R16   R(6,17)                 1.0827         -DE/DX =    0.0                 !
 ! R17   R(7,8)                  1.1978         -DE/DX =    0.0                 !
 ! R18   R(7,9)                  1.5552         -DE/DX =    0.0                 !
 ! R19   R(9,18)                 1.0937         -DE/DX =    0.0                 !
 ! R20   R(9,19)                 1.0942         -DE/DX =    0.0                 !
 ! A1    A(2,1,10)             110.2282         -DE/DX =    0.0                 !
 ! A2    A(2,1,11)             110.5887         -DE/DX =    0.0                 !
 ! A3    A(2,1,12)             110.5797         -DE/DX =    0.0                 !
 ! A4    A(10,1,11)            108.5385         -DE/DX =    0.0                 !
 ! A5    A(10,1,12)            108.5558         -DE/DX =    0.0                 !
 ! A6    A(11,1,12)            108.2827         -DE/DX =    0.0                 !
 ! A7    A(1,2,3)              108.1061         -DE/DX =    0.0                 !
 ! A8    A(1,2,13)             110.7917         -DE/DX =    0.0                 !
 ! A9    A(1,2,14)             111.1066         -DE/DX =    0.0                 !
 ! A10   A(3,2,13)             109.7878         -DE/DX =    0.0                 !
 ! A11   A(3,2,14)             109.5765         -DE/DX =    0.0                 !
 ! A12   A(13,2,14)            107.4683         -DE/DX =    0.0                 !
 ! A13   A(2,3,4)              113.8906         -DE/DX =    0.0                 !
 ! A14   A(3,4,5)              123.4698         -DE/DX =    0.0                 !
 ! A15   A(3,4,6)              124.9846         -DE/DX =    0.0                 !
 ! A16   A(3,4,9)              124.4221         -DE/DX =    0.0                 !
 ! A17   A(5,4,9)              110.2041         -DE/DX =    0.0                 !
 ! A18   A(6,4,9)               91.6823         -DE/DX =    0.0                 !
 ! A19   A(4,5,15)             122.1296         -DE/DX =    0.0                 !
 ! A20   A(4,5,16)             115.0659         -DE/DX =    0.0                 !
 ! A21   A(6,5,15)             120.5919         -DE/DX =    0.0                 !
 ! A22   A(6,5,16)             112.2422         -DE/DX =    0.0                 !
 ! A23   A(15,5,16)            114.8675         -DE/DX =    0.0                 !
 ! A24   A(4,6,7)               88.7134         -DE/DX =    0.0                 !
 ! A25   A(4,6,17)             130.9287         -DE/DX =    0.0                 !
 ! A26   A(5,6,7)              109.0117         -DE/DX =    0.0                 !
 ! A27   A(5,6,17)             120.5885         -DE/DX =    0.0                 !
 ! A28   A(7,6,17)             127.6012         -DE/DX =    0.0                 !
 ! A29   A(6,7,8)              133.9982         -DE/DX =    0.0                 !
 ! A30   A(6,7,9)               92.8714         -DE/DX =    0.0                 !
 ! A31   A(8,7,9)              132.6447         -DE/DX =    0.0                 !
 ! A32   A(4,9,7)               86.7044         -DE/DX =    0.0                 !
 ! A33   A(4,9,18)             118.3258         -DE/DX =    0.0                 !
 ! A34   A(4,9,19)             112.4752         -DE/DX =    0.0                 !
 ! A35   A(7,9,18)             118.2812         -DE/DX =    0.0                 !
 ! A36   A(7,9,19)             109.4633         -DE/DX =    0.0                 !
 ! A37   A(18,9,19)            109.7972         -DE/DX =    0.0                 !
 ! D1    D(10,1,2,3)          -179.924          -DE/DX =    0.0                 !
 ! D2    D(10,1,2,13)          -59.5838         -DE/DX =    0.0                 !
 ! D3    D(10,1,2,14)           59.8056         -DE/DX =    0.0                 !
 ! D4    D(11,1,2,3)           -59.8987         -DE/DX =    0.0                 !
 ! D5    D(11,1,2,13)           60.4415         -DE/DX =    0.0                 !
 ! D6    D(11,1,2,14)          179.8308         -DE/DX =    0.0                 !
 ! D7    D(12,1,2,3)            60.035          -DE/DX =    0.0                 !
 ! D8    D(12,1,2,13)         -179.6247         -DE/DX =    0.0                 !
 ! D9    D(12,1,2,14)          -60.2354         -DE/DX =    0.0                 !
 ! D10   D(1,2,3,4)           -179.2874         -DE/DX =    0.0                 !
 ! D11   D(13,2,3,4)            59.7461         -DE/DX =    0.0                 !
 ! D12   D(14,2,3,4)           -58.0634         -DE/DX =    0.0                 !
 ! D13   D(2,3,4,5)             81.2458         -DE/DX =    0.0                 !
 ! D14   D(2,3,4,6)            156.9729         -DE/DX =    0.0                 !
 ! D15   D(2,3,4,9)            -81.4931         -DE/DX =    0.0                 !
 ! D16   D(3,4,5,15)          -135.2613         -DE/DX =    0.0                 !
 ! D17   D(3,4,5,16)            12.0834         -DE/DX =    0.0                 !
 ! D18   D(9,4,5,15)            29.6202         -DE/DX =    0.0                 !
 ! D19   D(9,4,5,16)           176.9649         -DE/DX =    0.0                 !
 ! D20   D(3,4,6,7)            134.0062         -DE/DX =    0.0                 !
 ! D21   D(3,4,6,17)            -8.0234         -DE/DX =    0.0                 !
 ! D22   D(9,4,6,7)             -1.2944         -DE/DX =    0.0                 !
 ! D23   D(9,4,6,17)          -143.3241         -DE/DX =    0.0                 !
 ! D24   D(3,4,9,7)           -134.4343         -DE/DX =    0.0                 !
 ! D25   D(3,4,9,18)           105.0284         -DE/DX =    0.0                 !
 ! D26   D(3,4,9,19)           -24.7178         -DE/DX =    0.0                 !
 ! D27   D(5,4,9,7)             60.8584         -DE/DX =    0.0                 !
 ! D28   D(5,4,9,18)           -59.6789         -DE/DX =    0.0                 !
 ! D29   D(5,4,9,19)           170.5749         -DE/DX =    0.0                 !
 ! D30   D(6,4,9,7)              1.2492         -DE/DX =    0.0                 !
 ! D31   D(6,4,9,18)          -119.2881         -DE/DX =    0.0                 !
 ! D32   D(6,4,9,19)           110.9657         -DE/DX =    0.0                 !
 ! D33   D(15,5,6,7)           -36.5822         -DE/DX =    0.0                 !
 ! D34   D(15,5,6,17)          125.8511         -DE/DX =    0.0                 !
 ! D35   D(16,5,6,7)          -176.8969         -DE/DX =    0.0                 !
 ! D36   D(16,5,6,17)          -14.4635         -DE/DX =    0.0                 !
 ! D37   D(4,6,7,8)           -171.1761         -DE/DX =    0.0                 !
 ! D38   D(4,6,7,9)              1.2849         -DE/DX =    0.0                 !
 ! D39   D(5,6,7,8)            133.7562         -DE/DX =    0.0                 !
 ! D40   D(5,6,7,9)            -53.7828         -DE/DX =    0.0                 !
 ! D41   D(17,6,7,8)           -27.1003         -DE/DX =    0.0                 !
 ! D42   D(17,6,7,9)           145.3607         -DE/DX =    0.0                 !
 ! D43   D(6,7,9,4)             -1.2868         -DE/DX =    0.0                 !
 ! D44   D(6,7,9,18)           119.2912         -DE/DX =    0.0                 !
 ! D45   D(6,7,9,19)          -113.9786         -DE/DX =    0.0                 !
 ! D46   D(8,7,9,4)            171.3412         -DE/DX =    0.0                 !
 ! D47   D(8,7,9,18)           -68.0807         -DE/DX =    0.0                 !
 ! D48   D(8,7,9,19)            58.6494         -DE/DX =    0.0                 !
 --------------------------------------------------------------------------------
 GradGradGradGradGradGradGradGradGradGradGradGradGradGradGradGradGradGrad

                          Input orientation:                          
 ---------------------------------------------------------------------
 Center     Atomic      Atomic             Coordinates (Angstroms)
 Number     Number       Type             X           Y           Z
 ---------------------------------------------------------------------
      1          6           0        2.816485   -0.131879   -1.717731
      2          6           0        1.955714    0.301577   -0.545500
      3          8           0        2.279497    1.657761   -0.234472
      4          6           0        1.575908    2.167248    0.825062
      5          6           0        1.940977    1.922266    2.246132
      6          6           0        2.027799    3.357032    1.696751
      7          6           0        0.643840    3.921400    1.584334
      8          8           0        0.143180    4.964849    1.893013
      9          6           0        0.139663    2.722181    0.732046
     10          1           0        2.594929   -1.168846   -1.986641
     11          1           0        2.626921    0.501294   -2.588864
     12          1           0        3.877564   -0.057308   -1.463797
     13          1           0        0.887041    0.221556   -0.794999
     14          1           0        2.137548   -0.332061    0.335142
     15          1           0        1.199739    1.661391    2.996433
     16          1           0        2.920746    1.481148    2.399738
     17          1           0        2.963129    3.901639    1.723711
     18          1           0       -0.678517    2.113342    1.127131
     19          1           0       -0.110002    3.069987   -0.274963
 ---------------------------------------------------------------------
                    Distance matrix (angstroms):
                    1          2          3          4          5
     1  C    0.000000
     2  C    1.517543   0.000000
     3  O    2.385628   1.428568   0.000000
     4  C    3.645657   2.345937   1.370120   0.000000
     5  C    4.549532   3.228012   2.517530   1.487525   0.000000
     6  C    4.945019   3.790605   2.584666   1.542605   1.538801
     7  C    5.661545   4.400036   3.332790   2.126568   2.473272
     8  O    6.794164   5.565764   4.475139   3.319608   3.551630
     9  C    4.616540   3.284736   2.577991   1.542531   2.485367
    10  H    1.093938   2.155835   3.340553   4.480357   5.281950
    11  H    1.093488   2.160033   2.645993   3.941437   5.085948
    12  H    1.093587   2.159995   2.646983   3.935117   4.629542
    13  H    2.167742   1.100325   2.077452   2.623900   3.640285
    14  H    2.171478   1.100042   2.074609   2.608066   2.961843
    15  H    5.296511   3.868576   3.406558   2.261028   1.086481
    16  H    4.423379   3.316188   2.716883   2.181496   1.085415
    17  H    5.304177   4.373173   3.055621   2.395842   2.288151
    18  H    5.034808   3.608235   3.288064   2.275211   2.854894
    19  H    4.571417   3.464746   2.775919   2.206193   3.446694
                    6          7          8          9         10
     6  C    0.000000
     7  C    1.498830   0.000000
     8  O    2.485032   1.197802   0.000000
     9  C    2.213311   1.555221   2.525354   0.000000
    10  H    5.862813   6.516840   7.660613   5.344126   0.000000
    11  H    5.184658   5.748505   6.795551   4.706085   1.775687
    12  H    5.006836   5.964745   7.101821   5.149679   1.775960
    13  H    4.164295   4.405589   5.502505   3.023833   2.504019
    14  H    3.933882   4.677988   5.870411   3.671168   2.509996
    15  H    2.291299   2.722258   3.639600   2.715969   5.898120
    16  H    2.193281   3.435696   4.484173   3.472144   5.135070
    17  H    1.082666   2.323557   3.018475   3.216594   6.293814
    18  H    3.032387   2.286205   3.064776   1.093707   5.584244
    19  H    2.922369   2.179488   2.890453   1.094244   5.311704
                   11         12         13         14         15
    11  H    0.000000
    12  H    1.772546   0.000000
    13  H    2.514635   3.077058   0.000000
    14  H    3.079574   2.517802   1.774114   0.000000
    15  H    5.880324   5.478898   4.067660   3.454823   0.000000
    16  H    5.092406   4.267230   3.991099   2.857216   1.830408
    17  H    5.502153   5.164267   4.919049   4.531437   3.122191
    18  H    5.228120   5.672962   3.118398   3.812803   2.688195
    19  H    4.409430   5.205188   3.062367   4.122820   3.794944
                   16         17         18         19
    16  H    0.000000
    17  H    2.513480   0.000000
    18  H    3.869611   4.100670   0.000000
    19  H    4.343255   3.759052   1.790041   0.000000
 Stoichiometry    C7H10O2
 Framework group  C1[X(C7H10O2)]
 Deg. of freedom    51
 Full point group                 C1      NOp   1
 Largest Abelian subgroup         C1      NOp   1
 Largest concise Abelian subgroup C1      NOp   1
                         Standard orientation:                         
 ---------------------------------------------------------------------
 Center     Atomic      Atomic             Coordinates (Angstroms)
 Number     Number       Type             X           Y           Z
 ---------------------------------------------------------------------
      1          6           0        3.527466   -0.320073   -0.354231
      2          6           0        2.236276   -0.162199    0.427333
      3          8           0        1.167847   -0.004043   -0.507682
      4          6           0       -0.060100    0.164590    0.076215
      5          6           0       -0.544493    1.467327    0.606282
      6          6           0       -1.273415    0.840395   -0.595191
      7          6           0       -2.128783   -0.291204   -0.111123
      8          8           0       -3.259661   -0.627132   -0.318475
      9          6           0       -0.938156   -0.986665    0.608221
     10          1           0        4.371239   -0.445417    0.330631
     11          1           0        3.476931   -1.195500   -1.007522
     12          1           0        3.711170    0.561203   -0.975149
     13          1           0        2.051408   -1.044341    1.058494
     14          1           0        2.279034    0.714828    1.089969
     15          1           0       -1.038423    1.551194    1.570357
     16          1           0        0.050451    2.329409    0.321706
     17          1           0       -1.357607    1.378837   -1.530689
     18          1           0       -1.001034   -1.134072    1.690123
     19          1           0       -0.721420   -1.939771    0.116302
 ---------------------------------------------------------------------
 Rotational constants (GHZ):      4.6562076      0.8679114      0.8138796
 1\1\GINC-ALCHEMY-MO\FOpt\RB3LYP\6-31G(2df,p)\C7H10O2\PUCK\28-Jan-2020\
 0\\# b3lyp 6-31G(2df,p) opt Freq\\titel\\0,1\C,2.8164847866,-0.1318789
 903,-1.7177312335\C,1.9557137724,0.301577137,-0.5454999746\O,2.2794969
 397,1.6577605459,-0.2344720997\C,1.5759082056,2.1672483827,0.825061990
 8\C,1.9409770022,1.9222663544,2.2461318293\C,2.0277987912,3.3570315413
 ,1.6967508884\C,0.6438400787,3.9213995388,1.5843340119\O,0.1431803725,
 4.9648488858,1.8930127142\C,0.1396629966,2.7221812871,0.7320461573\H,2
 .5949292132,-1.1688457923,-1.9866406703\H,2.6269207142,0.5012938993,-2
 .5888642068\H,3.877563881,-0.0573081753,-1.4637972009\H,0.8870408304,0
 .2215560602,-0.7949986322\H,2.1375481877,-0.3320612447,0.3351420885\H,
 1.1997394583,1.6613907581,2.9964328437\H,2.9207456869,1.481148253,2.39
 9738182\H,2.9631290225,3.9016386477,1.7237107796\H,-0.6785166756,2.113
 3421725,1.1271312682\H,-0.1100019939,3.0699871489,-0.2749629561\\Versi
 on=ES64L-G09RevD.01\State=1-A\HF=-423.1668218\RMSD=4.484e-09\RMSF=1.22
 7e-05\Dipole=0.3863817,-1.4326311,-0.2695489\Quadrupole=1.2020139,-3.1
 17483,1.915469,3.564877,2.3420597,-2.3479325\PG=C01 [X(C7H10O2)]\\@


 CHINESE FORTUNE COOKIE OF JAN 1 1967 SAY....
 ALL THINGS ARE DIFFICULT BEFORE THEY ARE EASY.
 WE LEARN SO LITTLE AND FORGET SO MUCH.
 YOU WILL OVERCOME OBSTACLES TO ACHIEVE SUCCESS.
 AH SO.
 Job cpu time:       0 days  0 hours  7 minutes  7.4 seconds.
 File lengths (MBytes):  RWF=     52 Int=      0 D2E=      0 Chk=      7 Scr=      1
 Normal termination of Gaussian 09 at Tue Jan 28 14:09:13 2020.
 Link1:  Proceeding to internal job step number  2.
 ----------------------------------------------------------------------
 #N Geom=AllCheck Guess=TCheck SCRF=Check GenChk RB3LYP/6-31G(2df,p) Fr
 eq
 ----------------------------------------------------------------------
 1/10=4,29=7,30=1,38=1,40=1/1,3;
 2/12=2,40=1/2;
 3/5=1,6=6,7=104,11=2,14=-4,16=1,25=1,30=1,70=2,71=2,74=-5,116=1,140=1/1,2,3;
 4/5=101/1;
 5/5=2,98=1/2;
 8/6=4,10=90,11=11/1;
 11/6=1,8=1,9=11,15=111,16=1/1,2,10;
 10/6=1/2;
 6/7=2,8=2,9=2,10=2,18=1,28=1/1;
 7/8=1,10=1,25=1/1,2,3,16;
 1/10=4,30=1/3;
 99//99;
 Structure from the checkpoint file:  "/scratch/puck/g09_010850dc-2cba-4fd1-92b9-cf2b7c5233c2/Gau-3929.chk"
 -----
 titel
 -----
 Charge =  0 Multiplicity = 1
 Redundant internal coordinates found in file.
 C,0,2.8164847866,-0.1318789903,-1.7177312335
 C,0,1.9557137724,0.301577137,-0.5454999746
 O,0,2.2794969397,1.6577605459,-0.2344720997
 C,0,1.5759082056,2.1672483827,0.8250619908
 C,0,1.9409770022,1.9222663544,2.2461318293
 C,0,2.0277987912,3.3570315413,1.6967508884
 C,0,0.6438400787,3.9213995388,1.5843340119
 O,0,0.1431803725,4.9648488858,1.8930127142
 C,0,0.1396629966,2.7221812871,0.7320461573
 H,0,2.5949292132,-1.1688457923,-1.9866406703
 H,0,2.6269207142,0.5012938993,-2.5888642068
 H,0,3.877563881,-0.0573081753,-1.4637972009
 H,0,0.8870408304,0.2215560602,-0.7949986322
 H,0,2.1375481877,-0.3320612447,0.3351420885
 H,0,1.1997394583,1.6613907581,2.9964328437
 H,0,2.9207456869,1.481148253,2.399738182
 H,0,2.9631290225,3.9016386477,1.7237107796
 H,0,-0.6785166756,2.1133421725,1.1271312682
 H,0,-0.1100019939,3.0699871489,-0.2749629561
 Recover connectivity data from disk.

 GradGradGradGradGradGradGradGradGradGradGradGradGradGradGradGradGradGrad
 Berny optimization.
 Initialization pass.
                           ----------------------------
                           !    Initial Parameters    !
                           ! (Angstroms and Degrees)  !
 --------------------------                            --------------------------
 ! Name  Definition              Value          Derivative Info.                !
 --------------------------------------------------------------------------------
 ! R1    R(1,2)                  1.5175         calculate D2E/DX2 analytically  !
 ! R2    R(1,10)                 1.0939         calculate D2E/DX2 analytically  !
 ! R3    R(1,11)                 1.0935         calculate D2E/DX2 analytically  !
 ! R4    R(1,12)                 1.0936         calculate D2E/DX2 analytically  !
 ! R5    R(2,3)                  1.4286         calculate D2E/DX2 analytically  !
 ! R6    R(2,13)                 1.1003         calculate D2E/DX2 analytically  !
 ! R7    R(2,14)                 1.1            calculate D2E/DX2 analytically  !
 ! R8    R(3,4)                  1.3701         calculate D2E/DX2 analytically  !
 ! R9    R(4,5)                  1.4875         calculate D2E/DX2 analytically  !
 ! R10   R(4,6)                  1.5426         calculate D2E/DX2 analytically  !
 ! R11   R(4,9)                  1.5425         calculate D2E/DX2 analytically  !
 ! R12   R(5,6)                  1.5388         calculate D2E/DX2 analytically  !
 ! R13   R(5,15)                 1.0865         calculate D2E/DX2 analytically  !
 ! R14   R(5,16)                 1.0854         calculate D2E/DX2 analytically  !
 ! R15   R(6,7)                  1.4988         calculate D2E/DX2 analytically  !
 ! R16   R(6,17)                 1.0827         calculate D2E/DX2 analytically  !
 ! R17   R(7,8)                  1.1978         calculate D2E/DX2 analytically  !
 ! R18   R(7,9)                  1.5552         calculate D2E/DX2 analytically  !
 ! R19   R(9,18)                 1.0937         calculate D2E/DX2 analytically  !
 ! R20   R(9,19)                 1.0942         calculate D2E/DX2 analytically  !
 ! A1    A(2,1,10)             110.2282         calculate D2E/DX2 analytically  !
 ! A2    A(2,1,11)             110.5887         calculate D2E/DX2 analytically  !
 ! A3    A(2,1,12)             110.5797         calculate D2E/DX2 analytically  !
 ! A4    A(10,1,11)            108.5385         calculate D2E/DX2 analytically  !
 ! A5    A(10,1,12)            108.5558         calculate D2E/DX2 analytically  !
 ! A6    A(11,1,12)            108.2827         calculate D2E/DX2 analytically  !
 ! A7    A(1,2,3)              108.1061         calculate D2E/DX2 analytically  !
 ! A8    A(1,2,13)             110.7917         calculate D2E/DX2 analytically  !
 ! A9    A(1,2,14)             111.1066         calculate D2E/DX2 analytically  !
 ! A10   A(3,2,13)             109.7878         calculate D2E/DX2 analytically  !
 ! A11   A(3,2,14)             109.5765         calculate D2E/DX2 analytically  !
 ! A12   A(13,2,14)            107.4683         calculate D2E/DX2 analytically  !
 ! A13   A(2,3,4)              113.8906         calculate D2E/DX2 analytically  !
 ! A14   A(3,4,5)              123.4698         calculate D2E/DX2 analytically  !
 ! A15   A(3,4,6)              124.9846         calculate D2E/DX2 analytically  !
 ! A16   A(3,4,9)              124.4221         calculate D2E/DX2 analytically  !
 ! A17   A(5,4,9)              110.2041         calculate D2E/DX2 analytically  !
 ! A18   A(6,4,9)               91.6823         calculate D2E/DX2 analytically  !
 ! A19   A(4,5,15)             122.1296         calculate D2E/DX2 analytically  !
 ! A20   A(4,5,16)             115.0659         calculate D2E/DX2 analytically  !
 ! A21   A(6,5,15)             120.5919         calculate D2E/DX2 analytically  !
 ! A22   A(6,5,16)             112.2422         calculate D2E/DX2 analytically  !
 ! A23   A(15,5,16)            114.8675         calculate D2E/DX2 analytically  !
 ! A24   A(4,6,7)               88.7134         calculate D2E/DX2 analytically  !
 ! A25   A(4,6,17)             130.9287         calculate D2E/DX2 analytically  !
 ! A26   A(5,6,7)              109.0117         calculate D2E/DX2 analytically  !
 ! A27   A(5,6,17)             120.5885         calculate D2E/DX2 analytically  !
 ! A28   A(7,6,17)             127.6012         calculate D2E/DX2 analytically  !
 ! A29   A(6,7,8)              133.9982         calculate D2E/DX2 analytically  !
 ! A30   A(6,7,9)               92.8714         calculate D2E/DX2 analytically  !
 ! A31   A(8,7,9)              132.6447         calculate D2E/DX2 analytically  !
 ! A32   A(4,9,7)               86.7044         calculate D2E/DX2 analytically  !
 ! A33   A(4,9,18)             118.3258         calculate D2E/DX2 analytically  !
 ! A34   A(4,9,19)             112.4752         calculate D2E/DX2 analytically  !
 ! A35   A(7,9,18)             118.2812         calculate D2E/DX2 analytically  !
 ! A36   A(7,9,19)             109.4633         calculate D2E/DX2 analytically  !
 ! A37   A(18,9,19)            109.7972         calculate D2E/DX2 analytically  !
 ! D1    D(10,1,2,3)          -179.924          calculate D2E/DX2 analytically  !
 ! D2    D(10,1,2,13)          -59.5838         calculate D2E/DX2 analytically  !
 ! D3    D(10,1,2,14)           59.8056         calculate D2E/DX2 analytically  !
 ! D4    D(11,1,2,3)           -59.8987         calculate D2E/DX2 analytically  !
 ! D5    D(11,1,2,13)           60.4415         calculate D2E/DX2 analytically  !
 ! D6    D(11,1,2,14)          179.8308         calculate D2E/DX2 analytically  !
 ! D7    D(12,1,2,3)            60.035          calculate D2E/DX2 analytically  !
 ! D8    D(12,1,2,13)         -179.6247         calculate D2E/DX2 analytically  !
 ! D9    D(12,1,2,14)          -60.2354         calculate D2E/DX2 analytically  !
 ! D10   D(1,2,3,4)           -179.2874         calculate D2E/DX2 analytically  !
 ! D11   D(13,2,3,4)            59.7461         calculate D2E/DX2 analytically  !
 ! D12   D(14,2,3,4)           -58.0634         calculate D2E/DX2 analytically  !
 ! D13   D(2,3,4,5)             81.2458         calculate D2E/DX2 analytically  !
 ! D14   D(2,3,4,6)            156.9729         calculate D2E/DX2 analytically  !
 ! D15   D(2,3,4,9)            -81.4931         calculate D2E/DX2 analytically  !
 ! D16   D(3,4,5,15)          -135.2613         calculate D2E/DX2 analytically  !
 ! D17   D(3,4,5,16)            12.0834         calculate D2E/DX2 analytically  !
 ! D18   D(9,4,5,15)            29.6202         calculate D2E/DX2 analytically  !
 ! D19   D(9,4,5,16)           176.9649         calculate D2E/DX2 analytically  !
 ! D20   D(3,4,6,7)            134.0062         calculate D2E/DX2 analytically  !
 ! D21   D(3,4,6,17)            -8.0234         calculate D2E/DX2 analytically  !
 ! D22   D(9,4,6,7)             -1.2944         calculate D2E/DX2 analytically  !
 ! D23   D(9,4,6,17)          -143.3241         calculate D2E/DX2 analytically  !
 ! D24   D(3,4,9,7)           -134.4343         calculate D2E/DX2 analytically  !
 ! D25   D(3,4,9,18)           105.0284         calculate D2E/DX2 analytically  !
 ! D26   D(3,4,9,19)           -24.7178         calculate D2E/DX2 analytically  !
 ! D27   D(5,4,9,7)             60.8584         calculate D2E/DX2 analytically  !
 ! D28   D(5,4,9,18)           -59.6789         calculate D2E/DX2 analytically  !
 ! D29   D(5,4,9,19)           170.5749         calculate D2E/DX2 analytically  !
 ! D30   D(6,4,9,7)              1.2492         calculate D2E/DX2 analytically  !
 ! D31   D(6,4,9,18)          -119.2881         calculate D2E/DX2 analytically  !
 ! D32   D(6,4,9,19)           110.9657         calculate D2E/DX2 analytically  !
 ! D33   D(15,5,6,7)           -36.5822         calculate D2E/DX2 analytically  !
 ! D34   D(15,5,6,17)          125.8511         calculate D2E/DX2 analytically  !
 ! D35   D(16,5,6,7)          -176.8969         calculate D2E/DX2 analytically  !
 ! D36   D(16,5,6,17)          -14.4635         calculate D2E/DX2 analytically  !
 ! D37   D(4,6,7,8)           -171.1761         calculate D2E/DX2 analytically  !
 ! D38   D(4,6,7,9)              1.2849         calculate D2E/DX2 analytically  !
 ! D39   D(5,6,7,8)            133.7562         calculate D2E/DX2 analytically  !
 ! D40   D(5,6,7,9)            -53.7828         calculate D2E/DX2 analytically  !
 ! D41   D(17,6,7,8)           -27.1003         calculate D2E/DX2 analytically  !
 ! D42   D(17,6,7,9)           145.3607         calculate D2E/DX2 analytically  !
 ! D43   D(6,7,9,4)             -1.2868         calculate D2E/DX2 analytically  !
 ! D44   D(6,7,9,18)           119.2912         calculate D2E/DX2 analytically  !
 ! D45   D(6,7,9,19)          -113.9786         calculate D2E/DX2 analytically  !
 ! D46   D(8,7,9,4)            171.3412         calculate D2E/DX2 analytically  !
 ! D47   D(8,7,9,18)           -68.0807         calculate D2E/DX2 analytically  !
 ! D48   D(8,7,9,19)            58.6494         calculate D2E/DX2 analytically  !
 --------------------------------------------------------------------------------
 Trust Radius=3.00D-01 FncErr=1.00D-07 GrdErr=1.00D-07
 Number of steps in this run=      2 maximum allowed number of steps=      2.
 GradGradGradGradGradGradGradGradGradGradGradGradGradGradGradGradGradGrad

                          Input orientation:                          
 ---------------------------------------------------------------------
 Center     Atomic      Atomic             Coordinates (Angstroms)
 Number     Number       Type             X           Y           Z
 ---------------------------------------------------------------------
      1          6           0        2.816485   -0.131879   -1.717731
      2          6           0        1.955714    0.301577   -0.545500
      3          8           0        2.279497    1.657761   -0.234472
      4          6           0        1.575908    2.167248    0.825062
      5          6           0        1.940977    1.922266    2.246132
      6          6           0        2.027799    3.357032    1.696751
      7          6           0        0.643840    3.921400    1.584334
      8          8           0        0.143180    4.964849    1.893013
      9          6           0        0.139663    2.722181    0.732046
     10          1           0        2.594929   -1.168846   -1.986641
     11          1           0        2.626921    0.501294   -2.588864
     12          1           0        3.877564   -0.057308   -1.463797
     13          1           0        0.887041    0.221556   -0.794999
     14          1           0        2.137548   -0.332061    0.335142
     15          1           0        1.199739    1.661391    2.996433
     16          1           0        2.920746    1.481148    2.399738
     17          1           0        2.963129    3.901639    1.723711
     18          1           0       -0.678517    2.113342    1.127131
     19          1           0       -0.110002    3.069987   -0.274963
 ---------------------------------------------------------------------
                    Distance matrix (angstroms):
                    1          2          3          4          5
     1  C    0.000000
     2  C    1.517543   0.000000
     3  O    2.385628   1.428568   0.000000
     4  C    3.645657   2.345937   1.370120   0.000000
     5  C    4.549532   3.228012   2.517530   1.487525   0.000000
     6  C    4.945019   3.790605   2.584666   1.542605   1.538801
     7  C    5.661545   4.400036   3.332790   2.126568   2.473272
     8  O    6.794164   5.565764   4.475139   3.319608   3.551630
     9  C    4.616540   3.284736   2.577991   1.542531   2.485367
[...]
 0827066,-0.00409226,-0.13572278,0.04181889,0.09851751,0.45273494,-0.00
 175166,-0.00582601,-0.00102728,0.02238470,-0.03116307,-0.03863022,0.02
 110794,-0.09949976,-0.04374770,-0.09589045,0.38374803,-0.00042350,0.00
 010404,-0.00077532,0.00464386,-0.02773321,-0.02165769,0.08402965,-0.06
 680279,-0.19337040,-0.02986245,0.11599481,0.58329332,0.00016789,0.0000
 8054,0.00009251,-0.00062849,-0.00387111,-0.00107899,0.00193992,-0.0081
 5293,0.02369084,-0.07788134,0.02312896,-0.02685346,0.62484697,-0.00010
 838,0.00022080,-0.00015604,-0.00084324,0.00232647,-0.00189806,-0.00092
 020,0.00447577,-0.01054218,0.03033734,-0.03037745,0.05267428,-0.090027
 16,0.33470849,0.00024538,-0.00030290,0.00032230,0.00006437,0.00429743,
 0.00226998,0.00308064,0.00324697,-0.03334145,-0.04683525,0.00437415,-0
 .21252519,-0.07388301,-0.16125016,0.50996939,0.00068577,0.00130842,0.0
 0023227,-0.00215830,0.00037136,0.00256885,0.01076164,0.02374686,0.0034
 3639,-0.06878060,-0.04817098,-0.01209162,-0.06955529,-0.02384482,0.007
 14739,0.65311872,-0.00048597,-0.00039149,0.00002437,0.00146491,0.00389
 864,-0.00016333,0.00258447,-0.01009979,-0.00810839,-0.03712228,-0.0905
 8399,-0.08345558,-0.00587814,-0.14837018,0.09072596,0.14382280,0.48143
 893,-0.00045973,-0.00083303,0.00019247,0.00126482,0.00411268,-0.001510
 18,-0.00437964,-0.02307126,-0.01143973,-0.00006513,-0.03408012,-0.0608
 3905,-0.00083452,0.02451240,-0.03549823,0.03940567,0.02899827,0.183046
 85,-0.00040392,-0.00050398,-0.00005622,0.00148967,0.00103748,0.0003302
 8,-0.00957372,-0.00243479,-0.00630225,-0.00157719,0.05202123,0.0226034
 1,0.00777649,0.01484948,0.00895379,-0.18595554,0.01208340,-0.00104774,
 0.51002787,0.00000507,0.00027760,-0.00033228,-0.00004498,-0.00313322,-
 0.00092762,-0.00102611,0.00324235,0.00529727,0.02798202,-0.06241640,-0
 .03209124,0.01993395,-0.01868697,-0.00564013,0.00603626,-0.07775293,0.
 01605816,-0.27909715,0.87119656,-0.00039772,-0.00073963,-0.00021517,0.
 00154864,-0.00026272,-0.00128825,-0.00463172,-0.00765712,-0.00046248,0
 .03603471,-0.03250618,-0.01230638,-0.02047945,0.01283792,0.00046307,-0
 .02356267,0.01004260,-0.06342809,-0.04137764,0.20413475,0.30274834,0.0
 0014540,0.00022934,0.00001673,-0.00058373,-0.00078601,0.00004064,0.002
 42240,0.00214204,0.00199275,-0.00162265,-0.00403830,-0.00288567,-0.004
 80948,-0.00291908,0.00018767,-0.00593730,0.04200603,0.00245872,-0.2259
 9393,0.26099419,0.06484249,0.21278177,-0.00011768,-0.00044403,0.000142
 55,0.00071641,0.00313951,0.00047025,0.00286669,-0.00609602,-0.00280486
 ,0.00083047,0.00402161,-0.00198482,-0.00027309,0.00514987,0.00102377,0
 .03248787,-0.02021610,-0.00869277,0.25731188,-0.63356928,-0.17040737,-
 0.30608888,0.68441580,0.00014824,0.00021879,0.00006010,-0.00058030,0.0
 0064522,0.00039125,0.00276724,0.00154141,-0.00012183,-0.00951247,-0.00
 169697,0.00027421,0.00407371,0.00135954,-0.00071676,0.00732317,-0.0030
 0320,0.02166242,0.06955909,-0.17228021,-0.11990285,-0.07763218,0.20102
 562,0.09149780,0.00032140,0.00013960,-0.00000486,0.00061284,-0.0002924
 4,0.00010076,-0.00825892,0.00700180,0.00681357,-0.15286414,0.02585215,
 -0.01336515,-0.00835370,-0.00128626,-0.00474760,-0.05920708,-0.0210301
 6,-0.03559897,-0.07750696,-0.01418057,-0.00331938,0.01955208,0.0089799
 4,0.00232844,0.53661278,0.00007520,-0.00005828,-0.00004858,0.00136954,
 0.00194152,0.00044773,0.01043284,-0.00382518,-0.00208846,0.03059505,-0
 .06731063,0.01179100,0.01287584,-0.00235763,0.00677519,-0.02282489,0.0
 0524951,-0.02325160,-0.03217592,-0.09791438,-0.00889112,0.00394074,-0.
 03011917,-0.02717507,0.08165903,0.39450940,0.00001569,-0.00038235,0.00
 017053,0.00154794,0.00412992,0.00136491,0.02980978,-0.01163632,-0.0005
 9679,-0.01157397,0.01204340,-0.08007268,-0.02766265,0.00678119,-0.0052
 4507,-0.01684112,-0.01901377,0.00744937,-0.02987539,-0.01706042,-0.095
 37193,0.00742323,-0.01768060,0.00606726,0.03005666,-0.09108824,0.52084
 946,-0.05829502,-0.05306240,-0.01261688,0.00437756,0.01818881,0.001425
 89,-0.00230836,0.00205851,0.00441271,0.00098075,0.00082223,0.00014939,
 -0.00006618,0.00004029,0.00000988,-0.00031603,0.00016404,0.00025864,0.
 00019715,-0.00008350,0.00015691,-0.00008023,0.00010350,-0.00004959,-0.
 00001017,-0.00003393,-0.00003096,0.05937223,-0.05128589,-0.28518374,-0
 .06188009,-0.00355333,-0.00873747,0.00081902,0.00198916,0.00027623,-0.
 00250092,-0.00062024,0.00020049,0.00051608,0.00009353,-0.00005787,-0.0
 0008790,0.00013528,-0.00006943,-0.00006702,-0.00013709,0.00016557,-0.0
 0002693,0.00008217,-0.00016005,-0.00001979,-0.00000223,-0.00004013,-0.
 00008441,0.05655887,0.31005840,-0.01173976,-0.05994287,-0.06254167,-0.
 00930316,-0.02343563,-0.00362214,0.00430843,-0.00243393,-0.00543699,-0
 .00052349,-0.00118880,0.00077532,-0.00000128,0.00006212,0.00004759,0.0
 0039771,-0.00020728,-0.00023262,-0.00017912,0.00017184,-0.00018074,0.0
 0010278,-0.00022632,0.00003762,0.00001565,-0.00006562,-0.00021404,0.01
 254741,0.06864610,0.06548534,-0.05751058,0.02953981,-0.03988000,0.0031
 3718,-0.01359469,0.01792608,0.00042188,-0.00028810,-0.00174957,0.00002
 922,-0.00029294,-0.00000167,-0.00005851,0.00009502,-0.00013690,-0.0000
 0256,0.00009429,0.00000934,0.00010501,-0.00000035,0.00000247,-0.000039
 91,0.00002141,-0.00000096,0.00001630,-0.00005088,0.00001907,0.00012516
 ,-0.00396636,0.00603016,0.05897042,0.02817063,-0.13762308,0.12422325,-
 0.00202883,0.00500360,-0.00914911,-0.00030386,0.00179545,0.00085028,0.
 00022517,-0.00000018,-0.00046164,-0.00002952,-0.00013240,0.00010188,-0
 .00009132,0.00000206,0.00003175,0.00007690,-0.00009627,0.00001114,-0.0
 0003696,0.00008095,0.00000326,-0.00002511,0.00001516,0.00004346,0.0062
 2906,-0.01630494,0.02446214,-0.03187395,0.14561267,-0.03872967,0.12220
 712,-0.21262088,-0.00446311,0.01684486,-0.02359775,-0.00076239,0.00031
 223,0.00254141,0.00002641,-0.00003158,-0.00004935,-0.00007823,-0.00004
 563,0.00035686,0.00004768,-0.00016148,-0.00002756,-0.00011814,0.000008
 00,0.00000177,0.00005819,-0.00006158,0.00000059,-0.00005055,0.00005768
 ,-0.00002982,0.00195025,-0.00531934,0.00768858,0.03949969,-0.13538005,
 0.23286432,-0.29511353,-0.01754984,-0.06264717,-0.02117640,-0.00214974
 ,-0.00460190,0.00205123,-0.00001854,-0.00064055,0.00033327,-0.00007030
 ,-0.00005773,-0.00004679,0.00003156,-0.00007481,0.00002385,0.00006277,
 0.00004953,-0.00001986,-0.00015460,-0.00008668,-0.00001384,0.00010035,
 0.00003601,0.00007609,-0.00001796,-0.00000926,-0.00472785,0.00006368,-
 0.00113325,-0.00468275,-0.00068417,-0.00097418,0.32271741,-0.01861268,
 -0.04826055,-0.00336869,0.00989194,-0.00067653,0.00195185,-0.00024591,
 0.00133203,0.00109101,0.00019258,-0.00011364,-0.00032826,-0.00003480,0
 .00000467,0.00005716,-0.00006762,0.00002962,0.00002312,0.00008740,-0.0
 0005993,0.00004595,-0.00003456,0.00004746,-0.00001099,-0.00012420,-0.0
 0004323,0.00006265,-0.03019578,-0.00081962,-0.00707591,0.01922109,0.00
 133037,0.00410091,0.01957214,0.04694944,-0.06496571,-0.00409278,-0.064
 02267,0.02949910,0.00217249,0.00617656,-0.00176730,0.00147494,0.001505
 68,0.00012710,0.00025719,0.00002185,0.00004795,-0.00002399,0.00004179,
 -0.00012639,-0.00000976,0.00000013,0.00007933,0.00007642,0.00009265,-0
 .00001198,-0.00005089,-0.00003942,-0.00015753,-0.00003993,-0.00005884,
 -0.00703044,0.00038153,-0.00295318,-0.02461160,-0.00326776,-0.00586692
 ,0.06633984,0.00500299,0.06743495,-0.01782204,0.00065095,-0.00414463,-
 0.27769559,-0.00517144,-0.05469545,-0.00387504,-0.01229117,-0.00448875
 ,-0.00009483,0.00095000,0.00285088,-0.00000222,-0.00004484,-0.00021381
 ,0.00062064,-0.00029368,-0.00036432,-0.00025112,-0.00003864,-0.0003054
 1,0.00013477,-0.00023765,0.00001820,-0.00002788,-0.00045647,-0.0007147
 5,0.00025639,0.00053880,0.00016263,0.00101476,-0.00061732,-0.00008446,
 -0.00057742,0.00116911,0.00328608,0.30423097,0.00978490,0.00170775,0.0
 0292105,-0.00087480,-0.04912997,0.00150716,-0.03753847,-0.02123308,-0.
 01610369,-0.00504595,0.00327661,0.00470691,0.00059324,-0.00031985,-0.0
 0044495,0.00049800,-0.00017316,-0.00034128,-0.00061622,0.00005174,-0.0
 0030615,0.00016174,-0.00002987,0.00013165,0.00118700,0.00057635,0.0000
 0569,-0.00032865,0.00024066,0.00044835,-0.00080805,0.00019786,-0.00028
 051,0.00109055,0.00022089,-0.00243882,0.01469542,0.06207725,0.02718073
 ,0.00065207,0.00595163,-0.05532531,0.00101925,-0.06645131,-0.00614744,
 -0.00866714,-0.00076745,-0.00289250,0.00099126,0.00183419,-0.00005964,
 -0.00001679,-0.00028508,0.00047047,-0.00004573,-0.00013758,-0.00043499
 ,-0.00012833,-0.00041182,0.00009392,0.00015361,0.00016840,0.00069950,0
 .00029385,0.00029538,-0.00093643,0.00011980,0.00087480,-0.00061568,0.0
 0054737,0.00139359,0.00367352,-0.00162369,-0.00385773,0.06000921,0.005
 73393,0.06729473,0.00364775,-0.01044041,0.01711415,-0.06359941,0.02671
 896,-0.04038318,0.00489142,-0.00901570,0.00829713,-0.00004688,0.000860
 04,-0.00029849,0.00015559,-0.00020746,0.00027227,-0.00005513,-0.000138
 23,-0.00005898,-0.00025857,0.00005149,-0.00000535,0.00007173,-0.000058
 26,0.00002365,-0.00009680,0.00011783,-0.00018480,0.00051959,0.00007396
 ,-0.00072880,-0.00145950,0.00096480,0.00358619,0.00107039,-0.00076483,
 -0.00061793,-0.00613592,0.01676906,-0.02611161,0.06143488,-0.00176810,
 0.00752028,-0.00848971,0.02538559,-0.11692602,0.10460968,0.00174473,-0
 .04284073,0.01754037,-0.00312264,0.00237049,0.00817037,0.00053324,0.00
 080283,-0.00177613,0.00013378,0.00037585,-0.00017358,0.00010174,0.0006
 1673,0.00000906,-0.00005749,-0.00034494,-0.00001070,0.00030935,-0.0002
 3532,-0.00074378,-0.00047737,0.00045429,0.00081002,0.00187168,0.000105
 84,-0.00225599,-0.00023033,-0.00000232,0.00050430,0.00102302,0.0031865
 0,0.00118674,-0.02488372,0.14504517,-0.00516748,0.01343371,-0.02065661
 ,-0.03851993,0.10898465,-0.21306223,0.00291168,-0.00518654,0.00940831,
 0.00037746,-0.00126675,0.00273650,-0.00077365,0.00049287,0.00046861,0.
 00011888,0.00009454,0.00003528,0.00002631,-0.00006865,0.00006508,-0.00
 001230,0.00000774,-0.00000670,0.00000875,0.00017729,-0.00020009,-0.000
 31979,-0.00045184,0.00035430,0.00354571,-0.00208034,-0.00279146,0.0001
 0430,0.00006509,0.00153524,-0.00128037,0.00438030,-0.00581902,0.039122
 17,-0.11860876,0.22790934,-0.00005991,-0.00002773,0.00000465,0.0001138
 8,0.00008486,0.00031303,0.00101522,0.00023889,-0.00278501,0.00797183,0
 .00235530,-0.00638400,-0.18942547,-0.04116812,0.13569856,-0.00099188,0
 .00167272,-0.00142776,0.00003639,0.00148919,-0.00150171,0.00035656,-0.
 00070414,0.00012133,0.00204939,0.00064539,0.00033100,0.00001958,-0.000
 00588,-0.00000502,0.00000868,0.00001733,0.00001291,0.00002119,-0.00000
 345,-0.00001505,-0.00000637,-0.00003952,-0.00000325,-0.00009923,-0.000
 19546,-0.00010288,0.19244884,-0.00003217,-0.00006624,0.00001072,0.0003
 0341,0.00125666,0.00049234,-0.00002687,0.00104321,-0.00495306,0.008485
 19,-0.00524788,0.00198781,-0.04123279,-0.05300030,0.04404989,-0.016514
 20,-0.00762899,0.01815220,-0.00520319,0.00309137,-0.00053965,0.0010014
 6,-0.00150911,-0.00015504,0.00057825,0.00024900,0.00067630,0.00001394,
 -0.00002965,-0.00002167,-0.00000746,0.00001252,0.00001853,-0.00001901,
 0.00001457,0.00002212,-0.00007876,-0.00011859,-0.00008484,0.00012189,-
 0.00011888,0.00007069,0.04394693,0.05963816,-0.00009752,-0.00018764,0.
 00002454,0.00059322,0.00187408,0.00081473,0.00082865,0.00119333,-0.005
 95908,0.01767037,0.00589961,-0.01053604,0.13492957,0.04600115,-0.17695
 244,-0.00590089,0.00243752,-0.00246258,0.00113757,0.00169755,0.0016381
 8,-0.00069294,0.00046117,-0.00060995,0.00152228,-0.00180469,0.00127618
 ,0.00004268,-0.00006031,-0.00006056,-0.00000337,0.00003814,0.00006411,
 -0.00000282,0.00003039,0.00000614,-0.00011117,-0.00017561,-0.00010155,
 0.00004109,-0.00046610,0.00019042,-0.14365459,-0.05323583,0.18712836,0
 .00007127,-0.00012574,0.00006887,-0.00009449,0.00025640,-0.00044836,0.
 00137134,-0.00087824,0.00129610,-0.00951042,0.00439508,-0.00015066,-0.
 28522962,0.10939299,-0.03219682,0.00656733,-0.00511979,0.00207536,-0.0
 0132228,-0.00188734,0.00124006,0.00088961,-0.00013443,-0.00044293,0.00
 040501,0.00068782,-0.00241972,-0.00000195,0.00000786,-0.00001290,-0.00
 004648,0.00001197,0.00005995,0.00000085,0.00000528,-0.00001075,0.00003
 490,-0.00001333,0.00012742,-0.00003777,-0.00031068,0.00001869,-0.01366
 525,0.00767320,-0.00512836,0.29973824,0.00008688,-0.00004628,0.0000394
 7,-0.00017643,-0.00001247,-0.00020358,-0.00035592,-0.00071905,0.002085
 82,-0.00907835,0.00122961,-0.00286651,0.10586035,-0.08056521,0.0214569
 1,0.03003533,-0.01484667,0.01020861,-0.00532654,-0.00441917,0.00304104
 ,0.00228055,-0.00042447,-0.00073951,-0.00028610,0.00223110,-0.00255094
 ,-0.00001770,0.00001738,0.00000460,-0.00001717,0.00000252,0.00003558,-
 0.00000715,0.00001402,-0.00000861,0.00000416,0.,0.00005335,-0.00001344
 ,-0.00011167,-0.00007676,-0.00737330,0.00345999,-0.00215442,-0.1146035
 3,0.09169946,0.00003331,-0.00015782,0.00003525,-0.00030704,-0.00079404
 ,-0.00068400,0.00114461,-0.00157716,0.00444040,-0.02821497,0.01563101,
 -0.00241698,-0.02760009,0.02252358,-0.05153241,0.00188026,-0.00169596,
 -0.00046747,-0.00000363,-0.00291947,-0.00096831,0.00031598,0.00071951,
 0.00007031,0.00032417,0.00215711,-0.00523079,0.00001629,0.00002839,-0.
 00000554,-0.00002771,0.00001277,0.00005722,0.00003372,-0.00001775,-0.0
 0003172,0.00010790,0.00016858,0.00013184,-0.00009224,-0.00023912,-0.00
 015039,0.01769855,-0.00970248,0.00469688,0.03652764,-0.02586532,0.0516
 7552,0.00002294,-0.00000147,0.00002459,-0.00018200,-0.00015031,-0.0000
 7976,0.00043535,-0.00051806,0.00001971,0.00085700,0.00508679,0.0007457
 2,0.00394009,0.00430221,-0.00047871,-0.27604720,-0.12974441,-0.0030833
 2,-0.00485920,-0.02022094,-0.00273805,0.00065326,0.00400172,0.00087560
 ,-0.00575410,0.00136236,-0.00196209,-0.00000460,0.00000794,0.00000112,
 -0.00001658,-0.00000153,0.00000391,0.00000615,-0.00000521,0.00000063,0
 .00001671,0.00004869,0.00002591,0.00004288,-0.00000458,-0.00001331,0.0
 0015862,0.00065281,0.00003238,0.00081941,-0.00056202,-0.00024065,0.280
 90282,-0.00007358,0.00004001,-0.00004520,0.00020790,0.00034732,0.00032
 363,0.00125741,0.00166908,-0.00129533,-0.00600583,-0.00650894,0.010294
 59,-0.01615589,-0.01234170,-0.00400707,-0.12393121,-0.11893237,-0.0111
 7424,0.00603281,0.01366505,-0.00101692,-0.00124474,-0.00172983,0.00054
 336,0.00266470,-0.00044493,0.00320036,0.00001279,-0.00001348,-0.000004
 88,0.00003115,-0.00000708,-0.00002844,0.00002590,-0.00000966,-0.000011
 86,0.00001085,0.00000142,0.00002228,-0.00009690,0.00009359,0.00003378,
 -0.00023235,-0.00121157,-0.00109907,0.00005923,0.00183239,0.00113622,0
 .13747965,0.12210217,-0.00001459,-0.00001895,0.00002899,0.00008584,0.0
 0025256,0.00015289,0.00211597,0.00199582,0.00048662,-0.01753426,0.0003
 6090,0.00601929,0.01646105,0.00733901,-0.00043395,0.00008248,-0.012034
 27,-0.03424470,-0.00547485,0.00166567,-0.00441137,0.00146634,-0.000670
 35,-0.00012619,-0.00371570,-0.00341485,0.00346963,0.00000849,0.0000001
 2,-0.00002027,-0.00000098,0.00000009,-0.00002397,0.00002164,-0.0000152
 4,-0.00001120,0.00002921,0.00008368,0.00007648,-0.00000088,0.00000968,
 -0.00001212,0.00100407,0.00314153,0.00072586,-0.00077636,-0.00212905,0
 .00007220,0.00832835,0.00273617,0.02924955,0.00015761,0.00019180,0.000
 04255,-0.00024826,-0.00136320,-0.00020821,-0.00281410,0.00145901,0.001
 28331,-0.01248050,-0.01658101,0.00635950,0.00227438,-0.00047406,0.0016
 5891,-0.00494077,-0.00168280,-0.00074349,-0.00611423,0.00073643,-0.001
 06283,0.00051175,-0.00032021,0.00111183,-0.18855939,-0.10795652,0.0753
 7459,-0.00003442,0.00004138,0.00006062,-0.00000178,-0.00001842,-0.0000
 2596,0.00004991,-0.00004929,-0.00005498,0.00029516,0.00033781,0.000276
 39,-0.00003164,0.00016254,-0.00003756,0.00003302,0.00027965,-0.0011919
 1,0.00041078,0.00007644,0.00006785,-0.00044267,-0.00021125,-0.00197566
 ,0.20578048,-0.00004038,-0.00003503,0.00004378,-0.00043889,0.00026624,
 -0.00003199,0.00242739,-0.00075417,-0.00063702,0.00733563,0.00980493,-
 0.00772317,-0.00226335,0.00130100,-0.00224074,-0.00031345,0.00172035,-
 0.00056127,-0.01097432,-0.00558475,0.01773585,0.00144682,-0.00130338,-
 0.00382995,-0.10974019,-0.13624835,0.05823832,0.00000154,-0.00000530,-
 0.00001306,-0.00000581,0.00000390,0.00001015,-0.00000544,0.00003021,0.
 00002409,0.00021657,-0.00030572,-0.00020465,0.00004696,-0.00009909,0.0
 0002407,-0.00073340,0.00020012,0.00004942,0.00004795,0.00033696,-0.000
 61926,-0.00084068,0.00064625,-0.00018074,0.12091463,0.13481675,-0.0001
 0291,-0.00004978,-0.00007847,0.00047208,0.00070677,0.00034762,0.001142
 50,-0.00067252,0.00013679,-0.00282949,-0.00058876,-0.00210652,-0.00138
 502,-0.00030292,0.00154978,-0.00323823,-0.00074473,-0.00219907,-0.0116
 0835,-0.00518982,0.01100384,0.00125626,-0.00025558,-0.00154840,0.07292
 606,0.05283932,-0.08004680,0.00001175,-0.00002217,-0.00000928,0.000002
 87,0.00001263,0.00002870,-0.00004125,0.00001586,0.00004086,-0.00016481
 ,-0.00011062,-0.00019644,-0.00004071,-0.00007931,-0.00001780,0.0005239
 8,0.00007106,-0.00009415,0.00006290,0.00015930,-0.00010804,-0.00102316
 ,-0.00007983,-0.00118495,-0.07792561,-0.06260343,0.08346963,0.00001542
 ,0.00002842,0.00001346,0.00004177,0.00078507,0.00023153,0.00304772,-0.
 00178212,0.00096645,-0.00363933,0.00783122,-0.02900800,-0.00504424,0.0
 0279473,0.00124804,0.00216972,-0.00245998,0.00254152,-0.00579607,-0.00
 049443,-0.00435666,0.00156176,0.00051410,-0.00016810,-0.05900677,0.019
 75496,-0.05330326,-0.00000362,-0.00002162,0.00000027,-0.00000996,0.000
 01512,0.00004153,0.00000811,-0.00000118,-0.00001036,-0.00011587,0.0000
 9860,-0.00003023,-0.00001338,-0.00021531,-0.00000668,0.00001489,0.0000
 5770,-0.00001424,-0.00040050,-0.00052605,-0.00166394,-0.00054887,0.000
 16935,-0.00011014,0.00615466,-0.00708157,0.02196113,0.06156454,-0.0000
 6883,-0.00000626,-0.00007846,0.00038118,-0.00038368,0.00020374,-0.0021
 4356,0.00113221,-0.00091611,0.00291889,-0.00560380,0.01720732,0.004819
 12,-0.00278033,-0.00035932,-0.00281746,-0.00364985,0.00014898,-0.00713
 312,0.01132632,-0.02550451,0.00092095,-0.00090893,0.00345260,0.0185954
 4,-0.06617481,0.07505956,0.00000573,0.00000866,0.00001079,0.00003131,0
 .00000106,-0.00003047,-0.00003986,0.00001220,0.00002834,-0.00002892,-0
 .00022678,-0.00000232,-0.00010603,0.00010740,-0.00002509,0.00003273,-0
 .00003440,-0.00049869,0.00053530,0.00032155,0.00121124,-0.00089294,0.0
 0080228,0.00087821,0.00445707,-0.00479091,0.01689452,-0.01946702,0.070
 84809,0.00003825,0.00001946,0.00000875,-0.00022880,-0.00020802,-0.0001
 0214,-0.00112266,0.00037373,0.00125605,0.00166870,-0.00078796,0.001700
 92,0.00139439,-0.00034827,0.00104121,-0.00135032,-0.00367979,0.0001003
 6,-0.00621145,0.00752852,-0.01706554,0.00097938,-0.00116905,0.00284215
 ,-0.05383610,0.08332900,-0.27387588,-0.00000619,0.00000968,0.00001348,
 -0.00000694,0.00000073,0.00001056,0.00001103,-0.00000646,-0.00001418,0
 .00010384,0.00011434,0.00000691,0.00006634,0.00000295,0.00001333,0.000
 17118,-0.00000061,0.00021095,0.00010987,-0.00048999,0.00041603,-0.0004
 3887,0.00047246,0.00018720,-0.00300934,0.00251960,-0.00898731,0.061667
 68,-0.08768031,0.29223715\\0.00000215,0.00000128,-0.00000090,-0.000003
 88,-0.00003838,-0.00000939,0.00000023,0.00002399,-0.00000978,0.0000250
 5,0.00001247,0.00002978,0.00001873,0.00000091,-0.00002470,-0.00002841,
 0.00002379,-0.00000984,-0.00002080,-0.00001035,-0.00000976,0.00000189,
 0.00000763,0.00000765,0.00000344,-0.00000291,0.00000833,-0.00000375,-0
 .00000010,0.00000154,-0.00000392,-0.00000173,0.00000184,-0.00000461,-0
 .00000048,0.00000026,0.00000212,0.00000325,0.00000318,-0.00000222,0.00
 000664,-0.00000097,-0.00000049,-0.00000018,0.00000160,-0.00000497,-0.0
 0000299,0.00001402,0.00001955,-0.00002363,-0.00000680,-0.00000297,0.00
 000168,0.00000366,0.00000287,-0.00000089,0.00000025\\\@


 EVERY WORD THAT YOU WRITE IS A BLOW THAT SMITES THE DEVIL.
     -- ST. BERNARD OF CLAIRVAUX
 Job cpu time:       0 days  0 hours 45 minutes 54.5 seconds.
 File lengths (MBytes):  RWF=    152 Int=      0 D2E=      0 Chk=      8 Scr=      1
 Normal termination of Gaussian 09 at Tue Jan 28 14:55:05 2020.
