 Entering Gaussian System, Link 0=/home/puck/opt/gaussian_09/g09
 Input=dsC7O2H10nsd_2518.com
 Output=dsC7O2H10nsd_2518.log
 Initial command:
 /home/puck/opt/gaussian_09/l1.exe "/scratch/puck/g09_951dc440-8816-411a-af4f-1e9f81d804c9/Gau-53207.inp" -scrdir="/scratch/puck/g09_951dc440-8816-411a-af4f-1e9f81d804c9/"
 Entering Link 1 = /home/puck/opt/gaussian_09/l1.exe PID=     53247.
  
 Copyright (c) 1988,1990,1992,1993,1995,1998,2003,2009,2013,
            Gaussian, Inc.  All Rights Reserved.
  
 This is part of the Gaussian(R) 09 program.  It is based on
 the Gaussian(R) 03 system (copyright 2003, Gaussian, Inc.),
 the Gaussian(R) 98 system (copyright 1998, Gaussian, Inc.),
 the Gaussian(R) 94 system (copyright 1995, Gaussian, Inc.),
 the Gaussian 92(TM) system (copyright 1992, Gaussian, Inc.),
 the Gaussian 90(TM) system (copyright 1990, Gaussian, Inc.),
 the Gaussian 88(TM) system (copyright 1988, Gaussian, Inc.),
 the Gaussian 86(TM) system (copyright 1986, Carnegie Mellon
 University), and the Gaussian 82(TM) system (copyright 1983,
 Carnegie Mellon University). Gaussian is a federally registered
 trademark of Gaussian, Inc.
  
 This software contains proprietary and confidential information,
 including trade secrets, belonging to Gaussian, Inc.
  
 This software is provided under written license and may be
 used, copied, transmitted, or stored only in accord with that
 written license.
  
 The following legend is applicable only to US Government
 contracts under FAR:
  
                    RESTRICTED RIGHTS LEGEND
  
 Use, reproduction and disclosure by the US Government is
 subject to restrictions as set forth in subparagraphs (a)
 and (c) of the Commercial Computer Software - Restricted
 Rights clause in FAR 52.227-19.
  
 Gaussian, Inc.
 340 Quinnipiac St., Bldg. 40, Wallingford CT 06492
  
  
 ---------------------------------------------------------------
 Warning -- This program may not be used in any manner that
 competes with the business of Gaussian, Inc. or will provide
 assistance to any competitor of Gaussian, Inc.  The licensee
 of this program is prohibited from giving any competitor of
 Gaussian, Inc. access to this program.  By using this program,
 the user acknowledges that Gaussian, Inc. is engaged in the
 business of creating and licensing software in the field of
 computational chemistry and represents and warrants to the
 licensee that it is not a competitor of Gaussian, Inc. and that
 it will not use this program in any manner prohibited above.
 ---------------------------------------------------------------
  

 Cite this work as:
 Gaussian 09, Revision D.01,
 M. J. Frisch, G. W. Trucks, H. B. Schlegel, G. E. Scuseria, 
 M. A. Robb, J. R. Cheeseman, G. Scalmani, V. Barone, B. Mennucci, 
 G. A. Petersson, H. Nakatsuji, M. Caricato, X. Li, H. P. Hratchian, 
 A. F. Izmaylov, J. Bloino, G. Zheng, J. L. Sonnenberg, M. Hada, 
 M. Ehara, K. Toyota, R. Fukuda, J. Hasegawa, M. Ishida, T. Nakajima, 
 Y. Honda, O. Kitao, H. Nakai, T. Vreven, J. A. Montgomery, Jr., 
 J. E. Peralta, F. Ogliaro, M. Bearpark, J. J. Heyd, E. Brothers, 
 K. N. Kudin, V. N. Staroverov, T. Keith, R. Kobayashi, J. Normand, 
 K. Raghavachari, A. Rendell, J. C. Burant, S. S. Iyengar, J. Tomasi, 
 M. Cossi, N. Rega, J. M. Millam, M. Klene, J. E. Knox, J. B. Cross, 
 V. Bakken, C. Adamo, J. Jaramillo, R. Gomperts, R. E. Stratmann, 
 O. Yazyev, A. J. Austin, R. Cammi, C. Pomelli, J. W. Ochterski, 
 R. L. Martin, K. Morokuma, V. G. Zakrzewski, G. A. Voth, 
 P. Salvador, J. J. Dannenberg, S. Dapprich, A. D. Daniels, 
 O. Farkas, J. B. Foresman, J. V. Ortiz, J. Cioslowski, 
 and D. J. Fox, Gaussian, Inc., Wallingford CT, 2013.
 
 ******************************************
 Gaussian 09:  ES64L-G09RevD.01 24-Apr-2013
                27-Jan-2020 
 ******************************************
 -----------------------------
 # b3lyp 6-31G(2df,p) opt Freq
 -----------------------------
 1/14=-1,18=20,19=15,26=3,38=1/1,3;
 2/9=110,12=2,17=6,18=5,40=1/2;
 3/5=1,6=6,7=104,11=2,16=1,25=1,30=1,71=1,74=-5/1,2,3;
 4//1;
 5/5=2,38=5/2;
 6/7=2,8=2,9=2,10=2,28=1/1;
 7//1,2,3,16;
 1/14=-1,18=20,19=15,26=3/3(2);
 2/9=110/2;
 99//99;
 2/9=110/2;
 3/5=1,6=6,7=104,11=2,16=1,25=1,30=1,71=1,74=-5/1,2,3;
 4/5=5,16=3,69=1/1;
 5/5=2,38=5/2;
 7//1,2,3,16;
 1/14=-1,18=20,19=15,26=3/3(-5);
 2/9=110/2;
 6/7=2,8=2,9=2,10=2,19=2,28=1/1;
 99/9=1/99;
 -----
 titel
 -----
 Symbolic Z-matrix:
 Charge =  0 Multiplicity = 1
 C                     0.03202   1.48437   0.05333 
 C                    -0.05156  -0.00181  -0.13728 
 C                    -1.16269  -0.72465  -0.12592 
 C                    -2.56404  -0.68555   0.43155 
 O                    -2.42929  -2.09327   0.79222 
 C                    -1.22286  -2.21797  -0.01174 
 C                     0.07621  -2.70447   0.61884 
 O                     1.11104  -2.19137  -0.21831 
 C                     1.24871  -0.77666  -0.22561 
 H                     0.66241   1.7402    0.91424 
 H                     0.47992   1.97458  -0.82057 
 H                    -0.95629   1.92404   0.21054 
 H                    -2.74161  -0.04362   1.30255 
 H                    -3.37565  -0.5398   -0.29502 
 H                    -1.43203  -2.77271  -0.93645 
 H                     0.15233  -2.33498   1.65222 
 H                     0.19978  -3.79035   0.61552 
 H                     1.80365  -0.54016  -1.14223 
 H                     1.88363  -0.45634   0.62105 
 

 GradGradGradGradGradGradGradGradGradGradGradGradGradGradGradGradGradGrad
 Berny optimization.
 Initialization pass.
                           ----------------------------
                           !    Initial Parameters    !
                           ! (Angstroms and Degrees)  !
 --------------------------                            --------------------------
 ! Name  Definition              Value          Derivative Info.                !
 --------------------------------------------------------------------------------
 ! R1    R(1,2)                  1.5007         estimate D2E/DX2                !
 ! R2    R(1,10)                 1.0973         estimate D2E/DX2                !
 ! R3    R(1,11)                 1.0975         estimate D2E/DX2                !
 ! R4    R(1,12)                 1.0931         estimate D2E/DX2                !
 ! R5    R(2,3)                  1.3256         estimate D2E/DX2                !
 ! R6    R(2,9)                  1.5162         estimate D2E/DX2                !
 ! R7    R(3,4)                  1.5087         estimate D2E/DX2                !
 ! R8    R(3,6)                  1.4989         estimate D2E/DX2                !
 ! R9    R(4,5)                  1.4594         estimate D2E/DX2                !
 ! R10   R(4,13)                 1.0965         estimate D2E/DX2                !
 ! R11   R(4,14)                 1.099          estimate D2E/DX2                !
 ! R12   R(5,6)                  1.4551         estimate D2E/DX2                !
 ! R13   R(6,7)                  1.5238         estimate D2E/DX2                !
 ! R14   R(6,15)                 1.0984         estimate D2E/DX2                !
 ! R15   R(7,8)                  1.4265         estimate D2E/DX2                !
 ! R16   R(7,16)                 1.1001         estimate D2E/DX2                !
 ! R17   R(7,17)                 1.0929         estimate D2E/DX2                !
 ! R18   R(8,9)                  1.4214         estimate D2E/DX2                !
 ! R19   R(9,18)                 1.0973         estimate D2E/DX2                !
 ! R20   R(9,19)                 1.1057         estimate D2E/DX2                !
 ! A1    A(2,1,10)             111.2564         estimate D2E/DX2                !
 ! A2    A(2,1,11)             111.341          estimate D2E/DX2                !
 ! A3    A(2,1,12)             111.4851         estimate D2E/DX2                !
 ! A4    A(10,1,11)            106.627          estimate D2E/DX2                !
 ! A5    A(10,1,12)            108.2291         estimate D2E/DX2                !
 ! A6    A(11,1,12)            107.689          estimate D2E/DX2                !
 ! A7    A(1,2,3)              125.8465         estimate D2E/DX2                !
 ! A8    A(1,2,9)              117.7585         estimate D2E/DX2                !
 ! A9    A(3,2,9)              116.1456         estimate D2E/DX2                !
 ! A10   A(2,3,4)              140.1396         estimate D2E/DX2                !
 ! A11   A(2,3,6)              125.2796         estimate D2E/DX2                !
 ! A12   A(4,3,6)               87.7296         estimate D2E/DX2                !
 ! A13   A(3,4,5)               88.8859         estimate D2E/DX2                !
 ! A14   A(3,4,13)             117.3311         estimate D2E/DX2                !
 ! A15   A(3,4,14)             116.4295         estimate D2E/DX2                !
 ! A16   A(5,4,13)             112.5413         estimate D2E/DX2                !
 ! A17   A(5,4,14)             111.0683         estimate D2E/DX2                !
 ! A18   A(13,4,14)            109.143          estimate D2E/DX2                !
 ! A19   A(4,5,6)               91.2988         estimate D2E/DX2                !
 ! A20   A(3,6,5)               89.4269         estimate D2E/DX2                !
 ! A21   A(3,6,7)              108.3844         estimate D2E/DX2                !
 ! A22   A(3,6,15)             116.5302         estimate D2E/DX2                !
 ! A23   A(5,6,7)              120.3674         estimate D2E/DX2                !
 ! A24   A(5,6,15)             110.5189         estimate D2E/DX2                !
 ! A25   A(7,6,15)             110.4551         estimate D2E/DX2                !
 ! A26   A(6,7,8)              105.1148         estimate D2E/DX2                !
 ! A27   A(6,7,16)             109.9066         estimate D2E/DX2                !
 ! A28   A(6,7,17)             114.3538         estimate D2E/DX2                !
 ! A29   A(8,7,16)             112.3494         estimate D2E/DX2                !
 ! A30   A(8,7,17)             105.8769         estimate D2E/DX2                !
 ! A31   A(16,7,17)            109.1927         estimate D2E/DX2                !
 ! A32   A(7,8,9)              115.548          estimate D2E/DX2                !
 ! A33   A(2,9,8)              115.1683         estimate D2E/DX2                !
 ! A34   A(2,9,18)             111.8527         estimate D2E/DX2                !
 ! A35   A(2,9,19)             107.4446         estimate D2E/DX2                !
 ! A36   A(8,9,18)             105.5326         estimate D2E/DX2                !
 ! A37   A(8,9,19)             109.8781         estimate D2E/DX2                !
 ! A38   A(18,9,19)            106.6659         estimate D2E/DX2                !
 ! D1    D(10,1,2,3)           121.0505         estimate D2E/DX2                !
 ! D2    D(10,1,2,9)           -52.9696         estimate D2E/DX2                !
 ! D3    D(11,1,2,3)          -120.1584         estimate D2E/DX2                !
 ! D4    D(11,1,2,9)            65.8216         estimate D2E/DX2                !
 ! D5    D(12,1,2,3)             0.1309         estimate D2E/DX2                !
 ! D6    D(12,1,2,9)          -173.8891         estimate D2E/DX2                !
 ! D7    D(1,2,3,4)            -25.1183         estimate D2E/DX2                !
 ! D8    D(1,2,3,6)           -165.6197         estimate D2E/DX2                !
 ! D9    D(9,2,3,4)            148.9871         estimate D2E/DX2                !
 ! D10   D(9,2,3,6)              8.4856         estimate D2E/DX2                !
 ! D11   D(1,2,9,8)            171.6111         estimate D2E/DX2                !
 ! D12   D(1,2,9,18)           -67.9096         estimate D2E/DX2                !
 ! D13   D(1,2,9,19)            48.8283         estimate D2E/DX2                !
 ! D14   D(3,2,9,8)             -2.9909         estimate D2E/DX2                !
 ! D15   D(3,2,9,18)           117.4884         estimate D2E/DX2                !
 ! D16   D(3,2,9,19)          -125.7737         estimate D2E/DX2                !
 ! D17   D(2,3,4,5)           -136.6047         estimate D2E/DX2                !
 ! D18   D(2,3,4,13)           -21.6721         estimate D2E/DX2                !
 ! D19   D(2,3,4,14)           110.3259         estimate D2E/DX2                !
 ! D20   D(6,3,4,5)             12.0866         estimate D2E/DX2                !
 ! D21   D(6,3,4,13)           127.0192         estimate D2E/DX2                !
 ! D22   D(6,3,4,14)          -100.9829         estimate D2E/DX2                !
 ! D23   D(2,3,6,5)            143.8007         estimate D2E/DX2                !
 ! D24   D(2,3,6,7)             21.8334         estimate D2E/DX2                !
 ! D25   D(2,3,6,15)          -103.4441         estimate D2E/DX2                !
 ! D26   D(4,3,6,5)            -12.1211         estimate D2E/DX2                !
 ! D27   D(4,3,6,7)           -134.0884         estimate D2E/DX2                !
 ! D28   D(4,3,6,15)           100.6341         estimate D2E/DX2                !
 ! D29   D(3,4,5,6)            -12.4491         estimate D2E/DX2                !
 ! D30   D(13,4,5,6)          -131.7326         estimate D2E/DX2                !
 ! D31   D(14,4,5,6)           105.5579         estimate D2E/DX2                !
 ! D32   D(4,5,6,3)             12.53           estimate D2E/DX2                !
 ! D33   D(4,5,6,7)            123.6118         estimate D2E/DX2                !
 ! D34   D(4,5,6,15)          -105.7128         estimate D2E/DX2                !
 ! D35   D(3,6,7,8)            -55.8397         estimate D2E/DX2                !
 ! D36   D(3,6,7,16)            65.2727         estimate D2E/DX2                !
 ! D37   D(3,6,7,17)          -171.5176         estimate D2E/DX2                !
 ! D38   D(5,6,7,8)           -156.3563         estimate D2E/DX2                !
 ! D39   D(5,6,7,16)           -35.2439         estimate D2E/DX2                !
 ! D40   D(5,6,7,17)            87.9658         estimate D2E/DX2                !
 ! D41   D(15,6,7,8)            72.9406         estimate D2E/DX2                !
 ! D42   D(15,6,7,16)         -165.9471         estimate D2E/DX2                !
 ! D43   D(15,6,7,17)          -42.7374         estimate D2E/DX2                !
 ! D44   D(6,7,8,9)             66.3229         estimate D2E/DX2                !
 ! D45   D(16,7,8,9)           -53.1743         estimate D2E/DX2                !
 ! D46   D(17,7,8,9)          -172.2838         estimate D2E/DX2                !
 ! D47   D(7,8,9,2)            -36.5612         estimate D2E/DX2                !
 ! D48   D(7,8,9,18)          -160.4412         estimate D2E/DX2                !
 ! D49   D(7,8,9,19)            84.9127         estimate D2E/DX2                !
 --------------------------------------------------------------------------------
 Trust Radius=3.00D-01 FncErr=1.00D-07 GrdErr=1.00D-06
 Number of steps in this run=    114 maximum allowed number of steps=    114.
 GradGradGradGradGradGradGradGradGradGradGradGradGradGradGradGradGradGrad

                          Input orientation:                          
 ---------------------------------------------------------------------
 Center     Atomic      Atomic             Coordinates (Angstroms)
 Number     Number       Type             X           Y           Z
 ---------------------------------------------------------------------
      1          6           0        0.032021    1.484374    0.053326
      2          6           0       -0.051557   -0.001807   -0.137278
      3          6           0       -1.162687   -0.724649   -0.125924
      4          6           0       -2.564039   -0.685547    0.431554
      5          8           0       -2.429290   -2.093272    0.792223
      6          6           0       -1.222859   -2.217966   -0.011743
      7          6           0        0.076208   -2.704474    0.618839
      8          8           0        1.111043   -2.191370   -0.218306
      9          6           0        1.248710   -0.776662   -0.225608
     10          1           0        0.662406    1.740198    0.914239
     11          1           0        0.479915    1.974578   -0.820574
     12          1           0       -0.956288    1.924040    0.210544
     13          1           0       -2.741609   -0.043618    1.302553
     14          1           0       -3.375647   -0.539800   -0.295018
     15          1           0       -1.432032   -2.772713   -0.936450
     16          1           0        0.152328   -2.334983    1.652223
     17          1           0        0.199785   -3.790347    0.615519
     18          1           0        1.803653   -0.540159   -1.142225
     19          1           0        1.883634   -0.456338    0.621052
 ---------------------------------------------------------------------
                    Distance matrix (angstroms):
                    1          2          3          4          5
     1  C    0.000000
     2  C    1.500683   0.000000
     3  C    2.517785   1.325609   0.000000
     4  C    3.404577   2.665265   1.508674   0.000000
     5  O    4.404949   3.300274   2.078558   1.459428   0.000000
     6  C    3.909767   2.509794   1.498884   2.084127   1.455123
     7  C    4.227080   2.809349   2.451374   3.328971   2.584792
     8  O    3.840464   2.480401   2.707333   4.024432   3.683035
     9  C    2.582716   1.516212   2.414017   3.870042   4.036970
    10  H    1.097271   2.156389   3.238576   4.065363   4.926354
    11  H    1.097548   2.157651   3.235199   4.231991   5.254712
    12  H    1.093059   2.156016   2.677941   3.073052   4.318203
    13  H    3.404167   3.051433   2.235474   1.096468   2.135195
    14  H    3.978797   3.371037   2.227095   1.099024   2.119188
    15  H    4.609327   3.197234   2.219023   2.740281   2.108192
    16  H    4.142274   2.947472   2.735734   3.404309   2.731808
    17  H    5.307249   3.870776   3.435778   4.160812   3.134218
    18  H    2.943936   2.177509   3.141031   4.644852   4.906328
    19  H    2.741741   2.127587   3.148020   4.457605   4.616293
                    6          7          8          9         10
     6  C    0.000000
     7  C    1.523778   0.000000
     8  O    2.343176   1.426524   0.000000
     9  C    2.869103   2.409213   1.421409   0.000000
    10  H    4.480930   4.492883   4.115964   2.824463   0.000000
    11  H    4.596855   4.912069   4.256310   2.917937   1.760061
    12  H    4.156523   4.759820   4.625404   3.513693   1.774586
    13  H    2.960027   3.935443   4.665702   4.335352   3.862656
    14  H    2.744263   4.175673   4.781626   4.630939   4.792344
    15  H    1.098445   2.167571   2.705720   3.417001   5.308304
    16  H    2.161854   1.100091   2.106808   2.675195   4.172757
    17  H    2.211279   1.092887   2.020491   3.300005   5.557894
    18  H    3.640440   3.281718   2.014903   1.097307   3.275900
    19  H    3.626853   2.884599   2.076477   1.105698   2.530242
                   11         12         13         14         15
    11  H    0.000000
    12  H    1.768740   0.000000
    13  H    4.354194   2.872548   0.000000
    14  H    4.632889   3.489899   1.788975   0.000000
    15  H    5.119155   4.858129   3.765114   3.029022   0.000000
    16  H    4.979393   4.631062   3.707761   4.411466   3.066436
    17  H    5.947705   5.844204   4.812670   4.917199   2.471237
    18  H    2.860008   3.939484   5.184872   5.248134   3.936534
    19  H    3.155640   3.728252   4.693362   5.339118   4.334172
                   16         17         18         19
    16  H    0.000000
    17  H    1.787482   0.000000
    18  H    3.709071   4.028124   0.000000
    19  H    2.755003   3.735103   1.767080   0.000000
 Stoichiometry    C7H10O2
 Framework group  C1[X(C7H10O2)]
 Deg. of freedom    51
 Full point group                 C1      NOp   1
 Largest Abelian subgroup         C1      NOp   1
 Largest concise Abelian subgroup C1      NOp   1
                         Standard orientation:                         
 ---------------------------------------------------------------------
 Center     Atomic      Atomic             Coordinates (Angstroms)
 Number     Number       Type             X           Y           Z
 ---------------------------------------------------------------------
      1          6           0       -2.027121   -1.646701    0.182554
      2          6           0       -1.075483   -0.528898   -0.128817
      3          6           0        0.225298   -0.655833   -0.350395
      4          6           0        1.370531   -1.582378   -0.024736
      5          8           0        2.201251   -0.413721    0.247431
      6          6           0        1.215902    0.469017   -0.358576
      7          6           0        0.630666    1.630571    0.435270
      8          8           0       -0.623955    1.909441   -0.183704
      9          6           0       -1.606835    0.889665   -0.063684
     10          1           0       -2.520220   -1.491368    1.150401
     11          1           0       -2.824278   -1.713593   -0.568895
     12          1           0       -1.515282   -2.612108    0.210617
     13          1           0        1.258954   -2.232037    0.851470
     14          1           0        1.776877   -2.170128   -0.859774
     15          1           0        1.560491    0.812180   -1.343502
     16          1           0        0.521444    1.344743    1.491950
     17          1           0        1.207942    2.556349    0.371315
     18          1           0       -2.336226    1.089518   -0.858751
     19          1           0       -2.145812    0.998019    0.895655
 ---------------------------------------------------------------------
 Rotational constants (GHZ):      2.2482415      1.8283150      1.0786946
 Standard basis: 6-31G(2df,p) (6D, 7F)
 There are   329 symmetry adapted cartesian basis functions of A   symmetry.
 There are   302 symmetry adapted basis functions of A   symmetry.
   302 basis functions,   466 primitive gaussians,   329 cartesian basis functions
    34 alpha electrons       34 beta electrons
       nuclear repulsion energy       467.9846821741 Hartrees.
 NAtoms=   19 NActive=   19 NUniq=   19 SFac= 1.00D+00 NAtFMM=   60 NAOKFM=F Big=F
 Integral buffers will be    131072 words long.
 Raffenetti 2 integral format.
 Two-electron integral symmetry is turned on.
 One-electron integrals computed using PRISM.
 NBasis=   302 RedAO= T EigKep=  3.42D-04  NBF=   302
 NBsUse=   302 1.00D-06 EigRej= -1.00D+00 NBFU=   302
 ExpMin= 1.61D-01 ExpMax= 5.48D+03 ExpMxC= 8.25D+02 IAcc=1 IRadAn=         1 AccDes= 0.00D+00
 Harris functional with IExCor=  402 and IRadAn=       1 diagonalized for initial guess.
 HarFok:  IExCor=  402 AccDes= 0.00D+00 IRadAn=         1 IDoV= 1 UseB2=F ITyADJ=14
 ICtDFT=  3500011 ScaDFX=  1.000000  1.000000  1.000000  1.000000
 FoFCou: FMM=F IPFlag=           0 FMFlag=      100000 FMFlg1=           0
         NFxFlg=           0 DoJE=T BraDBF=F KetDBF=T FulRan=T
         wScrn=  0.000000 ICntrl=     500 IOpCl=  0 I1Cent=   200000004 NGrid=           0
         NMat0=    1 NMatS0=      1 NMatT0=    0 NMatD0=    1 NMtDS0=    0 NMtDT0=    0
 Petite list used in FoFCou.
 Requested convergence on RMS density matrix=1.00D-08 within 128 cycles.
 Requested convergence on MAX density matrix=1.00D-06.
 Requested convergence on             energy=1.00D-06.
 No special actions if energy rises.
 Integral accuracy reduced to 1.0D-05 until final iterations.
 Initial convergence to 1.0D-05 achieved.  Increase integral accuracy.
 SCF Done:  E(RB3LYP) =  -423.160221582     A.U. after   13 cycles
            NFock= 13  Conv=0.67D-08     -V/T= 2.0074

 **********************************************************************

            Population analysis using the SCF density.

 **********************************************************************

 Orbital symmetries:
       Occupied  (A) (A) (A) (A) (A) (A) (A) (A) (A) (A) (A) (A)
                 (A) (A) (A) (A) (A) (A) (A) (A) (A) (A) (A) (A)
                 (A) (A) (A) (A) (A) (A) (A) (A) (A) (A)
       Virtual   (A) (A) (A) (A) (A) (A) (A) (A) (A) (A) (A) (A)
                 (A) (A) (A) (A) (A) (A) (A) (A) (A) (A) (A) (A)
                 (A) (A) (A) (A) (A) (A) (A) (A) (A) (A) (A) (A)
                 (A) (A) (A) (A) (A) (A) (A) (A) (A) (A) (A) (A)
                 (A) (A) (A) (A) (A) (A) (A) (A) (A) (A) (A) (A)
                 (A) (A) (A) (A) (A) (A) (A) (A) (A) (A) (A) (A)
                 (A) (A) (A) (A) (A) (A) (A) (A) (A) (A) (A) (A)
                 (A) (A) (A) (A) (A) (A) (A) (A) (A) (A) (A) (A)
                 (A) (A) (A) (A) (A) (A) (A) (A) (A) (A) (A) (A)
                 (A) (A) (A) (A) (A) (A) (A) (A) (A) (A) (A) (A)
                 (A) (A) (A) (A) (A) (A) (A) (A) (A) (A) (A) (A)
                 (A) (A) (A) (A) (A) (A) (A) (A) (A) (A) (A) (A)
                 (A) (A) (A) (A) (A) (A) (A) (A) (A) (A) (A) (A)
                 (A) (A) (A) (A) (A) (A) (A) (A) (A) (A) (A) (A)
                 (A) (A) (A) (A) (A) (A) (A) (A) (A) (A) (A) (A)
                 (A) (A) (A) (A) (A) (A) (A) (A) (A) (A) (A) (A)
                 (A) (A) (A) (A) (A) (A) (A) (A) (A) (A) (A) (A)
                 (A) (A) (A) (A) (A) (A) (A) (A) (A) (A) (A) (A)
                 (A) (A) (A) (A) (A) (A) (A) (A) (A) (A) (A) (A)
                 (A) (A) (A) (A) (A) (A) (A) (A) (A) (A) (A) (A)
                 (A) (A) (A) (A) (A) (A) (A) (A) (A) (A) (A) (A)
                 (A) (A) (A) (A) (A) (A) (A) (A) (A) (A) (A) (A)
                 (A) (A) (A) (A)
 The electronic state is 1-A.
 Alpha  occ. eigenvalues --  -19.14427 -19.13596 -10.23748 -10.23596 -10.22852
 Alpha  occ. eigenvalues --  -10.22797 -10.19471 -10.19137 -10.18528  -1.04245
 Alpha  occ. eigenvalues --   -1.02813  -0.81258  -0.75740  -0.71355  -0.69388
 Alpha  occ. eigenvalues --   -0.61970  -0.60861  -0.52784  -0.50089  -0.49199
 Alpha  occ. eigenvalues --   -0.46526  -0.45616  -0.43683  -0.41614  -0.40986
 Alpha  occ. eigenvalues --   -0.40421  -0.38659  -0.37876  -0.35420  -0.31765
 Alpha  occ. eigenvalues --   -0.30002  -0.27069  -0.25162  -0.23369
 Alpha virt. eigenvalues --    0.01271   0.07335   0.09098   0.10432   0.12194
 Alpha virt. eigenvalues --    0.13660   0.14844   0.15351   0.16388   0.16902
 Alpha virt. eigenvalues --    0.17785   0.18293   0.18658   0.19846   0.20847
 Alpha virt. eigenvalues --    0.22632   0.25759   0.26708   0.30440   0.32312
 Alpha virt. eigenvalues --    0.38511   0.41688   0.43163   0.44348   0.44966
 Alpha virt. eigenvalues --    0.47474   0.49095   0.50422   0.51406   0.54016
 Alpha virt. eigenvalues --    0.55530   0.57020   0.57254   0.59711   0.61297
 Alpha virt. eigenvalues --    0.63149   0.65345   0.66131   0.66868   0.67998
 Alpha virt. eigenvalues --    0.70006   0.71268   0.72899   0.73552   0.74392
 Alpha virt. eigenvalues --    0.74703   0.77159   0.77620   0.79019   0.79982
 Alpha virt. eigenvalues --    0.80529   0.83137   0.84836   0.85308   0.86606
 Alpha virt. eigenvalues --    0.88179   0.90396   0.92336   0.93657   0.95740
 Alpha virt. eigenvalues --    0.99873   1.02034   1.06166   1.09609   1.11133
 Alpha virt. eigenvalues --    1.11453   1.13636   1.18403   1.18944   1.21510
 Alpha virt. eigenvalues --    1.24665   1.25612   1.27669   1.31239   1.31689
 Alpha virt. eigenvalues --    1.34852   1.37797   1.39134   1.40521   1.41681
 Alpha virt. eigenvalues --    1.42565   1.43794   1.45851   1.47736   1.49056
 Alpha virt. eigenvalues --    1.50597   1.52353   1.55087   1.56785   1.57897
 Alpha virt. eigenvalues --    1.59482   1.62092   1.62672   1.67405   1.70138
 Alpha virt. eigenvalues --    1.72530   1.74147   1.75681   1.80117   1.80992
 Alpha virt. eigenvalues --    1.85836   1.89105   1.90161   1.94345   1.95384
 Alpha virt. eigenvalues --    1.96850   1.99999   2.03809   2.04981   2.10423
 Alpha virt. eigenvalues --    2.13175   2.17198   2.19371   2.22994   2.25143
 Alpha virt. eigenvalues --    2.28111   2.32568   2.36815   2.37816   2.40851
 Alpha virt. eigenvalues --    2.41896   2.43668   2.45825   2.46825   2.52244
 Alpha virt. eigenvalues --    2.56665   2.63231   2.65821   2.66874   2.70759
 Alpha virt. eigenvalues --    2.72555   2.74706   2.77777   2.80549   2.81674
 Alpha virt. eigenvalues --    2.84673   2.85736   2.87752   2.89356   2.90789
 Alpha virt. eigenvalues --    2.90985   2.93683   2.94637   2.98876   3.01308
 Alpha virt. eigenvalues --    3.04334   3.05038   3.08136   3.14300   3.17202
 Alpha virt. eigenvalues --    3.18134   3.20026   3.20756   3.24492   3.26432
 Alpha virt. eigenvalues --    3.29792   3.30565   3.32182   3.34657   3.36610
 Alpha virt. eigenvalues --    3.38455   3.41691   3.42242   3.44249   3.45725
 Alpha virt. eigenvalues --    3.48323   3.50238   3.52355   3.53360   3.57806
 Alpha virt. eigenvalues --    3.60640   3.63745   3.65809   3.68988   3.70267
 Alpha virt. eigenvalues --    3.70937   3.75154   3.79332   3.83515   3.87409
 Alpha virt. eigenvalues --    3.87997   3.91491   3.97176   4.01875   4.02803
 Alpha virt. eigenvalues --    4.05214   4.10637   4.19316   4.23482   4.25313
 Alpha virt. eigenvalues --    4.30585   4.33342   4.35690   4.38285   4.41302
 Alpha virt. eigenvalues --    4.41704   4.42767   4.44665   4.46302   4.47373
 Alpha virt. eigenvalues --    4.49487   4.52753   4.53947   4.55492   4.57484
 Alpha virt. eigenvalues --    4.58412   4.59756   4.60322   4.63209   4.64472
 Alpha virt. eigenvalues --    4.65907   4.68005   4.69541   4.72145   4.72734
 Alpha virt. eigenvalues --    4.74780   4.76493   4.77908   4.78847   4.82020
 Alpha virt. eigenvalues --    4.82392   4.85695   4.86906   4.88389   4.90613
 Alpha virt. eigenvalues --    4.92691   4.94367   5.02607   5.07956   5.09144
 Alpha virt. eigenvalues --    5.11113   5.17561   5.18451   5.22450   5.28979
 Alpha virt. eigenvalues --    5.32890   5.37143   5.44218   5.46329   5.53453
 Alpha virt. eigenvalues --    5.57284   5.59223   5.61527   5.70186   5.78506
 Alpha virt. eigenvalues --    5.83540   5.86602   5.89519   5.93782   5.97548
 Alpha virt. eigenvalues --    6.02598   6.04509   6.10358   6.17383   6.24781
 Alpha virt. eigenvalues --    6.28759   6.58015   7.12288   7.15051  10.26423
 Alpha virt. eigenvalues --   11.15204  11.43676  11.75932  11.81395  12.15975
 Alpha virt. eigenvalues --   12.44920  13.44489  13.47371
          Condensed to atoms (all electrons):
               1          2          3          4          5          6
     1  C    5.139929   0.352956  -0.025732  -0.014306  -0.000110   0.008402
     2  C    0.352956   4.816891   0.612307  -0.049767   0.009996  -0.016747
     3  C   -0.025732   0.612307   4.668846   0.391105  -0.074832   0.392177
     4  C   -0.014306  -0.049767   0.391105   4.978923   0.334995  -0.201599
     5  O   -0.000110   0.009996  -0.074832   0.334995   7.823905   0.307535
     6  C    0.008402  -0.016747   0.392177  -0.201599   0.307535   4.857996
     7  C   -0.000619  -0.020098  -0.001993   0.007224  -0.017829   0.336954
     8  O    0.002067  -0.028554  -0.019612   0.000091   0.001134  -0.032686
     9  C   -0.079788   0.332178   0.004369   0.008291  -0.000053  -0.036961
    10  H    0.364214  -0.022526  -0.001949   0.000332   0.000011  -0.000110
    11  H    0.369569  -0.021561  -0.002101   0.000051  -0.000003  -0.000213
    12  H    0.364205  -0.013644  -0.003118   0.003460  -0.000019   0.000022
    13  H    0.001430  -0.010272  -0.014443   0.355479  -0.020199   0.009288
    14  H    0.000273   0.006792  -0.012752   0.332644  -0.029405   0.000094
    15  H   -0.000154   0.004151  -0.035996   0.009186  -0.034441   0.340926
    16  H   -0.000160   0.000411  -0.012080   0.003380   0.004272  -0.029556
    17  H    0.000014   0.000780   0.004359  -0.000465   0.001204  -0.025850
    18  H    0.002361  -0.018267  -0.006782  -0.000157  -0.000009   0.000014
    19  H    0.000800  -0.046595  -0.004422  -0.000059   0.000055   0.001321
               7          8          9         10         11         12
     1  C   -0.000619   0.002067  -0.079788   0.364214   0.369569   0.364205
     2  C   -0.020098  -0.028554   0.332178  -0.022526  -0.021561  -0.013644
     3  C   -0.001993  -0.019612   0.004369  -0.001949  -0.002101  -0.003118
     4  C    0.007224   0.000091   0.008291   0.000332   0.000051   0.003460
     5  O   -0.017829   0.001134  -0.000053   0.000011  -0.000003  -0.000019
     6  C    0.336954  -0.032686  -0.036961  -0.000110  -0.000213   0.000022
     7  C    4.925508   0.355906  -0.089321   0.000012   0.000034   0.000001
     8  O    0.355906   7.666097   0.398228   0.000028   0.000015  -0.000044
     9  C   -0.089321   0.398228   4.883914  -0.000392  -0.000654   0.003211
    10  H    0.000012   0.000028  -0.000392   0.591232  -0.036826  -0.027530
    11  H    0.000034   0.000015  -0.000654  -0.036826   0.589520  -0.031472
    12  H    0.000001  -0.000044   0.003211  -0.027530  -0.031472   0.576703
    13  H    0.000130  -0.000001  -0.000063   0.000163  -0.000082   0.001129
    14  H   -0.000741   0.000011  -0.000137  -0.000025   0.000034  -0.000322
    15  H   -0.063301   0.003452   0.001962  -0.000004   0.000013  -0.000005
    16  H    0.331673  -0.025978   0.000591  -0.000010   0.000006   0.000004
    17  H    0.361071  -0.017650   0.004254  -0.000002   0.000000   0.000000
    18  H    0.006202  -0.016092   0.350424  -0.000626   0.002411  -0.000205
    19  H   -0.004057  -0.030471   0.350332   0.005596  -0.000498  -0.000091
              13         14         15         16         17         18
     1  C    0.001430   0.000273  -0.000154  -0.000160   0.000014   0.002361
     2  C   -0.010272   0.006792   0.004151   0.000411   0.000780  -0.018267
     3  C   -0.014443  -0.012752  -0.035996  -0.012080   0.004359  -0.006782
     4  C    0.355479   0.332644   0.009186   0.003380  -0.000465  -0.000157
     5  O   -0.020199  -0.029405  -0.034441   0.004272   0.001204  -0.000009
     6  C    0.009288   0.000094   0.340926  -0.029556  -0.025850   0.000014
     7  C    0.000130  -0.000741  -0.063301   0.331673   0.361071   0.006202
     8  O   -0.000001   0.000011   0.003452  -0.025978  -0.017650  -0.016092
     9  C   -0.000063  -0.000137   0.001962   0.000591   0.004254   0.350424
    10  H    0.000163  -0.000025  -0.000004  -0.000010  -0.000002  -0.000626
    11  H   -0.000082   0.000034   0.000013   0.000006   0.000000   0.002411
    12  H    0.001129  -0.000322  -0.000005   0.000004   0.000000  -0.000205
    13  H    0.621929  -0.058736  -0.000872  -0.000171   0.000009  -0.000007
    14  H   -0.058736   0.651935   0.003521   0.000079   0.000017   0.000009
    15  H   -0.000872   0.003521   0.682794   0.007477  -0.004434   0.000226
    16  H   -0.000171   0.000079   0.007477   0.658762  -0.041640  -0.000122
    17  H    0.000009   0.000017  -0.004434  -0.041640   0.608649  -0.000106
    18  H   -0.000007   0.000009   0.000226  -0.000122  -0.000106   0.611233
    19  H    0.000038  -0.000002  -0.000016   0.006473  -0.000253  -0.050172
              19
     1  C    0.000800
     2  C   -0.046595
     3  C   -0.004422
     4  C   -0.000059
     5  O    0.000055
     6  C    0.001321
     7  C   -0.004057
     8  O   -0.030471
     9  C    0.350332
    10  H    0.005596
    11  H   -0.000498
    12  H   -0.000091
    13  H    0.000038
    14  H   -0.000002
    15  H   -0.000016
    16  H    0.006473
    17  H   -0.000253
    18  H   -0.050172
    19  H    0.673433
 Mulliken charges:
               1
     1  C   -0.485351
     2  C    0.111567
     3  C    0.142648
     4  C   -0.158810
     5  O   -0.306209
     6  C    0.088993
     7  C   -0.126756
     8  O   -0.255938
     9  C   -0.130388
    10  H    0.128410
    11  H    0.131757
    12  H    0.127714
    13  H    0.115252
    14  H    0.106711
    15  H    0.085514
    16  H    0.096590
    17  H    0.110044
    18  H    0.119663
    19  H    0.098589
 Sum of Mulliken charges =   0.00000
 Mulliken charges with hydrogens summed into heavy atoms:
               1
     1  C   -0.097469
     2  C    0.111567
     3  C    0.142648
     4  C    0.063153
     5  O   -0.306209
     6  C    0.174507
     7  C    0.079878
     8  O   -0.255938
     9  C    0.087864
 Electronic spatial extent (au):  <R**2>=           1122.7257
 Charge=              0.0000 electrons
 Dipole moment (field-independent basis, Debye):
    X=             -1.6256    Y=             -1.3538    Z=              0.1237  Tot=              2.1191
 Quadrupole moment (field-independent basis, Debye-Ang):
   XX=            -54.9940   YY=            -52.6990   ZZ=            -52.9018
   XY=              2.1215   XZ=             -1.7498   YZ=              0.7438
 Traceless Quadrupole moment (field-independent basis, Debye-Ang):
   XX=             -1.4624   YY=              0.8326   ZZ=              0.6298
   XY=              2.1215   XZ=             -1.7498   YZ=              0.7438
 Octapole moment (field-independent basis, Debye-Ang**2):
  XXX=            -17.2050  YYY=             -6.3394  ZZZ=              1.3042  XYY=             11.8908
  XXY=              4.1498  XXZ=             -4.9178  XZZ=              1.6066  YZZ=              2.4072
  YYZ=              2.8287  XYZ=              0.4397
 Hexadecapole moment (field-independent basis, Debye-Ang**3):
 XXXX=           -761.4272 YYYY=           -611.4606 ZZZZ=           -107.6317 XXXY=             -4.3068
 XXXZ=             -1.5240 YYYX=              1.3731 YYYZ=              1.3365 ZZZX=              0.0046
 ZZZY=             -3.1452 XXYY=           -213.5487 XXZZ=           -134.2431 YYZZ=           -118.5981
 XXYZ=              0.0238 YYXZ=              1.2888 ZZXY=             -4.0550
 N-N= 4.679846821741D+02 E-N=-1.922730820717D+03  KE= 4.200424103925D+02
 Calling FoFJK, ICntrl=      2127 FMM=F ISym2X=0 I1Cent= 0 IOpClX= 0 NMat=1 NMatS=1 NMatT=0.
 ***** Axes restored to original set *****
 -------------------------------------------------------------------
 Center     Atomic                   Forces (Hartrees/Bohr)
 Number     Number              X              Y              Z
 -------------------------------------------------------------------
      1        6           0.000019885    0.000028839    0.000025067
      2        6          -0.000065928    0.000028832   -0.000023278
      3        6          -0.000002368   -0.000047018   -0.000000758
      4        6           0.000042217    0.000028944    0.000013168
      5        8          -0.000016036   -0.000025910   -0.000002112
      6        6           0.000034264    0.000032731    0.000001028
      7        6          -0.000010657   -0.000004588    0.000003017
      8        8           0.000000734   -0.000001950   -0.000027761
      9        6           0.000022795   -0.000022022    0.000034209
     10        1          -0.000000608   -0.000010085    0.000007346
     11        1           0.000002355   -0.000006601    0.000007961
     12        1           0.000003852   -0.000006413    0.000005445
     13        1          -0.000023494   -0.000001950   -0.000007262
     14        1           0.000000329    0.000006975   -0.000018887
     15        1          -0.000001947    0.000007056   -0.000017468
     16        1          -0.000004377   -0.000003718   -0.000004391
     17        1           0.000003060    0.000004078   -0.000012455
     18        1          -0.000008530   -0.000005638    0.000009916
     19        1           0.000004455   -0.000001563    0.000007216
 -------------------------------------------------------------------
 Cartesian Forces:  Max     0.000065928 RMS     0.000019238

 GradGradGradGradGradGradGradGradGradGradGradGradGradGradGradGradGradGrad
 Berny optimization.
 FormGI is forming the generalized inverse of G from B-inverse, IUseBI=4.
 Internal  Forces:  Max     0.000033103 RMS     0.000008495
 Search for a local minimum.
 Step number   1 out of a maximum of  114
 All quantities printed in internal units (Hartrees-Bohrs-Radians)
 Mixed Optimization -- En-DIIS/RFO-DIIS
 Second derivative matrix not updated -- first step.
 ITU=  0
     Eigenvalues ---    0.00757   0.00809   0.01103   0.01340   0.01738
     Eigenvalues ---    0.02184   0.04127   0.04359   0.04898   0.05276
     Eigenvalues ---    0.05984   0.06421   0.07110   0.07209   0.07431
     Eigenvalues ---    0.07615   0.08291   0.08850   0.09548   0.10639
     Eigenvalues ---    0.11120   0.11902   0.12145   0.12555   0.16000
     Eigenvalues ---    0.16000   0.16000   0.17843   0.20866   0.21421
     Eigenvalues ---    0.24837   0.26418   0.29143   0.29682   0.30282
     Eigenvalues ---    0.32306   0.33060   0.33672   0.33790   0.33855
     Eigenvalues ---    0.33955   0.33982   0.33986   0.34076   0.34461
     Eigenvalues ---    0.34481   0.35071   0.35869   0.39269   0.40830
     Eigenvalues ---    0.58176
 RFO step:  Lambda=-5.51037056D-08 EMin= 7.56907404D-03
 Linear search not attempted -- first point.
 Iteration  1 RMS(Cart)=  0.00011415 RMS(Int)=  0.00000001
 Iteration  2 RMS(Cart)=  0.00000001 RMS(Int)=  0.00000000
 Variable       Old X    -DE/DX   Delta X   Delta X   Delta X     New X
                                 (Linear)    (Quad)   (Total)
    R1        2.83588   0.00001   0.00000   0.00002   0.00002   2.83590
    R2        2.07354   0.00000   0.00000  -0.00001  -0.00001   2.07353
    R3        2.07406   0.00000   0.00000  -0.00001  -0.00001   2.07406
    R4        2.06558   0.00000   0.00000  -0.00001  -0.00001   2.06557
    R5        2.50504  -0.00001   0.00000  -0.00002  -0.00002   2.50502
    R6        2.86522   0.00003   0.00000   0.00010   0.00010   2.86533
    R7        2.85098  -0.00002   0.00000  -0.00005  -0.00005   2.85093
    R8        2.83248  -0.00001   0.00000  -0.00007  -0.00007   2.83240
    R9        2.75792   0.00001   0.00000   0.00006   0.00006   2.75798
   R10        2.07202   0.00000   0.00000   0.00000   0.00000   2.07203
   R11        2.07686   0.00001   0.00000   0.00003   0.00003   2.07688
   R12        2.74978   0.00001   0.00000   0.00003   0.00003   2.74982
   R13        2.87952  -0.00001   0.00000  -0.00003  -0.00003   2.87950
   R14        2.07576   0.00001   0.00000   0.00002   0.00002   2.07578
   R15        2.69574  -0.00001   0.00000  -0.00002  -0.00002   2.69572
   R16        2.07887   0.00000   0.00000   0.00000   0.00000   2.07887
   R17        2.06526  -0.00001   0.00000  -0.00002  -0.00002   2.06524
   R18        2.68607  -0.00001   0.00000  -0.00002  -0.00002   2.68605
   R19        2.07361  -0.00001   0.00000  -0.00003  -0.00003   2.07358
   R20        2.08947   0.00000   0.00000   0.00001   0.00001   2.08948
    A1        1.94179   0.00000   0.00000  -0.00002  -0.00002   1.94177
    A2        1.94327  -0.00001   0.00000  -0.00009  -0.00009   1.94318
    A3        1.94578   0.00000   0.00000  -0.00002  -0.00002   1.94576
    A4        1.86099   0.00001   0.00000   0.00005   0.00005   1.86104
    A5        1.88895   0.00001   0.00000   0.00006   0.00006   1.88901
    A6        1.87953   0.00001   0.00000   0.00003   0.00003   1.87956
    A7        2.19644   0.00003   0.00000   0.00014   0.00014   2.19658
    A8        2.05527  -0.00002   0.00000  -0.00007  -0.00007   2.05520
    A9        2.02712  -0.00001   0.00000  -0.00008  -0.00008   2.02704
   A10        2.44590  -0.00001   0.00000   0.00002   0.00002   2.44592
   A11        2.18654   0.00000   0.00000   0.00002   0.00002   2.18656
   A12        1.53117   0.00001   0.00000   0.00004   0.00004   1.53121
   A13        1.55135   0.00000   0.00000  -0.00001  -0.00001   1.55134
   A14        2.04781   0.00002   0.00000   0.00021   0.00021   2.04803
   A15        2.03208  -0.00001   0.00000  -0.00015  -0.00015   2.03192
   A16        1.96422   0.00000   0.00000   0.00005   0.00005   1.96426
   A17        1.93851   0.00000   0.00000  -0.00002  -0.00002   1.93849
   A18        1.90491  -0.00001   0.00000  -0.00006  -0.00006   1.90484
   A19        1.59346  -0.00001   0.00000  -0.00004  -0.00004   1.59342
   A20        1.56079   0.00000   0.00000   0.00001   0.00001   1.56081
   A21        1.89167   0.00001   0.00000   0.00006   0.00006   1.89173
   A22        2.03384  -0.00001   0.00000  -0.00008  -0.00008   2.03375
   A23        2.10081   0.00000   0.00000   0.00005   0.00005   2.10086
   A24        1.92892   0.00000   0.00000  -0.00003  -0.00003   1.92888
   A25        1.92780   0.00000   0.00000  -0.00001  -0.00001   1.92780
   A26        1.83460   0.00000   0.00000  -0.00007  -0.00007   1.83453
   A27        1.91823   0.00000   0.00000   0.00003   0.00003   1.91826
   A28        1.99585   0.00001   0.00000   0.00004   0.00004   1.99589
   A29        1.96087   0.00001   0.00000   0.00002   0.00002   1.96089
   A30        1.84790  -0.00001   0.00000  -0.00006  -0.00006   1.84784
   A31        1.90577   0.00000   0.00000   0.00003   0.00003   1.90581
   A32        2.01669  -0.00001   0.00000  -0.00009  -0.00009   2.01661
   A33        2.01007   0.00001   0.00000   0.00004   0.00004   2.01011
   A34        1.95220  -0.00001   0.00000  -0.00010  -0.00010   1.95209
   A35        1.87526   0.00001   0.00000   0.00010   0.00010   1.87536
   A36        1.84189  -0.00001   0.00000  -0.00014  -0.00014   1.84175
   A37        1.91773   0.00000   0.00000   0.00008   0.00008   1.91781
   A38        1.86167   0.00000   0.00000   0.00002   0.00002   1.86170
    D1        2.11273   0.00000   0.00000   0.00006   0.00006   2.11279
    D2       -0.92449   0.00000   0.00000   0.00020   0.00020  -0.92429
    D3       -2.09716   0.00000   0.00000   0.00005   0.00005  -2.09711
    D4        1.14880   0.00000   0.00000   0.00019   0.00019   1.14900
    D5        0.00229   0.00000   0.00000   0.00001   0.00001   0.00230
    D6       -3.03494   0.00000   0.00000   0.00015   0.00015  -3.03478
    D7       -0.43840   0.00001   0.00000   0.00019   0.00019  -0.43821
    D8       -2.89061   0.00000   0.00000  -0.00002  -0.00002  -2.89063
    D9        2.60031   0.00000   0.00000   0.00005   0.00005   2.60036
   D10        0.14810   0.00000   0.00000  -0.00016  -0.00016   0.14794
   D11        2.99518   0.00001   0.00000   0.00016   0.00016   2.99534
   D12       -1.18525   0.00000   0.00000  -0.00008  -0.00008  -1.18532
   D13        0.85222   0.00000   0.00000  -0.00004  -0.00004   0.85217
   D14       -0.05220   0.00001   0.00000   0.00028   0.00028  -0.05192
   D15        2.05056   0.00000   0.00000   0.00004   0.00004   2.05060
   D16       -2.19516   0.00000   0.00000   0.00007   0.00007  -2.19509
   D17       -2.38420  -0.00001   0.00000  -0.00015  -0.00015  -2.38436
   D18       -0.37825   0.00000   0.00000  -0.00006  -0.00006  -0.37831
   D19        1.92555   0.00000   0.00000  -0.00010  -0.00010   1.92545
   D20        0.21095   0.00000   0.00000   0.00000   0.00000   0.21095
   D21        2.21690   0.00000   0.00000   0.00010   0.00010   2.21700
   D22       -1.76248   0.00000   0.00000   0.00006   0.00006  -1.76242
   D23        2.50980   0.00000   0.00000   0.00012   0.00012   2.50991
   D24        0.38106   0.00000   0.00000   0.00005   0.00005   0.38111
   D25       -1.80544   0.00000   0.00000   0.00007   0.00007  -1.80537
   D26       -0.21155   0.00000   0.00000   0.00000   0.00000  -0.21156
   D27       -2.34028   0.00000   0.00000  -0.00007  -0.00007  -2.34036
   D28        1.75640   0.00000   0.00000  -0.00005  -0.00005   1.75634
   D29       -0.21728   0.00001   0.00000   0.00001   0.00001  -0.21727
   D30       -2.29917  -0.00002   0.00000  -0.00024  -0.00024  -2.29940
   D31        1.84233  -0.00001   0.00000  -0.00017  -0.00017   1.84216
   D32        0.21869  -0.00001   0.00000   0.00000   0.00000   0.21869
   D33        2.15743   0.00001   0.00000   0.00009   0.00009   2.15752
   D34       -1.84504   0.00000   0.00000   0.00009   0.00009  -1.84495
   D35       -0.97459   0.00000   0.00000  -0.00005  -0.00005  -0.97464
   D36        1.13922   0.00000   0.00000  -0.00005  -0.00005   1.13918
   D37       -2.99355   0.00001   0.00000   0.00005   0.00005  -2.99350
   D38       -2.72893  -0.00001   0.00000  -0.00013  -0.00013  -2.72906
   D39       -0.61512  -0.00001   0.00000  -0.00013  -0.00013  -0.61525
   D40        1.53529   0.00000   0.00000  -0.00003  -0.00003   1.53527
   D41        1.27305  -0.00001   0.00000  -0.00011  -0.00011   1.27294
   D42       -2.89632   0.00000   0.00000  -0.00011  -0.00011  -2.89644
   D43       -0.74591   0.00000   0.00000  -0.00001  -0.00001  -0.74592
   D44        1.15755   0.00000   0.00000   0.00013   0.00013   1.15768
   D45       -0.92807   0.00000   0.00000   0.00012   0.00012  -0.92795
   D46       -3.00692   0.00000   0.00000   0.00011   0.00011  -3.00681
   D47       -0.63811  -0.00001   0.00000  -0.00028  -0.00028  -0.63840
   D48       -2.80023   0.00000   0.00000  -0.00007  -0.00007  -2.80030
   D49        1.48201   0.00000   0.00000  -0.00006  -0.00006   1.48194
         Item               Value     Threshold  Converged?
 Maximum Force            0.000033     0.000450     YES
 RMS     Force            0.000008     0.000300     YES
 Maximum Displacement     0.000608     0.001800     YES
 RMS     Displacement     0.000114     0.001200     YES
 Predicted change in Energy=-2.755242D-08
 Optimization completed.
    -- Stationary point found.
                           ----------------------------
                           !   Optimized Parameters   !
                           ! (Angstroms and Degrees)  !
 --------------------------                            --------------------------
 ! Name  Definition              Value          Derivative Info.                !
 --------------------------------------------------------------------------------
 ! R1    R(1,2)                  1.5007         -DE/DX =    0.0                 !
 ! R2    R(1,10)                 1.0973         -DE/DX =    0.0                 !
 ! R3    R(1,11)                 1.0975         -DE/DX =    0.0                 !
 ! R4    R(1,12)                 1.0931         -DE/DX =    0.0                 !
 ! R5    R(2,3)                  1.3256         -DE/DX =    0.0                 !
 ! R6    R(2,9)                  1.5162         -DE/DX =    0.0                 !
 ! R7    R(3,4)                  1.5087         -DE/DX =    0.0                 !
 ! R8    R(3,6)                  1.4989         -DE/DX =    0.0                 !
 ! R9    R(4,5)                  1.4594         -DE/DX =    0.0                 !
 ! R10   R(4,13)                 1.0965         -DE/DX =    0.0                 !
 ! R11   R(4,14)                 1.099          -DE/DX =    0.0                 !
 ! R12   R(5,6)                  1.4551         -DE/DX =    0.0                 !
 ! R13   R(6,7)                  1.5238         -DE/DX =    0.0                 !
 ! R14   R(6,15)                 1.0984         -DE/DX =    0.0                 !
 ! R15   R(7,8)                  1.4265         -DE/DX =    0.0                 !
 ! R16   R(7,16)                 1.1001         -DE/DX =    0.0                 !
 ! R17   R(7,17)                 1.0929         -DE/DX =    0.0                 !
 ! R18   R(8,9)                  1.4214         -DE/DX =    0.0                 !
 ! R19   R(9,18)                 1.0973         -DE/DX =    0.0                 !
 ! R20   R(9,19)                 1.1057         -DE/DX =    0.0                 !
 ! A1    A(2,1,10)             111.2564         -DE/DX =    0.0                 !
 ! A2    A(2,1,11)             111.341          -DE/DX =    0.0                 !
 ! A3    A(2,1,12)             111.4851         -DE/DX =    0.0                 !
 ! A4    A(10,1,11)            106.627          -DE/DX =    0.0                 !
 ! A5    A(10,1,12)            108.2291         -DE/DX =    0.0                 !
 ! A6    A(11,1,12)            107.689          -DE/DX =    0.0                 !
 ! A7    A(1,2,3)              125.8465         -DE/DX =    0.0                 !
 ! A8    A(1,2,9)              117.7585         -DE/DX =    0.0                 !
 ! A9    A(3,2,9)              116.1456         -DE/DX =    0.0                 !
 ! A10   A(2,3,4)              140.1396         -DE/DX =    0.0                 !
 ! A11   A(2,3,6)              125.2796         -DE/DX =    0.0                 !
 ! A12   A(4,3,6)               87.7296         -DE/DX =    0.0                 !
 ! A13   A(3,4,5)               88.8859         -DE/DX =    0.0                 !
 ! A14   A(3,4,13)             117.3311         -DE/DX =    0.0                 !
 ! A15   A(3,4,14)             116.4295         -DE/DX =    0.0                 !
 ! A16   A(5,4,13)             112.5413         -DE/DX =    0.0                 !
 ! A17   A(5,4,14)             111.0683         -DE/DX =    0.0                 !
 ! A18   A(13,4,14)            109.143          -DE/DX =    0.0                 !
 ! A19   A(4,5,6)               91.2988         -DE/DX =    0.0                 !
 ! A20   A(3,6,5)               89.4269         -DE/DX =    0.0                 !
 ! A21   A(3,6,7)              108.3844         -DE/DX =    0.0                 !
 ! A22   A(3,6,15)             116.5302         -DE/DX =    0.0                 !
 ! A23   A(5,6,7)              120.3674         -DE/DX =    0.0                 !
 ! A24   A(5,6,15)             110.5189         -DE/DX =    0.0                 !
 ! A25   A(7,6,15)             110.4551         -DE/DX =    0.0                 !
 ! A26   A(6,7,8)              105.1148         -DE/DX =    0.0                 !
 ! A27   A(6,7,16)             109.9066         -DE/DX =    0.0                 !
 ! A28   A(6,7,17)             114.3538         -DE/DX =    0.0                 !
 ! A29   A(8,7,16)             112.3494         -DE/DX =    0.0                 !
 ! A30   A(8,7,17)             105.8769         -DE/DX =    0.0                 !
 ! A31   A(16,7,17)            109.1927         -DE/DX =    0.0                 !
 ! A32   A(7,8,9)              115.548          -DE/DX =    0.0                 !
 ! A33   A(2,9,8)              115.1683         -DE/DX =    0.0                 !
 ! A34   A(2,9,18)             111.8527         -DE/DX =    0.0                 !
 ! A35   A(2,9,19)             107.4446         -DE/DX =    0.0                 !
 ! A36   A(8,9,18)             105.5326         -DE/DX =    0.0                 !
 ! A37   A(8,9,19)             109.8781         -DE/DX =    0.0                 !
 ! A38   A(18,9,19)            106.6659         -DE/DX =    0.0                 !
 ! D1    D(10,1,2,3)           121.0505         -DE/DX =    0.0                 !
 ! D2    D(10,1,2,9)           -52.9696         -DE/DX =    0.0                 !
 ! D3    D(11,1,2,3)          -120.1584         -DE/DX =    0.0                 !
 ! D4    D(11,1,2,9)            65.8216         -DE/DX =    0.0                 !
 ! D5    D(12,1,2,3)             0.1309         -DE/DX =    0.0                 !
 ! D6    D(12,1,2,9)          -173.8891         -DE/DX =    0.0                 !
 ! D7    D(1,2,3,4)            -25.1183         -DE/DX =    0.0                 !
 ! D8    D(1,2,3,6)           -165.6197         -DE/DX =    0.0                 !
 ! D9    D(9,2,3,4)            148.9871         -DE/DX =    0.0                 !
 ! D10   D(9,2,3,6)              8.4856         -DE/DX =    0.0                 !
 ! D11   D(1,2,9,8)            171.6111         -DE/DX =    0.0                 !
 ! D12   D(1,2,9,18)           -67.9096         -DE/DX =    0.0                 !
 ! D13   D(1,2,9,19)            48.8283         -DE/DX =    0.0                 !
 ! D14   D(3,2,9,8)             -2.9909         -DE/DX =    0.0                 !
 ! D15   D(3,2,9,18)           117.4884         -DE/DX =    0.0                 !
 ! D16   D(3,2,9,19)          -125.7737         -DE/DX =    0.0                 !
 ! D17   D(2,3,4,5)           -136.6047         -DE/DX =    0.0                 !
 ! D18   D(2,3,4,13)           -21.6721         -DE/DX =    0.0                 !
 ! D19   D(2,3,4,14)           110.3259         -DE/DX =    0.0                 !
 ! D20   D(6,3,4,5)             12.0866         -DE/DX =    0.0                 !
 ! D21   D(6,3,4,13)           127.0192         -DE/DX =    0.0                 !
 ! D22   D(6,3,4,14)          -100.9829         -DE/DX =    0.0                 !
 ! D23   D(2,3,6,5)            143.8007         -DE/DX =    0.0                 !
 ! D24   D(2,3,6,7)             21.8334         -DE/DX =    0.0                 !
 ! D25   D(2,3,6,15)          -103.4441         -DE/DX =    0.0                 !
 ! D26   D(4,3,6,5)            -12.1211         -DE/DX =    0.0                 !
 ! D27   D(4,3,6,7)           -134.0884         -DE/DX =    0.0                 !
 ! D28   D(4,3,6,15)           100.6341         -DE/DX =    0.0                 !
 ! D29   D(3,4,5,6)            -12.4491         -DE/DX =    0.0                 !
 ! D30   D(13,4,5,6)          -131.7326         -DE/DX =    0.0                 !
 ! D31   D(14,4,5,6)           105.5579         -DE/DX =    0.0                 !
 ! D32   D(4,5,6,3)             12.53           -DE/DX =    0.0                 !
 ! D33   D(4,5,6,7)            123.6118         -DE/DX =    0.0                 !
 ! D34   D(4,5,6,15)          -105.7128         -DE/DX =    0.0                 !
 ! D35   D(3,6,7,8)            -55.8397         -DE/DX =    0.0                 !
 ! D36   D(3,6,7,16)            65.2727         -DE/DX =    0.0                 !
 ! D37   D(3,6,7,17)          -171.5176         -DE/DX =    0.0                 !
 ! D38   D(5,6,7,8)           -156.3563         -DE/DX =    0.0                 !
 ! D39   D(5,6,7,16)           -35.2439         -DE/DX =    0.0                 !
 ! D40   D(5,6,7,17)            87.9658         -DE/DX =    0.0                 !
 ! D41   D(15,6,7,8)            72.9406         -DE/DX =    0.0                 !
 ! D42   D(15,6,7,16)         -165.9471         -DE/DX =    0.0                 !
 ! D43   D(15,6,7,17)          -42.7374         -DE/DX =    0.0                 !
 ! D44   D(6,7,8,9)             66.3229         -DE/DX =    0.0                 !
 ! D45   D(16,7,8,9)           -53.1743         -DE/DX =    0.0                 !
 ! D46   D(17,7,8,9)          -172.2838         -DE/DX =    0.0                 !
 ! D47   D(7,8,9,2)            -36.5612         -DE/DX =    0.0                 !
 ! D48   D(7,8,9,18)          -160.4412         -DE/DX =    0.0                 !
 ! D49   D(7,8,9,19)            84.9127         -DE/DX =    0.0                 !
 --------------------------------------------------------------------------------
 GradGradGradGradGradGradGradGradGradGradGradGradGradGradGradGradGradGrad

                          Input orientation:                          
 ---------------------------------------------------------------------
 Center     Atomic      Atomic             Coordinates (Angstroms)
 Number     Number       Type             X           Y           Z
 ---------------------------------------------------------------------
      1          6           0        0.032021    1.484374    0.053326
      2          6           0       -0.051557   -0.001807   -0.137278
      3          6           0       -1.162687   -0.724649   -0.125924
      4          6           0       -2.564039   -0.685547    0.431554
      5          8           0       -2.429290   -2.093272    0.792223
      6          6           0       -1.222859   -2.217966   -0.011743
      7          6           0        0.076208   -2.704474    0.618839
      8          8           0        1.111043   -2.191370   -0.218306
      9          6           0        1.248710   -0.776662   -0.225608
     10          1           0        0.662406    1.740198    0.914239
     11          1           0        0.479915    1.974578   -0.820574
     12          1           0       -0.956288    1.924040    0.210544
     13          1           0       -2.741609   -0.043618    1.302553
     14          1           0       -3.375647   -0.539800   -0.295018
     15          1           0       -1.432032   -2.772713   -0.936450
     16          1           0        0.152328   -2.334983    1.652223
     17          1           0        0.199785   -3.790347    0.615519
     18          1           0        1.803653   -0.540159   -1.142225
     19          1           0        1.883634   -0.456338    0.621052
 ---------------------------------------------------------------------
                    Distance matrix (angstroms):
                    1          2          3          4          5
     1  C    0.000000
     2  C    1.500683   0.000000
     3  C    2.517785   1.325609   0.000000
     4  C    3.404577   2.665265   1.508674   0.000000
     5  O    4.404949   3.300274   2.078558   1.459428   0.000000
     6  C    3.909767   2.509794   1.498884   2.084127   1.455123
     7  C    4.227080   2.809349   2.451374   3.328971   2.584792
     8  O    3.840464   2.480401   2.707333   4.024432   3.683035
     9  C    2.582716   1.516212   2.414017   3.870042   4.036970
    10  H    1.097271   2.156389   3.238576   4.065363   4.926354
    11  H    1.097548   2.157651   3.235199   4.231991   5.254712
    12  H    1.093059   2.156016   2.677941   3.073052   4.318203
    13  H    3.404167   3.051433   2.235474   1.096468   2.135195
    14  H    3.978797   3.371037   2.227095   1.099024   2.119188
    15  H    4.609327   3.197234   2.219023   2.740281   2.108192
    16  H    4.142274   2.947472   2.735734   3.404309   2.731808
    17  H    5.307249   3.870776   3.435778   4.160812   3.134218
    18  H    2.943936   2.177509   3.141031   4.644852   4.906328
    19  H    2.741741   2.127587   3.148020   4.457605   4.616293
                    6          7          8          9         10
     6  C    0.000000
     7  C    1.523778   0.000000
     8  O    2.343176   1.426524   0.000000
     9  C    2.869103   2.409213   1.421409   0.000000
    10  H    4.480930   4.492883   4.115964   2.824463   0.000000
    11  H    4.596855   4.912069   4.256310   2.917937   1.760061
    12  H    4.156523   4.759820   4.625404   3.513693   1.774586
    13  H    2.960027   3.935443   4.665702   4.335352   3.862656
    14  H    2.744263   4.175673   4.781626   4.630939   4.792344
    15  H    1.098445   2.167571   2.705720   3.417001   5.308304
    16  H    2.161854   1.100091   2.106808   2.675195   4.172757
    17  H    2.211279   1.092887   2.020491   3.300005   5.557894
    18  H    3.640440   3.281718   2.014903   1.097307   3.275900
    19  H    3.626853   2.884599   2.076477   1.105698   2.530242
                   11         12         13         14         15
    11  H    0.000000
    12  H    1.768740   0.000000
    13  H    4.354194   2.872548   0.000000
    14  H    4.632889   3.489899   1.788975   0.000000
    15  H    5.119155   4.858129   3.765114   3.029022   0.000000
    16  H    4.979393   4.631062   3.707761   4.411466   3.066436
    17  H    5.947705   5.844204   4.812670   4.917199   2.471237
    18  H    2.860008   3.939484   5.184872   5.248134   3.936534
    19  H    3.155640   3.728252   4.693362   5.339118   4.334172
                   16         17         18         19
    16  H    0.000000
    17  H    1.787482   0.000000
    18  H    3.709071   4.028124   0.000000
    19  H    2.755003   3.735103   1.767080   0.000000
 Stoichiometry    C7H10O2
 Framework group  C1[X(C7H10O2)]
 Deg. of freedom    51
 Full point group                 C1      NOp   1
 Largest Abelian subgroup         C1      NOp   1
 Largest concise Abelian subgroup C1      NOp   1
                         Standard orientation:                         
 ---------------------------------------------------------------------
 Center     Atomic      Atomic             Coordinates (Angstroms)
 Number     Number       Type             X           Y           Z
 ---------------------------------------------------------------------
      1          6           0       -2.027121   -1.646701    0.182554
      2          6           0       -1.075483   -0.528898   -0.128817
      3          6           0        0.225298   -0.655833   -0.350395
      4          6           0        1.370531   -1.582378   -0.024736
      5          8           0        2.201251   -0.413721    0.247431
      6          6           0        1.215902    0.469017   -0.358576
      7          6           0        0.630666    1.630571    0.435270
      8          8           0       -0.623955    1.909441   -0.183704
      9          6           0       -1.606835    0.889665   -0.063684
     10          1           0       -2.520220   -1.491368    1.150401
     11          1           0       -2.824278   -1.713593   -0.568895
     12          1           0       -1.515282   -2.612108    0.210617
     13          1           0        1.258954   -2.232037    0.851470
     14          1           0        1.776877   -2.170128   -0.859774
     15          1           0        1.560491    0.812180   -1.343502
     16          1           0        0.521444    1.344743    1.491950
     17          1           0        1.207942    2.556349    0.371315
     18          1           0       -2.336226    1.089518   -0.858751
     19          1           0       -2.145812    0.998019    0.895655
 ---------------------------------------------------------------------
 Rotational constants (GHZ):      2.2482415      1.8283150      1.0786946
 1\1\GINC-ALCHEMY-AS\FOpt\RB3LYP\6-31G(2df,p)\C7H10O2\PUCK\27-Jan-2020\
 0\\# b3lyp 6-31G(2df,p) opt Freq\\titel\\0,1\C,0.0320211734,1.48437414
 06,0.053325852\C,-0.0515569693,-0.0018073896,-0.1372779566\C,-1.162686
 8187,-0.7246494646,-0.1259235309\C,-2.5640393611,-0.6855465046,0.43155
 35038\O,-2.4292900422,-2.0932719907,0.792223111\C,-1.2228594393,-2.217
 9658345,-0.0117426299\C,0.076207906,-2.7044739491,0.618838738\O,1.1110
 429088,-2.1913698123,-0.2183061204\C,1.2487104875,-0.7766624419,-0.225
 6078301\H,0.6624061369,1.7401983885,0.9142391067\H,0.4799152563,1.9745
 782899,-0.8205743249\H,-0.9562878253,1.9240397167,0.2105444798\H,-2.74
 16093166,-0.0436184609,1.3025526811\H,-3.3756466283,-0.5397998284,-0.2
 950179755\H,-1.4320315293,-2.7727131474,-0.9364498888\H,0.1523275069,-
 2.3349825578,1.6522229869\H,0.1997849954,-3.7903467859,0.6155194084\H,
 1.8036532077,-0.5401589962,-1.1422250175\H,1.8836335014,-0.4563376116,
 0.6210524671\\Version=ES64L-G09RevD.01\State=1-A\HF=-423.1602216\RMSD=
 6.652e-09\RMSF=1.924e-05\Dipole=0.1663291,0.8160129,-0.0393524\Quadrup
 ole=-1.4576631,1.5462414,-0.0885783,-0.3150777,1.701485,0.3497816\PG=C
 01 [X(C7H10O2)]\\@


 Boundary, n.  In political geography, an imaginary
 line between two nations, separating the imaginary
 rights of one from the imaginary rights of another.
                               -- Ambrose Bierce
 Job cpu time:       0 days  0 hours  7 minutes 17.4 seconds.
 File lengths (MBytes):  RWF=     52 Int=      0 D2E=      0 Chk=      7 Scr=      1
 Normal termination of Gaussian 09 at Mon Jan 27 22:03:39 2020.
 Link1:  Proceeding to internal job step number  2.
 ----------------------------------------------------------------------
 #N Geom=AllCheck Guess=TCheck SCRF=Check GenChk RB3LYP/6-31G(2df,p) Fr
 eq
 ----------------------------------------------------------------------
 1/10=4,29=7,30=1,38=1,40=1/1,3;
 2/12=2,40=1/2;
 3/5=1,6=6,7=104,11=2,14=-4,16=1,25=1,30=1,70=2,71=2,74=-5,116=1,140=1/1,2,3;
 4/5=101/1;
 5/5=2,98=1/2;
 8/6=4,10=90,11=11/1;
 11/6=1,8=1,9=11,15=111,16=1/1,2,10;
 10/6=1/2;
 6/7=2,8=2,9=2,10=2,18=1,28=1/1;
 7/8=1,10=1,25=1/1,2,3,16;
 1/10=4,30=1/3;
 99//99;
 Structure from the checkpoint file:  "/scratch/puck/g09_951dc440-8816-411a-af4f-1e9f81d804c9/Gau-53247.chk"
 -----
 titel
 -----
 Charge =  0 Multiplicity = 1
 Redundant internal coordinates found in file.
 C,0,0.0320211734,1.4843741406,0.053325852
 C,0,-0.0515569693,-0.0018073896,-0.1372779566
 C,0,-1.1626868187,-0.7246494646,-0.1259235309
 C,0,-2.5640393611,-0.6855465046,0.4315535038
 O,0,-2.4292900422,-2.0932719907,0.792223111
 C,0,-1.2228594393,-2.2179658345,-0.0117426299
 C,0,0.076207906,-2.7044739491,0.618838738
 O,0,1.1110429088,-2.1913698123,-0.2183061204
 C,0,1.2487104875,-0.7766624419,-0.2256078301
 H,0,0.6624061369,1.7401983885,0.9142391067
 H,0,0.4799152563,1.9745782899,-0.8205743249
 H,0,-0.9562878253,1.9240397167,0.2105444798
 H,0,-2.7416093166,-0.0436184609,1.3025526811
 H,0,-3.3756466283,-0.5397998284,-0.2950179755
 H,0,-1.4320315293,-2.7727131474,-0.9364498888
 H,0,0.1523275069,-2.3349825578,1.6522229869
 H,0,0.1997849954,-3.7903467859,0.6155194084
 H,0,1.8036532077,-0.5401589962,-1.1422250175
 H,0,1.8836335014,-0.4563376116,0.6210524671
 Recover connectivity data from disk.

 GradGradGradGradGradGradGradGradGradGradGradGradGradGradGradGradGradGrad
 Berny optimization.
 Initialization pass.
                           ----------------------------
                           !    Initial Parameters    !
                           ! (Angstroms and Degrees)  !
 --------------------------                            --------------------------
 ! Name  Definition              Value          Derivative Info.                !
 --------------------------------------------------------------------------------
 ! R1    R(1,2)                  1.5007         calculate D2E/DX2 analytically  !
 ! R2    R(1,10)                 1.0973         calculate D2E/DX2 analytically  !
 ! R3    R(1,11)                 1.0975         calculate D2E/DX2 analytically  !
 ! R4    R(1,12)                 1.0931         calculate D2E/DX2 analytically  !
 ! R5    R(2,3)                  1.3256         calculate D2E/DX2 analytically  !
 ! R6    R(2,9)                  1.5162         calculate D2E/DX2 analytically  !
 ! R7    R(3,4)                  1.5087         calculate D2E/DX2 analytically  !
 ! R8    R(3,6)                  1.4989         calculate D2E/DX2 analytically  !
 ! R9    R(4,5)                  1.4594         calculate D2E/DX2 analytically  !
 ! R10   R(4,13)                 1.0965         calculate D2E/DX2 analytically  !
 ! R11   R(4,14)                 1.099          calculate D2E/DX2 analytically  !
 ! R12   R(5,6)                  1.4551         calculate D2E/DX2 analytically  !
 ! R13   R(6,7)                  1.5238         calculate D2E/DX2 analytically  !
 ! R14   R(6,15)                 1.0984         calculate D2E/DX2 analytically  !
 ! R15   R(7,8)                  1.4265         calculate D2E/DX2 analytically  !
 ! R16   R(7,16)                 1.1001         calculate D2E/DX2 analytically  !
 ! R17   R(7,17)                 1.0929         calculate D2E/DX2 analytically  !
 ! R18   R(8,9)                  1.4214         calculate D2E/DX2 analytically  !
 ! R19   R(9,18)                 1.0973         calculate D2E/DX2 analytically  !
 ! R20   R(9,19)                 1.1057         calculate D2E/DX2 analytically  !
 ! A1    A(2,1,10)             111.2564         calculate D2E/DX2 analytically  !
 ! A2    A(2,1,11)             111.341          calculate D2E/DX2 analytically  !
 ! A3    A(2,1,12)             111.4851         calculate D2E/DX2 analytically  !
 ! A4    A(10,1,11)            106.627          calculate D2E/DX2 analytically  !
 ! A5    A(10,1,12)            108.2291         calculate D2E/DX2 analytically  !
 ! A6    A(11,1,12)            107.689          calculate D2E/DX2 analytically  !
 ! A7    A(1,2,3)              125.8465         calculate D2E/DX2 analytically  !
 ! A8    A(1,2,9)              117.7585         calculate D2E/DX2 analytically  !
 ! A9    A(3,2,9)              116.1456         calculate D2E/DX2 analytically  !
 ! A10   A(2,3,4)              140.1396         calculate D2E/DX2 analytically  !
 ! A11   A(2,3,6)              125.2796         calculate D2E/DX2 analytically  !
 ! A12   A(4,3,6)               87.7296         calculate D2E/DX2 analytically  !
 ! A13   A(3,4,5)               88.8859         calculate D2E/DX2 analytically  !
 ! A14   A(3,4,13)             117.3311         calculate D2E/DX2 analytically  !
 ! A15   A(3,4,14)             116.4295         calculate D2E/DX2 analytically  !
 ! A16   A(5,4,13)             112.5413         calculate D2E/DX2 analytically  !
 ! A17   A(5,4,14)             111.0683         calculate D2E/DX2 analytically  !
 ! A18   A(13,4,14)            109.143          calculate D2E/DX2 analytically  !
 ! A19   A(4,5,6)               91.2988         calculate D2E/DX2 analytically  !
 ! A20   A(3,6,5)               89.4269         calculate D2E/DX2 analytically  !
 ! A21   A(3,6,7)              108.3844         calculate D2E/DX2 analytically  !
 ! A22   A(3,6,15)             116.5302         calculate D2E/DX2 analytically  !
 ! A23   A(5,6,7)              120.3674         calculate D2E/DX2 analytically  !
 ! A24   A(5,6,15)             110.5189         calculate D2E/DX2 analytically  !
 ! A25   A(7,6,15)             110.4551         calculate D2E/DX2 analytically  !
 ! A26   A(6,7,8)              105.1148         calculate D2E/DX2 analytically  !
 ! A27   A(6,7,16)             109.9066         calculate D2E/DX2 analytically  !
 ! A28   A(6,7,17)             114.3538         calculate D2E/DX2 analytically  !
 ! A29   A(8,7,16)             112.3494         calculate D2E/DX2 analytically  !
 ! A30   A(8,7,17)             105.8769         calculate D2E/DX2 analytically  !
 ! A31   A(16,7,17)            109.1927         calculate D2E/DX2 analytically  !
 ! A32   A(7,8,9)              115.548          calculate D2E/DX2 analytically  !
 ! A33   A(2,9,8)              115.1683         calculate D2E/DX2 analytically  !
 ! A34   A(2,9,18)             111.8527         calculate D2E/DX2 analytically  !
 ! A35   A(2,9,19)             107.4446         calculate D2E/DX2 analytically  !
 ! A36   A(8,9,18)             105.5326         calculate D2E/DX2 analytically  !
 ! A37   A(8,9,19)             109.8781         calculate D2E/DX2 analytically  !
 ! A38   A(18,9,19)            106.6659         calculate D2E/DX2 analytically  !
 ! D1    D(10,1,2,3)           121.0505         calculate D2E/DX2 analytically  !
 ! D2    D(10,1,2,9)           -52.9696         calculate D2E/DX2 analytically  !
 ! D3    D(11,1,2,3)          -120.1584         calculate D2E/DX2 analytically  !
 ! D4    D(11,1,2,9)            65.8216         calculate D2E/DX2 analytically  !
 ! D5    D(12,1,2,3)             0.1309         calculate D2E/DX2 analytically  !
 ! D6    D(12,1,2,9)          -173.8891         calculate D2E/DX2 analytically  !
 ! D7    D(1,2,3,4)            -25.1183         calculate D2E/DX2 analytically  !
 ! D8    D(1,2,3,6)           -165.6197         calculate D2E/DX2 analytically  !
 ! D9    D(9,2,3,4)            148.9871         calculate D2E/DX2 analytically  !
 ! D10   D(9,2,3,6)              8.4856         calculate D2E/DX2 analytically  !
 ! D11   D(1,2,9,8)            171.6111         calculate D2E/DX2 analytically  !
 ! D12   D(1,2,9,18)           -67.9096         calculate D2E/DX2 analytically  !
 ! D13   D(1,2,9,19)            48.8283         calculate D2E/DX2 analytically  !
 ! D14   D(3,2,9,8)             -2.9909         calculate D2E/DX2 analytically  !
 ! D15   D(3,2,9,18)           117.4884         calculate D2E/DX2 analytically  !
 ! D16   D(3,2,9,19)          -125.7737         calculate D2E/DX2 analytically  !
 ! D17   D(2,3,4,5)           -136.6047         calculate D2E/DX2 analytically  !
 ! D18   D(2,3,4,13)           -21.6721         calculate D2E/DX2 analytically  !
 ! D19   D(2,3,4,14)           110.3259         calculate D2E/DX2 analytically  !
 ! D20   D(6,3,4,5)             12.0866         calculate D2E/DX2 analytically  !
 ! D21   D(6,3,4,13)           127.0192         calculate D2E/DX2 analytically  !
 ! D22   D(6,3,4,14)          -100.9829         calculate D2E/DX2 analytically  !
 ! D23   D(2,3,6,5)            143.8007         calculate D2E/DX2 analytically  !
 ! D24   D(2,3,6,7)             21.8334         calculate D2E/DX2 analytically  !
 ! D25   D(2,3,6,15)          -103.4441         calculate D2E/DX2 analytically  !
 ! D26   D(4,3,6,5)            -12.1211         calculate D2E/DX2 analytically  !
 ! D27   D(4,3,6,7)           -134.0884         calculate D2E/DX2 analytically  !
 ! D28   D(4,3,6,15)           100.6341         calculate D2E/DX2 analytically  !
 ! D29   D(3,4,5,6)            -12.4491         calculate D2E/DX2 analytically  !
 ! D30   D(13,4,5,6)          -131.7326         calculate D2E/DX2 analytically  !
 ! D31   D(14,4,5,6)           105.5579         calculate D2E/DX2 analytically  !
 ! D32   D(4,5,6,3)             12.53           calculate D2E/DX2 analytically  !
 ! D33   D(4,5,6,7)            123.6118         calculate D2E/DX2 analytically  !
 ! D34   D(4,5,6,15)          -105.7128         calculate D2E/DX2 analytically  !
 ! D35   D(3,6,7,8)            -55.8397         calculate D2E/DX2 analytically  !
 ! D36   D(3,6,7,16)            65.2727         calculate D2E/DX2 analytically  !
 ! D37   D(3,6,7,17)          -171.5176         calculate D2E/DX2 analytically  !
 ! D38   D(5,6,7,8)           -156.3563         calculate D2E/DX2 analytically  !
 ! D39   D(5,6,7,16)           -35.2439         calculate D2E/DX2 analytically  !
 ! D40   D(5,6,7,17)            87.9658         calculate D2E/DX2 analytically  !
 ! D41   D(15,6,7,8)            72.9406         calculate D2E/DX2 analytically  !
 ! D42   D(15,6,7,16)         -165.9471         calculate D2E/DX2 analytically  !
 ! D43   D(15,6,7,17)          -42.7374         calculate D2E/DX2 analytically  !
 ! D44   D(6,7,8,9)             66.3229         calculate D2E/DX2 analytically  !
 ! D45   D(16,7,8,9)           -53.1743         calculate D2E/DX2 analytically  !
 ! D46   D(17,7,8,9)          -172.2838         calculate D2E/DX2 analytically  !
 ! D47   D(7,8,9,2)            -36.5612         calculate D2E/DX2 analytically  !
 ! D48   D(7,8,9,18)          -160.4412         calculate D2E/DX2 analytically  !
 ! D49   D(7,8,9,19)            84.9127         calculate D2E/DX2 analytically  !
 --------------------------------------------------------------------------------
 Trust Radius=3.00D-01 FncErr=1.00D-07 GrdErr=1.00D-07
 Number of steps in this run=      2 maximum allowed number of steps=      2.
 GradGradGradGradGradGradGradGradGradGradGradGradGradGradGradGradGradGrad

                          Input orientation:                          
 ---------------------------------------------------------------------
 Center     Atomic      Atomic             Coordinates (Angstroms)
 Number     Number       Type             X           Y           Z
 ---------------------------------------------------------------------
      1          6           0        0.032021    1.484374    0.053326
      2          6           0       -0.051557   -0.001807   -0.137278
      3          6           0       -1.162687   -0.724649   -0.125924
      4          6           0       -2.564039   -0.685547    0.431554
      5          8           0       -2.429290   -2.093272    0.792223
      6          6           0       -1.222859   -2.217966   -0.011743
      7          6           0        0.076208   -2.704474    0.618839
      8          8           0        1.111043   -2.191370   -0.218306
      9          6           0        1.248710   -0.776662   -0.225608
     10          1           0        0.662406    1.740198    0.914239
     11          1           0        0.479915    1.974578   -0.820574
     12          1           0       -0.956288    1.924040    0.210544
     13          1           0       -2.741609   -0.043618    1.302553
     14          1           0       -3.375647   -0.539800   -0.295018
     15          1           0       -1.432032   -2.772713   -0.936450
     16          1           0        0.152328   -2.334983    1.652223
     17          1           0        0.199785   -3.790347    0.615519
     18          1           0        1.803653   -0.540159   -1.142225
     19          1           0        1.883634   -0.456338    0.621052
 ---------------------------------------------------------------------
[...]
 601,0.04765369,-0.05681769,0.02232769,-0.00885232,0.25663791,-0.000189
 52,0.00045322,0.00008591,-0.00161292,0.00419385,0.00186257,-0.04044191
 ,-0.06474723,0.04084310,-0.01011273,-0.15868574,0.04339659,-0.00493376
 ,0.31142132,0.00106113,-0.00046401,0.00136304,-0.00042105,0.00430975,0
 .00002576,0.04464521,0.03218283,-0.01921564,0.00327244,0.01382524,-0.0
 7348258,-0.11785764,-0.06569735,0.18646391,-0.00220945,-0.00053653,0.0
 0443172,0.00134460,-0.02107545,-0.00209755,-0.05178737,-0.01363792,-0.
 01352650,-0.03401971,0.05406070,0.02832696,-0.13116466,0.02233627,0.04
 106857,0.46098901,0.00088921,0.00180919,0.00342822,-0.01308187,-0.0190
 0886,0.00151640,0.00852547,-0.20437629,-0.00786499,0.04829686,-0.05213
 547,-0.01884377,-0.01918633,-0.05612144,0.01532510,-0.03507916,0.54002
 598,-0.00014180,-0.00272124,0.01308112,0.00303359,-0.00386212,0.000172
 32,-0.02093137,0.02291863,-0.06111003,0.01428305,-0.00743793,0.0068407
 1,0.05872490,-0.01284055,-0.10686045,0.04869008,0.08094693,0.49586030,
 -0.00270964,0.00067759,-0.00092296,0.00069164,-0.00039927,0.00014378,-
 0.00143089,0.01724175,-0.00212790,-0.00145830,0.00050788,-0.00220318,-
 0.01191166,0.00431112,-0.00113443,-0.13188937,0.03077991,-0.05574755,0
 .39668931,-0.00139728,0.00043445,-0.00177797,0.00107427,0.00227306,0.0
 0248635,0.02898402,-0.02264608,0.01861133,-0.00062031,-0.00564902,-0.0
 0143259,-0.00436957,0.00242721,-0.00213227,0.02993850,-0.08924376,0.01
 955551,-0.03477652,0.62963167,0.00145179,-0.00017660,0.00005078,-0.000
 86991,-0.00349861,0.00163815,-0.00784848,0.00241268,-0.00441300,0.0028
 9319,0.00205792,-0.00094032,0.01939685,-0.01108690,0.01072970,-0.05504
 026,0.02262309,-0.10953269,0.02763083,0.04104958,0.53886195,-0.0042839
 0,0.00083330,0.00111837,0.00642227,0.02986401,0.00130328,0.00582381,-0
 .00473438,0.00294760,-0.00112016,-0.00532862,0.00122364,-0.01153124,0.
 00716461,-0.00424597,-0.04375219,-0.01202506,0.02883170,-0.13488915,-0
 .01043985,0.06859675,0.26872007,0.00701626,-0.00015097,0.00013570,0.00
 140509,-0.03493772,0.00046229,-0.00333450,-0.00492648,-0.00091190,-0.0
 0169624,-0.00181350,0.00105288,-0.00097012,0.00447265,-0.00014464,-0.0
 0154313,0.00266177,-0.00118279,-0.03588408,-0.09699838,0.02396976,0.07
 492541,0.39596431,-0.00014723,-0.00062978,0.00057305,-0.00234748,-0.00
 183996,0.00267156,0.00045531,0.00339853,-0.00008447,-0.00053216,0.0008
 2226,-0.00096727,0.00069165,0.00041534,0.00221530,0.00921288,-0.003250
 62,0.00257098,0.06153264,0.00042999,-0.11051698,-0.12920092,-0.0256613
 5,0.18881966,0.00683551,0.00320179,-0.00049219,-0.16080909,0.03132680,
 0.01059826,-0.04442255,0.00692836,0.00380740,0.00103581,-0.00026118,-0
 .00132995,0.00104231,-0.00045389,-0.00036621,-0.00234919,-0.00021823,0
 .00051558,-0.00472238,-0.03078392,-0.00235385,-0.08173814,0.00199512,0
 .01844323,0.51525481,0.02511046,-0.01721289,-0.00450557,0.04140546,-0.
 10524272,-0.00926003,-0.01146559,0.01895221,0.00306085,-0.00041626,0.0
 0245739,-0.00260799,0.00642308,-0.00638982,-0.00034065,-0.00294152,0.0
 0028650,0.00027464,-0.01931076,-0.02954122,0.01263820,-0.02632198,-0.1
 9592966,-0.00063691,0.04211454,0.44017526,0.00277555,-0.00104065,0.001
 69884,0.00477641,-0.00019642,-0.07582503,-0.00043727,0.00285813,0.0074
 9400,0.00750429,0.00031949,0.01179036,0.00013562,-0.00302300,-0.000427
 54,-0.00581733,-0.00275786,-0.00758386,0.00466311,0.03017718,-0.007229
 55,0.01195196,-0.02188323,-0.07321592,-0.03341134,0.00105670,0.5664092
 5,-0.13055897,-0.02878430,-0.11601938,-0.00303641,-0.00476233,-0.00069
 774,0.00184788,-0.00046458,-0.00057225,-0.00024821,0.00028687,-0.00033
 467,0.00003143,-0.00012645,0.00015390,-0.00004893,0.00016629,0.0002818
 3,0.00005467,-0.00017288,-0.00011038,0.00001881,0.00011521,0.00017727,
 -0.00023601,0.00034521,0.00042279,0.13923965,-0.03092116,-0.05749899,-
 0.04618625,-0.02162360,-0.00981001,-0.02657304,0.00276635,-0.00367123,
 -0.00171346,-0.00017396,-0.00058248,-0.00088291,-0.00101913,-0.0003311
 9,0.00058984,0.00032114,0.00072718,0.00250115,-0.00102562,-0.00054314,
 -0.00007642,0.00068570,0.00085710,0.00043178,-0.00165880,0.00040830,-0
 .00047515,0.03667725,0.06511308,-0.11631618,-0.04503227,-0.20379533,-0
 .00171259,-0.00193799,-0.00058095,0.00111883,0.00016003,-0.00050444,0.
 00019970,-0.00003105,0.00001529,-0.00016310,-0.00025738,0.00009205,-0.
 00005651,0.00050333,0.00017048,-0.00033833,-0.00017744,0.00012865,0.00
 051098,0.00053324,0.00019089,-0.00081523,-0.00021435,-0.00018733,0.129
 10891,0.05001085,0.22150430,-0.08763653,-0.04216912,0.08474796,-0.0020
 4316,-0.00400168,0.00003853,0.00083913,-0.00011050,0.00047326,0.000525
 87,0.00007652,0.00022392,0.00008609,-0.00018741,-0.00013365,-0.0004121
 8,-0.00036552,-0.00046892,-0.00001752,0.00021706,-0.00014384,0.0000760
 7,-0.00015378,0.00010205,-0.00006046,0.00020169,-0.00033307,0.00762423
 ,0.00861784,-0.01580427,0.09217383,-0.04392583,-0.09193440,0.09077141,
 -0.01708898,-0.01879453,0.02615278,0.00301885,-0.00238858,-0.00036113,
 0.00093213,0.00036961,0.00073435,0.00028003,0.00008106,-0.00006636,-0.
 00097516,-0.00072105,-0.00258013,-0.00069162,0.00028352,0.00005277,0.0
 0038731,0.00041362,-0.00058547,-0.00104888,0.00073334,0.00037797,0.003
 27877,0.00295051,-0.00521244,0.05084597,0.10462824,0.08484706,0.088524
 67,-0.20946628,-0.00279780,-0.00160968,0.00719049,-0.00077712,-0.00091
 835,-0.00009781,0.00024962,-0.00003420,0.00023948,0.00010560,0.0000495
 7,-0.00004390,-0.00029096,-0.00016851,-0.00068792,0.00017084,-0.000035
 16,-0.00004589,-0.00033179,0.00017835,0.00009003,0.00016703,0.00033406
 ,0.00009202,0.01098659,0.01076431,-0.02184610,-0.09285448,-0.09833153,
 0.22795363,-0.26801678,0.09578384,0.03478122,0.00377583,-0.00142886,-0
 .00084842,0.00045943,-0.00051037,-0.00039530,-0.00000048,0.00039386,0.
 00018565,0.00025835,-0.00006599,-0.00019854,-0.00007512,0.00005434,-0.
 00003358,0.00000057,0.00005929,0.00004200,0.00030222,-0.00034533,0.000
 13847,0.00048717,-0.00073708,0.00025652,-0.01521621,0.00615555,0.00375
 767,-0.01175839,0.00460113,0.00074517,0.28927353,0.09322814,-0.0867257
 5,-0.01521917,0.03283160,-0.01469712,-0.00426031,0.00073183,0.00226440
 ,-0.00012831,-0.00066797,-0.00072361,0.00005531,-0.00055955,0.00066628
 ,0.00016646,0.00067031,0.00031763,0.00001875,0.00066799,0.00047875,-0.
 00058048,0.00141050,-0.00232349,0.00007088,-0.00388928,-0.00410221,-0.
 00090785,-0.00673835,0.00226271,0.00201673,-0.01309911,0.00547608,0.00
 104209,-0.10367019,0.09684699,0.03463929,-0.01558440,-0.05133728,0.004
 02021,-0.00170808,-0.00172382,-0.00016174,0.00060142,-0.00019928,-0.00
 016335,0.00007027,0.00034589,-0.00003448,0.00000203,-0.00011140,0.0000
 3421,-0.00000116,-0.00006542,-0.00002330,0.00002825,-0.00006215,0.0003
 0462,-0.00015863,0.00044305,-0.00097806,-0.00026697,0.00047272,-0.0234
 4726,0.01076973,0.00457114,0.02410138,-0.01087122,-0.00348755,-0.03845
 750,0.01699325,0.05094806,-0.00032080,-0.00004964,0.00089461,0.0022933
 7,0.00153123,-0.00026471,-0.00410961,0.01579197,0.02127936,-0.05439722
 ,0.01959917,0.03061189,0.00180986,0.00141939,0.00110763,-0.00499263,0.
 00099174,0.00041213,0.00018728,0.00070585,0.00053180,0.00023269,0.0001
 0917,-0.00010781,-0.00015027,-0.00031285,-0.00175398,-0.00008335,-0.00
 005083,-0.00006379,0.00020021,-0.00040700,-0.00011673,0.00006604,-0.00
 048323,0.00019267,0.05522405,0.00023890,0.00032159,-0.00027433,-0.0006
 4211,0.00032853,0.00056160,0.00457780,0.00413514,0.00369773,0.01537526
 ,-0.12673416,-0.11065245,0.00989806,-0.02415201,-0.01855465,-0.0036709
 8,-0.00290739,0.00024016,-0.00052539,0.00002570,-0.00098798,0.00066951
 ,0.00035107,-0.00014755,0.00002561,-0.00039300,-0.00028894,-0.00013770
 ,0.00007539,0.00000503,0.00024011,0.00002270,0.00002776,-0.00007520,-0
 .00003485,0.00003462,-0.02763075,0.14392269,0.00058468,-0.00010540,-0.
 00044780,-0.00080806,-0.00087359,0.00092893,-0.00046938,-0.00566441,-0
 .00560603,0.03076199,-0.11670079,-0.22273542,-0.00201247,0.00592687,0.
 01382458,0.00174787,0.00172315,-0.00025058,-0.00034535,-0.00007355,0.0
 0008770,-0.00017738,-0.00003697,0.00003196,0.00022741,0.00030506,0.000
 44822,-0.00005399,0.00008548,0.00003309,-0.00014098,0.00028829,0.00003
 733,-0.00010090,0.00039378,-0.00013430,-0.03183163,0.12757185,0.230228
 09,-0.00029991,0.00043111,-0.00085835,-0.00113866,0.00306916,0.0004881
 3,-0.01948318,-0.00182992,-0.01641658,-0.18455135,0.01654894,-0.122364
 17,0.00476318,0.00618272,-0.00020280,0.00035749,-0.00015085,0.00044668
 ,-0.00047723,0.00051000,0.00022676,0.00039540,0.00041248,-0.00025580,-
 0.00030805,-0.00139678,0.00229903,-0.00000229,-0.00032190,-0.00007144,
 0.00001653,-0.00010833,0.00003618,0.00010729,-0.00017572,-0.00014009,0
 .00457939,0.00028758,0.00294546,0.19686323,0.00006622,0.00016083,0.000
 13612,-0.00058723,0.00077596,0.00088261,-0.00268488,0.00065178,-0.0045
 9450,0.01317710,-0.04572256,0.01008394,0.02832506,-0.01877999,0.022584
 04,-0.00303877,-0.00096785,0.00422571,0.00078099,0.00045463,-0.0012678
 3,0.00100601,0.00020470,0.00001924,-0.00010310,-0.00065898,0.00038663,
 0.00007475,0.00000383,-0.00004588,-0.00003756,-0.00006147,0.00001287,-
 0.00005289,-0.00002503,-0.00012877,-0.01215043,0.00514980,-0.01252559,
 -0.02447648,0.05892827,-0.00002355,-0.00006157,0.00057908,0.00136622,-
 0.00062990,-0.00019455,0.00850284,-0.00075785,0.01296813,-0.11761168,0
 .01059280,-0.16101782,-0.00501344,0.00990637,-0.00072281,0.00009409,-0
 .00007555,-0.00265969,0.00012652,-0.00010847,0.00026863,-0.00062973,-0
 .00022502,0.00017955,0.00021363,0.00065170,-0.00136685,0.00002077,0.00
 014214,0.00000584,-0.00000334,-0.00004159,-0.00001777,0.00003378,0.000
 13075,-0.00005893,-0.02061344,-0.00005578,-0.01680102,0.13366242,-0.01
 930739,0.16873634,-0.00015286,-0.00002926,0.00032180,0.00064047,-0.000
 88432,-0.00006292,-0.00092838,-0.00156491,-0.00345425,-0.00057328,-0.0
 0313328,0.00255256,-0.00465967,0.01897195,0.03043708,-0.05680591,-0.02
 998691,-0.04955746,-0.00602735,-0.01084028,-0.02488433,0.00276650,0.00
 098859,0.00083866,-0.00007636,-0.00049070,-0.00019956,0.00002164,0.000
 00850,-0.00001819,-0.00001897,-0.00017197,-0.00001253,0.00000979,-0.00
 004119,-0.00001064,0.00013220,0.00141701,-0.00063340,-0.00027069,0.000
 08364,-0.00033738,0.06921879,-0.00073699,-0.00057213,0.00257540,0.0028
 6557,-0.00133908,-0.00049743,-0.01034351,-0.01383962,-0.02327554,0.000
 02233,0.00084579,0.00092530,0.00499079,0.00386256,-0.00124792,-0.02894
 645,-0.11445821,-0.10683926,0.00552910,0.00680935,0.01202401,-0.000223
 49,0.00053412,-0.00018153,-0.00001554,-0.00148554,-0.00172491,0.000027
 30,0.00020155,-0.00008988,-0.00012027,-0.00081333,-0.00016043,0.000032
 45,0.00006274,-0.00004152,0.00075551,-0.00033426,-0.00015631,0.0004849
 0,-0.00032268,0.00007237,0.02457569,0.11949105,0.00002673,0.00020960,-
 0.00095903,0.00024094,0.00066461,0.00012728,0.00160264,0.00108947,0.00
 860673,-0.00028472,0.00172786,-0.00312539,0.01084249,-0.01068993,-0.01
 657644,-0.05144135,-0.10085625,-0.21555549,-0.00433373,-0.00951572,-0.
 01462139,-0.00096700,-0.00022917,0.00200998,-0.00005075,0.00060214,0.0
 0073593,0.00000402,-0.00016465,-0.00001407,0.00005432,0.00022177,0.000
 04294,0.00000611,0.00001388,-0.00001729,0.00003903,-0.00126254,0.00029
 628,0.00024261,-0.00041714,0.00010386,0.04563078,0.11703568,0.23900982
 ,0.00033923,0.00003510,-0.00006330,0.00009371,-0.00005596,0.00040799,0
 .00044289,-0.00243257,0.00054968,0.00008991,0.00009431,0.00001152,0.00
 255267,-0.00045500,0.00243664,-0.00379498,-0.01004356,-0.02958859,-0.0
 5190094,-0.00882141,-0.02544905,-0.00386066,0.00401149,0.03387770,0.00
 215709,0.00444988,0.00011572,-0.00000897,0.00005605,-0.00001141,-0.000
 01055,0.00005849,-0.00000491,0.00000989,-0.00007884,-0.00001627,-0.000
 04953,-0.00000874,0.00002033,0.00016805,-0.00014908,0.00001861,-0.0045
 1787,0.00272612,-0.00239890,0.05682047,0.00001631,-0.00004106,-0.00010
 208,-0.00002425,-0.00000451,-0.00013642,0.00073471,0.00123046,0.001596
 53,-0.00004592,-0.00016640,0.00017556,-0.00096074,0.00029251,-0.000328
 32,0.00326187,0.00157343,0.00848482,-0.00851367,-0.08842699,-0.0849003
 1,-0.00235562,0.00586863,0.01598917,0.00151435,0.00247481,0.00207819,-
 0.00001964,0.00000487,0.00001037,0.00001210,0.00005420,0.00000521,-0.0
 0001319,0.00001252,-0.00000274,-0.00000744,0.00010477,-0.00004056,-0.0
 0003696,-0.00000302,-0.00002971,0.00086446,0.00022106,0.00103235,0.008
 98603,0.08511939,-0.00018740,0.00016316,0.00000554,0.00077549,0.000969
 29,0.00029571,0.00004326,-0.00146800,0.00094808,-0.00008793,-0.0000550
 4,-0.00009388,-0.00049187,0.00032479,0.00254934,-0.00278247,-0.0064292
 9,-0.01510327,-0.02453051,-0.08040511,-0.25529634,0.01147900,0.0017946
 7,-0.02317683,-0.00015113,-0.00393067,0.00101354,0.00002391,0.00005978
 ,-0.00004098,0.00000439,-0.00002686,0.00001666,-0.00001945,0.00009601,
 0.00001399,-0.00011496,0.00009169,0.00000253,0.00006181,-0.00011287,0.
 00000333,-0.00157411,0.00155172,-0.00070831,0.01827554,0.08587500,0.28
 814684,0.00052676,-0.00019732,0.00041585,-0.00119302,-0.00003429,-0.00
 029296,-0.00423477,0.00062924,-0.00264677,0.00029880,0.00106930,0.0002
 2906,-0.00102317,-0.00083604,0.00041203,0.00089873,0.02998052,0.000486
 39,-0.05126991,0.04131597,-0.00215059,-0.00358534,-0.03509716,0.004424
 00,-0.00278790,0.00046042,0.00368892,0.00007239,0.00026457,0.00010284,
 -0.00001318,0.00013429,-0.00004531,0.00000122,-0.00011802,-0.00002307,
 -0.00026930,-0.00001074,0.00009881,-0.00018621,-0.00010541,0.00001591,
 0.00118487,-0.00108710,0.00057655,0.00195693,-0.00335504,-0.00129408,0
 .05958941,0.00000446,0.00010024,-0.00023952,0.00022590,0.00024997,0.00
 020876,0.00048273,0.00041090,0.00120186,0.00015810,-0.00013870,-0.0000
 5221,0.00133136,-0.00031946,0.00009574,0.00020138,-0.00618911,-0.00177
 296,0.03279726,-0.30705659,-0.00820371,-0.00628687,-0.01515964,0.00457
 472,-0.00027052,0.00259311,0.00166978,-0.00002384,-0.00007675,-0.00003
 866,0.00001172,-0.00001529,0.00000625,0.00002903,-0.00005252,-0.000018
 68,0.00005932,-0.00002062,-0.00000404,0.00017399,-0.00004041,-0.000007
 89,0.00013444,0.00085888,0.00035056,0.00227205,-0.00893987,-0.00041789
 ,-0.03124927,0.33450616,-0.00014664,0.00004600,0.00022362,0.00076162,0
 .00037629,0.00040011,-0.00197036,-0.00025799,-0.00017523,-0.00016589,0
 .00045964,0.00026574,-0.00033785,0.00055078,0.00016667,-0.00277527,0.0
 1347236,-0.00003334,-0.00159490,-0.01607424,-0.05213473,0.00448764,0.0
 2573830,-0.00236075,0.00179345,0.00038668,-0.00222601,0.00005451,0.000
 04615,-0.00001610,0.00000181,-0.00007780,0.00000660,-0.00003141,0.0000
 5847,0.00002029,-0.00021129,0.00004317,0.00007961,-0.00000132,0.000029
 42,-0.00001875,0.00060187,-0.00013784,0.00076150,0.00325855,-0.0285075
 6,0.00126369,-0.00409043,0.00270604,0.05371382,0.00000419,-0.00096637,
 -0.00025917,-0.01894744,-0.00451274,0.02333178,-0.00002086,0.00299142,
 0.00053846,-0.00148015,-0.00007126,-0.00230338,-0.00000487,0.00012487,
 -0.00010338,0.00074872,0.00050310,0.00188113,0.00067478,-0.00068050,-0
 .00019435,-0.00146632,-0.00511120,0.00378429,-0.10705021,-0.02469311,0
 .10660633,0.00011763,0.00011619,-0.00003417,0.00030427,0.00078808,-0.0
 0015588,-0.00001979,0.00014705,-0.00040631,0.00021492,0.00004439,-0.00
 002277,-0.00066283,-0.00016533,0.00034443,-0.00001815,-0.00005767,-0.0
 0008760,-0.00021532,-0.00007456,0.00009759,-0.00002167,0.00001278,0.00
 011552,0.11846646,-0.00047104,0.00084239,0.00032954,0.00803205,0.00601
 536,-0.01298324,0.00101653,-0.00183030,-0.00017100,0.00065079,-0.00030
 815,0.00154935,-0.00037653,0.00049671,-0.00004125,0.00026772,-0.000748
 64,-0.00051696,0.00353405,-0.00452353,0.00000166,-0.02512897,-0.025108
 99,0.03098266,-0.01812320,-0.05005697,0.03176380,0.00011559,0.00002725
 ,-0.00002169,-0.00010330,-0.00025669,0.00027983,-0.00011154,0.00012973
 ,0.00023353,-0.00011163,0.00001078,0.00001339,0.00047592,0.00023040,-0
 .00025679,0.00005616,0.00010832,-0.00003176,-0.00031180,-0.00008630,0.
 00039569,-0.00159013,-0.00053328,0.00064943,0.02869360,0.07171395,0.00
 033514,-0.00012364,-0.00014092,0.00105396,-0.00094170,0.00284185,-0.00
 099442,-0.00090836,0.00009785,-0.00018306,-0.00001441,-0.00024127,0.00
 009460,0.00004838,-0.00003712,-0.00003352,0.00026617,0.00041260,-0.001
 96148,-0.00123895,0.00161955,0.00052297,0.00391902,0.00327642,0.106067
 58,0.04316416,-0.23087095,-0.00000354,0.00011955,-0.00008614,0.0001478
 9,-0.00044031,0.00008750,-0.00000860,-0.00019937,0.00015183,0.00005551
 ,-0.00002052,-0.00004047,-0.00002327,0.00002422,0.00000651,0.00014241,
 0.00003018,-0.00006145,-0.00029720,-0.00023993,0.00015061,0.00017404,0
 .00004904,0.00006223,-0.11710809,-0.04681384,0.24572874,0.00058848,-0.
 00138594,-0.00020383,-0.02417140,-0.00420993,-0.02356054,-0.00189816,0
 .00415889,0.00020939,0.00137966,0.00005981,0.00179998,0.00006204,-0.00
 109532,0.00006905,-0.00103685,-0.00004994,-0.00111777,0.00040610,0.000
 09757,-0.00172493,0.00146925,-0.00684328,-0.00108677,-0.12210209,-0.03
 242413,-0.10324367,0.00041102,0.00112584,0.00060629,0.00012472,0.00009
 273,0.00007942,0.00033543,-0.00016597,0.00056970,-0.00056731,-0.000072
 65,0.00020978,0.00012984,0.00003739,-0.00016665,0.00007524,-0.00047875
 ,0.00029782,-0.00027203,0.00001719,0.00047292,0.00005536,-0.00006402,0
 .00025040,0.00937664,0.00348572,0.01201908,0.13563407,0.00011067,0.000
 63598,0.00057669,0.00774760,0.00555929,0.01028753,0.00277955,-0.001656
 53,-0.00038019,-0.00085494,-0.00015920,-0.00084215,-0.00057958,0.00115
 951,-0.00006158,0.00038717,-0.00052362,0.00058764,0.00429929,0.0018103
 8,-0.00605084,-0.02410154,-0.03397915,-0.02420139,-0.03028001,-0.05706
 789,-0.03838987,0.00014280,-0.00011799,-0.00018054,0.00012522,-0.00002
 755,0.00003290,-0.00009887,0.00016677,0.00004908,0.00024044,0.00012813
 ,-0.00012664,-0.00007986,0.00002179,0.00006135,0.00004238,0.00016944,0
 .00021924,-0.00033256,0.00071152,0.00152390,-0.00017381,-0.00017700,0.
 00049270,0.00291124,0.00387796,0.00332031,0.03771481,0.07946815,-0.000
 14845,-0.00014134,0.00012733,0.00101995,-0.00061642,0.00200460,0.00037
 320,0.00009551,-0.00004372,0.00003908,-0.00009822,-0.00020513,-0.00043
 351,0.00018280,0.00004753,0.00025536,0.00044325,0.00033423,0.00099591,
 0.00063327,0.00140792,0.00227429,-0.00735052,0.00724978,-0.10188485,-0
 .04071105,-0.19122183,0.00000469,0.00055113,0.00035969,-0.00001296,-0.
 00000451,-0.00006346,0.00014712,0.00023914,0.00023046,-0.00004629,-0.0
 0002884,0.00001731,-0.00007526,0.00001518,0.00000693,0.00021962,0.0001
 3791,-0.00005545,-0.00114264,-0.00095958,0.00000975,-0.00008118,-0.000
 10720,0.00000103,-0.01602443,-0.00536235,-0.02295737,0.11452032,0.0530
 8184,0.20275038\\-0.00001989,-0.00002898,-0.00002518,0.00006596,-0.000
 02885,0.00002330,0.00000267,0.00004720,0.00000072,-0.00004231,-0.00002
 872,-0.00001326,0.00001582,0.00002566,0.00000232,-0.00003406,-0.000032
 76,-0.00000124,0.00001062,0.00000453,-0.00000296,-0.00000070,0.0000019
 0,0.00002775,-0.00002295,0.00002229,-0.00003428,0.00000060,0.00001009,
 -0.00000734,-0.00000239,0.00000658,-0.00000789,-0.00000384,0.00000642,
 -0.00000544,0.00002349,0.00000193,0.00000730,-0.00000032,-0.00000701,0
 .00001890,0.00000191,-0.00000704,0.00001751,0.00000439,0.00000373,0.00
 000441,-0.00000306,-0.00000409,0.00001245,0.00000850,0.00000560,-0.000
 00986,-0.00000445,0.00000152,-0.00000722\\\@


 TERENCE, THIS IS STUPID STUFF:
 YOU EAT YOUR VICTUALS FAST ENOUGH;
 THERE CAN'T BE MUCH AMISS, 'TIS CLEAR
 TO SEE THE RATE YOU DRINK YOUR BEER.
 BUT OH, GOOD LORD, THE VERSE YOU MAKE,
 IT GIVES A CHAP THE BELLY-ACHE.
 THE COW, THE OLD COW, SHE IS DEAD;
 IT SLEEPS WELL, THE HORNED HEAD:
 WE POOR LADS, 'TIS OUR TURN NOW
 TO HEAR SUCH TUNES AS KILLED THE COW.
 PRETTY FRIENDSHIP 'TIS TO RHYME
 YOUR FRIENDS TO DEATH BEFORE THEIR TIME.
 MOPING, MELANCHOLY MAD:
 COME PIPE A TUNE TO DANCE TO, LAD.

     -- A. E. HOUSMAN
 Job cpu time:       0 days  0 hours 48 minutes 41.4 seconds.
 File lengths (MBytes):  RWF=    152 Int=      0 D2E=      0 Chk=      8 Scr=      1
 Normal termination of Gaussian 09 at Mon Jan 27 22:52:18 2020.
