 Entering Gaussian System, Link 0=/home/puck/opt/gaussian_09/g09
 Input=dsC7O2H10nsd_5163.com
 Output=dsC7O2H10nsd_5163.log
 Initial command:
 /home/puck/opt/gaussian_09/l1.exe "/scratch/puck/g09_a66a1822-4746-4ed7-acc8-fe0f276e6388/Gau-106644.inp" -scrdir="/scratch/puck/g09_a66a1822-4746-4ed7-acc8-fe0f276e6388/"
 Entering Link 1 = /home/puck/opt/gaussian_09/l1.exe PID=    106645.
  
 Copyright (c) 1988,1990,1992,1993,1995,1998,2003,2009,2013,
            Gaussian, Inc.  All Rights Reserved.
  
 This is part of the Gaussian(R) 09 program.  It is based on
 the Gaussian(R) 03 system (copyright 2003, Gaussian, Inc.),
 the Gaussian(R) 98 system (copyright 1998, Gaussian, Inc.),
 the Gaussian(R) 94 system (copyright 1995, Gaussian, Inc.),
 the Gaussian 92(TM) system (copyright 1992, Gaussian, Inc.),
 the Gaussian 90(TM) system (copyright 1990, Gaussian, Inc.),
 the Gaussian 88(TM) system (copyright 1988, Gaussian, Inc.),
 the Gaussian 86(TM) system (copyright 1986, Carnegie Mellon
 University), and the Gaussian 82(TM) system (copyright 1983,
 Carnegie Mellon University). Gaussian is a federally registered
 trademark of Gaussian, Inc.
  
 This software contains proprietary and confidential information,
 including trade secrets, belonging to Gaussian, Inc.
  
 This software is provided under written license and may be
 used, copied, transmitted, or stored only in accord with that
 written license.
  
 The following legend is applicable only to US Government
 contracts under FAR:
  
                    RESTRICTED RIGHTS LEGEND
  
 Use, reproduction and disclosure by the US Government is
 subject to restrictions as set forth in subparagraphs (a)
 and (c) of the Commercial Computer Software - Restricted
 Rights clause in FAR 52.227-19.
  
 Gaussian, Inc.
 340 Quinnipiac St., Bldg. 40, Wallingford CT 06492
  
  
 ---------------------------------------------------------------
 Warning -- This program may not be used in any manner that
 competes with the business of Gaussian, Inc. or will provide
 assistance to any competitor of Gaussian, Inc.  The licensee
 of this program is prohibited from giving any competitor of
 Gaussian, Inc. access to this program.  By using this program,
 the user acknowledges that Gaussian, Inc. is engaged in the
 business of creating and licensing software in the field of
 computational chemistry and represents and warrants to the
 licensee that it is not a competitor of Gaussian, Inc. and that
 it will not use this program in any manner prohibited above.
 ---------------------------------------------------------------
  

 Cite this work as:
 Gaussian 09, Revision D.01,
 M. J. Frisch, G. W. Trucks, H. B. Schlegel, G. E. Scuseria, 
 M. A. Robb, J. R. Cheeseman, G. Scalmani, V. Barone, B. Mennucci, 
 G. A. Petersson, H. Nakatsuji, M. Caricato, X. Li, H. P. Hratchian, 
 A. F. Izmaylov, J. Bloino, G. Zheng, J. L. Sonnenberg, M. Hada, 
 M. Ehara, K. Toyota, R. Fukuda, J. Hasegawa, M. Ishida, T. Nakajima, 
 Y. Honda, O. Kitao, H. Nakai, T. Vreven, J. A. Montgomery, Jr., 
 J. E. Peralta, F. Ogliaro, M. Bearpark, J. J. Heyd, E. Brothers, 
 K. N. Kudin, V. N. Staroverov, T. Keith, R. Kobayashi, J. Normand, 
 K. Raghavachari, A. Rendell, J. C. Burant, S. S. Iyengar, J. Tomasi, 
 M. Cossi, N. Rega, J. M. Millam, M. Klene, J. E. Knox, J. B. Cross, 
 V. Bakken, C. Adamo, J. Jaramillo, R. Gomperts, R. E. Stratmann, 
 O. Yazyev, A. J. Austin, R. Cammi, C. Pomelli, J. W. Ochterski, 
 R. L. Martin, K. Morokuma, V. G. Zakrzewski, G. A. Voth, 
 P. Salvador, J. J. Dannenberg, S. Dapprich, A. D. Daniels, 
 O. Farkas, J. B. Foresman, J. V. Ortiz, J. Cioslowski, 
 and D. J. Fox, Gaussian, Inc., Wallingford CT, 2013.
 
 ******************************************
 Gaussian 09:  ES64L-G09RevD.01 24-Apr-2013
                28-Jan-2020 
 ******************************************
 -----------------------------
 # b3lyp 6-31G(2df,p) opt Freq
 -----------------------------
 1/14=-1,18=20,19=15,26=3,38=1/1,3;
 2/9=110,12=2,17=6,18=5,40=1/2;
 3/5=1,6=6,7=104,11=2,16=1,25=1,30=1,71=1,74=-5/1,2,3;
 4//1;
 5/5=2,38=5/2;
 6/7=2,8=2,9=2,10=2,28=1/1;
 7//1,2,3,16;
 1/14=-1,18=20,19=15,26=3/3(2);
 2/9=110/2;
 99//99;
 2/9=110/2;
 3/5=1,6=6,7=104,11=2,16=1,25=1,30=1,71=1,74=-5/1,2,3;
 4/5=5,16=3,69=1/1;
 5/5=2,38=5/2;
 7//1,2,3,16;
 1/14=-1,18=20,19=15,26=3/3(-5);
 2/9=110/2;
 6/7=2,8=2,9=2,10=2,19=2,28=1/1;
 99/9=1/99;
 -----
 titel
 -----
 Symbolic Z-matrix:
 Charge =  0 Multiplicity = 1
 O                    -0.15916  -1.15573   0.23267 
 C                     0.11066   0.22473   0.09571 
 C                    -0.50539   0.81996  -1.15256 
 C                    -0.01202   2.15787  -1.69248 
 C                     0.14907   0.93173  -2.52813 
 C                    -0.90917   0.68968  -3.60571 
 C                    -2.26744   0.81303  -2.88052 
 C                    -1.9453    0.52054  -1.41184 
 O                    -2.69983   0.01947  -0.60574 
 H                    -1.11796  -1.2271    0.32467 
 H                    -0.24464   0.78925   0.97226 
 H                     1.20034   0.33433   0.05927 
 H                    -0.73161   2.9192   -1.97612 
 H                     0.87112   2.54837  -1.19669 
 H                     1.14599   0.53269  -2.67915 
 H                    -0.81069   1.3853   -4.44504 
 H                    -0.79345  -0.3227   -4.0057 
 H                    -2.68809   1.82278  -2.95741 
 H                    -3.03077   0.1228   -3.24309 
 

 GradGradGradGradGradGradGradGradGradGradGradGradGradGradGradGradGradGrad
 Berny optimization.
 Initialization pass.
                           ----------------------------
                           !    Initial Parameters    !
                           ! (Angstroms and Degrees)  !
 --------------------------                            --------------------------
 ! Name  Definition              Value          Derivative Info.                !
 --------------------------------------------------------------------------------
 ! R1    R(1,2)                  1.4132         estimate D2E/DX2                !
 ! R2    R(1,10)                 0.9658         estimate D2E/DX2                !
 ! R3    R(2,3)                  1.5139         estimate D2E/DX2                !
 ! R4    R(2,11)                 1.1015         estimate D2E/DX2                !
 ! R5    R(2,12)                 1.0958         estimate D2E/DX2                !
 ! R6    R(3,4)                  1.5248         estimate D2E/DX2                !
 ! R7    R(3,5)                  1.5274         estimate D2E/DX2                !
 ! R8    R(3,8)                  1.4934         estimate D2E/DX2                !
 ! R9    R(4,5)                  1.4925         estimate D2E/DX2                !
 ! R10   R(4,13)                 1.0853         estimate D2E/DX2                !
 ! R11   R(4,14)                 1.0855         estimate D2E/DX2                !
 ! R12   R(5,6)                  1.5296         estimate D2E/DX2                !
 ! R13   R(5,15)                 1.0844         estimate D2E/DX2                !
 ! R14   R(6,7)                  1.5447         estimate D2E/DX2                !
 ! R15   R(6,16)                 1.0946         estimate D2E/DX2                !
 ! R16   R(6,17)                 1.0947         estimate D2E/DX2                !
 ! R17   R(7,8)                  1.5318         estimate D2E/DX2                !
 ! R18   R(7,18)                 1.0966         estimate D2E/DX2                !
 ! R19   R(7,19)                 1.0911         estimate D2E/DX2                !
 ! R20   R(8,9)                  1.2125         estimate D2E/DX2                !
 ! A1    A(2,1,10)             105.72           estimate D2E/DX2                !
 ! A2    A(1,2,3)              112.7227         estimate D2E/DX2                !
 ! A3    A(1,2,11)             111.2178         estimate D2E/DX2                !
 ! A4    A(1,2,12)             106.9049         estimate D2E/DX2                !
 ! A5    A(3,2,11)             108.8679         estimate D2E/DX2                !
 ! A6    A(3,2,12)             109.7497         estimate D2E/DX2                !
 ! A7    A(11,2,12)            107.2153         estimate D2E/DX2                !
 ! A8    A(2,3,4)              120.3501         estimate D2E/DX2                !
 ! A9    A(2,3,5)              126.6529         estimate D2E/DX2                !
 ! A10   A(2,3,8)              117.1724         estimate D2E/DX2                !
 ! A11   A(4,3,8)              115.2413         estimate D2E/DX2                !
 ! A12   A(5,3,8)              105.7502         estimate D2E/DX2                !
 ! A13   A(3,4,13)             119.5726         estimate D2E/DX2                !
 ! A14   A(3,4,14)             114.6568         estimate D2E/DX2                !
 ! A15   A(5,4,13)             120.1005         estimate D2E/DX2                !
 ! A16   A(5,4,14)             117.6102         estimate D2E/DX2                !
 ! A17   A(13,4,14)            113.9827         estimate D2E/DX2                !
 ! A18   A(3,5,6)              109.0521         estimate D2E/DX2                !
 ! A19   A(3,5,15)             119.4991         estimate D2E/DX2                !
 ! A20   A(4,5,6)              116.7282         estimate D2E/DX2                !
 ! A21   A(4,5,15)             118.6534         estimate D2E/DX2                !
 ! A22   A(6,5,15)             118.6658         estimate D2E/DX2                !
 ! A23   A(5,6,7)              105.3659         estimate D2E/DX2                !
 ! A24   A(5,6,16)             112.1727         estimate D2E/DX2                !
 ! A25   A(5,6,17)             109.307          estimate D2E/DX2                !
 ! A26   A(7,6,16)             112.8533         estimate D2E/DX2                !
 ! A27   A(7,6,17)             109.7766         estimate D2E/DX2                !
 ! A28   A(16,6,17)            107.3402         estimate D2E/DX2                !
 ! A29   A(6,7,8)              104.4753         estimate D2E/DX2                !
 ! A30   A(6,7,18)             112.2054         estimate D2E/DX2                !
 ! A31   A(6,7,19)             114.1196         estimate D2E/DX2                !
 ! A32   A(8,7,18)             108.8892         estimate D2E/DX2                !
 ! A33   A(8,7,19)             110.1779         estimate D2E/DX2                !
 ! A34   A(18,7,19)            106.9082         estimate D2E/DX2                !
 ! A35   A(3,8,7)              109.327          estimate D2E/DX2                !
 ! A36   A(3,8,9)              124.5712         estimate D2E/DX2                !
 ! A37   A(7,8,9)              125.8364         estimate D2E/DX2                !
 ! D1    D(10,1,2,3)           -63.1499         estimate D2E/DX2                !
 ! D2    D(10,1,2,11)           59.4435         estimate D2E/DX2                !
 ! D3    D(10,1,2,12)          176.1753         estimate D2E/DX2                !
 ! D4    D(1,2,3,4)           -162.2346         estimate D2E/DX2                !
 ! D5    D(1,2,3,5)            -90.7725         estimate D2E/DX2                !
 ! D6    D(1,2,3,8)             48.8932         estimate D2E/DX2                !
 ! D7    D(11,2,3,4)            73.8642         estimate D2E/DX2                !
 ! D8    D(11,2,3,5)           145.3262         estimate D2E/DX2                !
 ! D9    D(11,2,3,8)           -75.0081         estimate D2E/DX2                !
 ! D10   D(12,2,3,4)           -43.2019         estimate D2E/DX2                !
 ! D11   D(12,2,3,5)            28.2602         estimate D2E/DX2                !
 ! D12   D(12,2,3,8)           167.9259         estimate D2E/DX2                !
 ! D13   D(2,3,4,13)          -132.985          estimate D2E/DX2                !
 ! D14   D(2,3,4,14)             7.7932         estimate D2E/DX2                !
 ! D15   D(8,3,4,13)            16.4548         estimate D2E/DX2                !
 ! D16   D(8,3,4,14)           157.233          estimate D2E/DX2                !
 ! D17   D(2,3,5,6)            142.9605         estimate D2E/DX2                !
 ! D18   D(2,3,5,15)             1.8398         estimate D2E/DX2                !
 ! D19   D(8,3,5,6)             -0.2929         estimate D2E/DX2                !
 ! D20   D(8,3,5,15)          -141.4137         estimate D2E/DX2                !
 ! D21   D(2,3,8,7)           -162.3698         estimate D2E/DX2                !
 ! D22   D(2,3,8,9)             11.9992         estimate D2E/DX2                !
 ! D23   D(4,3,8,7)             47.1809         estimate D2E/DX2                !
 ! D24   D(4,3,8,9)           -138.4501         estimate D2E/DX2                !
 ! D25   D(5,3,8,7)            -15.0208         estimate D2E/DX2                !
 ! D26   D(5,3,8,9)            159.3482         estimate D2E/DX2                !
 ! D27   D(13,4,5,6)           -11.4269         estimate D2E/DX2                !
 ! D28   D(13,4,5,15)          141.0967         estimate D2E/DX2                !
 ! D29   D(14,4,5,6)          -157.8746         estimate D2E/DX2                !
 ! D30   D(14,4,5,15)           -5.351          estimate D2E/DX2                !
 ! D31   D(3,5,6,7)             15.0355         estimate D2E/DX2                !
 ! D32   D(3,5,6,16)           138.192          estimate D2E/DX2                !
 ! D33   D(3,5,6,17)          -102.8743         estimate D2E/DX2                !
 ! D34   D(4,5,6,7)            -50.9525         estimate D2E/DX2                !
 ! D35   D(4,5,6,16)            72.204          estimate D2E/DX2                !
 ! D36   D(4,5,6,17)          -168.8622         estimate D2E/DX2                !
 ! D37   D(15,5,6,7)           156.5275         estimate D2E/DX2                !
 ! D38   D(15,5,6,16)          -80.316          estimate D2E/DX2                !
 ! D39   D(15,5,6,17)           38.6177         estimate D2E/DX2                !
 ! D40   D(5,6,7,8)            -23.3798         estimate D2E/DX2                !
 ! D41   D(5,6,7,18)            94.4287         estimate D2E/DX2                !
 ! D42   D(5,6,7,19)          -143.7716         estimate D2E/DX2                !
 ! D43   D(16,6,7,8)          -146.1009         estimate D2E/DX2                !
 ! D44   D(16,6,7,18)          -28.2924         estimate D2E/DX2                !
 ! D45   D(16,6,7,19)           93.5073         estimate D2E/DX2                !
 ! D46   D(17,6,7,8)            94.2131         estimate D2E/DX2                !
 ! D47   D(17,6,7,18)         -147.9784         estimate D2E/DX2                !
 ! D48   D(17,6,7,19)          -26.1786         estimate D2E/DX2                !
 ! D49   D(6,7,8,3)             24.2544         estimate D2E/DX2                !
 ! D50   D(6,7,8,9)           -150.0258         estimate D2E/DX2                !
 ! D51   D(18,7,8,3)           -95.8031         estimate D2E/DX2                !
 ! D52   D(18,7,8,9)            89.9167         estimate D2E/DX2                !
 ! D53   D(19,7,8,3)           147.2455         estimate D2E/DX2                !
 ! D54   D(19,7,8,9)           -27.0348         estimate D2E/DX2                !
 --------------------------------------------------------------------------------
 Trust Radius=3.00D-01 FncErr=1.00D-07 GrdErr=1.00D-06
 Number of steps in this run=    114 maximum allowed number of steps=    114.
 GradGradGradGradGradGradGradGradGradGradGradGradGradGradGradGradGradGrad

                          Input orientation:                          
 ---------------------------------------------------------------------
 Center     Atomic      Atomic             Coordinates (Angstroms)
 Number     Number       Type             X           Y           Z
 ---------------------------------------------------------------------
      1          8           0       -0.159161   -1.155734    0.232669
      2          6           0        0.110657    0.224727    0.095705
      3          6           0       -0.505391    0.819961   -1.152562
      4          6           0       -0.012022    2.157874   -1.692481
      5          6           0        0.149074    0.931734   -2.528132
      6          6           0       -0.909171    0.689684   -3.605707
      7          6           0       -2.267438    0.813030   -2.880516
      8          6           0       -1.945295    0.520536   -1.411845
      9          8           0       -2.699829    0.019475   -0.605737
     10          1           0       -1.117962   -1.227099    0.324666
     11          1           0       -0.244644    0.789249    0.972264
     12          1           0        1.200336    0.334331    0.059272
     13          1           0       -0.731615    2.919201   -1.976123
     14          1           0        0.871117    2.548369   -1.196685
     15          1           0        1.145988    0.532694   -2.679151
     16          1           0       -0.810691    1.385300   -4.445037
     17          1           0       -0.793448   -0.322700   -4.005697
     18          1           0       -2.688091    1.822782   -2.957405
     19          1           0       -3.030767    0.122803   -3.243085
 ---------------------------------------------------------------------
                    Distance matrix (angstroms):
                    1          2          3          4          5
     1  O    0.000000
     2  C    1.413235   0.000000
     3  C    2.437644   1.513932   0.000000
     4  C    3.835082   2.636232   1.524775   0.000000
     5  C    3.474846   2.717693   1.527420   1.492543   0.000000
     6  C    4.324490   3.867388   2.489565   2.573110   1.529588
     7  C    4.244147   3.854781   2.467931   2.882176   2.444953
     8  C    2.950353   2.566544   1.493388   2.548956   2.408643
     9  O    2.922162   2.903959   2.399031   3.602508   3.555849
    10  H    0.965844   1.915653   2.597672   4.092680   3.795313
    11  H    2.082612   1.101490   2.140986   3.004682   3.525350
    12  H    2.024498   1.095783   2.147996   2.804240   2.855995
    13  H    4.670285   3.501726   2.266327   1.085304   2.242844
    14  H    4.101817   2.765481   2.210003   1.085465   2.215311
    15  H    3.610111   2.977681   2.267168   2.226144   1.084379
    16  H    5.363048   4.776416   3.354580   2.968385   2.191208
    17  H    4.365777   4.235397   3.086913   3.480638   2.155261
    18  H    5.044167   4.439398   3.004545   2.978870   3.004621
    19  H    4.686325   4.585462   3.351692   3.957109   3.358112
                    6          7          8          9         10
     6  C    0.000000
     7  C    1.544671   0.000000
     8  C    2.432118   1.531772   0.000000
     9  O    3.557451   2.447715   1.212515   0.000000
    10  H    4.377841   3.969460   2.598880   2.218535   0.000000
    11  H    4.627022   4.351572   2.940816   3.018373   2.290793
    12  H    4.243627   4.571321   3.477622   3.968962   2.807669
    13  H    2.767276   2.759101   2.746821   3.763009   4.757594
    14  H    3.525269   3.961971   3.477151   4.415447   4.530464
    15  H    2.259830   3.430833   3.340994   4.399175   4.152741
    16  H    1.094557   2.212992   3.351924   4.491608   5.446936
    17  H    1.094671   2.174526   2.960721   3.912940   4.435684
    18  H    2.206528   1.096567   2.153218   2.963511   4.747533
    19  H    2.225763   1.091119   2.165614   2.660038   4.267307
                   11         12         13         14         15
    11  H    0.000000
    12  H    1.768749   0.000000
    13  H    3.669717   3.815341   0.000000
    14  H    3.007286   2.566667   1.820382   0.000000
    15  H    3.915676   2.746137   3.116899   2.517182   0.000000
    16  H    5.479310   5.043567   2.907686   3.838358   2.770177
    17  H    5.130080   4.575024   3.825299   4.347914   2.500567
    18  H    4.741406   5.141566   2.448030   4.036654   4.054863
    19  H    5.096647   5.371457   3.835510   5.029495   4.234538
                   16         17         18         19
    16  H    0.000000
    17  H    1.763684   0.000000
    18  H    2.434968   3.048226   0.000000
    19  H    2.822645   2.405337   1.757546   0.000000
 Stoichiometry    C7H10O2
 Framework group  C1[X(C7H10O2)]
 Deg. of freedom    51
 Full point group                 C1      NOp   1
 Largest Abelian subgroup         C1      NOp   1
 Largest concise Abelian subgroup C1      NOp   1
                         Standard orientation:                         
 ---------------------------------------------------------------------
 Center     Atomic      Atomic             Coordinates (Angstroms)
 Number     Number       Type             X           Y           Z
 ---------------------------------------------------------------------
      1          8           0        2.379343    0.047619    0.852533
      2          6           0        1.759902   -0.713856   -0.164169
      3          6           0        0.273718   -0.446233   -0.271996
      4          6           0       -0.634979   -1.428594   -1.002867
      5          6           0       -0.842359   -1.192598    0.456236
      6          6           0       -1.938150   -0.198103    0.843353
      7          6           0       -1.652540    1.070608    0.009801
      8          6           0       -0.160106    0.981826   -0.323492
      9          8           0        0.586494    1.921999   -0.493359
     10          1           0        2.273092    0.970871    0.589528
     11          1           0        2.227586   -0.526368   -1.143659
     12          1           0        1.929469   -1.768637    0.079602
     13          1           0       -1.357207   -1.056515   -1.722471
     14          1           0       -0.154308   -2.355617   -1.299205
     15          1           0       -0.589279   -1.984714    1.152210
     16          1           0       -2.941224   -0.601720    0.673086
     17          1           0       -1.856373    0.033418    1.910131
     18          1           0       -2.224651    1.089466   -0.925502
     19          1           0       -1.866717    2.004575    0.531696
 ---------------------------------------------------------------------
 Rotational constants (GHZ):      2.4133326      1.5971104      1.2089055
 Standard basis: 6-31G(2df,p) (6D, 7F)
 There are   329 symmetry adapted cartesian basis functions of A   symmetry.
 There are   302 symmetry adapted basis functions of A   symmetry.
   302 basis functions,   466 primitive gaussians,   329 cartesian basis functions
    34 alpha electrons       34 beta electrons
       nuclear repulsion energy       466.1325105608 Hartrees.
 NAtoms=   19 NActive=   19 NUniq=   19 SFac= 1.00D+00 NAtFMM=   60 NAOKFM=F Big=F
 Integral buffers will be    131072 words long.
 Raffenetti 2 integral format.
 Two-electron integral symmetry is turned on.
 One-electron integrals computed using PRISM.
 NBasis=   302 RedAO= T EigKep=  4.81D-04  NBF=   302
 NBsUse=   302 1.00D-06 EigRej= -1.00D+00 NBFU=   302
 ExpMin= 1.61D-01 ExpMax= 5.48D+03 ExpMxC= 8.25D+02 IAcc=1 IRadAn=         1 AccDes= 0.00D+00
 Harris functional with IExCor=  402 and IRadAn=       1 diagonalized for initial guess.
 HarFok:  IExCor=  402 AccDes= 0.00D+00 IRadAn=         1 IDoV= 1 UseB2=F ITyADJ=14
 ICtDFT=  3500011 ScaDFX=  1.000000  1.000000  1.000000  1.000000
 FoFCou: FMM=F IPFlag=           0 FMFlag=      100000 FMFlg1=           0
         NFxFlg=           0 DoJE=T BraDBF=F KetDBF=T FulRan=T
         wScrn=  0.000000 ICntrl=     500 IOpCl=  0 I1Cent=   200000004 NGrid=           0
         NMat0=    1 NMatS0=      1 NMatT0=    0 NMatD0=    1 NMtDS0=    0 NMtDT0=    0
 Petite list used in FoFCou.
 Requested convergence on RMS density matrix=1.00D-08 within 128 cycles.
 Requested convergence on MAX density matrix=1.00D-06.
 Requested convergence on             energy=1.00D-06.
 No special actions if energy rises.
 Integral accuracy reduced to 1.0D-05 until final iterations.
 Initial convergence to 1.0D-05 achieved.  Increase integral accuracy.
 SCF Done:  E(RB3LYP) =  -423.209276267     A.U. after   14 cycles
            NFock= 14  Conv=0.43D-08     -V/T= 2.0075

 **********************************************************************

            Population analysis using the SCF density.

 **********************************************************************

 Orbital symmetries:
       Occupied  (A) (A) (A) (A) (A) (A) (A) (A) (A) (A) (A) (A)
                 (A) (A) (A) (A) (A) (A) (A) (A) (A) (A) (A) (A)
                 (A) (A) (A) (A) (A) (A) (A) (A) (A) (A)
       Virtual   (A) (A) (A) (A) (A) (A) (A) (A) (A) (A) (A) (A)
                 (A) (A) (A) (A) (A) (A) (A) (A) (A) (A) (A) (A)
                 (A) (A) (A) (A) (A) (A) (A) (A) (A) (A) (A) (A)
                 (A) (A) (A) (A) (A) (A) (A) (A) (A) (A) (A) (A)
                 (A) (A) (A) (A) (A) (A) (A) (A) (A) (A) (A) (A)
                 (A) (A) (A) (A) (A) (A) (A) (A) (A) (A) (A) (A)
                 (A) (A) (A) (A) (A) (A) (A) (A) (A) (A) (A) (A)
                 (A) (A) (A) (A) (A) (A) (A) (A) (A) (A) (A) (A)
                 (A) (A) (A) (A) (A) (A) (A) (A) (A) (A) (A) (A)
                 (A) (A) (A) (A) (A) (A) (A) (A) (A) (A) (A) (A)
                 (A) (A) (A) (A) (A) (A) (A) (A) (A) (A) (A) (A)
                 (A) (A) (A) (A) (A) (A) (A) (A) (A) (A) (A) (A)
                 (A) (A) (A) (A) (A) (A) (A) (A) (A) (A) (A) (A)
                 (A) (A) (A) (A) (A) (A) (A) (A) (A) (A) (A) (A)
                 (A) (A) (A) (A) (A) (A) (A) (A) (A) (A) (A) (A)
                 (A) (A) (A) (A) (A) (A) (A) (A) (A) (A) (A) (A)
                 (A) (A) (A) (A) (A) (A) (A) (A) (A) (A) (A) (A)
                 (A) (A) (A) (A) (A) (A) (A) (A) (A) (A) (A) (A)
                 (A) (A) (A) (A) (A) (A) (A) (A) (A) (A) (A) (A)
                 (A) (A) (A) (A) (A) (A) (A) (A) (A) (A) (A) (A)
                 (A) (A) (A) (A) (A) (A) (A) (A) (A) (A) (A) (A)
                 (A) (A) (A) (A) (A) (A) (A) (A) (A) (A) (A) (A)
                 (A) (A) (A) (A)
 The electronic state is 1-A.
 Alpha  occ. eigenvalues --  -19.13426 -19.12365 -10.27146 -10.22990 -10.21010
 Alpha  occ. eigenvalues --  -10.20681 -10.20437 -10.20065 -10.19678  -1.04493
 Alpha  occ. eigenvalues --   -1.00715  -0.89915  -0.77879  -0.70870  -0.67286
 Alpha  occ. eigenvalues --   -0.63140  -0.57911  -0.53002  -0.50598  -0.48682
 Alpha  occ. eigenvalues --   -0.47049  -0.45551  -0.43220  -0.41832  -0.41387
 Alpha  occ. eigenvalues --   -0.40348  -0.38549  -0.35898  -0.35444  -0.33921
 Alpha  occ. eigenvalues --   -0.31028  -0.28999  -0.26065  -0.24428
 Alpha virt. eigenvalues --   -0.01964   0.08038   0.09130   0.10407   0.11504
 Alpha virt. eigenvalues --    0.11792   0.14585   0.15332   0.16166   0.17216
 Alpha virt. eigenvalues --    0.17795   0.19358   0.20389   0.21815   0.21882
 Alpha virt. eigenvalues --    0.23999   0.25362   0.27857   0.30107   0.31834
 Alpha virt. eigenvalues --    0.37526   0.42308   0.43615   0.45359   0.46054
 Alpha virt. eigenvalues --    0.47851   0.49709   0.50038   0.51813   0.53638
 Alpha virt. eigenvalues --    0.54667   0.56132   0.57845   0.60646   0.61247
 Alpha virt. eigenvalues --    0.62437   0.62732   0.64733   0.65155   0.66228
 Alpha virt. eigenvalues --    0.70298   0.71792   0.72472   0.73338   0.74825
 Alpha virt. eigenvalues --    0.75048   0.76720   0.77293   0.79231   0.80732
 Alpha virt. eigenvalues --    0.81693   0.82773   0.84146   0.84825   0.89078
 Alpha virt. eigenvalues --    0.91905   0.93820   0.94959   0.96007   0.97809
 Alpha virt. eigenvalues --    0.98641   1.02149   1.03755   1.06333   1.09751
 Alpha virt. eigenvalues --    1.12363   1.12593   1.16399   1.18393   1.19855
 Alpha virt. eigenvalues --    1.22923   1.23096   1.27800   1.28072   1.30991
 Alpha virt. eigenvalues --    1.32705   1.35006   1.36548   1.37578   1.40048
 Alpha virt. eigenvalues --    1.40680   1.42586   1.44782   1.47098   1.49169
 Alpha virt. eigenvalues --    1.50079   1.51041   1.54003   1.54985   1.56063
 Alpha virt. eigenvalues --    1.57222   1.60291   1.61596   1.62643   1.67561
 Alpha virt. eigenvalues --    1.68710   1.70951   1.72961   1.76903   1.78209
 Alpha virt. eigenvalues --    1.81232   1.86486   1.87197   1.88516   1.93910
 Alpha virt. eigenvalues --    1.97368   1.98219   2.01414   2.04542   2.14047
 Alpha virt. eigenvalues --    2.15372   2.16423   2.18706   2.25694   2.27951
 Alpha virt. eigenvalues --    2.31517   2.34378   2.36733   2.41171   2.42254
 Alpha virt. eigenvalues --    2.46223   2.52939   2.53583   2.54738   2.56925
 Alpha virt. eigenvalues --    2.59337   2.62191   2.63804   2.68760   2.70683
 Alpha virt. eigenvalues --    2.75606   2.77264   2.79691   2.84664   2.85057
 Alpha virt. eigenvalues --    2.86455   2.88447   2.90561   2.91318   2.92381
 Alpha virt. eigenvalues --    2.94855   2.99081   2.99930   3.02416   3.04325
 Alpha virt. eigenvalues --    3.06166   3.06795   3.08424   3.13427   3.15528
 Alpha virt. eigenvalues --    3.17429   3.18737   3.21336   3.22024   3.24279
 Alpha virt. eigenvalues --    3.28244   3.29823   3.32008   3.34543   3.36938
 Alpha virt. eigenvalues --    3.38228   3.41779   3.45253   3.46258   3.46793
 Alpha virt. eigenvalues --    3.49332   3.49931   3.56803   3.58251   3.62465
 Alpha virt. eigenvalues --    3.65649   3.69869   3.70717   3.74020   3.76020
 Alpha virt. eigenvalues --    3.78377   3.83446   3.88252   3.90538   3.94335
 Alpha virt. eigenvalues --    3.96193   4.00585   4.05087   4.07379   4.16000
 Alpha virt. eigenvalues --    4.16999   4.20375   4.21768   4.25209   4.26126
 Alpha virt. eigenvalues --    4.30056   4.32730   4.34342   4.35878   4.40056
 Alpha virt. eigenvalues --    4.40413   4.41282   4.43433   4.48101   4.49272
 Alpha virt. eigenvalues --    4.50485   4.51453   4.55298   4.55957   4.60457
 Alpha virt. eigenvalues --    4.61675   4.63238   4.65186   4.67702   4.68498
 Alpha virt. eigenvalues --    4.69599   4.70729   4.72972   4.74623   4.75985
 Alpha virt. eigenvalues --    4.79073   4.79304   4.81563   4.82501   4.84848
 Alpha virt. eigenvalues --    4.86263   4.86629   4.89265   4.92135   4.95599
 Alpha virt. eigenvalues --    4.98261   4.99558   5.01724   5.07699   5.09554
 Alpha virt. eigenvalues --    5.10374   5.19389   5.22374   5.30231   5.32621
 Alpha virt. eigenvalues --    5.36934   5.40233   5.43354   5.44800   5.45862
 Alpha virt. eigenvalues --    5.49929   5.51801   5.56075   5.57535   5.60383
 Alpha virt. eigenvalues --    5.67781   5.74358   5.78321   5.85393   5.97582
 Alpha virt. eigenvalues --    6.00789   6.04095   6.11306   6.30377   6.37103
 Alpha virt. eigenvalues --    6.61948   6.81623   6.90237   7.07884  10.54515
 Alpha virt. eigenvalues --   11.39989  11.50826  11.75460  12.11625  12.54287
 Alpha virt. eigenvalues --   12.68653  13.21057  13.23862
          Condensed to atoms (all electrons):
               1          2          3          4          5          6
     1  O    7.833689   0.378160  -0.055266   0.003113   0.000723  -0.000190
     2  C    0.378160   4.924296   0.334863  -0.027493  -0.044299   0.002865
     3  C   -0.055266   0.334863   4.992948   0.228385   0.266777   0.003636
     4  C    0.003113  -0.027493   0.228385   5.124862   0.336426  -0.023883
     5  C    0.000723  -0.044299   0.266777   0.336426   4.864204   0.400660
     6  C   -0.000190   0.002865   0.003636  -0.023883   0.400660   4.889629
     7  C   -0.000236   0.008690  -0.131591   0.004867  -0.043162   0.356035
     8  C    0.003226  -0.033876   0.351747  -0.018867  -0.006312  -0.039032
     9  O   -0.008078   0.001080  -0.083015  -0.000232   0.002092   0.001095
    10  H    0.314410  -0.063218  -0.010107   0.000033  -0.000525  -0.000039
    11  H   -0.030571   0.346944  -0.037680   0.003133   0.006120  -0.000233
    12  H   -0.015169   0.342609  -0.014031  -0.002881  -0.008552   0.000143
    13  H   -0.000045   0.001405  -0.018937   0.369638  -0.016929  -0.009526
    14  H    0.000094  -0.006699  -0.011706   0.374594  -0.021217   0.002838
    15  H    0.000322  -0.002278  -0.034318  -0.032914   0.388556  -0.044122
    16  H    0.000000  -0.000069   0.002322  -0.007604  -0.024191   0.363664
    17  H    0.000003   0.000106   0.000731   0.004651  -0.030601   0.371797
    18  H   -0.000003  -0.000159   0.000188   0.001110  -0.001030  -0.025353
    19  H    0.000014  -0.000154   0.005245  -0.000011   0.002529  -0.022058
               7          8          9         10         11         12
     1  O   -0.000236   0.003226  -0.008078   0.314410  -0.030571  -0.015169
     2  C    0.008690  -0.033876   0.001080  -0.063218   0.346944   0.342609
     3  C   -0.131591   0.351747  -0.083015  -0.010107  -0.037680  -0.014031
     4  C    0.004867  -0.018867  -0.000232   0.000033   0.003133  -0.002881
     5  C   -0.043162  -0.006312   0.002092  -0.000525   0.006120  -0.008552
     6  C    0.356035  -0.039032   0.001095  -0.000039  -0.000233   0.000143
     7  C    5.207520   0.331829  -0.056041   0.000779  -0.000021  -0.000184
     8  C    0.331829   4.280227   0.774441   0.006770  -0.005697   0.004232
     9  O   -0.056041   0.774441   7.699966   0.023257   0.002039   0.000058
    10  H    0.000779   0.006770   0.023257   0.429570  -0.004948   0.006707
    11  H   -0.000021  -0.005697   0.002039  -0.004948   0.670211  -0.048522
    12  H   -0.000184   0.004232   0.000058   0.006707  -0.048522   0.626433
    13  H    0.003860  -0.005101   0.000278   0.000004   0.000241  -0.000228
    14  H   -0.000842   0.001499  -0.000054  -0.000001   0.000936   0.003554
    15  H    0.004497   0.002035  -0.000013   0.000002   0.000019   0.002042
    16  H   -0.025933   0.002779  -0.000049   0.000001   0.000005  -0.000004
    17  H   -0.028340  -0.000337   0.000140   0.000009  -0.000002   0.000003
    18  H    0.350581  -0.012579   0.000770   0.000002   0.000001  -0.000001
    19  H    0.357510  -0.012971  -0.000056  -0.000022  -0.000002   0.000004
              13         14         15         16         17         18
     1  O   -0.000045   0.000094   0.000322   0.000000   0.000003  -0.000003
     2  C    0.001405  -0.006699  -0.002278  -0.000069   0.000106  -0.000159
     3  C   -0.018937  -0.011706  -0.034318   0.002322   0.000731   0.000188
     4  C    0.369638   0.374594  -0.032914  -0.007604   0.004651   0.001110
     5  C   -0.016929  -0.021217   0.388556  -0.024191  -0.030601  -0.001030
     6  C   -0.009526   0.002838  -0.044122   0.363664   0.371797  -0.025353
     7  C    0.003860  -0.000842   0.004497  -0.025933  -0.028340   0.350581
     8  C   -0.005101   0.001499   0.002035   0.002779  -0.000337  -0.012579
     9  O    0.000278  -0.000054  -0.000013  -0.000049   0.000140   0.000770
    10  H    0.000004  -0.000001   0.000002   0.000001   0.000009   0.000002
    11  H    0.000241   0.000936   0.000019   0.000005  -0.000002   0.000001
    12  H   -0.000228   0.003554   0.002042  -0.000004   0.000003  -0.000001
    13  H    0.588978  -0.039175   0.002601   0.002386   0.000080   0.001971
    14  H   -0.039175   0.576588  -0.005626   0.000063  -0.000107   0.000098
    15  H    0.002601  -0.005626   0.621124   0.001380  -0.004499  -0.000159
    16  H    0.002386   0.000063   0.001380   0.623488  -0.041222  -0.007452
    17  H    0.000080  -0.000107  -0.004499  -0.041222   0.611712   0.004695
    18  H    0.001971   0.000098  -0.000159  -0.007452   0.004695   0.587848
    19  H   -0.000244   0.000002  -0.000066   0.002490  -0.007427  -0.031512
              19
     1  O    0.000014
     2  C   -0.000154
     3  C    0.005245
     4  C   -0.000011
     5  C    0.002529
     6  C   -0.022058
     7  C    0.357510
     8  C   -0.012971
     9  O   -0.000056
    10  H   -0.000022
    11  H   -0.000002
    12  H    0.000004
    13  H   -0.000244
    14  H    0.000002
    15  H   -0.000066
    16  H    0.002490
    17  H   -0.007427
    18  H   -0.031512
    19  H    0.573931
 Mulliken charges:
               1
     1  O   -0.424195
     2  C   -0.162774
     3  C    0.209810
     4  C   -0.336927
     5  C   -0.071267
     6  C   -0.227927
     7  C   -0.339817
     8  C    0.375985
     9  O   -0.357676
    10  H    0.297314
    11  H    0.098027
    12  H    0.103789
    13  H    0.118741
    14  H    0.125162
    15  H    0.101417
    16  H    0.107949
    17  H    0.118608
    18  H    0.130983
    19  H    0.132799
 Sum of Mulliken charges =   0.00000
 Mulliken charges with hydrogens summed into heavy atoms:
               1
     1  O   -0.126881
     2  C    0.039042
     3  C    0.209810
     4  C   -0.093023
     5  C    0.030149
     6  C   -0.001371
     7  C   -0.076035
     8  C    0.375985
     9  O   -0.357676
 Electronic spatial extent (au):  <R**2>=           1088.3550
 Charge=              0.0000 electrons
 Dipole moment (field-independent basis, Debye):
    X=             -2.7621    Y=             -1.8064    Z=             -0.6035  Tot=              3.3550
 Quadrupole moment (field-independent basis, Debye-Ang):
   XX=            -55.0976   YY=            -54.4701   ZZ=            -53.2352
   XY=             -1.7897   XZ=             -2.3213   YZ=              2.2017
 Traceless Quadrupole moment (field-independent basis, Debye-Ang):
   XX=             -0.8300   YY=             -0.2025   ZZ=              1.0324
   XY=             -1.7897   XZ=             -2.3213   YZ=              2.2017
 Octapole moment (field-independent basis, Debye-Ang**2):
  XXX=             -2.9893  YYY=             -6.3493  ZZZ=              0.3732  XYY=              4.9479
  XXY=              8.1761  XXZ=             -8.0763  XZZ=             -2.4650  YZZ=              2.0941
  YYZ=              6.0173  XYZ=              2.9605
 Hexadecapole moment (field-independent basis, Debye-Ang**3):
 XXXX=           -761.3102 YYYY=           -461.6634 ZZZZ=           -200.2543 XXXY=             15.6519
 XXXZ=            -10.6099 YYYX=            -10.1686 YYYZ=              7.1919 ZZZX=              3.4524
 ZZZY=             -2.7554 XXYY=           -186.8703 XXZZ=           -159.8497 YYZZ=           -104.3401
 XXYZ=              3.0925 YYXZ=              6.0741 ZZXY=              2.1802
 N-N= 4.661325105608D+02 E-N=-1.918934927311D+03  KE= 4.200673325051D+02
 Calling FoFJK, ICntrl=      2127 FMM=F ISym2X=0 I1Cent= 0 IOpClX= 0 NMat=1 NMatS=1 NMatT=0.
 ***** Axes restored to original set *****
 -------------------------------------------------------------------
 Center     Atomic                   Forces (Hartrees/Bohr)
 Number     Number              X              Y              Z
 -------------------------------------------------------------------
      1        8          -0.000022947   -0.000010618   -0.000005126
      2        6           0.000059265    0.000041676    0.000006503
      3        6          -0.000025811   -0.000033001   -0.000038355
      4        6           0.000005393   -0.000015587    0.000009214
      5        6           0.000009078    0.000001443    0.000013644
      6        6          -0.000008885    0.000011151   -0.000002363
      7        6           0.000028993   -0.000017895    0.000000239
      8        6          -0.000034275    0.000006294    0.000031665
      9        8           0.000014582    0.000012526   -0.000008719
     10        1           0.000006761   -0.000020191    0.000002142
     11        1           0.000003774   -0.000004514   -0.000004172
     12        1           0.000001049    0.000006830   -0.000008847
     13        1          -0.000002651   -0.000000461    0.000000301
     14        1          -0.000003964    0.000014772   -0.000005333
     15        1          -0.000004025   -0.000000887   -0.000000530
     16        1          -0.000010919    0.000000252   -0.000002645
     17        1          -0.000000545    0.000001800    0.000000817
     18        1          -0.000010956    0.000002634    0.000008514
     19        1          -0.000003918    0.000003777    0.000003052
 -------------------------------------------------------------------
 Cartesian Forces:  Max     0.000059265 RMS     0.000016295

 GradGradGradGradGradGradGradGradGradGradGradGradGradGradGradGradGradGrad
 Berny optimization.
 FormGI is forming the generalized inverse of G from B-inverse, IUseBI=4.
 Internal  Forces:  Max     0.000035257 RMS     0.000007190
 Search for a local minimum.
 Step number   1 out of a maximum of  114
 All quantities printed in internal units (Hartrees-Bohrs-Radians)
 Mixed Optimization -- En-DIIS/RFO-DIIS
 Second derivative matrix not updated -- first step.
 ITU=  0
     Eigenvalues ---    0.00421   0.00582   0.00620   0.01230   0.01517
     Eigenvalues ---    0.01803   0.02139   0.02985   0.03129   0.03552
     Eigenvalues ---    0.03773   0.04925   0.05140   0.05656   0.05824
     Eigenvalues ---    0.06012   0.07097   0.07543   0.08393   0.09599
     Eigenvalues ---    0.10205   0.10647   0.11684   0.11872   0.14007
     Eigenvalues ---    0.15945   0.16000   0.18923   0.20701   0.22038
     Eigenvalues ---    0.22864   0.23505   0.24777   0.27072   0.27984
     Eigenvalues ---    0.29000   0.30827   0.30959   0.32142   0.33518
     Eigenvalues ---    0.34065   0.34153   0.34278   0.34291   0.34684
     Eigenvalues ---    0.35342   0.35361   0.35470   0.43496   0.54235
     Eigenvalues ---    0.98778
 RFO step:  Lambda=-5.13582817D-08 EMin= 4.21138395D-03
 Linear search not attempted -- first point.
 Iteration  1 RMS(Cart)=  0.00015238 RMS(Int)=  0.00000002
 Iteration  2 RMS(Cart)=  0.00000002 RMS(Int)=  0.00000001
 Variable       Old X    -DE/DX   Delta X   Delta X   Delta X     New X
                                 (Linear)    (Quad)   (Total)
    R1        2.67063   0.00003   0.00000   0.00008   0.00008   2.67071
    R2        1.82518   0.00000   0.00000   0.00000   0.00000   1.82518
    R3        2.86092   0.00000   0.00000   0.00001   0.00001   2.86093
    R4        2.08151   0.00000   0.00000  -0.00001  -0.00001   2.08150
    R5        2.07073   0.00000   0.00000  -0.00001  -0.00001   2.07072
    R6        2.88141   0.00000   0.00000  -0.00001  -0.00001   2.88140
    R7        2.88640  -0.00001   0.00000  -0.00005  -0.00005   2.88636
    R8        2.82209   0.00000   0.00000   0.00000   0.00000   2.82209
    R9        2.82050   0.00000   0.00000  -0.00001  -0.00001   2.82048
   R10        2.05093   0.00000   0.00000   0.00000   0.00000   2.05093
   R11        2.05123   0.00000   0.00000   0.00000   0.00000   2.05123
   R12        2.89050   0.00000   0.00000  -0.00001  -0.00001   2.89049
   R13        2.04918   0.00000   0.00000   0.00000   0.00000   2.04918
   R14        2.91900  -0.00001   0.00000   0.00000   0.00000   2.91900
   R15        2.06841   0.00000   0.00000   0.00000   0.00000   2.06842
   R16        2.06863   0.00000   0.00000   0.00000   0.00000   2.06863
   R17        2.89463   0.00000   0.00000   0.00001   0.00001   2.89464
   R18        2.07221   0.00001   0.00000   0.00002   0.00002   2.07223
   R19        2.06192   0.00000   0.00000  -0.00001  -0.00001   2.06191
   R20        2.29132  -0.00002   0.00000  -0.00002  -0.00002   2.29130
    A1        1.84516   0.00004   0.00000   0.00022   0.00022   1.84538
    A2        1.96738  -0.00001   0.00000  -0.00007  -0.00007   1.96731
    A3        1.94112   0.00000   0.00000  -0.00001  -0.00001   1.94111
    A4        1.86584   0.00001   0.00000   0.00008   0.00008   1.86592
    A5        1.90010   0.00000   0.00000   0.00001   0.00001   1.90011
    A6        1.91549   0.00000   0.00000  -0.00003  -0.00003   1.91546
    A7        1.87126   0.00000   0.00000   0.00003   0.00003   1.87129
    A8        2.10050  -0.00001   0.00000  -0.00010  -0.00010   2.10040
    A9        2.21051  -0.00002   0.00000  -0.00008  -0.00008   2.21043
   A10        2.04504   0.00001   0.00000   0.00011   0.00011   2.04516
   A11        2.01134   0.00000   0.00000  -0.00012  -0.00012   2.01122
   A12        1.84569   0.00001   0.00000   0.00012   0.00012   1.84581
   A13        2.08694   0.00000   0.00000  -0.00003  -0.00003   2.08691
   A14        2.00114   0.00001   0.00000   0.00009   0.00009   2.00123
   A15        2.09615   0.00001   0.00000  -0.00003  -0.00003   2.09612
   A16        2.05269   0.00000   0.00000   0.00006   0.00006   2.05275
   A17        1.98937  -0.00001   0.00000  -0.00005  -0.00005   1.98933
   A18        1.90332   0.00000   0.00000  -0.00002  -0.00002   1.90330
   A19        2.08565   0.00000   0.00000  -0.00003  -0.00003   2.08562
   A20        2.03729  -0.00001   0.00000  -0.00003  -0.00003   2.03726
   A21        2.07089   0.00000   0.00000   0.00003   0.00003   2.07093
   A22        2.07111   0.00000   0.00000   0.00002   0.00002   2.07113
   A23        1.83898   0.00000   0.00000   0.00000   0.00000   1.83899
   A24        1.95778   0.00000   0.00000   0.00006   0.00006   1.95784
   A25        1.90777   0.00000   0.00000  -0.00005  -0.00005   1.90772
   A26        1.96966   0.00000   0.00000  -0.00002  -0.00002   1.96965
   A27        1.91596   0.00000   0.00000   0.00001   0.00001   1.91597
   A28        1.87344   0.00000   0.00000  -0.00001  -0.00001   1.87343
   A29        1.82344   0.00001   0.00000   0.00012   0.00012   1.82356
   A30        1.95835   0.00000   0.00000   0.00000   0.00000   1.95836
   A31        1.99176   0.00000   0.00000   0.00000   0.00000   1.99177
   A32        1.90048  -0.00001   0.00000  -0.00008  -0.00008   1.90039
   A33        1.92297   0.00000   0.00000   0.00002   0.00002   1.92299
   A34        1.86590   0.00000   0.00000  -0.00006  -0.00006   1.86584
   A35        1.90812  -0.00001   0.00000  -0.00006  -0.00006   1.90805
   A36        2.17418   0.00001   0.00000   0.00003   0.00003   2.17421
   A37        2.19626   0.00001   0.00000   0.00003   0.00003   2.19629
    D1       -1.10217   0.00000   0.00000  -0.00002  -0.00002  -1.10219
    D2        1.03749   0.00000   0.00000  -0.00006  -0.00006   1.03742
    D3        3.07484   0.00000   0.00000   0.00001   0.00001   3.07485
    D4       -2.83153   0.00000   0.00000  -0.00002  -0.00002  -2.83155
    D5       -1.58428  -0.00001   0.00000  -0.00011  -0.00011  -1.58439
    D6        0.85335   0.00000   0.00000   0.00022   0.00022   0.85357
    D7        1.28917   0.00000   0.00000   0.00003   0.00003   1.28920
    D8        2.53642   0.00000   0.00000  -0.00005  -0.00005   2.53637
    D9       -1.30914   0.00001   0.00000   0.00028   0.00028  -1.30886
   D10       -0.75401   0.00000   0.00000   0.00001   0.00001  -0.75401
   D11        0.49323  -0.00001   0.00000  -0.00007  -0.00007   0.49316
   D12        2.93086   0.00000   0.00000   0.00025   0.00025   2.93111
   D13       -2.32103  -0.00001   0.00000  -0.00008  -0.00008  -2.32111
   D14        0.13602  -0.00001   0.00000  -0.00008  -0.00008   0.13593
   D15        0.28719  -0.00001   0.00000  -0.00026  -0.00026   0.28693
   D16        2.74423  -0.00001   0.00000  -0.00026  -0.00026   2.74398
   D17        2.49513   0.00001   0.00000   0.00012   0.00012   2.49525
   D18        0.03211   0.00001   0.00000   0.00016   0.00016   0.03227
   D19       -0.00511   0.00000   0.00000  -0.00018  -0.00018  -0.00529
   D20       -2.46813   0.00000   0.00000  -0.00015  -0.00015  -2.46828
   D21       -2.83389   0.00001   0.00000   0.00018   0.00018  -2.83371
   D22        0.20943   0.00000   0.00000   0.00014   0.00014   0.20956
   D23        0.82346   0.00001   0.00000   0.00041   0.00041   0.82387
   D24       -2.41641   0.00001   0.00000   0.00037   0.00037  -2.41604
   D25       -0.26216   0.00000   0.00000   0.00036   0.00036  -0.26180
   D26        2.78115   0.00000   0.00000   0.00032   0.00032   2.78147
   D27       -0.19944   0.00000   0.00000   0.00002   0.00002  -0.19941
   D28        2.46260   0.00000   0.00000   0.00008   0.00008   2.46268
   D29       -2.75543   0.00001   0.00000   0.00007   0.00007  -2.75536
   D30       -0.09339   0.00001   0.00000   0.00012   0.00012  -0.09327
   D31        0.26242   0.00000   0.00000  -0.00005  -0.00005   0.26237
   D32        2.41191   0.00000   0.00000  -0.00003  -0.00003   2.41187
   D33       -1.79550   0.00000   0.00000  -0.00004  -0.00004  -1.79554
   D34       -0.88929   0.00000   0.00000  -0.00005  -0.00005  -0.88934
   D35        1.26020   0.00000   0.00000  -0.00003  -0.00003   1.26017
   D36       -2.94720   0.00000   0.00000  -0.00004  -0.00004  -2.94724
   D37        2.73192   0.00000   0.00000  -0.00011  -0.00011   2.73181
   D38       -1.40178   0.00000   0.00000  -0.00009  -0.00009  -1.40187
   D39        0.67401   0.00000   0.00000  -0.00010  -0.00010   0.67391
   D40       -0.40806   0.00000   0.00000   0.00024   0.00024  -0.40782
   D41        1.64809   0.00000   0.00000   0.00021   0.00021   1.64830
   D42       -2.50929   0.00000   0.00000   0.00013   0.00013  -2.50916
   D43       -2.54994   0.00000   0.00000   0.00017   0.00017  -2.54977
   D44       -0.49380   0.00000   0.00000   0.00014   0.00014  -0.49365
   D45        1.63201   0.00000   0.00000   0.00006   0.00006   1.63207
   D46        1.64433   0.00000   0.00000   0.00019   0.00019   1.64452
   D47       -2.58271   0.00000   0.00000   0.00016   0.00016  -2.58255
   D48       -0.45690   0.00000   0.00000   0.00008   0.00008  -0.45683
   D49        0.42332   0.00000   0.00000  -0.00039  -0.00039   0.42293
   D50       -2.61844   0.00000   0.00000  -0.00035  -0.00035  -2.61879
   D51       -1.67208  -0.00001   0.00000  -0.00042  -0.00042  -1.67250
   D52        1.56934   0.00000   0.00000  -0.00038  -0.00038   1.56897
   D53        2.56992   0.00000   0.00000  -0.00030  -0.00030   2.56962
   D54       -0.47185   0.00000   0.00000  -0.00026  -0.00026  -0.47211
         Item               Value     Threshold  Converged?
 Maximum Force            0.000035     0.000450     YES
 RMS     Force            0.000007     0.000300     YES
 Maximum Displacement     0.001062     0.001800     YES
 RMS     Displacement     0.000152     0.001200     YES
 Predicted change in Energy=-2.567799D-08
 Optimization completed.
    -- Stationary point found.
                           ----------------------------
                           !   Optimized Parameters   !
                           ! (Angstroms and Degrees)  !
 --------------------------                            --------------------------
 ! Name  Definition              Value          Derivative Info.                !
 --------------------------------------------------------------------------------
 ! R1    R(1,2)                  1.4132         -DE/DX =    0.0                 !
 ! R2    R(1,10)                 0.9658         -DE/DX =    0.0                 !
 ! R3    R(2,3)                  1.5139         -DE/DX =    0.0                 !
 ! R4    R(2,11)                 1.1015         -DE/DX =    0.0                 !
 ! R5    R(2,12)                 1.0958         -DE/DX =    0.0                 !
 ! R6    R(3,4)                  1.5248         -DE/DX =    0.0                 !
 ! R7    R(3,5)                  1.5274         -DE/DX =    0.0                 !
 ! R8    R(3,8)                  1.4934         -DE/DX =    0.0                 !
 ! R9    R(4,5)                  1.4925         -DE/DX =    0.0                 !
 ! R10   R(4,13)                 1.0853         -DE/DX =    0.0                 !
 ! R11   R(4,14)                 1.0855         -DE/DX =    0.0                 !
 ! R12   R(5,6)                  1.5296         -DE/DX =    0.0                 !
 ! R13   R(5,15)                 1.0844         -DE/DX =    0.0                 !
 ! R14   R(6,7)                  1.5447         -DE/DX =    0.0                 !
 ! R15   R(6,16)                 1.0946         -DE/DX =    0.0                 !
 ! R16   R(6,17)                 1.0947         -DE/DX =    0.0                 !
 ! R17   R(7,8)                  1.5318         -DE/DX =    0.0                 !
 ! R18   R(7,18)                 1.0966         -DE/DX =    0.0                 !
 ! R19   R(7,19)                 1.0911         -DE/DX =    0.0                 !
 ! R20   R(8,9)                  1.2125         -DE/DX =    0.0                 !
 ! A1    A(2,1,10)             105.72           -DE/DX =    0.0                 !
 ! A2    A(1,2,3)              112.7227         -DE/DX =    0.0                 !
 ! A3    A(1,2,11)             111.2178         -DE/DX =    0.0                 !
 ! A4    A(1,2,12)             106.9049         -DE/DX =    0.0                 !
 ! A5    A(3,2,11)             108.8679         -DE/DX =    0.0                 !
 ! A6    A(3,2,12)             109.7497         -DE/DX =    0.0                 !
 ! A7    A(11,2,12)            107.2153         -DE/DX =    0.0                 !
 ! A8    A(2,3,4)              120.3501         -DE/DX =    0.0                 !
 ! A9    A(2,3,5)              126.6529         -DE/DX =    0.0                 !
 ! A10   A(2,3,8)              117.1724         -DE/DX =    0.0                 !
 ! A11   A(4,3,8)              115.2413         -DE/DX =    0.0                 !
 ! A12   A(5,3,8)              105.7502         -DE/DX =    0.0                 !
 ! A13   A(3,4,13)             119.5726         -DE/DX =    0.0                 !
 ! A14   A(3,4,14)             114.6568         -DE/DX =    0.0                 !
 ! A15   A(5,4,13)             120.1005         -DE/DX =    0.0                 !
 ! A16   A(5,4,14)             117.6102         -DE/DX =    0.0                 !
 ! A17   A(13,4,14)            113.9827         -DE/DX =    0.0                 !
 ! A18   A(3,5,6)              109.0521         -DE/DX =    0.0                 !
 ! A19   A(3,5,15)             119.4991         -DE/DX =    0.0                 !
 ! A20   A(4,5,6)              116.7282         -DE/DX =    0.0                 !
 ! A21   A(4,5,15)             118.6534         -DE/DX =    0.0                 !
 ! A22   A(6,5,15)             118.6658         -DE/DX =    0.0                 !
 ! A23   A(5,6,7)              105.3659         -DE/DX =    0.0                 !
 ! A24   A(5,6,16)             112.1727         -DE/DX =    0.0                 !
 ! A25   A(5,6,17)             109.307          -DE/DX =    0.0                 !
 ! A26   A(7,6,16)             112.8533         -DE/DX =    0.0                 !
 ! A27   A(7,6,17)             109.7766         -DE/DX =    0.0                 !
 ! A28   A(16,6,17)            107.3402         -DE/DX =    0.0                 !
 ! A29   A(6,7,8)              104.4753         -DE/DX =    0.0                 !
 ! A30   A(6,7,18)             112.2054         -DE/DX =    0.0                 !
 ! A31   A(6,7,19)             114.1196         -DE/DX =    0.0                 !
 ! A32   A(8,7,18)             108.8892         -DE/DX =    0.0                 !
 ! A33   A(8,7,19)             110.1779         -DE/DX =    0.0                 !
 ! A34   A(18,7,19)            106.9082         -DE/DX =    0.0                 !
 ! A35   A(3,8,7)              109.327          -DE/DX =    0.0                 !
 ! A36   A(3,8,9)              124.5712         -DE/DX =    0.0                 !
 ! A37   A(7,8,9)              125.8364         -DE/DX =    0.0                 !
 ! D1    D(10,1,2,3)           -63.1499         -DE/DX =    0.0                 !
 ! D2    D(10,1,2,11)           59.4435         -DE/DX =    0.0                 !
 ! D3    D(10,1,2,12)          176.1753         -DE/DX =    0.0                 !
 ! D4    D(1,2,3,4)           -162.2346         -DE/DX =    0.0                 !
 ! D5    D(1,2,3,5)            -90.7725         -DE/DX =    0.0                 !
 ! D6    D(1,2,3,8)             48.8932         -DE/DX =    0.0                 !
 ! D7    D(11,2,3,4)            73.8642         -DE/DX =    0.0                 !
 ! D8    D(11,2,3,5)           145.3262         -DE/DX =    0.0                 !
 ! D9    D(11,2,3,8)           -75.0081         -DE/DX =    0.0                 !
 ! D10   D(12,2,3,4)           -43.2019         -DE/DX =    0.0                 !
 ! D11   D(12,2,3,5)            28.2602         -DE/DX =    0.0                 !
 ! D12   D(12,2,3,8)           167.9259         -DE/DX =    0.0                 !
 ! D13   D(2,3,4,13)          -132.985          -DE/DX =    0.0                 !
 ! D14   D(2,3,4,14)             7.7932         -DE/DX =    0.0                 !
 ! D15   D(8,3,4,13)            16.4548         -DE/DX =    0.0                 !
 ! D16   D(8,3,4,14)           157.233          -DE/DX =    0.0                 !
 ! D17   D(2,3,5,6)            142.9605         -DE/DX =    0.0                 !
 ! D18   D(2,3,5,15)             1.8398         -DE/DX =    0.0                 !
 ! D19   D(8,3,5,6)             -0.2929         -DE/DX =    0.0                 !
 ! D20   D(8,3,5,15)          -141.4137         -DE/DX =    0.0                 !
 ! D21   D(2,3,8,7)           -162.3698         -DE/DX =    0.0                 !
 ! D22   D(2,3,8,9)             11.9992         -DE/DX =    0.0                 !
 ! D23   D(4,3,8,7)             47.1809         -DE/DX =    0.0                 !
 ! D24   D(4,3,8,9)           -138.4501         -DE/DX =    0.0                 !
 ! D25   D(5,3,8,7)            -15.0208         -DE/DX =    0.0                 !
 ! D26   D(5,3,8,9)            159.3482         -DE/DX =    0.0                 !
 ! D27   D(13,4,5,6)           -11.4269         -DE/DX =    0.0                 !
 ! D28   D(13,4,5,15)          141.0967         -DE/DX =    0.0                 !
 ! D29   D(14,4,5,6)          -157.8746         -DE/DX =    0.0                 !
 ! D30   D(14,4,5,15)           -5.351          -DE/DX =    0.0                 !
 ! D31   D(3,5,6,7)             15.0355         -DE/DX =    0.0                 !
 ! D32   D(3,5,6,16)           138.192          -DE/DX =    0.0                 !
 ! D33   D(3,5,6,17)          -102.8743         -DE/DX =    0.0                 !
 ! D34   D(4,5,6,7)            -50.9525         -DE/DX =    0.0                 !
 ! D35   D(4,5,6,16)            72.204          -DE/DX =    0.0                 !
 ! D36   D(4,5,6,17)          -168.8622         -DE/DX =    0.0                 !
 ! D37   D(15,5,6,7)           156.5275         -DE/DX =    0.0                 !
 ! D38   D(15,5,6,16)          -80.316          -DE/DX =    0.0                 !
 ! D39   D(15,5,6,17)           38.6177         -DE/DX =    0.0                 !
 ! D40   D(5,6,7,8)            -23.3798         -DE/DX =    0.0                 !
 ! D41   D(5,6,7,18)            94.4287         -DE/DX =    0.0                 !
 ! D42   D(5,6,7,19)          -143.7716         -DE/DX =    0.0                 !
 ! D43   D(16,6,7,8)          -146.1009         -DE/DX =    0.0                 !
 ! D44   D(16,6,7,18)          -28.2924         -DE/DX =    0.0                 !
 ! D45   D(16,6,7,19)           93.5073         -DE/DX =    0.0                 !
 ! D46   D(17,6,7,8)            94.2131         -DE/DX =    0.0                 !
 ! D47   D(17,6,7,18)         -147.9784         -DE/DX =    0.0                 !
 ! D48   D(17,6,7,19)          -26.1786         -DE/DX =    0.0                 !
 ! D49   D(6,7,8,3)             24.2544         -DE/DX =    0.0                 !
 ! D50   D(6,7,8,9)           -150.0258         -DE/DX =    0.0                 !
 ! D51   D(18,7,8,3)           -95.8031         -DE/DX =    0.0                 !
 ! D52   D(18,7,8,9)            89.9167         -DE/DX =    0.0                 !
 ! D53   D(19,7,8,3)           147.2455         -DE/DX =    0.0                 !
 ! D54   D(19,7,8,9)           -27.0348         -DE/DX =    0.0                 !
 --------------------------------------------------------------------------------
 GradGradGradGradGradGradGradGradGradGradGradGradGradGradGradGradGradGrad

                          Input orientation:                          
 ---------------------------------------------------------------------
 Center     Atomic      Atomic             Coordinates (Angstroms)
 Number     Number       Type             X           Y           Z
 ---------------------------------------------------------------------
      1          8           0       -0.159161   -1.155734    0.232669
      2          6           0        0.110657    0.224727    0.095705
      3          6           0       -0.505391    0.819961   -1.152562
      4          6           0       -0.012022    2.157874   -1.692481
      5          6           0        0.149074    0.931734   -2.528132
      6          6           0       -0.909171    0.689684   -3.605707
      7          6           0       -2.267438    0.813030   -2.880516
      8          6           0       -1.945295    0.520536   -1.411845
      9          8           0       -2.699829    0.019475   -0.605737
     10          1           0       -1.117962   -1.227099    0.324666
     11          1           0       -0.244644    0.789249    0.972264
     12          1           0        1.200336    0.334331    0.059272
     13          1           0       -0.731615    2.919201   -1.976123
     14          1           0        0.871117    2.548369   -1.196685
     15          1           0        1.145988    0.532694   -2.679151
     16          1           0       -0.810691    1.385300   -4.445037
     17          1           0       -0.793448   -0.322700   -4.005697
     18          1           0       -2.688091    1.822782   -2.957405
     19          1           0       -3.030767    0.122803   -3.243085
 ---------------------------------------------------------------------
                    Distance matrix (angstroms):
                    1          2          3          4          5
     1  O    0.000000
     2  C    1.413235   0.000000
     3  C    2.437644   1.513932   0.000000
     4  C    3.835082   2.636232   1.524775   0.000000
     5  C    3.474846   2.717693   1.527420   1.492543   0.000000
     6  C    4.324490   3.867388   2.489565   2.573110   1.529588
     7  C    4.244147   3.854781   2.467931   2.882176   2.444953
     8  C    2.950353   2.566544   1.493388   2.548956   2.408643
     9  O    2.922162   2.903959   2.399031   3.602508   3.555849
    10  H    0.965844   1.915653   2.597672   4.092680   3.795313
    11  H    2.082612   1.101490   2.140986   3.004682   3.525350
    12  H    2.024498   1.095783   2.147996   2.804240   2.855995
    13  H    4.670285   3.501726   2.266327   1.085304   2.242844
    14  H    4.101817   2.765481   2.210003   1.085465   2.215311
    15  H    3.610111   2.977681   2.267168   2.226144   1.084379
    16  H    5.363048   4.776416   3.354580   2.968385   2.191208
    17  H    4.365777   4.235397   3.086913   3.480638   2.155261
    18  H    5.044167   4.439398   3.004545   2.978870   3.004621
    19  H    4.686325   4.585462   3.351692   3.957109   3.358112
                    6          7          8          9         10
     6  C    0.000000
     7  C    1.544671   0.000000
     8  C    2.432118   1.531772   0.000000
     9  O    3.557451   2.447715   1.212515   0.000000
    10  H    4.377841   3.969460   2.598880   2.218535   0.000000
    11  H    4.627022   4.351572   2.940816   3.018373   2.290793
    12  H    4.243627   4.571321   3.477622   3.968962   2.807669
    13  H    2.767276   2.759101   2.746821   3.763009   4.757594
    14  H    3.525269   3.961971   3.477151   4.415447   4.530464
    15  H    2.259830   3.430833   3.340994   4.399175   4.152741
    16  H    1.094557   2.212992   3.351924   4.491608   5.446936
    17  H    1.094671   2.174526   2.960721   3.912940   4.435684
    18  H    2.206528   1.096567   2.153218   2.963511   4.747533
    19  H    2.225763   1.091119   2.165614   2.660038   4.267307
                   11         12         13         14         15
    11  H    0.000000
    12  H    1.768749   0.000000
    13  H    3.669717   3.815341   0.000000
    14  H    3.007286   2.566667   1.820382   0.000000
    15  H    3.915676   2.746137   3.116899   2.517182   0.000000
    16  H    5.479310   5.043567   2.907686   3.838358   2.770177
    17  H    5.130080   4.575024   3.825299   4.347914   2.500567
    18  H    4.741406   5.141566   2.448030   4.036654   4.054863
    19  H    5.096647   5.371457   3.835510   5.029495   4.234538
                   16         17         18         19
    16  H    0.000000
    17  H    1.763684   0.000000
    18  H    2.434968   3.048226   0.000000
    19  H    2.822645   2.405337   1.757546   0.000000
 Stoichiometry    C7H10O2
 Framework group  C1[X(C7H10O2)]
 Deg. of freedom    51
 Full point group                 C1      NOp   1
 Largest Abelian subgroup         C1      NOp   1
 Largest concise Abelian subgroup C1      NOp   1
                         Standard orientation:                         
 ---------------------------------------------------------------------
 Center     Atomic      Atomic             Coordinates (Angstroms)
 Number     Number       Type             X           Y           Z
 ---------------------------------------------------------------------
      1          8           0        2.379343    0.047619    0.852533
      2          6           0        1.759902   -0.713856   -0.164169
      3          6           0        0.273718   -0.446233   -0.271996
      4          6           0       -0.634979   -1.428594   -1.002867
      5          6           0       -0.842359   -1.192598    0.456236
      6          6           0       -1.938150   -0.198103    0.843353
      7          6           0       -1.652540    1.070608    0.009801
      8          6           0       -0.160106    0.981826   -0.323492
      9          8           0        0.586494    1.921999   -0.493359
     10          1           0        2.273092    0.970871    0.589528
     11          1           0        2.227586   -0.526368   -1.143659
     12          1           0        1.929469   -1.768637    0.079602
     13          1           0       -1.357207   -1.056515   -1.722471
     14          1           0       -0.154308   -2.355617   -1.299205
     15          1           0       -0.589279   -1.984714    1.152210
     16          1           0       -2.941224   -0.601720    0.673086
     17          1           0       -1.856373    0.033418    1.910131
     18          1           0       -2.224651    1.089466   -0.925502
     19          1           0       -1.866717    2.004575    0.531696
 ---------------------------------------------------------------------
 Rotational constants (GHZ):      2.4133326      1.5971104      1.2089055
 1\1\GINC-ALCHEMY-N\FOpt\RB3LYP\6-31G(2df,p)\C7H10O2\PUCK\28-Jan-2020\0
 \\# b3lyp 6-31G(2df,p) opt Freq\\titel\\0,1\O,-0.1591613822,-1.1557343
 777,0.2326688742\C,0.1106570539,0.224726969,0.0957054821\C,-0.50539110
 37,0.81996077,-1.1525617841\C,-0.0120221073,2.1578741698,-1.6924806177
 \C,0.1490735214,0.9317344462,-2.5281318868\C,-0.909170799,0.6896842759
 ,-3.6057073976\C,-2.2674384118,0.8130302479,-2.8805159886\C,-1.9452950
 059,0.5205357541,-1.4118449138\O,-2.6998286317,0.0194749185,-0.6057371
 839\H,-1.1179620559,-1.2270994047,0.3246658695\H,-0.244643975,0.789249
 453,0.9722644858\H,1.2003363979,0.3343305413,0.0592724046\H,-0.7316149
 174,2.9192010372,-1.9761230469\H,0.8711168887,2.5483686789,-1.19668545
 77\H,1.145987928,0.5326938652,-2.6791513091\H,-0.8106910422,1.38530048
 18,-4.4450368073\H,-0.7934479418,-0.3226997438,-4.0056969373\H,-2.6880
 913589,1.8227816648,-2.9574052259\H,-3.030767257,0.1228027225,-3.24308
 52494\\Version=ES64L-G09RevD.01\State=1-A\HF=-423.2092763\RMSD=4.267e-
 09\RMSF=1.630e-05\Dipole=0.3452062,0.8973112,-0.9044344\Quadrupole=-0.
 6558722,-0.1475497,0.8034219,1.0597877,1.3193768,2.1241536\PG=C01 [X(C
 7H10O2)]\\@


 SEEN ON A WALL AT THE UNIVERSITY OF ILLINOIS AT CHICAGO CIRCLE:

 TO DO IS TO BE  -- SOCRATES
 TO BE IS TO DO  -- SARTRE
 OO BE DO BE DO  -- SINATRA
 Job cpu time:       0 days  0 hours  6 minutes 52.1 seconds.
 File lengths (MBytes):  RWF=     52 Int=      0 D2E=      0 Chk=      7 Scr=      1
 Normal termination of Gaussian 09 at Tue Jan 28 09:50:48 2020.
 Link1:  Proceeding to internal job step number  2.
 ----------------------------------------------------------------------
 #N Geom=AllCheck Guess=TCheck SCRF=Check GenChk RB3LYP/6-31G(2df,p) Fr
 eq
 ----------------------------------------------------------------------
 1/10=4,29=7,30=1,38=1,40=1/1,3;
 2/12=2,40=1/2;
 3/5=1,6=6,7=104,11=2,14=-4,16=1,25=1,30=1,70=2,71=2,74=-5,116=1,140=1/1,2,3;
 4/5=101/1;
 5/5=2,98=1/2;
 8/6=4,10=90,11=11/1;
 11/6=1,8=1,9=11,15=111,16=1/1,2,10;
 10/6=1/2;
 6/7=2,8=2,9=2,10=2,18=1,28=1/1;
 7/8=1,10=1,25=1/1,2,3,16;
 1/10=4,30=1/3;
 99//99;
 Structure from the checkpoint file:  "/scratch/puck/g09_a66a1822-4746-4ed7-acc8-fe0f276e6388/Gau-106645.chk"
 -----
 titel
 -----
 Charge =  0 Multiplicity = 1
 Redundant internal coordinates found in file.
 O,0,-0.1591613822,-1.1557343777,0.2326688742
 C,0,0.1106570539,0.224726969,0.0957054821
 C,0,-0.5053911037,0.81996077,-1.1525617841
 C,0,-0.0120221073,2.1578741698,-1.6924806177
 C,0,0.1490735214,0.9317344462,-2.5281318868
 C,0,-0.909170799,0.6896842759,-3.6057073976
 C,0,-2.2674384118,0.8130302479,-2.8805159886
 C,0,-1.9452950059,0.5205357541,-1.4118449138
 O,0,-2.6998286317,0.0194749185,-0.6057371839
 H,0,-1.1179620559,-1.2270994047,0.3246658695
 H,0,-0.244643975,0.789249453,0.9722644858
 H,0,1.2003363979,0.3343305413,0.0592724046
 H,0,-0.7316149174,2.9192010372,-1.9761230469
 H,0,0.8711168887,2.5483686789,-1.1966854577
 H,0,1.145987928,0.5326938652,-2.6791513091
 H,0,-0.8106910422,1.3853004818,-4.4450368073
 H,0,-0.7934479418,-0.3226997438,-4.0056969373
 H,0,-2.6880913589,1.8227816648,-2.9574052259
 H,0,-3.030767257,0.1228027225,-3.2430852494
 Recover connectivity data from disk.

 GradGradGradGradGradGradGradGradGradGradGradGradGradGradGradGradGradGrad
 Berny optimization.
 Initialization pass.
                           ----------------------------
                           !    Initial Parameters    !
                           ! (Angstroms and Degrees)  !
 --------------------------                            --------------------------
 ! Name  Definition              Value          Derivative Info.                !
 --------------------------------------------------------------------------------
 ! R1    R(1,2)                  1.4132         calculate D2E/DX2 analytically  !
 ! R2    R(1,10)                 0.9658         calculate D2E/DX2 analytically  !
 ! R3    R(2,3)                  1.5139         calculate D2E/DX2 analytically  !
 ! R4    R(2,11)                 1.1015         calculate D2E/DX2 analytically  !
 ! R5    R(2,12)                 1.0958         calculate D2E/DX2 analytically  !
 ! R6    R(3,4)                  1.5248         calculate D2E/DX2 analytically  !
 ! R7    R(3,5)                  1.5274         calculate D2E/DX2 analytically  !
 ! R8    R(3,8)                  1.4934         calculate D2E/DX2 analytically  !
 ! R9    R(4,5)                  1.4925         calculate D2E/DX2 analytically  !
 ! R10   R(4,13)                 1.0853         calculate D2E/DX2 analytically  !
 ! R11   R(4,14)                 1.0855         calculate D2E/DX2 analytically  !
 ! R12   R(5,6)                  1.5296         calculate D2E/DX2 analytically  !
 ! R13   R(5,15)                 1.0844         calculate D2E/DX2 analytically  !
 ! R14   R(6,7)                  1.5447         calculate D2E/DX2 analytically  !
 ! R15   R(6,16)                 1.0946         calculate D2E/DX2 analytically  !
 ! R16   R(6,17)                 1.0947         calculate D2E/DX2 analytically  !
 ! R17   R(7,8)                  1.5318         calculate D2E/DX2 analytically  !
 ! R18   R(7,18)                 1.0966         calculate D2E/DX2 analytically  !
 ! R19   R(7,19)                 1.0911         calculate D2E/DX2 analytically  !
 ! R20   R(8,9)                  1.2125         calculate D2E/DX2 analytically  !
 ! A1    A(2,1,10)             105.72           calculate D2E/DX2 analytically  !
 ! A2    A(1,2,3)              112.7227         calculate D2E/DX2 analytically  !
 ! A3    A(1,2,11)             111.2178         calculate D2E/DX2 analytically  !
 ! A4    A(1,2,12)             106.9049         calculate D2E/DX2 analytically  !
 ! A5    A(3,2,11)             108.8679         calculate D2E/DX2 analytically  !
 ! A6    A(3,2,12)             109.7497         calculate D2E/DX2 analytically  !
 ! A7    A(11,2,12)            107.2153         calculate D2E/DX2 analytically  !
 ! A8    A(2,3,4)              120.3501         calculate D2E/DX2 analytically  !
 ! A9    A(2,3,5)              126.6529         calculate D2E/DX2 analytically  !
 ! A10   A(2,3,8)              117.1724         calculate D2E/DX2 analytically  !
 ! A11   A(4,3,8)              115.2413         calculate D2E/DX2 analytically  !
 ! A12   A(5,3,8)              105.7502         calculate D2E/DX2 analytically  !
 ! A13   A(3,4,13)             119.5726         calculate D2E/DX2 analytically  !
 ! A14   A(3,4,14)             114.6568         calculate D2E/DX2 analytically  !
 ! A15   A(5,4,13)             120.1005         calculate D2E/DX2 analytically  !
 ! A16   A(5,4,14)             117.6102         calculate D2E/DX2 analytically  !
 ! A17   A(13,4,14)            113.9827         calculate D2E/DX2 analytically  !
 ! A18   A(3,5,6)              109.0521         calculate D2E/DX2 analytically  !
 ! A19   A(3,5,15)             119.4991         calculate D2E/DX2 analytically  !
 ! A20   A(4,5,6)              116.7282         calculate D2E/DX2 analytically  !
 ! A21   A(4,5,15)             118.6534         calculate D2E/DX2 analytically  !
 ! A22   A(6,5,15)             118.6658         calculate D2E/DX2 analytically  !
 ! A23   A(5,6,7)              105.3659         calculate D2E/DX2 analytically  !
 ! A24   A(5,6,16)             112.1727         calculate D2E/DX2 analytically  !
 ! A25   A(5,6,17)             109.307          calculate D2E/DX2 analytically  !
 ! A26   A(7,6,16)             112.8533         calculate D2E/DX2 analytically  !
 ! A27   A(7,6,17)             109.7766         calculate D2E/DX2 analytically  !
 ! A28   A(16,6,17)            107.3402         calculate D2E/DX2 analytically  !
 ! A29   A(6,7,8)              104.4753         calculate D2E/DX2 analytically  !
 ! A30   A(6,7,18)             112.2054         calculate D2E/DX2 analytically  !
 ! A31   A(6,7,19)             114.1196         calculate D2E/DX2 analytically  !
 ! A32   A(8,7,18)             108.8892         calculate D2E/DX2 analytically  !
 ! A33   A(8,7,19)             110.1779         calculate D2E/DX2 analytically  !
 ! A34   A(18,7,19)            106.9082         calculate D2E/DX2 analytically  !
 ! A35   A(3,8,7)              109.327          calculate D2E/DX2 analytically  !
 ! A36   A(3,8,9)              124.5712         calculate D2E/DX2 analytically  !
 ! A37   A(7,8,9)              125.8364         calculate D2E/DX2 analytically  !
 ! D1    D(10,1,2,3)           -63.1499         calculate D2E/DX2 analytically  !
 ! D2    D(10,1,2,11)           59.4435         calculate D2E/DX2 analytically  !
 ! D3    D(10,1,2,12)          176.1753         calculate D2E/DX2 analytically  !
 ! D4    D(1,2,3,4)           -162.2346         calculate D2E/DX2 analytically  !
 ! D5    D(1,2,3,5)            -90.7725         calculate D2E/DX2 analytically  !
 ! D6    D(1,2,3,8)             48.8932         calculate D2E/DX2 analytically  !
 ! D7    D(11,2,3,4)            73.8642         calculate D2E/DX2 analytically  !
 ! D8    D(11,2,3,5)           145.3262         calculate D2E/DX2 analytically  !
 ! D9    D(11,2,3,8)           -75.0081         calculate D2E/DX2 analytically  !
 ! D10   D(12,2,3,4)           -43.2019         calculate D2E/DX2 analytically  !
 ! D11   D(12,2,3,5)            28.2602         calculate D2E/DX2 analytically  !
 ! D12   D(12,2,3,8)           167.9259         calculate D2E/DX2 analytically  !
 ! D13   D(2,3,4,13)          -132.985          calculate D2E/DX2 analytically  !
 ! D14   D(2,3,4,14)             7.7932         calculate D2E/DX2 analytically  !
 ! D15   D(8,3,4,13)            16.4548         calculate D2E/DX2 analytically  !
 ! D16   D(8,3,4,14)           157.233          calculate D2E/DX2 analytically  !
 ! D17   D(2,3,5,6)            142.9605         calculate D2E/DX2 analytically  !
 ! D18   D(2,3,5,15)             1.8398         calculate D2E/DX2 analytically  !
 ! D19   D(8,3,5,6)             -0.2929         calculate D2E/DX2 analytically  !
 ! D20   D(8,3,5,15)          -141.4137         calculate D2E/DX2 analytically  !
 ! D21   D(2,3,8,7)           -162.3698         calculate D2E/DX2 analytically  !
 ! D22   D(2,3,8,9)             11.9992         calculate D2E/DX2 analytically  !
 ! D23   D(4,3,8,7)             47.1809         calculate D2E/DX2 analytically  !
 ! D24   D(4,3,8,9)           -138.4501         calculate D2E/DX2 analytically  !
 ! D25   D(5,3,8,7)            -15.0208         calculate D2E/DX2 analytically  !
 ! D26   D(5,3,8,9)            159.3482         calculate D2E/DX2 analytically  !
 ! D27   D(13,4,5,6)           -11.4269         calculate D2E/DX2 analytically  !
 ! D28   D(13,4,5,15)          141.0967         calculate D2E/DX2 analytically  !
 ! D29   D(14,4,5,6)          -157.8746         calculate D2E/DX2 analytically  !
 ! D30   D(14,4,5,15)           -5.351          calculate D2E/DX2 analytically  !
 ! D31   D(3,5,6,7)             15.0355         calculate D2E/DX2 analytically  !
 ! D32   D(3,5,6,16)           138.192          calculate D2E/DX2 analytically  !
 ! D33   D(3,5,6,17)          -102.8743         calculate D2E/DX2 analytically  !
 ! D34   D(4,5,6,7)            -50.9525         calculate D2E/DX2 analytically  !
 ! D35   D(4,5,6,16)            72.204          calculate D2E/DX2 analytically  !
 ! D36   D(4,5,6,17)          -168.8622         calculate D2E/DX2 analytically  !
 ! D37   D(15,5,6,7)           156.5275         calculate D2E/DX2 analytically  !
 ! D38   D(15,5,6,16)          -80.316          calculate D2E/DX2 analytically  !
 ! D39   D(15,5,6,17)           38.6177         calculate D2E/DX2 analytically  !
 ! D40   D(5,6,7,8)            -23.3798         calculate D2E/DX2 analytically  !
 ! D41   D(5,6,7,18)            94.4287         calculate D2E/DX2 analytically  !
 ! D42   D(5,6,7,19)          -143.7716         calculate D2E/DX2 analytically  !
 ! D43   D(16,6,7,8)          -146.1009         calculate D2E/DX2 analytically  !
 ! D44   D(16,6,7,18)          -28.2924         calculate D2E/DX2 analytically  !
 ! D45   D(16,6,7,19)           93.5073         calculate D2E/DX2 analytically  !
 ! D46   D(17,6,7,8)            94.2131         calculate D2E/DX2 analytically  !
 ! D47   D(17,6,7,18)         -147.9784         calculate D2E/DX2 analytically  !
 ! D48   D(17,6,7,19)          -26.1786         calculate D2E/DX2 analytically  !
 ! D49   D(6,7,8,3)             24.2544         calculate D2E/DX2 analytically  !
 ! D50   D(6,7,8,9)           -150.0258         calculate D2E/DX2 analytically  !
 ! D51   D(18,7,8,3)           -95.8031         calculate D2E/DX2 analytically  !
 ! D52   D(18,7,8,9)            89.9167         calculate D2E/DX2 analytically  !
 ! D53   D(19,7,8,3)           147.2455         calculate D2E/DX2 analytically  !
 ! D54   D(19,7,8,9)           -27.0348         calculate D2E/DX2 analytically  !
 --------------------------------------------------------------------------------
 Trust Radius=3.00D-01 FncErr=1.00D-07 GrdErr=1.00D-07
 Number of steps in this run=      2 maximum allowed number of steps=      2.
 GradGradGradGradGradGradGradGradGradGradGradGradGradGradGradGradGradGrad

                          Input orientation:                          
 ---------------------------------------------------------------------
 Center     Atomic      Atomic             Coordinates (Angstroms)
 Number     Number       Type             X           Y           Z
 ---------------------------------------------------------------------
      1          8           0       -0.159161   -1.155734    0.232669
      2          6           0        0.110657    0.224727    0.095705
      3          6           0       -0.505391    0.819961   -1.152562
[...]
 3539,0.00075603,0.00391233,-0.00306705,-0.01598083,-0.00221916,-0.0512
 1864,-0.14395186,0.08415544,-0.03568208,0.60170445,-0.00109624,0.00308
 622,-0.00380643,0.00705409,0.02391048,0.00027384,-0.02084442,0.0246815
 6,-0.05059682,0.17913414,0.04048080,0.31232662,0.00030479,0.00032460,0
 .00127577,0.00688387,-0.01141824,-0.01092170,-0.08983596,-0.00074325,0
 .04403558,-0.07066123,0.04167553,-0.00204769,0.63381090,-0.00041801,-0
 .00082158,-0.00081936,-0.00625873,-0.00020657,0.00772449,0.02633621,-0
 .01604951,-0.00680727,0.02326985,-0.16456738,-0.06874806,-0.12102602,0
 .35536931,0.00029825,0.00024610,0.00367160,0.00724651,-0.00787821,-0.0
 1881185,0.04058569,0.03491899,-0.14127048,-0.00561154,-0.12047972,-0.0
 9220315,-0.02119738,0.12784331,0.45501597,-0.00012921,-0.00035495,0.00
 009345,-0.00191716,0.00091916,0.00135796,0.00441380,0.00106152,-0.0037
 5684,0.00165760,-0.00292777,-0.00361657,-0.12893489,-0.00385592,-0.054
 92716,0.40037602,-0.00008280,-0.00048586,-0.00035446,-0.00199349,0.002
 47877,0.00248753,0.00976020,-0.00045556,0.01253798,-0.02308912,-0.0063
 2339,-0.02565464,-0.00757275,-0.07605845,-0.01592224,-0.00645133,0.590
 58327,-0.00015117,-0.00003322,0.00061782,0.00237901,-0.00289109,-0.002
 05782,-0.01139583,-0.00193160,-0.02958505,-0.00206742,-0.00295980,-0.0
 0928744,-0.05007543,-0.01626520,-0.12505201,-0.02394469,-0.01816367,0.
 55430927,0.00123809,0.00037095,0.00020973,-0.00522642,-0.00256358,0.00
 150604,-0.01252313,0.00135863,-0.02630578,-0.00201390,-0.00043386,-0.0
 0191233,-0.03611715,0.00217188,0.00017942,-0.14529250,0.00684696,0.038
 28697,0.54016477,0.00032752,0.00053110,0.00004780,-0.00378890,-0.00002
 132,0.00194486,-0.00244346,0.02214956,-0.00557751,0.00322418,0.0015717
 0,0.00260409,-0.00868772,0.00020472,0.00351883,0.00543463,-0.07870481,
 -0.00848676,0.03508513,0.55070008,-0.00010705,0.00052286,0.00029927,-0
 .00087835,-0.00163524,0.00061860,-0.01032226,0.00585464,-0.01376089,-0
 .00068310,-0.00074581,-0.00068166,-0.01606970,0.00432991,0.00934241,0.
 03697511,-0.00603185,-0.09566031,0.05739468,0.02448247,0.40650706,-0.0
 0707425,-0.00782034,0.00212057,-0.01295493,0.00955867,-0.01561105,-0.1
 5637665,0.00101765,-0.04767201,-0.00540976,-0.00513895,0.02149910,-0.0
 2273179,-0.01921913,0.02831346,0.00048956,-0.00596780,0.02944353,-0.09
 358554,-0.00065877,-0.04091085,0.65207953,-0.00432517,-0.00315388,-0.0
 0083037,0.01601125,0.00840036,-0.00276958,-0.00884450,-0.07769844,-0.0
 0442215,-0.03345620,-0.00930345,-0.00005327,0.01362218,-0.00391201,0.0
 0619172,-0.00618342,-0.00017657,0.00155843,0.00357596,-0.08622428,0.00
 396821,0.18352970,0.35886336,0.00630097,0.00108423,0.00184043,-0.03280
 150,-0.00959163,-0.00035803,-0.05375966,0.00235992,-0.09639198,0.00081
 463,-0.00057020,-0.00192482,0.03020901,0.00372113,-0.00776963,0.020671
 64,0.00464402,-0.02482824,-0.02348058,-0.00088117,-0.13480569,-0.19738
 416,-0.19954580,0.67089784,-0.00183775,0.00450643,-0.00194014,0.004165
 98,-0.00133953,0.00426693,-0.04110251,-0.03374216,0.03673022,-0.003234
 99,0.00306784,-0.00574967,-0.00378267,0.00218405,-0.00635029,0.0006047
 7,0.00126894,-0.00323330,0.01725950,-0.00532683,0.01223143,-0.34793585
 ,-0.17258217,0.26053944,0.37913385,0.00754278,0.00280153,0.00137850,-0
 .00141342,-0.00825056,0.00257639,-0.02743304,0.00816063,0.01901263,0.0
 0374772,0.00145020,-0.00115881,-0.00540208,0.00380378,-0.00443485,0.00
 298722,0.00021923,0.00143226,-0.01275099,0.00870705,0.01945096,-0.1673
 0487,-0.18140215,0.18097757,0.20531074,0.16134557,-0.00709486,-0.00222
 966,0.00060834,0.00284636,0.00562553,-0.00470720,0.02393302,0.01299594
 ,0.00934330,-0.00028450,-0.00182337,0.00490143,-0.00406424,-0.00310251
 ,0.00346936,-0.00512079,0.00337495,-0.00617552,0.02646178,0.02601368,-
 0.03543064,0.25583840,0.18055884,-0.38140188,-0.30360605,-0.21637710,0
 .40697035,-0.49299736,-0.04773849,0.04921858,-0.01186667,-0.00308732,0
 .00253880,-0.00063392,0.00035380,0.00051774,-0.00089998,0.00038148,-0.
 00114150,-0.00046537,0.00051737,-0.00008728,0.00033068,0.00003380,0.00
 019699,-0.00079322,-0.00011737,0.00065125,0.00754027,0.00417800,-0.004
 34451,-0.00456526,-0.00412076,0.00342139,0.50134977,0.00565311,-0.0446
 9995,0.00220043,-0.05034673,-0.01466904,0.00563256,0.00031365,0.001238
 93,0.00065673,0.00003881,-0.00017897,0.00036321,-0.00001389,-0.0004151
 5,0.00025923,-0.00012367,0.00018410,-0.00011400,0.00051455,-0.00003580
 ,-0.00068189,-0.00300105,-0.00319074,0.00549011,-0.00082001,0.00238018
 ,-0.00442670,0.04834655,0.06546766,0.04614935,0.00769754,-0.01318586,0
 .00405155,-0.00050368,-0.00039168,0.00144869,-0.00035651,0.00100543,-0
 .00011170,0.00005634,-0.00053340,0.00016895,0.00037413,-0.00057573,0.0
 0008278,0.00013363,-0.00001153,-0.00008272,0.00029921,0.00014751,0.001
 51760,0.00388626,-0.00402715,-0.00026303,-0.00316334,0.00063640,-0.050
 54235,-0.00871854,0.01529910,0.00710751,-0.00724022,-0.00656113,-0.083
 58990,0.04073146,0.06811721,0.00657251,-0.00486003,-0.01444816,0.00044
 907,-0.00075048,0.00090025,-0.00143696,0.00037277,-0.00123892,0.000283
 73,0.00021174,-0.00043795,0.00005850,0.00024929,-0.00004581,0.00072955
 ,-0.00022514,-0.00005322,-0.00009240,0.00004941,0.00053624,0.00113439,
 -0.00016889,-0.00137482,0.07952064,0.00526940,-0.04038145,-0.02450781,
 0.03663381,-0.09761489,-0.08976174,-0.00327420,0.00588106,0.01131198,0
 .00017164,0.00169064,-0.00218561,0.00206835,0.00106662,0.00267048,-0.0
 0047638,-0.00061932,0.00061462,-0.00012788,-0.00024759,0.00002475,-0.0
 0069385,-0.00047026,0.00009526,0.00010070,0.00095543,-0.00021897,0.002
 80147,0.00099722,0.00041837,-0.04311599,0.12578910,-0.00322562,-0.0002
 9483,0.00971895,0.06727943,-0.09183969,-0.20495859,0.00969321,-0.00932
 450,-0.02842239,0.00001474,0.00001202,0.00157734,-0.00448873,-0.000346
 47,-0.00120071,0.00068250,0.00140219,-0.00096680,0.00023231,0.00000238
 ,-0.00016592,0.00274966,0.00096466,-0.00100436,-0.00104124,-0.00062394
 ,0.00186207,-0.00027888,-0.00079404,0.00075487,-0.07157309,0.10072505,
 0.22352169,-0.00600103,-0.00863659,0.00151615,-0.30305143,-0.01753465,
 0.01020351,-0.01396138,0.00019426,-0.00033640,-0.00015767,-0.00041290,
 0.00045773,0.00092730,-0.00093972,0.00087345,-0.00018579,-0.00012723,-
 0.00006173,-0.00052624,-0.00041519,-0.00009166,0.00078053,0.00134007,-
 0.00125503,0.00035090,0.00028234,-0.00005548,0.00241045,-0.00094032,-0
 .00042020,-0.01044671,0.00049749,0.00040842,0.32861637,-0.04270073,-0.
 01428560,0.00397186,-0.00739073,-0.04765318,-0.00056877,0.01106021,0.0
 0207530,-0.00117031,0.00069156,0.00087506,-0.00012457,-0.00040509,0.00
 025027,-0.00012913,0.00010633,0.00007567,-0.00016474,0.00073412,0.0003
 7122,0.00001370,-0.00001887,-0.00114171,0.00238601,-0.00015624,0.00068
 042,-0.00021044,-0.00136334,-0.00741370,0.00029274,0.01460592,0.002989
 77,-0.00034848,0.02531662,0.06360689,0.00416446,0.00258167,0.00167914,
 0.01131266,-0.00084500,-0.05038137,-0.03105452,0.00026616,-0.00269962,
 -0.00043808,-0.00104469,0.00092901,-0.00084123,-0.00068241,0.00184757,
 -0.00011567,-0.00026287,0.00011094,-0.00137076,-0.00123044,-0.00028940
 ,0.00091722,0.00380007,-0.00499085,0.00000765,-0.00061932,0.00144002,-
 0.00033796,0.00076091,0.00054227,0.02630250,0.00086208,-0.00024224,-0.
 00990213,-0.00394252,0.05247959,0.00032063,-0.00094339,0.00107978,-0.0
 0098707,-0.00155335,-0.00153092,0.00999354,-0.01020688,0.00503183,-0.1
 7784701,0.13504915,-0.05794307,-0.00616271,0.00171579,-0.00221238,0.00
 003107,-0.00125781,-0.00060350,0.00011506,-0.00081387,-0.00026684,0.00
 103187,0.00010206,0.00069893,0.00021404,-0.00002768,0.00000983,0.00016
 941,0.00006045,-0.00005036,-0.00006632,0.00008407,0.00010289,0.0002340
 6,-0.00013924,0.00016546,0.18554807,0.00023557,-0.00056281,0.00110345,
 -0.00079803,-0.00121885,-0.00259520,0.00809506,-0.01383268,0.00184815,
 0.13268432,-0.17852662,0.05029856,0.00713722,-0.01265061,0.00442751,0.
 00150916,0.00149346,-0.00028911,0.00035441,-0.00070141,-0.00020878,0.0
 0306516,0.00149638,0.00236963,-0.00115094,-0.00088341,0.00006042,0.000
 19831,0.00008095,-0.00007360,-0.00004661,0.00002047,0.00025142,0.00027
 104,0.00004570,0.00009173,-0.14084664,0.19571712,-0.00001020,0.0015451
 0,-0.00155384,0.00107964,0.00275126,0.00247547,-0.01319444,0.00868546,
 -0.00783164,-0.05811479,0.05053253,-0.06017128,0.02027983,-0.01497836,
 0.00834296,0.00049525,0.00200639,0.00153720,-0.00048086,0.00014452,-0.
 00005794,-0.00153951,-0.00212444,0.00086374,0.00008788,0.00016641,-0.0
 0041120,-0.00027796,0.00002301,-0.00000324,0.00003757,-0.00009701,-0.0
 0009962,0.00002957,-0.00023916,0.00015587,0.05994159,-0.05372425,0.060
 40419,0.00022838,0.00026370,-0.00019822,0.00082134,0.00205279,-0.00072
 639,-0.01130667,-0.00553824,-0.00587240,-0.23944783,-0.07875518,-0.114
 96370,0.01017005,0.00355647,0.00654381,0.00003045,0.00260171,0.0003930
 4,-0.00054239,0.00090882,-0.00008012,0.00239474,-0.00174601,0.00061470
 ,-0.00112068,0.00000607,0.00036555,-0.00013732,0.00018522,-0.00024444,
 -0.00000829,-0.00025561,0.00032266,0.00046766,-0.00024634,0.00064492,-
 0.01293007,-0.00825769,-0.00717434,0.25012220,0.00063718,0.00057858,-0
 .00017647,-0.00215897,0.00154506,-0.00007717,-0.01625452,-0.01124413,-
 0.00914783,-0.07715738,-0.08066580,-0.04491480,-0.01350545,-0.00760681
 ,-0.00574339,0.00095550,-0.00249715,0.00123277,0.00004827,0.00099972,0
 .00018076,0.00489756,-0.00237388,-0.00057125,-0.00159025,-0.00027244,0
 .00086009,-0.00022814,0.00025345,-0.00018787,0.00024504,-0.00010426,0.
 00057841,0.00074689,-0.00033789,0.00012050,0.01719072,0.00968704,0.009
 56433,0.08691296,0.09013474,-0.00029928,-0.00126914,0.00037082,-0.0000
 7296,-0.00081907,0.00006052,0.02118211,0.00941715,0.01076517,-0.114401
 83,-0.04800137,-0.09621146,-0.02183045,-0.00564528,-0.01167894,0.00152
 276,-0.00539261,-0.00009349,0.00090966,-0.00090188,0.00023940,-0.00434
 432,0.00418555,-0.00128430,0.00229639,-0.00016746,-0.00079295,0.000360
 47,-0.00016061,0.00012707,0.00019803,-0.00019080,-0.00022750,-0.000162
 15,-0.00006819,0.00022758,-0.00445260,-0.00340560,-0.00314122,0.119594
 15,0.04991635,0.10159518,0.00028535,-0.00040694,0.00010777,0.00054069,
 0.00013095,-0.00124904,-0.00778049,0.00398582,-0.00052779,0.00479888,-
 0.00327494,0.00035105,-0.29264516,0.10045894,0.03432998,-0.01251349,0.
 00509468,0.00504260,-0.00091414,-0.00040977,-0.00292634,-0.00012066,0.
 00140291,0.00050825,-0.00029841,-0.00070490,0.00040972,-0.00011485,0.0
 0013687,-0.00014476,0.00009525,-0.00002586,-0.00015304,0.00038974,-0.0
 0010524,0.00050518,0.00070788,-0.00102394,-0.00091551,0.00048850,0.000
 24823,0.00063923,0.30762294,0.00003110,0.00032248,-0.00028822,0.001059
 83,0.00021437,-0.00099025,-0.01487036,0.00345567,-0.00159675,0.0267662
 6,-0.01105003,-0.00279125,0.10174110,-0.07788022,-0.01814346,-0.006448
 45,0.00143308,0.00130135,-0.00156979,0.00067744,-0.00123801,0.00011460
 ,0.00184355,0.00265128,-0.00117705,-0.00151580,0.00017334,-0.00018814,
 0.00005359,-0.00006816,-0.00001342,-0.00003233,-0.00021424,0.00023465,
 -0.00005446,-0.00003155,0.00169936,-0.00145773,-0.00470642,-0.00127576
 ,0.00123695,0.00253770,-0.10546782,0.08213487,-0.00038062,0.00048773,-
 0.00047600,0.00065579,0.00080749,0.00277791,0.02326560,-0.01068924,-0.
 00306345,0.00598174,-0.00245481,-0.00424307,0.03058005,-0.01653315,-0.
 05083663,-0.01910824,0.00832336,0.00703923,-0.00200194,-0.00128745,-0.
 00271693,-0.00375316,-0.00396738,-0.00516360,0.00207383,0.00183051,0.0
 0028904,0.00011462,-0.00017750,0.00013225,-0.00023260,-0.00012256,0.00
 030695,-0.00092936,0.00003189,-0.00028892,0.00002110,0.00089241,-0.000
 34162,0.00036706,-0.00065483,0.00064242,-0.03632895,0.02270728,0.05415
 883,0.00017449,0.00023284,0.00004709,0.00095503,-0.00119222,-0.0008807
 5,-0.00203043,0.00083553,-0.00255521,0.00091243,0.00055987,0.00268974,
 0.00307002,0.01418118,-0.01894809,-0.04837930,-0.01501579,0.01765357,-
 0.00218085,-0.01681664,0.02261108,-0.00730499,0.00032189,-0.00156464,0
 .00102997,-0.00088523,0.00299347,-0.00020409,0.00008873,-0.00006170,-0
 .00020814,0.00026013,-0.00051322,0.00008341,-0.00001728,0.00011518,0.0
 0024799,-0.00049056,-0.00012944,-0.00014003,0.00011101,0.00013921,-0.0
 0028283,0.00013801,0.00006192,0.05305080,0.00004904,0.00005074,0.00015
 413,0.00031937,-0.00028486,-0.00039061,-0.00050797,0.00029428,-0.00286
 199,0.00008838,0.00243222,0.00058636,0.00111354,0.00409499,-0.00554169
 ,-0.01559407,-0.15904753,0.12872488,0.00064919,0.00242990,-0.00471111,
 0.00110506,0.00067379,-0.00146112,-0.00009462,0.00009516,-0.00049093,0
 .00002337,-0.00000734,-0.00006761,-0.00004205,0.00004887,-0.00013789,0
 .00001333,-0.00000974,0.00002861,0.00035212,-0.00007305,0.00064534,-0.
 00008860,0.00013356,0.00017408,0.00005707,-0.00010274,0.00045917,0.015
 60967,0.16760232,0.00002970,0.00026833,0.00006897,0.00080352,-0.001431
 03,-0.00069701,-0.00388698,0.00129432,-0.00120185,0.00076846,0.0005694
 7,0.00218189,0.00087718,0.01211979,-0.01886482,0.01897766,0.12605214,-
 0.19401091,0.00087539,0.00684652,-0.00853215,0.00168265,0.00041722,-0.
 00059220,-0.00003836,0.00028842,-0.00101790,-0.00000440,-0.00011978,0.
 00005425,-0.00012550,0.00030228,-0.00051607,0.00000228,-0.00001188,0.0
 0005029,0.00037276,-0.00075674,-0.00048111,-0.00003666,-0.00012276,0.0
 0020576,-0.00034481,0.00006805,-0.00033298,-0.01894549,-0.13825429,0.2
 1390260,0.00005928,0.00016756,-0.00004664,0.00013081,-0.00014275,0.000
 13619,0.00067193,0.00084663,0.00094785,-0.00401706,-0.00056888,-0.0028
 9561,0.00187010,-0.02434898,-0.01026042,-0.04678706,0.02492095,0.00980
 433,-0.00622769,0.02723235,0.01158571,-0.00233169,0.00140558,-0.001833
 63,0.00053079,-0.00077492,0.00069750,-0.00008386,0.00004558,-0.0000071
 8,-0.00003529,0.00000001,-0.00001347,0.00002401,-0.00003063,0.00000241
 ,-0.00017181,0.00003325,0.00034456,0.00057008,-0.00054893,-0.00130305,
 0.00082295,0.00010763,0.00081122,0.00043125,-0.00270433,-0.00104407,0.
 05713319,0.00001089,0.00024522,-0.00001515,0.00011433,-0.00023147,0.00
 007597,0.00028252,-0.00005433,-0.00079976,-0.00130865,0.00128836,0.000
 03185,-0.00021921,-0.00433830,-0.00159981,0.02506311,-0.27370817,-0.08
 466793,0.00021532,-0.00081417,0.00022304,-0.00013990,-0.00006493,0.000
 00790,0.00019644,0.00011477,-0.00025569,0.00001019,-0.00006735,-0.0000
 0556,-0.00001125,0.00003256,-0.00003593,0.00000343,-0.00000220,-0.0000
 0637,-0.00011762,0.00023955,0.00040105,0.00021648,0.00011168,-0.000391
 97,-0.00034268,0.00064404,-0.00005621,0.00207711,-0.01972533,-0.007381
 83,-0.02638146,0.29382962,0.00006124,0.00033809,0.00013609,-0.00011525
 ,-0.00046990,0.00010235,0.00082469,0.00017340,0.00107979,-0.00432344,0
 .00002911,-0.00134782,0.00157032,-0.02256434,-0.00980290,0.01047210,-0
 .08316012,-0.08181563,0.00165510,-0.01227466,-0.00472491,0.00021188,-0
 .00082943,-0.00035126,0.00037905,0.00074063,-0.00030576,0.00004685,-0.
 00008033,-0.00005770,-0.00002486,0.00005907,0.00003621,0.00000295,0.00
 001501,-0.00004672,0.00006172,0.00010956,0.00017624,0.00057074,-0.0005
 0140,-0.00115411,0.00019686,0.00057486,0.00106947,-0.00244375,0.023098
 64,0.00947536,-0.01006146,0.09459986,0.08728046,0.00007104,-0.00006841
 ,0.00005316,-0.00002705,-0.00026974,-0.00027061,-0.00076104,-0.0007693
 9,-0.00025897,-0.00075473,0.00026402,-0.00075097,-0.00089446,0.0009902
 4,-0.00013267,-0.00874689,0.02520481,-0.00159577,-0.07849141,0.0902003
 1,-0.00730447,-0.00298355,0.00496376,-0.00055333,-0.00030082,0.0002181
 5,0.00113479,-0.00006608,0.00004011,-0.00005483,-0.00004348,0.00004944
 ,-0.00007926,0.00000178,0.00001621,0.00003016,-0.00047165,-0.00078795,
 -0.00050321,0.00016491,-0.00044444,0.00017453,-0.00047278,-0.00065161,
 -0.00012187,0.00191848,-0.00030550,-0.00042750,-0.00404343,0.00010973,
 0.00134776,0.08740061,0.00000573,0.00004708,0.00004146,0.00006985,0.00
 005627,-0.00000844,0.00056648,-0.00059232,0.00049865,-0.00081169,-0.00
 092527,-0.00026647,-0.00045417,-0.00023161,-0.00003086,-0.00058069,-0.
 00083327,-0.00083690,0.08994549,-0.26521192,0.01718503,0.00097118,-0.0
 0620803,0.00170669,0.00060623,0.00135789,0.00080917,0.00001125,0.00000
 171,-0.00004669,0.00001623,-0.00000847,0.00003820,0.00002976,-0.000015
 41,0.00004689,-0.00043943,0.00071168,-0.00057258,-0.00036818,0.0002474
 4,0.00010956,-0.00005137,-0.00001866,0.00014417,0.00018295,0.00127659,
 -0.00007875,0.00047021,0.00119294,-0.00013691,-0.09834022,0.28887440,-
 0.00011091,-0.00013757,-0.00003484,0.00024624,-0.00023730,-0.00030170,
 -0.00054370,-0.00402345,-0.00119617,-0.00131446,0.00017905,-0.00088632
 ,0.00089097,0.00028294,-0.00050500,0.00702497,-0.01739131,-0.00064416,
 -0.01140854,0.02517459,-0.04422775,-0.00978860,0.03276101,0.00145531,0
 .00133239,-0.00339793,-0.00361182,0.00004506,-0.00006038,0.00005045,-0
 .00003812,0.00003439,-0.00001207,-0.00004717,0.00000799,0.00005986,-0.
 00050576,-0.00034634,0.00000594,-0.00018640,-0.00035342,0.00036505,0.0
 0010297,0.00008522,0.00017777,-0.00109053,-0.00024001,0.00091575,0.004
 07304,-0.00021654,-0.00086490,0.00693175,-0.02089804,0.04760562,0.0001
 7300,0.00026920,0.00002751,-0.00023796,-0.00060273,0.00006482,-0.00030
 194,0.00102557,-0.00120765,0.00033569,0.00069744,0.00087569,-0.0033686
 8,0.00031174,0.00259558,-0.01533140,-0.01438569,-0.00963324,-0.1744013
 5,-0.12318372,-0.06176269,-0.00623640,-0.00309074,-0.00332730,0.000981
 54,0.00067347,0.00157786,-0.00010701,-0.00000907,-0.00006083,-0.000023
 68,0.00003324,-0.00011929,0.00004405,0.00004278,-0.00010744,0.00002300
 ,-0.00018115,0.00004439,0.00017496,-0.00010528,-0.00014989,-0.00060939
 ,-0.00023013,-0.00107620,-0.00114320,-0.00004302,0.00046417,0.00145349
 ,0.00022124,-0.00043249,0.00850056,0.00817039,0.00438680,0.19007472,-0
 .00003439,0.00003987,-0.00010723,0.00042140,0.00015917,0.00002930,0.00
 066827,-0.00090385,0.00143364,-0.00012954,-0.00029505,-0.00014566,0.00
 176536,-0.00005150,-0.00017283,0.00496002,0.00244251,0.00193973,-0.124
 42480,-0.15638118,-0.06098363,0.00570394,0.00404288,0.00512743,0.00073
 840,0.00025251,-0.00133659,-0.00001203,0.00002029,0.00003333,-0.000007
 80,0.00000684,-0.00001432,0.00007671,-0.00005641,0.00010656,0.00009219
 ,0.00041481,-0.00002318,-0.00017260,0.00017414,0.00007360,0.00029799,0
 .00009591,0.00025911,-0.00018121,0.00011816,-0.00006947,0.00027112,0.0
 0130753,0.00027887,-0.02041951,-0.01972103,-0.01122290,0.13038646,0.16
 833441,0.00028057,0.00035681,0.00003637,-0.00185971,-0.00069991,0.0008
 3422,-0.00200300,0.00304716,-0.00444997,0.00099975,0.00037183,-0.00029
 645,0.00164889,0.00009672,-0.00311803,0.01223379,0.01137159,0.00657444
 ,-0.06066757,-0.06043910,-0.07610008,-0.02329041,-0.02374955,-0.010163
 33,0.00227689,0.00208849,0.00433455,-0.00009690,-0.00005242,0.00003669
 ,0.00006237,-0.00003381,0.00003821,-0.00023275,0.00025897,-0.00058303,
 0.00007954,-0.00005322,0.00013110,0.00006604,-0.00000203,-0.00001503,0
 .00039663,-0.00003074,0.00086933,0.00082157,0.00028605,-0.00060788,-0.
 00093725,0.00009309,0.00111574,0.00238134,0.00229582,0.00164899,0.0678
 4020,0.06479424,0.07971416\\0.00002296,0.00001055,0.00000513,-0.000059
 25,-0.00004160,-0.00000646,0.00002578,0.00003294,0.00003847,-0.0000053
 9,0.00001572,-0.00000916,-0.00000903,-0.00000146,-0.00001375,0.0000087
 8,-0.00001118,0.00000229,-0.00002900,0.00001791,-0.00000023,0.00003422
 ,-0.00000629,-0.00003172,-0.00001459,-0.00001254,0.00000875,-0.0000067
 9,0.00002019,-0.00000215,-0.00000377,0.00000451,0.00000416,-0.00000103
 ,-0.00000683,0.00000884,0.00000264,0.00000046,-0.00000031,0.00000398,-
 0.00001477,0.00000534,0.00000408,0.00000087,0.00000052,0.00001093,-0.0
 0000025,0.00000265,0.00000056,-0.00000180,-0.00000081,0.00001096,-0.00
 000265,-0.00000851,0.00000393,-0.00000377,-0.00000305\\\@


 Life may have no meaning.  Or even worse, it may have a
 meaning of which I disapprove.
                                 -- Ashleigh Brilliant
 Job cpu time:       0 days  0 hours 43 minutes 17.3 seconds.
 File lengths (MBytes):  RWF=    152 Int=      0 D2E=      0 Chk=      8 Scr=      1
 Normal termination of Gaussian 09 at Tue Jan 28 10:34:03 2020.
