 Entering Gaussian System, Link 0=/home/puck/opt/gaussian_09/g09
 Input=dsC7O2H10nsd_0712.com
 Output=dsC7O2H10nsd_0712.log
 Initial command:
 /home/puck/opt/gaussian_09/l1.exe "/scratch/puck/g09_8678d557-3a0e-468e-8a5b-aa6ecabf9cf9/Gau-27345.inp" -scrdir="/scratch/puck/g09_8678d557-3a0e-468e-8a5b-aa6ecabf9cf9/"
 Entering Link 1 = /home/puck/opt/gaussian_09/l1.exe PID=     27362.
  
 Copyright (c) 1988,1990,1992,1993,1995,1998,2003,2009,2013,
            Gaussian, Inc.  All Rights Reserved.
  
 This is part of the Gaussian(R) 09 program.  It is based on
 the Gaussian(R) 03 system (copyright 2003, Gaussian, Inc.),
 the Gaussian(R) 98 system (copyright 1998, Gaussian, Inc.),
 the Gaussian(R) 94 system (copyright 1995, Gaussian, Inc.),
 the Gaussian 92(TM) system (copyright 1992, Gaussian, Inc.),
 the Gaussian 90(TM) system (copyright 1990, Gaussian, Inc.),
 the Gaussian 88(TM) system (copyright 1988, Gaussian, Inc.),
 the Gaussian 86(TM) system (copyright 1986, Carnegie Mellon
 University), and the Gaussian 82(TM) system (copyright 1983,
 Carnegie Mellon University). Gaussian is a federally registered
 trademark of Gaussian, Inc.
  
 This software contains proprietary and confidential information,
 including trade secrets, belonging to Gaussian, Inc.
  
 This software is provided under written license and may be
 used, copied, transmitted, or stored only in accord with that
 written license.
  
 The following legend is applicable only to US Government
 contracts under FAR:
  
                    RESTRICTED RIGHTS LEGEND
  
 Use, reproduction and disclosure by the US Government is
 subject to restrictions as set forth in subparagraphs (a)
 and (c) of the Commercial Computer Software - Restricted
 Rights clause in FAR 52.227-19.
  
 Gaussian, Inc.
 340 Quinnipiac St., Bldg. 40, Wallingford CT 06492
  
  
 ---------------------------------------------------------------
 Warning -- This program may not be used in any manner that
 competes with the business of Gaussian, Inc. or will provide
 assistance to any competitor of Gaussian, Inc.  The licensee
 of this program is prohibited from giving any competitor of
 Gaussian, Inc. access to this program.  By using this program,
 the user acknowledges that Gaussian, Inc. is engaged in the
 business of creating and licensing software in the field of
 computational chemistry and represents and warrants to the
 licensee that it is not a competitor of Gaussian, Inc. and that
 it will not use this program in any manner prohibited above.
 ---------------------------------------------------------------
  

 Cite this work as:
 Gaussian 09, Revision D.01,
 M. J. Frisch, G. W. Trucks, H. B. Schlegel, G. E. Scuseria, 
 M. A. Robb, J. R. Cheeseman, G. Scalmani, V. Barone, B. Mennucci, 
 G. A. Petersson, H. Nakatsuji, M. Caricato, X. Li, H. P. Hratchian, 
 A. F. Izmaylov, J. Bloino, G. Zheng, J. L. Sonnenberg, M. Hada, 
 M. Ehara, K. Toyota, R. Fukuda, J. Hasegawa, M. Ishida, T. Nakajima, 
 Y. Honda, O. Kitao, H. Nakai, T. Vreven, J. A. Montgomery, Jr., 
 J. E. Peralta, F. Ogliaro, M. Bearpark, J. J. Heyd, E. Brothers, 
 K. N. Kudin, V. N. Staroverov, T. Keith, R. Kobayashi, J. Normand, 
 K. Raghavachari, A. Rendell, J. C. Burant, S. S. Iyengar, J. Tomasi, 
 M. Cossi, N. Rega, J. M. Millam, M. Klene, J. E. Knox, J. B. Cross, 
 V. Bakken, C. Adamo, J. Jaramillo, R. Gomperts, R. E. Stratmann, 
 O. Yazyev, A. J. Austin, R. Cammi, C. Pomelli, J. W. Ochterski, 
 R. L. Martin, K. Morokuma, V. G. Zakrzewski, G. A. Voth, 
 P. Salvador, J. J. Dannenberg, S. Dapprich, A. D. Daniels, 
 O. Farkas, J. B. Foresman, J. V. Ortiz, J. Cioslowski, 
 and D. J. Fox, Gaussian, Inc., Wallingford CT, 2013.
 
 ******************************************
 Gaussian 09:  ES64L-G09RevD.01 24-Apr-2013
                27-Jan-2020 
 ******************************************
 -----------------------------
 # b3lyp 6-31G(2df,p) opt Freq
 -----------------------------
 1/14=-1,18=20,19=15,26=3,38=1/1,3;
 2/9=110,12=2,17=6,18=5,40=1/2;
 3/5=1,6=6,7=104,11=2,16=1,25=1,30=1,71=1,74=-5/1,2,3;
 4//1;
 5/5=2,38=5/2;
 6/7=2,8=2,9=2,10=2,28=1/1;
 7//1,2,3,16;
 1/14=-1,18=20,19=15,26=3/3(2);
 2/9=110/2;
 99//99;
 2/9=110/2;
 3/5=1,6=6,7=104,11=2,16=1,25=1,30=1,71=1,74=-5/1,2,3;
 4/5=5,16=3,69=1/1;
 5/5=2,38=5/2;
 7//1,2,3,16;
 1/14=-1,18=20,19=15,26=3/3(-5);
 2/9=110/2;
 6/7=2,8=2,9=2,10=2,19=2,28=1/1;
 99/9=1/99;
 -----
 titel
 -----
 Symbolic Z-matrix:
 Charge =  0 Multiplicity = 1
 O                    -2.21405  -1.92589  -0.90446 
 C                    -1.15758  -1.50082  -0.49376 
 C                    -0.9668   -1.21194   0.99448 
 C                    -0.69892   0.28046   1.30764 
 C                     0.73191   0.68365   1.01464 
 O                     0.96373   1.90231   0.30198 
 C                     1.27003   0.66816  -0.3536 
 C                     0.41898   0.24825  -1.53474 
 C                    -0.00196  -1.23974  -1.45869 
 H                    -1.87873  -1.54714   1.49366 
 H                    -0.13193  -1.81545   1.37568 
 H                    -1.381     0.91704   0.73626 
 H                    -0.91732   0.46115   2.36497 
 H                     1.43621   0.51137   1.83055 
 H                     2.34008   0.48534  -0.46765 
 H                    -0.46466   0.89063  -1.59365 
 H                     0.98068   0.40644  -2.46089 
 H                    -0.33214  -1.59173  -2.43861 
 H                     0.86426  -1.84414  -1.15715 
 

 GradGradGradGradGradGradGradGradGradGradGradGradGradGradGradGradGradGrad
 Berny optimization.
 Initialization pass.
                           ----------------------------
                           !    Initial Parameters    !
                           ! (Angstroms and Degrees)  !
 --------------------------                            --------------------------
 ! Name  Definition              Value          Derivative Info.                !
 --------------------------------------------------------------------------------
 ! R1    R(1,2)                  1.2106         estimate D2E/DX2                !
 ! R2    R(2,3)                  1.528          estimate D2E/DX2                !
 ! R3    R(2,9)                  1.528          estimate D2E/DX2                !
 ! R4    R(3,4)                  1.5483         estimate D2E/DX2                !
 ! R5    R(3,10)                 1.0923         estimate D2E/DX2                !
 ! R6    R(3,11)                 1.0984         estimate D2E/DX2                !
 ! R7    R(4,5)                  1.5152         estimate D2E/DX2                !
 ! R8    R(4,12)                 1.094          estimate D2E/DX2                !
 ! R9    R(4,13)                 1.0947         estimate D2E/DX2                !
 ! R10   R(5,6)                  1.4306         estimate D2E/DX2                !
 ! R11   R(5,7)                  1.4703         estimate D2E/DX2                !
 ! R12   R(5,14)                 1.0915         estimate D2E/DX2                !
 ! R13   R(6,7)                  1.4306         estimate D2E/DX2                !
 ! R14   R(7,8)                  1.5152         estimate D2E/DX2                !
 ! R15   R(7,15)                 1.0915         estimate D2E/DX2                !
 ! R16   R(8,9)                  1.5483         estimate D2E/DX2                !
 ! R17   R(8,16)                 1.094          estimate D2E/DX2                !
 ! R18   R(8,17)                 1.0947         estimate D2E/DX2                !
 ! R19   R(9,18)                 1.0923         estimate D2E/DX2                !
 ! R20   R(9,19)                 1.0984         estimate D2E/DX2                !
 ! A1    A(1,2,3)              120.3836         estimate D2E/DX2                !
 ! A2    A(1,2,9)              120.3835         estimate D2E/DX2                !
 ! A3    A(3,2,9)              119.232          estimate D2E/DX2                !
 ! A4    A(2,3,4)              113.6317         estimate D2E/DX2                !
 ! A5    A(2,3,10)             106.4307         estimate D2E/DX2                !
 ! A6    A(2,3,11)             109.2108         estimate D2E/DX2                !
 ! A7    A(4,3,10)             110.3537         estimate D2E/DX2                !
 ! A8    A(4,3,11)             109.1414         estimate D2E/DX2                !
 ! A9    A(10,3,11)            107.8988         estimate D2E/DX2                !
 ! A10   A(3,4,5)              112.3823         estimate D2E/DX2                !
 ! A11   A(3,4,12)             110.3257         estimate D2E/DX2                !
 ! A12   A(3,4,13)             108.66           estimate D2E/DX2                !
 ! A13   A(5,4,12)             109.4461         estimate D2E/DX2                !
 ! A14   A(5,4,13)             109.346          estimate D2E/DX2                !
 ! A15   A(12,4,13)            106.5006         estimate D2E/DX2                !
 ! A16   A(4,5,6)              118.4259         estimate D2E/DX2                !
 ! A17   A(4,5,7)              121.5178         estimate D2E/DX2                !
 ! A18   A(4,5,14)             115.0103         estimate D2E/DX2                !
 ! A19   A(6,5,14)             113.7193         estimate D2E/DX2                !
 ! A20   A(7,5,14)             117.2439         estimate D2E/DX2                !
 ! A21   A(5,7,8)              121.5179         estimate D2E/DX2                !
 ! A22   A(5,7,15)             117.2437         estimate D2E/DX2                !
 ! A23   A(6,7,8)              118.4267         estimate D2E/DX2                !
 ! A24   A(6,7,15)             113.7191         estimate D2E/DX2                !
 ! A25   A(8,7,15)             115.0099         estimate D2E/DX2                !
 ! A26   A(7,8,9)              112.3818         estimate D2E/DX2                !
 ! A27   A(7,8,16)             109.4465         estimate D2E/DX2                !
 ! A28   A(7,8,17)             109.3461         estimate D2E/DX2                !
 ! A29   A(9,8,16)             110.326          estimate D2E/DX2                !
 ! A30   A(9,8,17)             108.6598         estimate D2E/DX2                !
 ! A31   A(16,8,17)            106.5007         estimate D2E/DX2                !
 ! A32   A(2,9,8)              113.6318         estimate D2E/DX2                !
 ! A33   A(2,9,18)             106.4307         estimate D2E/DX2                !
 ! A34   A(2,9,19)             109.211          estimate D2E/DX2                !
 ! A35   A(8,9,18)             110.3537         estimate D2E/DX2                !
 ! A36   A(8,9,19)             109.141          estimate D2E/DX2                !
 ! A37   A(18,9,19)            107.8989         estimate D2E/DX2                !
 ! D1    D(1,2,3,4)           -116.7183         estimate D2E/DX2                !
 ! D2    D(1,2,3,10)             4.9396         estimate D2E/DX2                !
 ! D3    D(1,2,3,11)           121.1759         estimate D2E/DX2                !
 ! D4    D(9,2,3,4)             62.9491         estimate D2E/DX2                !
 ! D5    D(9,2,3,10)          -175.393          estimate D2E/DX2                !
 ! D6    D(9,2,3,11)           -59.1567         estimate D2E/DX2                !
 ! D7    D(1,2,9,8)            116.7173         estimate D2E/DX2                !
 ! D8    D(1,2,9,18)            -4.9407         estimate D2E/DX2                !
 ! D9    D(1,2,9,19)          -121.1771         estimate D2E/DX2                !
 ! D10   D(3,2,9,8)            -62.9501         estimate D2E/DX2                !
 ! D11   D(3,2,9,18)           175.3919         estimate D2E/DX2                !
 ! D12   D(3,2,9,19)            59.1554         estimate D2E/DX2                !
 ! D13   D(2,3,4,5)            -78.2321         estimate D2E/DX2                !
 ! D14   D(2,3,4,12)            44.2132         estimate D2E/DX2                !
 ! D15   D(2,3,4,13)           160.6227         estimate D2E/DX2                !
 ! D16   D(10,3,4,5)           162.3203         estimate D2E/DX2                !
 ! D17   D(10,3,4,12)          -75.2344         estimate D2E/DX2                !
 ! D18   D(10,3,4,13)           41.1751         estimate D2E/DX2                !
 ! D19   D(11,3,4,5)            43.9121         estimate D2E/DX2                !
 ! D20   D(11,3,4,12)          166.3574         estimate D2E/DX2                !
 ! D21   D(11,3,4,13)          -77.2331         estimate D2E/DX2                !
 ! D22   D(3,4,5,6)            134.2184         estimate D2E/DX2                !
 ! D23   D(3,4,5,7)             64.9208         estimate D2E/DX2                !
 ! D24   D(3,4,5,14)           -86.5588         estimate D2E/DX2                !
 ! D25   D(12,4,5,6)            11.2773         estimate D2E/DX2                !
 ! D26   D(12,4,5,7)           -58.0203         estimate D2E/DX2                !
 ! D27   D(12,4,5,14)          150.5001         estimate D2E/DX2                !
 ! D28   D(13,4,5,6)          -105.0304         estimate D2E/DX2                !
 ! D29   D(13,4,5,7)          -174.328          estimate D2E/DX2                !
 ! D30   D(13,4,5,14)           34.1924         estimate D2E/DX2                !
 ! D31   D(4,5,7,8)             -0.001          estimate D2E/DX2                !
 ! D32   D(4,5,7,15)          -150.8768         estimate D2E/DX2                !
 ! D33   D(14,5,7,8)           150.8758         estimate D2E/DX2                !
 ! D34   D(14,5,7,15)           -0.0001         estimate D2E/DX2                !
 ! D35   D(5,7,8,9)            -64.9194         estimate D2E/DX2                !
 ! D36   D(5,7,8,16)            58.0218         estimate D2E/DX2                !
 ! D37   D(5,7,8,17)           174.3299         estimate D2E/DX2                !
 ! D38   D(6,7,8,9)           -134.2177         estimate D2E/DX2                !
 ! D39   D(6,7,8,16)           -11.2764         estimate D2E/DX2                !
 ! D40   D(6,7,8,17)           105.0317         estimate D2E/DX2                !
 ! D41   D(15,7,8,9)            86.5594         estimate D2E/DX2                !
 ! D42   D(15,7,8,16)         -150.4994         estimate D2E/DX2                !
 ! D43   D(15,7,8,17)          -34.1913         estimate D2E/DX2                !
 ! D44   D(7,8,9,2)             78.2329         estimate D2E/DX2                !
 ! D45   D(7,8,9,18)          -162.3194         estimate D2E/DX2                !
 ! D46   D(7,8,9,19)           -43.9113         estimate D2E/DX2                !
 ! D47   D(16,8,9,2)           -44.2127         estimate D2E/DX2                !
 ! D48   D(16,8,9,18)           75.235          estimate D2E/DX2                !
 ! D49   D(16,8,9,19)         -166.3569         estimate D2E/DX2                !
 ! D50   D(17,8,9,2)          -160.6223         estimate D2E/DX2                !
 ! D51   D(17,8,9,18)          -41.1746         estimate D2E/DX2                !
 ! D52   D(17,8,9,19)           77.2335         estimate D2E/DX2                !
 --------------------------------------------------------------------------------
 Trust Radius=3.00D-01 FncErr=1.00D-07 GrdErr=1.00D-06
 Number of steps in this run=    114 maximum allowed number of steps=    114.
 GradGradGradGradGradGradGradGradGradGradGradGradGradGradGradGradGradGrad

                          Input orientation:                          
 ---------------------------------------------------------------------
 Center     Atomic      Atomic             Coordinates (Angstroms)
 Number     Number       Type             X           Y           Z
 ---------------------------------------------------------------------
      1          8           0       -2.214050   -1.925885   -0.904460
      2          6           0       -1.157584   -1.500825   -0.493764
      3          6           0       -0.966803   -1.211938    0.994477
      4          6           0       -0.698919    0.280464    1.307639
      5          6           0        0.731909    0.683654    1.014641
      6          8           0        0.963725    1.902310    0.301977
      7          6           0        1.270032    0.668157   -0.353604
      8          6           0        0.418979    0.248252   -1.534735
      9          6           0       -0.001961   -1.239743   -1.458692
     10          1           0       -1.878729   -1.547139    1.493663
     11          1           0       -0.131927   -1.815446    1.375685
     12          1           0       -1.380996    0.917039    0.736259
     13          1           0       -0.917321    0.461146    2.364967
     14          1           0        1.436206    0.511369    1.830550
     15          1           0        2.340077    0.485341   -0.467650
     16          1           0       -0.464656    0.890631   -1.593653
     17          1           0        0.980680    0.406442   -2.460886
     18          1           0       -0.332139   -1.591727   -2.438613
     19          1           0        0.864262   -1.844137   -1.157152
 ---------------------------------------------------------------------
                    Distance matrix (angstroms):
                    1          2          3          4          5
     1  O    0.000000
     2  C    1.210566   0.000000
     3  C    2.381451   1.527977   0.000000
     4  C    3.472317   2.574571   1.548256   0.000000
     5  C    4.378507   3.258438   2.545446   1.515150   0.000000
     6  O    5.119456   4.088335   3.728945   2.531033   1.430647
     7  C    4.378507   3.258442   3.217998   2.605149   1.470343
     8  C    3.472313   2.574575   3.232562   3.054476   2.605152
     9  C    2.381450   1.527977   2.636234   3.232548   3.217980
    10  H    2.450895   2.114725   1.092317   2.183275   3.467179
    11  H    3.089740   2.155411   1.098435   2.172314   2.668720
    12  H    3.386467   2.721936   2.184211   1.094044   2.143907
    13  H    4.250716   3.475543   2.163309   1.094663   2.143094
    14  H    5.171544   4.022326   3.072989   2.210320   1.091524
    15  H    5.171546   4.022334   3.994249   3.525497   2.196069
    16  H    3.386463   2.721941   3.372145   2.974001   2.877118
    17  H    4.250707   3.475544   4.283850   4.127797   3.495428
    18  H    2.450893   2.114724   3.511857   4.204050   4.270190
    19  H    3.089748   2.155413   2.895165   3.610078   3.335255
                    6          7          8          9         10
     6  O    0.000000
     7  C    1.430644   0.000000
     8  C    2.531041   1.515151   0.000000
     9  C    3.728941   2.545441   1.548258   0.000000
    10  H    4.625836   4.270202   4.204056   3.511859   0.000000
    11  H    4.021817   3.335298   3.610110   2.895171   1.771221
    12  H    2.580131   2.877098   2.973987   3.372130   2.625561
    13  H    3.141849   3.495425   4.127796   4.283839   2.390959
    14  H    2.120021   2.196071   3.525497   3.994225   3.916599
    15  H    2.120017   1.091524   2.210317   3.072982   5.077012
    16  H    2.580151   2.143912   1.094044   2.184215   4.180173
    17  H    3.141866   2.143095   1.094663   2.163308   5.256534
    18  H    4.625840   3.467174   2.183277   1.092317   4.225722
    19  H    4.021792   2.668700   2.172311   1.098435   3.826098
                   11         12         13         14         15
    11  H    0.000000
    12  H    3.071728   0.000000
    13  H    2.603535   1.753717   0.000000
    14  H    2.842537   3.049373   2.413963   0.000000
    15  H    3.847377   3.934736   4.316822   2.469693   0.000000
    16  H    4.031195   2.503771   4.007498   3.934754   3.049372
    17  H    4.570991   4.007488   5.185967   4.316820   2.413954
    18  H    3.826095   4.180170   5.256531   5.076989   3.916586
    19  H    2.721852   4.031164   4.570962   3.847323   2.842518
                   16         17         18         19
    16  H    0.000000
    17  H    1.753718   0.000000
    18  H    2.625571   2.390956   0.000000
    19  H    3.071727   2.603532   1.771222   0.000000
 Stoichiometry    C7H10O2
 Framework group  C1[X(C7H10O2)]
 Deg. of freedom    51
 Full point group                 C1      NOp   1
 Largest Abelian subgroup         C1      NOp   1
 Largest concise Abelian subgroup C1      NOp   1
                         Standard orientation:                         
 ---------------------------------------------------------------------
 Center     Atomic      Atomic             Coordinates (Angstroms)
 Number     Number       Type             X           Y           Z
 ---------------------------------------------------------------------
      1          8           0       -2.721040   -0.000007   -0.485964
      2          6           0       -1.646046    0.000000    0.070684
      3          6           0       -0.957990    1.318121    0.422608
      4          6           0        0.392162    1.527236   -0.305718
      5          6           0        1.517975    0.735171    0.327415
      6          8           0        2.398245    0.000006   -0.527811
      7          6           0        1.517981   -0.735173    0.327403
      8          6           0        0.392163   -1.527240   -0.305722
      9          6           0       -0.957981   -1.318113    0.422619
     10          1           0       -1.659248    2.112862    0.158448
     11          1           0       -0.792340    1.360939    1.507635
     12          1           0        0.301518    1.251878   -1.360656
     13          1           0        0.641063    2.592981   -0.282845
     14          1           0        2.025373    1.234843    1.154639
     15          1           0        2.025384   -1.234851    1.154621
     16          1           0        0.301512   -1.251893   -1.360662
     17          1           0        0.641059   -2.592986   -0.282838
     18          1           0       -1.659241   -2.112860    0.158484
     19          1           0       -0.792309   -1.360914    1.507644
 ---------------------------------------------------------------------
 Rotational constants (GHZ):      2.9428901      1.3710511      1.0458821
 Standard basis: 6-31G(2df,p) (6D, 7F)
 There are   329 symmetry adapted cartesian basis functions of A   symmetry.
 There are   302 symmetry adapted basis functions of A   symmetry.
   302 basis functions,   466 primitive gaussians,   329 cartesian basis functions
    34 alpha electrons       34 beta electrons
       nuclear repulsion energy       460.6536773161 Hartrees.
 NAtoms=   19 NActive=   19 NUniq=   19 SFac= 1.00D+00 NAtFMM=   60 NAOKFM=F Big=F
 Integral buffers will be    131072 words long.
 Raffenetti 2 integral format.
 Two-electron integral symmetry is turned on.
 One-electron integrals computed using PRISM.
 NBasis=   302 RedAO= T EigKep=  5.40D-04  NBF=   302
 NBsUse=   302 1.00D-06 EigRej= -1.00D+00 NBFU=   302
 ExpMin= 1.61D-01 ExpMax= 5.48D+03 ExpMxC= 8.25D+02 IAcc=1 IRadAn=         1 AccDes= 0.00D+00
 Harris functional with IExCor=  402 and IRadAn=       1 diagonalized for initial guess.
 HarFok:  IExCor=  402 AccDes= 0.00D+00 IRadAn=         1 IDoV= 1 UseB2=F ITyADJ=14
 ICtDFT=  3500011 ScaDFX=  1.000000  1.000000  1.000000  1.000000
 FoFCou: FMM=F IPFlag=           0 FMFlag=      100000 FMFlg1=           0
         NFxFlg=           0 DoJE=T BraDBF=F KetDBF=T FulRan=T
         wScrn=  0.000000 ICntrl=     500 IOpCl=  0 I1Cent=   200000004 NGrid=           0
         NMat0=    1 NMatS0=      1 NMatT0=    0 NMatD0=    1 NMtDS0=    0 NMtDT0=    0
 Petite list used in FoFCou.
 Requested convergence on RMS density matrix=1.00D-08 within 128 cycles.
 Requested convergence on MAX density matrix=1.00D-06.
 Requested convergence on             energy=1.00D-06.
 No special actions if energy rises.
 Integral accuracy reduced to 1.0D-05 until final iterations.
 Initial convergence to 1.0D-05 achieved.  Increase integral accuracy.
 SCF Done:  E(RB3LYP) =  -423.200043752     A.U. after   14 cycles
            NFock= 14  Conv=0.35D-08     -V/T= 2.0075

 **********************************************************************

            Population analysis using the SCF density.

 **********************************************************************

 Orbital symmetries:
       Occupied  (A) (A) (A) (A) (A) (A) (A) (A) (A) (A) (A) (A)
                 (A) (A) (A) (A) (A) (A) (A) (A) (A) (A) (A) (A)
                 (A) (A) (A) (A) (A) (A) (A) (A) (A) (A)
       Virtual   (A) (A) (A) (A) (A) (A) (A) (A) (A) (A) (A) (A)
                 (A) (A) (A) (A) (A) (A) (A) (A) (A) (A) (A) (A)
                 (A) (A) (A) (A) (A) (A) (A) (A) (A) (A) (A) (A)
                 (A) (A) (A) (A) (A) (A) (A) (A) (A) (A) (A) (A)
                 (A) (A) (A) (A) (A) (A) (A) (A) (A) (A) (A) (A)
                 (A) (A) (A) (A) (A) (A) (A) (A) (A) (A) (A) (A)
                 (A) (A) (A) (A) (A) (A) (A) (A) (A) (A) (A) (A)
                 (A) (A) (A) (A) (A) (A) (A) (A) (A) (A) (A) (A)
                 (A) (A) (A) (A) (A) (A) (A) (A) (A) (A) (A) (A)
                 (A) (A) (A) (A) (A) (A) (A) (A) (A) (A) (A) (A)
                 (A) (A) (A) (A) (A) (A) (A) (A) (A) (A) (A) (A)
                 (A) (A) (A) (A) (A) (A) (A) (A) (A) (A) (A) (A)
                 (A) (A) (A) (A) (A) (A) (A) (A) (A) (A) (A) (A)
                 (A) (A) (A) (A) (A) (A) (A) (A) (A) (A) (A) (A)
                 (A) (A) (A) (A) (A) (A) (A) (A) (A) (A) (A) (A)
                 (A) (A) (A) (A) (A) (A) (A) (A) (A) (A) (A) (A)
                 (A) (A) (A) (A) (A) (A) (A) (A) (A) (A) (A) (A)
                 (A) (A) (A) (A) (A) (A) (A) (A) (A) (A) (A) (A)
                 (A) (A) (A) (A) (A) (A) (A) (A) (A) (A) (A) (A)
                 (A) (A) (A) (A) (A) (A) (A) (A) (A) (A) (A) (A)
                 (A) (A) (A) (A) (A) (A) (A) (A) (A) (A) (A) (A)
                 (A) (A) (A) (A) (A) (A) (A) (A) (A) (A) (A) (A)
                 (A) (A) (A) (A)
 The electronic state is 1-A.
 Alpha  occ. eigenvalues --  -19.15428 -19.12938 -10.27018 -10.24257 -10.24225
 Alpha  occ. eigenvalues --  -10.20176 -10.20176 -10.19827 -10.19827  -1.07505
 Alpha  occ. eigenvalues --   -1.03987  -0.81498  -0.78532  -0.70702  -0.67451
 Alpha  occ. eigenvalues --   -0.63333  -0.56539  -0.54686  -0.50627  -0.48384
 Alpha  occ. eigenvalues --   -0.47755  -0.45132  -0.42875  -0.42015  -0.41085
 Alpha  occ. eigenvalues --   -0.40156  -0.38629  -0.37824  -0.35185  -0.34908
 Alpha  occ. eigenvalues --   -0.34160  -0.29606  -0.27056  -0.24283
 Alpha virt. eigenvalues --   -0.01658   0.08016   0.09088   0.09219   0.10223
 Alpha virt. eigenvalues --    0.12376   0.13050   0.15092   0.15776   0.16783
 Alpha virt. eigenvalues --    0.17374   0.18576   0.18912   0.19424   0.21156
 Alpha virt. eigenvalues --    0.23450   0.24292   0.27998   0.30784   0.32176
 Alpha virt. eigenvalues --    0.34641   0.40923   0.42957   0.46106   0.46795
 Alpha virt. eigenvalues --    0.48734   0.48908   0.50016   0.51970   0.52231
 Alpha virt. eigenvalues --    0.54791   0.56298   0.57605   0.58253   0.58953
 Alpha virt. eigenvalues --    0.62087   0.64039   0.64348   0.66699   0.67627
 Alpha virt. eigenvalues --    0.70637   0.72303   0.73101   0.73365   0.73619
 Alpha virt. eigenvalues --    0.76345   0.76461   0.77184   0.78316   0.79806
 Alpha virt. eigenvalues --    0.81374   0.81777   0.82775   0.84486   0.85650
 Alpha virt. eigenvalues --    0.92368   0.92834   0.94853   0.94862   0.96464
 Alpha virt. eigenvalues --    0.99157   0.99184   1.01334   1.06045   1.06675
 Alpha virt. eigenvalues --    1.08228   1.13467   1.14428   1.17876   1.18599
 Alpha virt. eigenvalues --    1.21056   1.21959   1.25133   1.29570   1.31625
 Alpha virt. eigenvalues --    1.33585   1.34321   1.37532   1.38059   1.38746
 Alpha virt. eigenvalues --    1.40947   1.41516   1.42595   1.42975   1.47392
 Alpha virt. eigenvalues --    1.47472   1.48363   1.52859   1.55273   1.56177
 Alpha virt. eigenvalues --    1.56562   1.58366   1.64718   1.66009   1.69058
 Alpha virt. eigenvalues --    1.69123   1.72565   1.74389   1.74431   1.77868
 Alpha virt. eigenvalues --    1.79889   1.81950   1.83669   1.87535   1.89449
 Alpha virt. eigenvalues --    1.90370   1.95600   2.00496   2.02781   2.10367
 Alpha virt. eigenvalues --    2.10777   2.13654   2.19733   2.23310   2.23876
 Alpha virt. eigenvalues --    2.28387   2.28484   2.32190   2.34532   2.43193
 Alpha virt. eigenvalues --    2.44757   2.46785   2.50658   2.56234   2.57304
 Alpha virt. eigenvalues --    2.57316   2.62778   2.64514   2.65233   2.70782
 Alpha virt. eigenvalues --    2.72728   2.76775   2.81506   2.81798   2.82723
 Alpha virt. eigenvalues --    2.85520   2.86654   2.87774   2.88468   2.92613
 Alpha virt. eigenvalues --    2.94096   2.94176   2.95790   3.02964   3.03994
 Alpha virt. eigenvalues --    3.06153   3.12739   3.12774   3.15654   3.17662
 Alpha virt. eigenvalues --    3.19927   3.21384   3.21462   3.23958   3.27423
 Alpha virt. eigenvalues --    3.28231   3.33259   3.35023   3.36126   3.36476
 Alpha virt. eigenvalues --    3.38602   3.43334   3.44561   3.45686   3.48693
 Alpha virt. eigenvalues --    3.51471   3.55199   3.59841   3.61910   3.65458
 Alpha virt. eigenvalues --    3.65486   3.68856   3.71141   3.75220   3.79305
 Alpha virt. eigenvalues --    3.80287   3.81517   3.86272   3.88519   3.90463
 Alpha virt. eigenvalues --    3.91785   3.96380   4.04212   4.08308   4.11314
 Alpha virt. eigenvalues --    4.14813   4.19434   4.19721   4.20686   4.22188
 Alpha virt. eigenvalues --    4.27920   4.29367   4.33771   4.35744   4.39201
 Alpha virt. eigenvalues --    4.41041   4.42575   4.44040   4.47866   4.50511
 Alpha virt. eigenvalues --    4.52498   4.52727   4.54098   4.55838   4.57771
 Alpha virt. eigenvalues --    4.59329   4.61330   4.63985   4.64354   4.66136
 Alpha virt. eigenvalues --    4.68557   4.69890   4.71839   4.73248   4.73972
 Alpha virt. eigenvalues --    4.75197   4.77567   4.80452   4.81275   4.84851
 Alpha virt. eigenvalues --    4.86568   4.87584   4.88760   4.90544   4.93448
 Alpha virt. eigenvalues --    4.96309   4.99094   5.01433   5.05701   5.06135
 Alpha virt. eigenvalues --    5.10770   5.11581   5.22223   5.25047   5.27931
 Alpha virt. eigenvalues --    5.29734   5.35005   5.37933   5.41931   5.43668
 Alpha virt. eigenvalues --    5.46919   5.49094   5.50347   5.50992   5.58126
 Alpha virt. eigenvalues --    5.69380   5.82061   5.93021   5.97304   5.99133
 Alpha virt. eigenvalues --    6.04283   6.08501   6.14413   6.20790   6.41545
 Alpha virt. eigenvalues --    6.41991   6.58367   6.81260   6.90902  10.85292
 Alpha virt. eigenvalues --   11.14845  11.58233  12.07990  12.26869  12.29279
 Alpha virt. eigenvalues --   12.66629  13.05397  13.19062
          Condensed to atoms (all electrons):
               1          2          3          4          5          6
     1  O    7.633008   0.810853  -0.079318  -0.000762   0.000045   0.000000
     2  C    0.810853   4.222698   0.339648  -0.012537  -0.003298   0.000599
     3  C   -0.079318   0.339648   5.214223   0.335936  -0.024492   0.002188
     4  C   -0.000762  -0.012537   0.335936   4.980573   0.395579  -0.025755
     5  C    0.000045  -0.003298  -0.024492   0.395579   4.678070   0.270484
     6  O    0.000000   0.000599   0.002188  -0.025755   0.270484   7.799216
     7  C    0.000045  -0.003298  -0.002556  -0.011769   0.343039   0.270488
     8  C   -0.000762  -0.012537  -0.000222  -0.001089  -0.011769  -0.025754
     9  C   -0.079318   0.339647  -0.122857  -0.000222  -0.002557   0.002188
    10  H    0.003959  -0.013812   0.331813  -0.017841   0.002848  -0.000054
    11  H    0.002263  -0.016418   0.340773  -0.035687  -0.005321   0.000012
    12  H    0.000886  -0.003514  -0.033709   0.352342  -0.017336   0.001753
    13  H   -0.000054   0.001187  -0.023473   0.361230  -0.025077   0.000712
    14  H   -0.000001   0.000190   0.001724  -0.066230   0.372253  -0.020884
    15  H   -0.000001   0.000190   0.000223   0.003063  -0.034027  -0.020885
    16  H    0.000886  -0.003514   0.000944   0.000001  -0.005663   0.001753
    17  H   -0.000054   0.001187  -0.000068  -0.000180   0.004160   0.000712
    18  H    0.003959  -0.013812   0.006770  -0.000053   0.000142  -0.000054
    19  H    0.002263  -0.016418   0.001579  -0.000836   0.000103   0.000012
               7          8          9         10         11         12
     1  O    0.000045  -0.000762  -0.079318   0.003959   0.002263   0.000886
     2  C   -0.003298  -0.012537   0.339647  -0.013812  -0.016418  -0.003514
     3  C   -0.002556  -0.000222  -0.122857   0.331813   0.340773  -0.033709
     4  C   -0.011769  -0.001089  -0.000222  -0.017841  -0.035687   0.352342
     5  C    0.343039  -0.011769  -0.002557   0.002848  -0.005321  -0.017336
     6  O    0.270488  -0.025754   0.002188  -0.000054   0.000012   0.001753
     7  C    4.678063   0.395576  -0.024491   0.000142   0.000103  -0.005664
     8  C    0.395576   4.980578   0.335937  -0.000053  -0.000836   0.000001
     9  C   -0.024491   0.335937   5.214221   0.006770   0.001579   0.000944
    10  H    0.000142  -0.000053   0.006770   0.601122  -0.031262  -0.000068
    11  H    0.000103  -0.000836   0.001579  -0.031262   0.625529   0.005813
    12  H   -0.005664   0.000001   0.000944  -0.000068   0.005813   0.597856
    13  H    0.004160  -0.000180  -0.000068  -0.006148  -0.001077  -0.033667
    14  H   -0.034027   0.003063   0.000223  -0.000277   0.002866   0.005831
    15  H    0.372253  -0.066231   0.001724  -0.000003  -0.000049  -0.000027
    16  H   -0.017336   0.352342  -0.033709  -0.000062   0.000036   0.001796
    17  H   -0.025077   0.361230  -0.023473   0.000008   0.000007   0.000061
    18  H    0.002848  -0.017841   0.331813  -0.000209  -0.000196  -0.000062
    19  H   -0.005321  -0.035687   0.340772  -0.000196   0.001124   0.000036
              13         14         15         16         17         18
     1  O   -0.000054  -0.000001  -0.000001   0.000886  -0.000054   0.003959
     2  C    0.001187   0.000190   0.000190  -0.003514   0.001187  -0.013812
     3  C   -0.023473   0.001724   0.000223   0.000944  -0.000068   0.006770
     4  C    0.361230  -0.066230   0.003063   0.000001  -0.000180  -0.000053
     5  C   -0.025077   0.372253  -0.034027  -0.005663   0.004160   0.000142
     6  O    0.000712  -0.020884  -0.020885   0.001753   0.000712  -0.000054
     7  C    0.004160  -0.034027   0.372253  -0.017336  -0.025077   0.002848
     8  C   -0.000180   0.003063  -0.066231   0.352342   0.361230  -0.017841
     9  C   -0.000068   0.000223   0.001724  -0.033709  -0.023473   0.331813
    10  H   -0.006148  -0.000277  -0.000003  -0.000062   0.000008  -0.000209
    11  H   -0.001077   0.002866  -0.000049   0.000036   0.000007  -0.000196
    12  H   -0.033667   0.005831  -0.000027   0.001796   0.000061  -0.000062
    13  H    0.613957  -0.005629  -0.000080   0.000061  -0.000003   0.000008
    14  H   -0.005629   0.652214  -0.004134  -0.000027  -0.000080  -0.000003
    15  H   -0.000080  -0.004134   0.652216   0.005831  -0.005629  -0.000277
    16  H    0.000061  -0.000027   0.005831   0.597855  -0.033667  -0.000068
    17  H   -0.000003  -0.000080  -0.005629  -0.033667   0.613957  -0.006148
    18  H    0.000008  -0.000003  -0.000277  -0.000068  -0.006148   0.601122
    19  H    0.000007  -0.000049   0.002866   0.005813  -0.001077  -0.031262
              19
     1  O    0.002263
     2  C   -0.016418
     3  C    0.001579
     4  C   -0.000836
     5  C    0.000103
     6  O    0.000012
     7  C   -0.005321
     8  C   -0.035687
     9  C    0.340772
    10  H   -0.000196
    11  H    0.001124
    12  H    0.000036
    13  H    0.000007
    14  H   -0.000049
    15  H    0.002866
    16  H    0.005813
    17  H   -0.001077
    18  H   -0.031262
    19  H    0.625530
 Mulliken charges:
               1
     1  O   -0.297896
     2  C    0.382960
     3  C   -0.289126
     4  C   -0.255761
     5  C    0.062817
     6  O   -0.256731
     7  C    0.062821
     8  C   -0.255764
     9  C   -0.289125
    10  H    0.123322
    11  H    0.110741
    12  H    0.126727
    13  H    0.114135
    14  H    0.092977
    15  H    0.092976
    16  H    0.126727
    17  H    0.114135
    18  H    0.123322
    19  H    0.110740
 Sum of Mulliken charges =   0.00000
 Mulliken charges with hydrogens summed into heavy atoms:
               1
     1  O   -0.297896
     2  C    0.382960
     3  C   -0.055063
     4  C   -0.014899
     5  C    0.155794
     6  O   -0.256731
     7  C    0.155798
     8  C   -0.014901
     9  C   -0.055062
 Electronic spatial extent (au):  <R**2>=           1144.2565
 Charge=              0.0000 electrons
 Dipole moment (field-independent basis, Debye):
    X=              1.0774    Y=              0.0000    Z=              2.1247  Tot=              2.3822
 Quadrupole moment (field-independent basis, Debye-Ang):
   XX=            -67.9260   YY=            -48.1569   ZZ=            -52.1768
   XY=             -0.0001   XZ=              0.3266   YZ=              0.0000
 Traceless Quadrupole moment (field-independent basis, Debye-Ang):
   XX=            -11.8395   YY=              7.9297   ZZ=              3.9098
   XY=             -0.0001   XZ=              0.3266   YZ=              0.0000
 Octapole moment (field-independent basis, Debye-Ang**2):
  XXX=             13.8013  YYY=              0.0000  ZZZ=             -2.7706  XYY=              1.4384
  XXY=              0.0000  XXZ=             15.3247  XZZ=              0.0487  YZZ=              0.0000
  YYZ=             -0.8901  XYZ=              0.0001
 Hexadecapole moment (field-independent basis, Debye-Ang**3):
 XXXX=           -963.5287 YYYY=           -449.1430 ZZZZ=           -133.8379 XXXY=             -0.0004
 XXXZ=             -2.2936 YYYX=              0.0001 YYYZ=             -0.0001 ZZZX=              1.4176
 ZZZY=              0.0002 XXYY=           -205.1010 XXZZ=           -163.2901 YYZZ=           -101.4012
 XXYZ=              0.0000 YYXZ=              1.6962 ZZXY=              0.0000
 N-N= 4.606536773161D+02 E-N=-1.907720622030D+03  KE= 4.200466057480D+02
 Calling FoFJK, ICntrl=      2127 FMM=F ISym2X=0 I1Cent= 0 IOpClX= 0 NMat=1 NMatS=1 NMatT=0.
 ***** Axes restored to original set *****
 -------------------------------------------------------------------
 Center     Atomic                   Forces (Hartrees/Bohr)
 Number     Number              X              Y              Z
 -------------------------------------------------------------------
      1        8           0.000049814    0.000017946    0.000019468
      2        6          -0.000103466   -0.000038334   -0.000040243
      3        6           0.000011878    0.000047238    0.000057253
      4        6          -0.000057176   -0.000056481   -0.000015501
      5        6           0.000030318   -0.000038001    0.000028476
      6        8          -0.000016837    0.000052507   -0.000006894
      7        6           0.000042761   -0.000039428    0.000000190
      8        6          -0.000053156   -0.000057174   -0.000025787
      9        6           0.000048372    0.000046783   -0.000035164
     10        1           0.000009262    0.000010275   -0.000006025
     11        1          -0.000000839   -0.000002505   -0.000010851
     12        1           0.000022772    0.000005622    0.000003560
     13        1           0.000009349   -0.000002106   -0.000005012
     14        1          -0.000004038    0.000020926   -0.000004525
     15        1          -0.000005999    0.000020818    0.000000195
     16        1           0.000019036    0.000005652    0.000012941
     17        1           0.000003446   -0.000001642    0.000010041
     18        1           0.000002776    0.000010493    0.000010494
     19        1          -0.000008271   -0.000002590    0.000007385
 -------------------------------------------------------------------
 Cartesian Forces:  Max     0.000103466 RMS     0.000030924

 GradGradGradGradGradGradGradGradGradGradGradGradGradGradGradGradGradGrad
 Berny optimization.
 FormGI is forming the generalized inverse of G from B-inverse, IUseBI=4.
 Internal  Forces:  Max     0.000056667 RMS     0.000013311
 Search for a local minimum.
 Step number   1 out of a maximum of  114
 All quantities printed in internal units (Hartrees-Bohrs-Radians)
 Mixed Optimization -- En-DIIS/RFO-DIIS
 Second derivative matrix not updated -- first step.
 ITU=  0
     Eigenvalues ---    0.00396   0.00588   0.00762   0.00935   0.01318
     Eigenvalues ---    0.02304   0.02387   0.03367   0.03596   0.04478
     Eigenvalues ---    0.04634   0.04969   0.05164   0.05880   0.06220
     Eigenvalues ---    0.07113   0.08228   0.08317   0.08324   0.09441
     Eigenvalues ---    0.09478   0.10107   0.12702   0.13344   0.13853
     Eigenvalues ---    0.14067   0.15052   0.15895   0.18199   0.22056
     Eigenvalues ---    0.24999   0.26728   0.27770   0.28183   0.28541
     Eigenvalues ---    0.29786   0.30363   0.30453   0.31181   0.33856
     Eigenvalues ---    0.33856   0.34279   0.34279   0.34349   0.34349
     Eigenvalues ---    0.34546   0.34546   0.34637   0.34637   0.39747
     Eigenvalues ---    0.99688
 RFO step:  Lambda=-1.28765275D-07 EMin= 3.95901410D-03
 Linear search not attempted -- first point.
 Iteration  1 RMS(Cart)=  0.00023301 RMS(Int)=  0.00000005
 Iteration  2 RMS(Cart)=  0.00000005 RMS(Int)=  0.00000001
 Variable       Old X    -DE/DX   Delta X   Delta X   Delta X     New X
                                 (Linear)    (Quad)   (Total)
    R1        2.28764  -0.00006   0.00000  -0.00006  -0.00006   2.28758
    R2        2.88746   0.00004   0.00000   0.00011   0.00011   2.88757
    R3        2.88746   0.00004   0.00000   0.00011   0.00011   2.88757
    R4        2.92578  -0.00004   0.00000  -0.00016  -0.00016   2.92562
    R5        2.06418  -0.00001   0.00000  -0.00004  -0.00004   2.06414
    R6        2.07574   0.00000   0.00000  -0.00001  -0.00001   2.07573
    R7        2.86322   0.00002   0.00000   0.00008   0.00008   2.86330
    R8        2.06744  -0.00001   0.00000  -0.00004  -0.00004   2.06741
    R9        2.06861  -0.00001   0.00000  -0.00002  -0.00002   2.06859
   R10        2.70353   0.00003   0.00000   0.00007   0.00007   2.70360
   R11        2.77855  -0.00001   0.00000   0.00002   0.00002   2.77857
   R12        2.06268  -0.00001   0.00000  -0.00003  -0.00003   2.06265
   R13        2.70353   0.00003   0.00000   0.00007   0.00007   2.70359
   R14        2.86322   0.00002   0.00000   0.00008   0.00008   2.86330
   R15        2.06268  -0.00001   0.00000  -0.00003  -0.00003   2.06265
   R16        2.92578  -0.00004   0.00000  -0.00016  -0.00016   2.92562
   R17        2.06744  -0.00001   0.00000  -0.00004  -0.00004   2.06741
   R18        2.06861  -0.00001   0.00000  -0.00002  -0.00002   2.06859
   R19        2.06418  -0.00001   0.00000  -0.00004  -0.00004   2.06414
   R20        2.07574   0.00000   0.00000  -0.00001  -0.00001   2.07573
    A1        2.10109   0.00001   0.00000   0.00008   0.00008   2.10117
    A2        2.10109   0.00001   0.00000   0.00008   0.00008   2.10117
    A3        2.08099  -0.00001   0.00000  -0.00015  -0.00015   2.08084
    A4        1.98325   0.00000   0.00000  -0.00001  -0.00001   1.98323
    A5        1.85757   0.00000   0.00000   0.00002   0.00002   1.85759
    A6        1.90609   0.00000   0.00000  -0.00008  -0.00008   1.90601
    A7        1.92603   0.00000   0.00000  -0.00003  -0.00003   1.92600
    A8        1.90488   0.00001   0.00000   0.00005   0.00005   1.90493
    A9        1.88319   0.00000   0.00000   0.00005   0.00005   1.88324
   A10        1.96144   0.00002   0.00000   0.00014   0.00014   1.96158
   A11        1.92555   0.00000   0.00000   0.00006   0.00006   1.92561
   A12        1.89647   0.00000   0.00000   0.00002   0.00002   1.89649
   A13        1.91019  -0.00002   0.00000  -0.00019  -0.00019   1.91001
   A14        1.90845  -0.00001   0.00000  -0.00007  -0.00007   1.90838
   A15        1.85879   0.00001   0.00000   0.00003   0.00003   1.85882
   A16        2.06692  -0.00002   0.00000  -0.00018  -0.00018   2.06674
   A17        2.12088   0.00000   0.00000   0.00003   0.00003   2.12091
   A18        2.00731   0.00001   0.00000   0.00006   0.00006   2.00737
   A19        1.98478   0.00000   0.00000  -0.00014  -0.00014   1.98464
   A20        2.04629   0.00000   0.00000   0.00011   0.00011   2.04640
   A21        2.12089  -0.00001   0.00000   0.00003   0.00003   2.12091
   A22        2.04629   0.00000   0.00000   0.00011   0.00011   2.04639
   A23        2.06694  -0.00002   0.00000  -0.00018  -0.00018   2.06675
   A24        1.98477   0.00000   0.00000  -0.00014  -0.00014   1.98464
   A25        2.00730   0.00001   0.00000   0.00007   0.00007   2.00737
   A26        1.96143   0.00002   0.00000   0.00015   0.00015   1.96158
   A27        1.91020  -0.00002   0.00000  -0.00019  -0.00019   1.91001
   A28        1.90845  -0.00001   0.00000  -0.00007  -0.00007   1.90838
   A29        1.92555   0.00000   0.00000   0.00006   0.00006   1.92561
   A30        1.89647   0.00000   0.00000   0.00002   0.00002   1.89649
   A31        1.85879   0.00001   0.00000   0.00003   0.00003   1.85882
   A32        1.98325   0.00000   0.00000  -0.00001  -0.00001   1.98323
   A33        1.85757   0.00000   0.00000   0.00002   0.00002   1.85759
   A34        1.90609   0.00000   0.00000  -0.00008  -0.00008   1.90601
   A35        1.92603   0.00000   0.00000  -0.00003  -0.00003   1.92600
   A36        1.90487   0.00001   0.00000   0.00006   0.00006   1.90493
   A37        1.88319   0.00000   0.00000   0.00005   0.00005   1.88324
    D1       -2.03712   0.00000   0.00000  -0.00023  -0.00023  -2.03735
    D2        0.08621   0.00000   0.00000  -0.00027  -0.00027   0.08595
    D3        2.11492   0.00000   0.00000  -0.00023  -0.00023   2.11468
    D4        1.09867   0.00000   0.00000   0.00027   0.00027   1.09894
    D5       -3.06118  -0.00001   0.00000   0.00024   0.00024  -3.06095
    D6       -1.03248   0.00000   0.00000   0.00027   0.00027  -1.03221
    D7        2.03710   0.00000   0.00000   0.00024   0.00024   2.03734
    D8       -0.08623   0.00000   0.00000   0.00028   0.00028  -0.08595
    D9       -2.11494   0.00000   0.00000   0.00025   0.00025  -2.11469
   D10       -1.09869   0.00000   0.00000  -0.00026  -0.00026  -1.09895
   D11        3.06117   0.00001   0.00000  -0.00023  -0.00023   3.06094
   D12        1.03246   0.00000   0.00000  -0.00026  -0.00026   1.03220
   D13       -1.36541   0.00000   0.00000   0.00000   0.00000  -1.36541
   D14        0.77167  -0.00001   0.00000  -0.00010  -0.00010   0.77156
   D15        2.80339   0.00000   0.00000  -0.00002  -0.00002   2.80337
   D16        2.83302   0.00000   0.00000   0.00000   0.00000   2.83302
   D17       -1.31309   0.00000   0.00000  -0.00010  -0.00010  -1.31319
   D18        0.71864   0.00000   0.00000  -0.00002  -0.00002   0.71862
   D19        0.76641  -0.00001   0.00000  -0.00008  -0.00008   0.76634
   D20        2.90348  -0.00001   0.00000  -0.00018  -0.00018   2.90331
   D21       -1.34797   0.00000   0.00000  -0.00009  -0.00009  -1.34807
   D22        2.34255   0.00000   0.00000  -0.00029  -0.00029   2.34227
   D23        1.13308  -0.00001   0.00000  -0.00023  -0.00023   1.13285
   D24       -1.51074  -0.00001   0.00000  -0.00068  -0.00068  -1.51142
   D25        0.19683  -0.00001   0.00000  -0.00033  -0.00033   0.19650
   D26       -1.01264  -0.00001   0.00000  -0.00027  -0.00027  -1.01291
   D27        2.62672  -0.00001   0.00000  -0.00072  -0.00072   2.62600
   D28       -1.83313   0.00000   0.00000  -0.00022  -0.00022  -1.83334
   D29       -3.04260   0.00000   0.00000  -0.00016  -0.00016  -3.04276
   D30        0.59677  -0.00001   0.00000  -0.00061  -0.00061   0.59616
   D31       -0.00002   0.00000   0.00000   0.00001   0.00001  -0.00001
   D32       -2.63330  -0.00001   0.00000  -0.00045  -0.00045  -2.63374
   D33        2.63328   0.00001   0.00000   0.00046   0.00046   2.63374
   D34        0.00000   0.00000   0.00000   0.00000   0.00000   0.00000
   D35       -1.13306   0.00001   0.00000   0.00022   0.00022  -1.13284
   D36        1.01267   0.00001   0.00000   0.00025   0.00025   1.01293
   D37        3.04263   0.00000   0.00000   0.00014   0.00014   3.04277
   D38       -2.34254   0.00000   0.00000   0.00028   0.00028  -2.34226
   D39       -0.19681   0.00001   0.00000   0.00032   0.00032  -0.19649
   D40        1.83315   0.00000   0.00000   0.00021   0.00021   1.83335
   D41        1.51075   0.00001   0.00000   0.00067   0.00067   1.51142
   D42       -2.62671   0.00001   0.00000   0.00071   0.00071  -2.62600
   D43       -0.59675   0.00000   0.00000   0.00060   0.00060  -0.59615
   D44        1.36542   0.00000   0.00000   0.00000   0.00000   1.36542
   D45       -2.83301   0.00000   0.00000  -0.00001  -0.00001  -2.83302
   D46       -0.76640   0.00001   0.00000   0.00007   0.00007  -0.76633
   D47       -0.77166   0.00001   0.00000   0.00010   0.00010  -0.77156
   D48        1.31310   0.00000   0.00000   0.00009   0.00009   1.31319
   D49       -2.90348   0.00001   0.00000   0.00017   0.00017  -2.90331
   D50       -2.80339   0.00000   0.00000   0.00002   0.00002  -2.80337
   D51       -0.71863   0.00000   0.00000   0.00001   0.00001  -0.71862
   D52        1.34798   0.00000   0.00000   0.00009   0.00009   1.34807
         Item               Value     Threshold  Converged?
 Maximum Force            0.000057     0.000450     YES
 RMS     Force            0.000013     0.000300     YES
 Maximum Displacement     0.001033     0.001800     YES
 RMS     Displacement     0.000233     0.001200     YES
 Predicted change in Energy=-6.438462D-08
 Optimization completed.
    -- Stationary point found.
                           ----------------------------
                           !   Optimized Parameters   !
                           ! (Angstroms and Degrees)  !
 --------------------------                            --------------------------
 ! Name  Definition              Value          Derivative Info.                !
 --------------------------------------------------------------------------------
 ! R1    R(1,2)                  1.2106         -DE/DX =   -0.0001              !
 ! R2    R(2,3)                  1.528          -DE/DX =    0.0                 !
 ! R3    R(2,9)                  1.528          -DE/DX =    0.0                 !
 ! R4    R(3,4)                  1.5483         -DE/DX =    0.0                 !
 ! R5    R(3,10)                 1.0923         -DE/DX =    0.0                 !
 ! R6    R(3,11)                 1.0984         -DE/DX =    0.0                 !
 ! R7    R(4,5)                  1.5152         -DE/DX =    0.0                 !
 ! R8    R(4,12)                 1.094          -DE/DX =    0.0                 !
 ! R9    R(4,13)                 1.0947         -DE/DX =    0.0                 !
 ! R10   R(5,6)                  1.4306         -DE/DX =    0.0                 !
 ! R11   R(5,7)                  1.4703         -DE/DX =    0.0                 !
 ! R12   R(5,14)                 1.0915         -DE/DX =    0.0                 !
 ! R13   R(6,7)                  1.4306         -DE/DX =    0.0                 !
 ! R14   R(7,8)                  1.5152         -DE/DX =    0.0                 !
 ! R15   R(7,15)                 1.0915         -DE/DX =    0.0                 !
 ! R16   R(8,9)                  1.5483         -DE/DX =    0.0                 !
 ! R17   R(8,16)                 1.094          -DE/DX =    0.0                 !
 ! R18   R(8,17)                 1.0947         -DE/DX =    0.0                 !
 ! R19   R(9,18)                 1.0923         -DE/DX =    0.0                 !
 ! R20   R(9,19)                 1.0984         -DE/DX =    0.0                 !
 ! A1    A(1,2,3)              120.3836         -DE/DX =    0.0                 !
 ! A2    A(1,2,9)              120.3835         -DE/DX =    0.0                 !
 ! A3    A(3,2,9)              119.232          -DE/DX =    0.0                 !
 ! A4    A(2,3,4)              113.6317         -DE/DX =    0.0                 !
 ! A5    A(2,3,10)             106.4307         -DE/DX =    0.0                 !
 ! A6    A(2,3,11)             109.2108         -DE/DX =    0.0                 !
 ! A7    A(4,3,10)             110.3537         -DE/DX =    0.0                 !
 ! A8    A(4,3,11)             109.1414         -DE/DX =    0.0                 !
 ! A9    A(10,3,11)            107.8988         -DE/DX =    0.0                 !
 ! A10   A(3,4,5)              112.3823         -DE/DX =    0.0                 !
 ! A11   A(3,4,12)             110.3257         -DE/DX =    0.0                 !
 ! A12   A(3,4,13)             108.66           -DE/DX =    0.0                 !
 ! A13   A(5,4,12)             109.4461         -DE/DX =    0.0                 !
 ! A14   A(5,4,13)             109.346          -DE/DX =    0.0                 !
 ! A15   A(12,4,13)            106.5006         -DE/DX =    0.0                 !
 ! A16   A(4,5,6)              118.4259         -DE/DX =    0.0                 !
 ! A17   A(4,5,7)              121.5178         -DE/DX =    0.0                 !
 ! A18   A(4,5,14)             115.0103         -DE/DX =    0.0                 !
 ! A19   A(6,5,14)             113.7193         -DE/DX =    0.0                 !
 ! A20   A(7,5,14)             117.2439         -DE/DX =    0.0                 !
 ! A21   A(5,7,8)              121.5179         -DE/DX =    0.0                 !
 ! A22   A(5,7,15)             117.2437         -DE/DX =    0.0                 !
 ! A23   A(6,7,8)              118.4267         -DE/DX =    0.0                 !
 ! A24   A(6,7,15)             113.7191         -DE/DX =    0.0                 !
 ! A25   A(8,7,15)             115.0099         -DE/DX =    0.0                 !
 ! A26   A(7,8,9)              112.3818         -DE/DX =    0.0                 !
 ! A27   A(7,8,16)             109.4465         -DE/DX =    0.0                 !
 ! A28   A(7,8,17)             109.3461         -DE/DX =    0.0                 !
 ! A29   A(9,8,16)             110.326          -DE/DX =    0.0                 !
 ! A30   A(9,8,17)             108.6598         -DE/DX =    0.0                 !
 ! A31   A(16,8,17)            106.5007         -DE/DX =    0.0                 !
 ! A32   A(2,9,8)              113.6318         -DE/DX =    0.0                 !
 ! A33   A(2,9,18)             106.4307         -DE/DX =    0.0                 !
 ! A34   A(2,9,19)             109.211          -DE/DX =    0.0                 !
 ! A35   A(8,9,18)             110.3537         -DE/DX =    0.0                 !
 ! A36   A(8,9,19)             109.141          -DE/DX =    0.0                 !
 ! A37   A(18,9,19)            107.8989         -DE/DX =    0.0                 !
 ! D1    D(1,2,3,4)           -116.7183         -DE/DX =    0.0                 !
 ! D2    D(1,2,3,10)             4.9396         -DE/DX =    0.0                 !
 ! D3    D(1,2,3,11)           121.1759         -DE/DX =    0.0                 !
 ! D4    D(9,2,3,4)             62.9491         -DE/DX =    0.0                 !
 ! D5    D(9,2,3,10)          -175.393          -DE/DX =    0.0                 !
 ! D6    D(9,2,3,11)           -59.1567         -DE/DX =    0.0                 !
 ! D7    D(1,2,9,8)            116.7173         -DE/DX =    0.0                 !
 ! D8    D(1,2,9,18)            -4.9407         -DE/DX =    0.0                 !
 ! D9    D(1,2,9,19)          -121.1771         -DE/DX =    0.0                 !
 ! D10   D(3,2,9,8)            -62.9501         -DE/DX =    0.0                 !
 ! D11   D(3,2,9,18)           175.3919         -DE/DX =    0.0                 !
 ! D12   D(3,2,9,19)            59.1554         -DE/DX =    0.0                 !
 ! D13   D(2,3,4,5)            -78.2321         -DE/DX =    0.0                 !
 ! D14   D(2,3,4,12)            44.2132         -DE/DX =    0.0                 !
 ! D15   D(2,3,4,13)           160.6227         -DE/DX =    0.0                 !
 ! D16   D(10,3,4,5)           162.3203         -DE/DX =    0.0                 !
 ! D17   D(10,3,4,12)          -75.2344         -DE/DX =    0.0                 !
 ! D18   D(10,3,4,13)           41.1751         -DE/DX =    0.0                 !
 ! D19   D(11,3,4,5)            43.9121         -DE/DX =    0.0                 !
 ! D20   D(11,3,4,12)          166.3574         -DE/DX =    0.0                 !
 ! D21   D(11,3,4,13)          -77.2331         -DE/DX =    0.0                 !
 ! D22   D(3,4,5,6)            134.2184         -DE/DX =    0.0                 !
 ! D23   D(3,4,5,7)             64.9208         -DE/DX =    0.0                 !
 ! D24   D(3,4,5,14)           -86.5588         -DE/DX =    0.0                 !
 ! D25   D(12,4,5,6)            11.2773         -DE/DX =    0.0                 !
 ! D26   D(12,4,5,7)           -58.0203         -DE/DX =    0.0                 !
 ! D27   D(12,4,5,14)          150.5001         -DE/DX =    0.0                 !
 ! D28   D(13,4,5,6)          -105.0304         -DE/DX =    0.0                 !
 ! D29   D(13,4,5,7)          -174.328          -DE/DX =    0.0                 !
 ! D30   D(13,4,5,14)           34.1924         -DE/DX =    0.0                 !
 ! D31   D(4,5,7,8)             -0.001          -DE/DX =    0.0                 !
 ! D32   D(4,5,7,15)          -150.8768         -DE/DX =    0.0                 !
 ! D33   D(14,5,7,8)           150.8758         -DE/DX =    0.0                 !
 ! D34   D(14,5,7,15)           -0.0001         -DE/DX =    0.0                 !
 ! D35   D(5,7,8,9)            -64.9194         -DE/DX =    0.0                 !
 ! D36   D(5,7,8,16)            58.0218         -DE/DX =    0.0                 !
 ! D37   D(5,7,8,17)           174.3299         -DE/DX =    0.0                 !
 ! D38   D(6,7,8,9)           -134.2177         -DE/DX =    0.0                 !
 ! D39   D(6,7,8,16)           -11.2764         -DE/DX =    0.0                 !
 ! D40   D(6,7,8,17)           105.0317         -DE/DX =    0.0                 !
 ! D41   D(15,7,8,9)            86.5594         -DE/DX =    0.0                 !
 ! D42   D(15,7,8,16)         -150.4994         -DE/DX =    0.0                 !
 ! D43   D(15,7,8,17)          -34.1913         -DE/DX =    0.0                 !
 ! D44   D(7,8,9,2)             78.2329         -DE/DX =    0.0                 !
 ! D45   D(7,8,9,18)          -162.3194         -DE/DX =    0.0                 !
 ! D46   D(7,8,9,19)           -43.9113         -DE/DX =    0.0                 !
 ! D47   D(16,8,9,2)           -44.2127         -DE/DX =    0.0                 !
 ! D48   D(16,8,9,18)           75.235          -DE/DX =    0.0                 !
 ! D49   D(16,8,9,19)         -166.3569         -DE/DX =    0.0                 !
 ! D50   D(17,8,9,2)          -160.6223         -DE/DX =    0.0                 !
 ! D51   D(17,8,9,18)          -41.1746         -DE/DX =    0.0                 !
 ! D52   D(17,8,9,19)           77.2335         -DE/DX =    0.0                 !
 --------------------------------------------------------------------------------
 GradGradGradGradGradGradGradGradGradGradGradGradGradGradGradGradGradGrad

                          Input orientation:                          
 ---------------------------------------------------------------------
 Center     Atomic      Atomic             Coordinates (Angstroms)
 Number     Number       Type             X           Y           Z
 ---------------------------------------------------------------------
      1          8           0       -2.214050   -1.925885   -0.904460
      2          6           0       -1.157584   -1.500825   -0.493764
      3          6           0       -0.966803   -1.211938    0.994477
      4          6           0       -0.698919    0.280464    1.307639
      5          6           0        0.731909    0.683654    1.014641
      6          8           0        0.963725    1.902310    0.301977
      7          6           0        1.270032    0.668157   -0.353604
      8          6           0        0.418979    0.248252   -1.534735
      9          6           0       -0.001961   -1.239743   -1.458692
     10          1           0       -1.878729   -1.547139    1.493663
     11          1           0       -0.131927   -1.815446    1.375685
     12          1           0       -1.380996    0.917039    0.736259
     13          1           0       -0.917321    0.461146    2.364967
     14          1           0        1.436206    0.511369    1.830550
     15          1           0        2.340077    0.485341   -0.467650
     16          1           0       -0.464656    0.890631   -1.593653
     17          1           0        0.980680    0.406442   -2.460886
     18          1           0       -0.332139   -1.591727   -2.438613
     19          1           0        0.864262   -1.844137   -1.157152
 ---------------------------------------------------------------------
                    Distance matrix (angstroms):
                    1          2          3          4          5
     1  O    0.000000
     2  C    1.210566   0.000000
     3  C    2.381451   1.527977   0.000000
     4  C    3.472317   2.574571   1.548256   0.000000
     5  C    4.378507   3.258438   2.545446   1.515150   0.000000
     6  O    5.119456   4.088335   3.728945   2.531033   1.430647
     7  C    4.378507   3.258442   3.217998   2.605149   1.470343
     8  C    3.472313   2.574575   3.232562   3.054476   2.605152
     9  C    2.381450   1.527977   2.636234   3.232548   3.217980
    10  H    2.450895   2.114725   1.092317   2.183275   3.467179
    11  H    3.089740   2.155411   1.098435   2.172314   2.668720
    12  H    3.386467   2.721936   2.184211   1.094044   2.143907
    13  H    4.250716   3.475543   2.163309   1.094663   2.143094
    14  H    5.171544   4.022326   3.072989   2.210320   1.091524
    15  H    5.171546   4.022334   3.994249   3.525497   2.196069
    16  H    3.386463   2.721941   3.372145   2.974001   2.877118
    17  H    4.250707   3.475544   4.283850   4.127797   3.495428
    18  H    2.450893   2.114724   3.511857   4.204050   4.270190
    19  H    3.089748   2.155413   2.895165   3.610078   3.335255
                    6          7          8          9         10
     6  O    0.000000
     7  C    1.430644   0.000000
     8  C    2.531041   1.515151   0.000000
     9  C    3.728941   2.545441   1.548258   0.000000
    10  H    4.625836   4.270202   4.204056   3.511859   0.000000
    11  H    4.021817   3.335298   3.610110   2.895171   1.771221
    12  H    2.580131   2.877098   2.973987   3.372130   2.625561
    13  H    3.141849   3.495425   4.127796   4.283839   2.390959
    14  H    2.120021   2.196071   3.525497   3.994225   3.916599
    15  H    2.120017   1.091524   2.210317   3.072982   5.077012
    16  H    2.580151   2.143912   1.094044   2.184215   4.180173
    17  H    3.141866   2.143095   1.094663   2.163308   5.256534
    18  H    4.625840   3.467174   2.183277   1.092317   4.225722
    19  H    4.021792   2.668700   2.172311   1.098435   3.826098
                   11         12         13         14         15
    11  H    0.000000
    12  H    3.071728   0.000000
    13  H    2.603535   1.753717   0.000000
    14  H    2.842537   3.049373   2.413963   0.000000
    15  H    3.847377   3.934736   4.316822   2.469693   0.000000
    16  H    4.031195   2.503771   4.007498   3.934754   3.049372
    17  H    4.570991   4.007488   5.185967   4.316820   2.413954
    18  H    3.826095   4.180170   5.256531   5.076989   3.916586
    19  H    2.721852   4.031164   4.570962   3.847323   2.842518
                   16         17         18         19
    16  H    0.000000
    17  H    1.753718   0.000000
    18  H    2.625571   2.390956   0.000000
    19  H    3.071727   2.603532   1.771222   0.000000
 Stoichiometry    C7H10O2
 Framework group  C1[X(C7H10O2)]
 Deg. of freedom    51
 Full point group                 C1      NOp   1
 Largest Abelian subgroup         C1      NOp   1
 Largest concise Abelian subgroup C1      NOp   1
                         Standard orientation:                         
 ---------------------------------------------------------------------
 Center     Atomic      Atomic             Coordinates (Angstroms)
 Number     Number       Type             X           Y           Z
 ---------------------------------------------------------------------
      1          8           0       -2.721040   -0.000007   -0.485964
      2          6           0       -1.646046    0.000000    0.070684
      3          6           0       -0.957990    1.318121    0.422608
      4          6           0        0.392162    1.527236   -0.305718
      5          6           0        1.517975    0.735171    0.327415
      6          8           0        2.398245    0.000006   -0.527811
      7          6           0        1.517981   -0.735173    0.327403
      8          6           0        0.392163   -1.527240   -0.305722
      9          6           0       -0.957981   -1.318113    0.422619
     10          1           0       -1.659248    2.112862    0.158448
     11          1           0       -0.792340    1.360939    1.507635
     12          1           0        0.301518    1.251878   -1.360656
     13          1           0        0.641063    2.592981   -0.282845
     14          1           0        2.025373    1.234843    1.154639
     15          1           0        2.025384   -1.234851    1.154621
     16          1           0        0.301512   -1.251893   -1.360662
     17          1           0        0.641059   -2.592986   -0.282838
     18          1           0       -1.659241   -2.112860    0.158484
     19          1           0       -0.792309   -1.360914    1.507644
 ---------------------------------------------------------------------
 Rotational constants (GHZ):      2.9428901      1.3710511      1.0458821
 1\1\GINC-ALCHEMY-F\FOpt\RB3LYP\6-31G(2df,p)\C7H10O2\PUCK\27-Jan-2020\0
 \\# b3lyp 6-31G(2df,p) opt Freq\\titel\\0,1\O,-2.2140500262,-1.9258851
 99,-0.9044604201\C,-1.1575836732,-1.5008246383,-0.4937642704\C,-0.9668
 026733,-1.2119380933,0.9944765502\C,-0.6989194502,0.2804640911,1.30763
 92472\C,0.7319094079,0.6836535865,1.0146411197\O,0.9637250939,1.902309
 9677,0.3019774748\C,1.2700318565,0.6681574603,-0.3536037402\C,0.418978
 5811,0.2482521045,-1.5347350283\C,-0.0019605181,-1.2397434037,-1.45869
 15963\H,-1.8787291099,-1.5471391996,1.4936630085\H,-0.1319272582,-1.81
 54461102,1.3756849462\H,-1.3809962295,0.9170389384,0.7362590331\H,-0.9
 173210548,0.4611461413,2.364967428\H,1.4362064129,0.5113688889,1.83055
 0473\H,2.3400771961,0.4853410298,-0.4676500124\H,-0.4646555615,0.89063
 10547,-1.5936532002\H,0.9806800336,0.4064417318,-2.4608856576\H,-0.332
 1388807,-1.5917273834,-2.4386131064\H,0.8642621036,-1.8441365374,-1.15
 71522387\\Version=ES64L-G09RevD.01\State=1-A\HF=-423.2000438\RMSD=3.50
 2e-09\RMSF=3.092e-05\Dipole=0.8408354,-0.245391,0.3334819\Quadrupole=-
 1.0774654,-3.7866385,4.8641039,-5.4337713,-2.6809101,-2.0274062\PG=C01
  [X(C7H10O2)]\\@


 NO HUMAN INVESTIGATION CAN BECOME REAL SCIENCE
 WITHOUT GOING THROUGH MATHEMATICAL PEOPLE.
 -- LEONARDO DA VINCI, IN "PENSIERI" CA. 1492
 Job cpu time:       0 days  0 hours  7 minutes 36.0 seconds.
 File lengths (MBytes):  RWF=     52 Int=      0 D2E=      0 Chk=      7 Scr=      1
 Normal termination of Gaussian 09 at Mon Jan 27 13:07:26 2020.
 Link1:  Proceeding to internal job step number  2.
 ----------------------------------------------------------------------
 #N Geom=AllCheck Guess=TCheck SCRF=Check GenChk RB3LYP/6-31G(2df,p) Fr
 eq
 ----------------------------------------------------------------------
 1/10=4,29=7,30=1,38=1,40=1/1,3;
 2/12=2,40=1/2;
 3/5=1,6=6,7=104,11=2,14=-4,16=1,25=1,30=1,70=2,71=2,74=-5,116=1,140=1/1,2,3;
 4/5=101/1;
 5/5=2,98=1/2;
 8/6=4,10=90,11=11/1;
 11/6=1,8=1,9=11,15=111,16=1/1,2,10;
 10/6=1/2;
 6/7=2,8=2,9=2,10=2,18=1,28=1/1;
 7/8=1,10=1,25=1/1,2,3,16;
 1/10=4,30=1/3;
 99//99;
 Structure from the checkpoint file:  "/scratch/puck/g09_8678d557-3a0e-468e-8a5b-aa6ecabf9cf9/Gau-27362.chk"
 -----
 titel
 -----
 Charge =  0 Multiplicity = 1
 Redundant internal coordinates found in file.
 O,0,-2.2140500262,-1.925885199,-0.9044604201
 C,0,-1.1575836732,-1.5008246383,-0.4937642704
 C,0,-0.9668026733,-1.2119380933,0.9944765502
 C,0,-0.6989194502,0.2804640911,1.3076392472
 C,0,0.7319094079,0.6836535865,1.0146411197
 O,0,0.9637250939,1.9023099677,0.3019774748
 C,0,1.2700318565,0.6681574603,-0.3536037402
 C,0,0.4189785811,0.2482521045,-1.5347350283
 C,0,-0.0019605181,-1.2397434037,-1.4586915963
 H,0,-1.8787291099,-1.5471391996,1.4936630085
 H,0,-0.1319272582,-1.8154461102,1.3756849462
 H,0,-1.3809962295,0.9170389384,0.7362590331
 H,0,-0.9173210548,0.4611461413,2.364967428
 H,0,1.4362064129,0.5113688889,1.830550473
 H,0,2.3400771961,0.4853410298,-0.4676500124
 H,0,-0.4646555615,0.8906310547,-1.5936532002
 H,0,0.9806800336,0.4064417318,-2.4608856576
 H,0,-0.3321388807,-1.5917273834,-2.4386131064
 H,0,0.8642621036,-1.8441365374,-1.1571522387
 Recover connectivity data from disk.

 GradGradGradGradGradGradGradGradGradGradGradGradGradGradGradGradGradGrad
 Berny optimization.
 Initialization pass.
                           ----------------------------
                           !    Initial Parameters    !
                           ! (Angstroms and Degrees)  !
 --------------------------                            --------------------------
 ! Name  Definition              Value          Derivative Info.                !
 --------------------------------------------------------------------------------
 ! R1    R(1,2)                  1.2106         calculate D2E/DX2 analytically  !
 ! R2    R(2,3)                  1.528          calculate D2E/DX2 analytically  !
 ! R3    R(2,9)                  1.528          calculate D2E/DX2 analytically  !
 ! R4    R(3,4)                  1.5483         calculate D2E/DX2 analytically  !
 ! R5    R(3,10)                 1.0923         calculate D2E/DX2 analytically  !
 ! R6    R(3,11)                 1.0984         calculate D2E/DX2 analytically  !
 ! R7    R(4,5)                  1.5152         calculate D2E/DX2 analytically  !
 ! R8    R(4,12)                 1.094          calculate D2E/DX2 analytically  !
 ! R9    R(4,13)                 1.0947         calculate D2E/DX2 analytically  !
 ! R10   R(5,6)                  1.4306         calculate D2E/DX2 analytically  !
 ! R11   R(5,7)                  1.4703         calculate D2E/DX2 analytically  !
 ! R12   R(5,14)                 1.0915         calculate D2E/DX2 analytically  !
 ! R13   R(6,7)                  1.4306         calculate D2E/DX2 analytically  !
 ! R14   R(7,8)                  1.5152         calculate D2E/DX2 analytically  !
 ! R15   R(7,15)                 1.0915         calculate D2E/DX2 analytically  !
 ! R16   R(8,9)                  1.5483         calculate D2E/DX2 analytically  !
 ! R17   R(8,16)                 1.094          calculate D2E/DX2 analytically  !
 ! R18   R(8,17)                 1.0947         calculate D2E/DX2 analytically  !
 ! R19   R(9,18)                 1.0923         calculate D2E/DX2 analytically  !
 ! R20   R(9,19)                 1.0984         calculate D2E/DX2 analytically  !
 ! A1    A(1,2,3)              120.3836         calculate D2E/DX2 analytically  !
 ! A2    A(1,2,9)              120.3835         calculate D2E/DX2 analytically  !
 ! A3    A(3,2,9)              119.232          calculate D2E/DX2 analytically  !
 ! A4    A(2,3,4)              113.6317         calculate D2E/DX2 analytically  !
 ! A5    A(2,3,10)             106.4307         calculate D2E/DX2 analytically  !
 ! A6    A(2,3,11)             109.2108         calculate D2E/DX2 analytically  !
 ! A7    A(4,3,10)             110.3537         calculate D2E/DX2 analytically  !
 ! A8    A(4,3,11)             109.1414         calculate D2E/DX2 analytically  !
 ! A9    A(10,3,11)            107.8988         calculate D2E/DX2 analytically  !
 ! A10   A(3,4,5)              112.3823         calculate D2E/DX2 analytically  !
 ! A11   A(3,4,12)             110.3257         calculate D2E/DX2 analytically  !
 ! A12   A(3,4,13)             108.66           calculate D2E/DX2 analytically  !
 ! A13   A(5,4,12)             109.4461         calculate D2E/DX2 analytically  !
 ! A14   A(5,4,13)             109.346          calculate D2E/DX2 analytically  !
 ! A15   A(12,4,13)            106.5006         calculate D2E/DX2 analytically  !
 ! A16   A(4,5,6)              118.4259         calculate D2E/DX2 analytically  !
 ! A17   A(4,5,7)              121.5178         calculate D2E/DX2 analytically  !
 ! A18   A(4,5,14)             115.0103         calculate D2E/DX2 analytically  !
 ! A19   A(6,5,14)             113.7193         calculate D2E/DX2 analytically  !
 ! A20   A(7,5,14)             117.2439         calculate D2E/DX2 analytically  !
 ! A21   A(5,7,8)              121.5179         calculate D2E/DX2 analytically  !
 ! A22   A(5,7,15)             117.2437         calculate D2E/DX2 analytically  !
 ! A23   A(6,7,8)              118.4267         calculate D2E/DX2 analytically  !
 ! A24   A(6,7,15)             113.7191         calculate D2E/DX2 analytically  !
 ! A25   A(8,7,15)             115.0099         calculate D2E/DX2 analytically  !
 ! A26   A(7,8,9)              112.3818         calculate D2E/DX2 analytically  !
 ! A27   A(7,8,16)             109.4465         calculate D2E/DX2 analytically  !
 ! A28   A(7,8,17)             109.3461         calculate D2E/DX2 analytically  !
 ! A29   A(9,8,16)             110.326          calculate D2E/DX2 analytically  !
 ! A30   A(9,8,17)             108.6598         calculate D2E/DX2 analytically  !
 ! A31   A(16,8,17)            106.5007         calculate D2E/DX2 analytically  !
 ! A32   A(2,9,8)              113.6318         calculate D2E/DX2 analytically  !
 ! A33   A(2,9,18)             106.4307         calculate D2E/DX2 analytically  !
 ! A34   A(2,9,19)             109.211          calculate D2E/DX2 analytically  !
 ! A35   A(8,9,18)             110.3537         calculate D2E/DX2 analytically  !
 ! A36   A(8,9,19)             109.141          calculate D2E/DX2 analytically  !
 ! A37   A(18,9,19)            107.8989         calculate D2E/DX2 analytically  !
 ! D1    D(1,2,3,4)           -116.7183         calculate D2E/DX2 analytically  !
 ! D2    D(1,2,3,10)             4.9396         calculate D2E/DX2 analytically  !
 ! D3    D(1,2,3,11)           121.1759         calculate D2E/DX2 analytically  !
 ! D4    D(9,2,3,4)             62.9491         calculate D2E/DX2 analytically  !
 ! D5    D(9,2,3,10)          -175.393          calculate D2E/DX2 analytically  !
 ! D6    D(9,2,3,11)           -59.1567         calculate D2E/DX2 analytically  !
 ! D7    D(1,2,9,8)            116.7173         calculate D2E/DX2 analytically  !
 ! D8    D(1,2,9,18)            -4.9407         calculate D2E/DX2 analytically  !
 ! D9    D(1,2,9,19)          -121.1771         calculate D2E/DX2 analytically  !
 ! D10   D(3,2,9,8)            -62.9501         calculate D2E/DX2 analytically  !
 ! D11   D(3,2,9,18)           175.3919         calculate D2E/DX2 analytically  !
 ! D12   D(3,2,9,19)            59.1554         calculate D2E/DX2 analytically  !
 ! D13   D(2,3,4,5)            -78.2321         calculate D2E/DX2 analytically  !
 ! D14   D(2,3,4,12)            44.2132         calculate D2E/DX2 analytically  !
 ! D15   D(2,3,4,13)           160.6227         calculate D2E/DX2 analytically  !
 ! D16   D(10,3,4,5)           162.3203         calculate D2E/DX2 analytically  !
 ! D17   D(10,3,4,12)          -75.2344         calculate D2E/DX2 analytically  !
 ! D18   D(10,3,4,13)           41.1751         calculate D2E/DX2 analytically  !
 ! D19   D(11,3,4,5)            43.9121         calculate D2E/DX2 analytically  !
 ! D20   D(11,3,4,12)          166.3574         calculate D2E/DX2 analytically  !
 ! D21   D(11,3,4,13)          -77.2331         calculate D2E/DX2 analytically  !
 ! D22   D(3,4,5,6)            134.2184         calculate D2E/DX2 analytically  !
 ! D23   D(3,4,5,7)             64.9208         calculate D2E/DX2 analytically  !
 ! D24   D(3,4,5,14)           -86.5588         calculate D2E/DX2 analytically  !
 ! D25   D(12,4,5,6)            11.2773         calculate D2E/DX2 analytically  !
 ! D26   D(12,4,5,7)           -58.0203         calculate D2E/DX2 analytically  !
 ! D27   D(12,4,5,14)          150.5001         calculate D2E/DX2 analytically  !
 ! D28   D(13,4,5,6)          -105.0304         calculate D2E/DX2 analytically  !
 ! D29   D(13,4,5,7)          -174.328          calculate D2E/DX2 analytically  !
 ! D30   D(13,4,5,14)           34.1924         calculate D2E/DX2 analytically  !
 ! D31   D(4,5,7,8)             -0.001          calculate D2E/DX2 analytically  !
 ! D32   D(4,5,7,15)          -150.8768         calculate D2E/DX2 analytically  !
 ! D33   D(14,5,7,8)           150.8758         calculate D2E/DX2 analytically  !
 ! D34   D(14,5,7,15)           -0.0001         calculate D2E/DX2 analytically  !
 ! D35   D(5,7,8,9)            -64.9194         calculate D2E/DX2 analytically  !
 ! D36   D(5,7,8,16)            58.0218         calculate D2E/DX2 analytically  !
 ! D37   D(5,7,8,17)           174.3299         calculate D2E/DX2 analytically  !
 ! D38   D(6,7,8,9)           -134.2177         calculate D2E/DX2 analytically  !
 ! D39   D(6,7,8,16)           -11.2764         calculate D2E/DX2 analytically  !
 ! D40   D(6,7,8,17)           105.0317         calculate D2E/DX2 analytically  !
 ! D41   D(15,7,8,9)            86.5594         calculate D2E/DX2 analytically  !
 ! D42   D(15,7,8,16)         -150.4994         calculate D2E/DX2 analytically  !
 ! D43   D(15,7,8,17)          -34.1913         calculate D2E/DX2 analytically  !
 ! D44   D(7,8,9,2)             78.2329         calculate D2E/DX2 analytically  !
 ! D45   D(7,8,9,18)          -162.3194         calculate D2E/DX2 analytically  !
 ! D46   D(7,8,9,19)           -43.9113         calculate D2E/DX2 analytically  !
 ! D47   D(16,8,9,2)           -44.2127         calculate D2E/DX2 analytically  !
 ! D48   D(16,8,9,18)           75.235          calculate D2E/DX2 analytically  !
 ! D49   D(16,8,9,19)         -166.3569         calculate D2E/DX2 analytically  !
 ! D50   D(17,8,9,2)          -160.6223         calculate D2E/DX2 analytically  !
 ! D51   D(17,8,9,18)          -41.1746         calculate D2E/DX2 analytically  !
 ! D52   D(17,8,9,19)           77.2335         calculate D2E/DX2 analytically  !
 --------------------------------------------------------------------------------
 Trust Radius=3.00D-01 FncErr=1.00D-07 GrdErr=1.00D-07
 Number of steps in this run=      2 maximum allowed number of steps=      2.
 GradGradGradGradGradGradGradGradGradGradGradGradGradGradGradGradGradGrad

                          Input orientation:                          
 ---------------------------------------------------------------------
 Center     Atomic      Atomic             Coordinates (Angstroms)
 Number     Number       Type             X           Y           Z
 ---------------------------------------------------------------------
      1          8           0       -2.214050   -1.925885   -0.904460
      2          6           0       -1.157584   -1.500825   -0.493764
      3          6           0       -0.966803   -1.211938    0.994477
      4          6           0       -0.698919    0.280464    1.307639
      5          6           0        0.731909    0.683654    1.014641
      6          8           0        0.963725    1.902310    0.301977
      7          6           0        1.270032    0.668157   -0.353604
      8          6           0        0.418979    0.248252   -1.534735
      9          6           0       -0.001961   -1.239743   -1.458692
     10          1           0       -1.878729   -1.547139    1.493663
     11          1           0       -0.131927   -1.815446    1.375685
     12          1           0       -1.380996    0.917039    0.736259
[...]
 0440179,0.00103392,0.00390490,-0.00381501,-0.00812776,-0.01488359,-0.0
 1303290,-0.15543534,-0.01083559,-0.05194163,0.45490638,-0.00350209,0.0
 0277171,-0.00588438,-0.00455991,-0.03389991,0.00002574,-0.00170813,-0.
 02447551,-0.07886038,0.01270034,-0.02992012,0.58660630,-0.00006087,-0.
 00008034,0.00207341,0.00131250,0.00076135,-0.00466289,-0.00453797,-0.0
 0990281,0.00016172,-0.19871236,-0.01712547,0.01779529,0.55134524,0.000
 45482,0.00027735,0.00029144,-0.00045808,0.00028092,-0.00090088,-0.0311
 0556,-0.01406678,0.00852972,-0.02266137,-0.07120581,0.00561819,0.03580
 830,0.29784354,0.00075509,-0.00009309,-0.00104815,-0.00296922,-0.00093
 692,0.00244584,-0.00439402,0.00345751,0.00044128,0.01279507,0.00173897
 ,-0.08425758,0.02969333,-0.09977862,0.62661952,-0.00024963,0.00003143,
 -0.00081495,0.00012420,0.00032274,0.00167232,-0.00579157,-0.00092589,0
 .00352916,0.00214923,-0.03463328,0.00684406,-0.06070781,-0.01368420,-0
 .00323000,0.11123400,-0.00149937,-0.00044357,-0.00056403,0.00179010,0.
 00087463,0.00064723,-0.00358953,0.00089487,0.00222439,-0.00370692,-0.0
 1349220,0.00202212,-0.02951061,-0.17456823,0.10182324,-0.01316406,0.39
 802563,-0.00079760,0.00003803,0.00150738,0.00165569,0.00007013,-0.0034
 8668,0.00131730,-0.00131683,-0.00114178,0.00465090,0.01364488,-0.00314
 153,-0.00038486,0.06113620,-0.07198695,-0.02359209,-0.00774022,0.16240
 555,0.00089472,-0.00013224,-0.00026536,-0.00197561,-0.00005239,0.00056
 026,0.00315162,0.00089539,-0.00111361,-0.00987286,0.01417819,0.0271870
 8,-0.08873052,-0.01391799,0.07811627,-0.06713838,0.04699241,0.00299419
 ,0.61522195,0.00054726,0.00027542,0.00005380,-0.00095363,0.00032131,0.
 00044939,0.00022117,0.00044683,0.00108470,-0.00628146,-0.00235836,0.00
 904953,0.00838334,0.01050168,-0.03281300,0.03091787,-0.17805371,-0.051
 89541,-0.04495238,0.30244721,0.00103922,-0.00003936,-0.00200178,-0.001
 10944,0.00131945,0.00569347,-0.00087993,-0.00136247,0.00057319,0.00541
 497,0.00286419,-0.00669453,0.07487163,0.02398437,-0.25301191,0.0058420
 9,-0.09248439,-0.06207523,-0.03805117,0.10284268,0.55814150,-0.0045839
 1,0.00248295,0.00288341,-0.00654448,-0.02552044,-0.00150153,-0.0005495
 6,0.00254140,-0.00029276,0.00200072,-0.00082624,0.00165185,0.00796684,
 0.00164609,0.00815410,0.00529201,-0.00142120,0.00309094,-0.13053345,-0
 .01339849,-0.05552560,0.55393283,0.00601595,0.00094027,0.00010046,-0.0
 1296276,-0.00722011,0.00850152,-0.00001404,0.00067894,-0.00049119,-0.0
 0090399,0.00156592,-0.00028379,0.01197980,-0.00253818,0.00706793,-0.01
 618186,-0.01409160,-0.03345392,-0.01208775,-0.07167493,-0.01409825,-0.
 05999564,0.45532441,0.00452268,-0.00162153,0.00013039,-0.00084893,0.02
 279931,0.00173409,0.00027546,-0.00228917,0.00046853,0.00060338,-0.0004
 5127,-0.00039369,-0.01396680,-0.01122825,-0.02435463,0.00141517,-0.003
 86326,-0.00568366,-0.06060370,-0.02066963,-0.15196645,-0.04118879,-0.0
 1157592,0.53596021,-0.05454777,-0.02549938,0.01699446,-0.10765094,-0.0
 0005778,0.03827418,0.00994696,-0.00307107,-0.00037516,-0.00008608,-0.0
 0035389,-0.00075803,0.00096592,0.00092117,0.00123529,-0.00123786,-0.00
 112327,-0.00136302,-0.00450757,-0.01703598,0.00021005,-0.07712033,-0.0
 1744951,0.00405420,0.50882986,-0.02932385,0.01615823,0.00525412,0.0041
 6996,-0.08556885,-0.00093308,0.00170181,0.01596772,-0.00639405,0.00030
 280,0.00075293,0.00339841,-0.00024762,0.00046143,0.00164315,-0.0016294
 2,0.00084012,0.00021529,-0.00506257,-0.01461258,-0.00898459,-0.0242563
 7,-0.15488002,0.01291631,-0.02513580,0.43565613,-0.00515362,-0.0031768
 2,0.01880095,0.04473573,0.00537764,-0.14219535,0.02282695,0.00507246,-
 0.01415295,-0.00022631,0.00033711,-0.00006876,0.00147462,-0.00060969,0
 .00274427,-0.00359939,-0.00417437,-0.00564083,-0.00472177,-0.02710502,
 0.00095588,-0.00063196,0.00056845,-0.07853060,0.07194129,0.03244594,0.
 55697690,0.00177233,0.00087257,-0.00137951,0.00074514,0.00070682,-0.00
 222861,-0.23727015,-0.06535411,0.10406080,-0.00224235,-0.00051871,0.00
 110484,0.00077395,-0.00101712,0.00071133,-0.00021390,-0.00037813,-0.00
 023897,0.00039114,0.00024796,-0.00059947,-0.00015217,-0.00003424,0.000
 10822,0.00056289,-0.00039280,-0.00066859,0.25313316,0.00112508,-0.0009
 3016,-0.00002078,0.00387047,0.00123095,-0.00301227,-0.06534905,-0.0706
 2215,0.03883554,-0.02773041,-0.01041447,0.01228909,0.00214410,-0.00481
 589,-0.00121377,-0.00208881,-0.00123285,0.00086653,0.00063394,-0.00008
 954,-0.00043845,-0.00000933,-0.00014832,-0.00027476,-0.00054086,0.0007
 8557,-0.00136042,0.07346986,0.07810137,-0.00139345,0.00020721,0.005813
 93,0.03261588,0.01056982,-0.02066176,0.10016337,0.03736340,-0.10169899
 ,-0.00749782,-0.00322396,0.00256048,0.00049604,-0.00171003,0.00032899,
 -0.00078888,-0.00049641,0.00063098,0.00000629,-0.00021524,-0.00033097,
 -0.00028161,-0.00036708,0.00025821,-0.00323780,-0.00228316,-0.00507561
 ,-0.11128697,-0.03696253,0.11284845,0.00139917,-0.00018325,-0.00257015
 ,-0.00505643,-0.00017514,-0.00134203,-0.19567307,0.10641324,-0.0644399
 9,0.00524997,-0.00441361,0.00216521,0.00058925,-0.00110093,0.00140013,
 -0.00008205,0.00029361,-0.00030828,0.00022705,0.00006887,0.00000275,0.
 00011779,0.00010300,0.00016226,-0.00049764,0.00008234,-0.00004857,-0.0
 1866365,0.01488640,-0.00994342,0.21104400,0.00012599,-0.00175877,-0.00
 147137,-0.00541628,0.00307797,-0.00240071,0.10419409,-0.11264498,0.048
 84241,0.02352279,-0.02243581,0.01261020,0.00217012,0.00117239,-0.00013
 128,-0.00026335,0.00125540,-0.00017007,-0.00052713,-0.00031809,0.00084
 276,0.00005380,-0.00014350,0.00005173,0.00058540,-0.00056461,0.0002108
 0,-0.00703852,0.00531215,-0.00396903,-0.11476869,0.13169247,-0.0002805
 3,-0.00539960,-0.00590844,-0.02780581,0.02015989,-0.00614278,-0.066356
 44,0.05186027,-0.08065419,0.00584206,-0.00346131,0.00369425,-0.0000602
 8,0.00026258,0.00085036,0.00011168,-0.00002077,-0.00001046,-0.00011866
 ,0.00009659,-0.00025651,-0.00027984,-0.00020686,0.00019190,0.00184817,
 -0.00180898,0.00076286,0.01114853,-0.00901012,0.00544968,0.07484634,-0
 .05124014,0.08219059,-0.00007202,0.00028608,0.00053396,0.00086223,0.00
 020981,-0.00032504,0.00485442,-0.00321383,0.00398694,-0.14930333,0.093
 09074,-0.08478390,-0.02289379,0.01738282,-0.01887732,0.00520975,-0.000
 72730,-0.00068620,-0.00073828,0.00154917,-0.00106605,-0.00051309,0.000
 33314,-0.00007148,-0.00000916,0.00004097,0.00006000,0.00009102,0.00048
 288,0.00024837,0.00046708,-0.00164953,-0.00046947,0.16151840,-0.001144
 74,-0.00013179,-0.00047273,0.00223161,0.00137545,0.00240868,0.01890498
 ,-0.01995767,0.01329737,0.09556846,-0.13071047,0.08064236,-0.00703905,
 0.00357134,-0.00471947,0.00028237,0.00092667,-0.00127102,0.00010806,0.
 00043771,0.00013645,0.00036474,-0.00053347,0.00064167,0.00024068,-0.00
 062106,-0.00037909,-0.00032302,0.00053633,0.00020290,-0.00168159,-0.00
 570855,-0.00142818,-0.10156042,0.14708793,0.00023720,0.00029862,0.0004
 3777,0.00087425,-0.00050146,0.00051129,0.00587942,-0.00648862,0.004548
 01,-0.08701780,0.08131291,-0.12366500,0.00417339,-0.00395329,0.0019704
 8,-0.00019122,-0.00017159,0.00117235,0.00015997,-0.00028954,0.00076453
 ,0.00009749,0.00005438,-0.00076494,-0.00022529,-0.00000425,0.00006110,
 -0.00008270,0.00049911,-0.00008217,-0.00005948,-0.00249536,0.00040008,
 0.09467776,-0.08660297,0.13186763,-0.00036980,0.00002052,-0.00045989,0
 .00060797,-0.00125753,0.00099850,0.00057045,-0.00275815,-0.00622567,-0
 .05604623,0.00975069,0.04650083,-0.00879552,0.00518086,0.03378996,0.00
 011521,-0.00080449,0.00001441,-0.00563871,-0.00077266,-0.00049900,-0.0
 0028981,0.00017655,-0.00117127,-0.00009318,0.00040067,-0.00012449,0.00
 046873,-0.00005941,-0.00056011,-0.00004504,0.00008705,0.00049178,0.004
 20128,-0.00349260,-0.01996443,0.06368322,-0.00199910,0.00037871,-0.002
 51133,0.00059865,-0.00596923,0.00474581,0.00382402,-0.01087711,-0.0346
 9272,0.00951192,-0.05023704,-0.03768108,-0.00114134,0.00165420,0.00927
 679,-0.00072729,-0.00028135,-0.00002990,-0.00108968,0.00011741,-0.0005
 7319,0.00043444,-0.00038422,-0.00008039,-0.00009557,0.00074910,-0.0003
 0441,-0.00019708,0.00166492,0.00016574,0.00054471,0.00108400,0.0005406
 2,-0.00420320,0.00327647,0.01826914,-0.00550001,0.05832801,-0.00006822
 ,0.00000170,-0.00044067,-0.00036448,-0.00073062,0.00199293,0.00065705,
 -0.00172368,-0.00548934,0.04868019,-0.03822173,-0.29318846,-0.00007170
 ,-0.00078729,-0.00558949,0.00109244,0.00110642,-0.00051049,0.00041911,
 -0.00019206,0.00161714,-0.00016279,0.00016103,0.00022075,-0.00005533,0
 .00027718,0.00018543,-0.00046650,-0.00011297,0.00084308,0.00015920,-0.
 00023660,0.00025694,0.00335150,-0.00273912,-0.01658636,-0.05366444,0.0
 4298502,0.31537456,0.00017646,0.00003738,-0.00023129,-0.00023910,0.000
 08558,0.00078085,-0.00104064,0.00082949,0.00032534,-0.01732326,0.00497
 284,-0.02083800,-0.16884101,0.01894194,-0.13248260,0.00605026,0.001414
 05,0.00381470,0.00696242,-0.00224943,0.01103854,-0.00070547,-0.0015431
 5,0.00080460,-0.00002994,0.00013386,-0.00013880,0.00009177,-0.00058270
 ,0.00001439,0.00040381,-0.00064285,-0.00000453,-0.00468027,-0.00191921
 ,0.00073549,0.00133409,0.00025321,0.00025833,0.17661147,-0.00001127,-0
 .00004254,0.00009263,0.00010391,0.00017806,-0.00006395,0.00072436,0.00
 085682,-0.00025943,-0.00450526,0.00509549,-0.00504464,0.01932607,-0.04
 464002,0.01770604,0.01753186,-0.01030143,0.03490699,-0.01291416,-0.003
 99736,-0.00859834,0.00184602,0.00225715,-0.00187379,0.00006646,0.00025
 086,0.00040609,0.00019013,0.00003471,0.00025619,0.00034983,-0.00032615
 ,0.00020560,-0.00129539,-0.00054707,0.00028540,0.00009762,0.00020413,0
 .00019759,-0.02097317,0.05123664,-0.00029212,0.00002380,0.00028898,0.0
 0061744,-0.00003449,-0.00079955,-0.00031949,-0.00041085,0.00029908,0.0
 0769472,-0.00107833,0.00485092,-0.13232399,0.02491941,-0.19193410,0.00
 323459,0.00766186,-0.00993601,-0.01665858,0.00720985,-0.01596775,0.001
 71460,0.00176103,-0.00062324,-0.00009644,0.00019018,0.00007622,-0.0000
 3681,-0.00014836,0.00003010,-0.00034095,-0.00025955,-0.00010799,0.0021
 7924,0.00035055,0.00068679,-0.00041903,-0.00016547,0.00127628,0.135578
 46,-0.03863335,0.21176802,-0.00003159,0.00004215,-0.00006911,0.0001987
 3,0.00004190,0.00014756,-0.00009370,0.00022966,-0.00002976,0.00059025,
 0.00008935,0.00034187,-0.00657234,0.00323972,-0.00229403,0.00247822,0.
 00629838,0.00720118,-0.31115792,0.03330585,0.02048434,-0.01361797,0.00
 312236,0.00362540,-0.00041077,0.00031780,-0.00099190,-0.00000703,-0.00
 010061,0.00000671,0.00002256,-0.00007225,0.00004246,0.00016808,0.00000
 767,-0.00004095,-0.00025231,-0.00002012,-0.00000547,0.00067601,0.00014
 633,0.00012861,0.32748936,0.00005462,-0.00004440,-0.00006433,0.0000384
 6,0.00018085,0.00008863,0.00032658,0.00024065,-0.00025375,0.00007619,0
 .00226004,0.00254481,-0.01479011,-0.00409009,-0.00245363,0.03666407,-0
 .01099057,-0.01357434,0.02867074,-0.04520482,-0.00003941,-0.00707606,0
 .00521978,0.00051537,0.00035665,0.00088166,0.00066727,0.00003451,0.000
 03689,0.00003374,0.00000073,-0.00006677,0.00002041,-0.00023517,-0.0000
 2059,-0.00002914,-0.00094302,-0.00020305,0.00022858,0.00104726,0.00001
 897,-0.00090711,-0.04432643,0.05245693,-0.00000786,0.00001873,0.000498
 91,0.00031080,0.00005331,-0.00124017,-0.00007246,-0.00004944,0.0001502
 0,-0.00060642,-0.00241785,-0.00192188,0.02572816,-0.00697644,-0.002340
 21,0.00725468,-0.00461090,-0.00567538,0.02037395,-0.00558073,-0.049051
 08,-0.02468439,0.00428773,0.00102089,-0.00034632,0.00084475,-0.0003556
 2,0.00004422,0.00015232,0.00006621,-0.00006749,0.00004995,0.00000550,0
 .00036206,0.00007877,-0.00020632,0.00104870,0.00019304,-0.00007950,-0.
 00035912,0.00139766,0.00090378,-0.02632507,0.01436140,0.05966935,0.000
 54330,0.00039906,-0.00044163,0.00099712,-0.00017021,0.00075647,-0.0000
 5944,0.00001945,-0.00016873,-0.00060937,0.00028556,0.00020184,-0.00048
 427,0.00094182,-0.00012251,0.00288866,-0.00061924,0.00231366,-0.018675
 46,0.01019625,-0.00055555,-0.22116294,0.12406556,-0.01010872,0.0097552
 7,-0.00698555,0.00090539,0.00000365,0.00000150,0.00001445,-0.00001660,
 -0.00003833,-0.00004683,0.00051320,-0.00023926,0.00073985,0.00023483,-
 0.00018919,0.00014874,0.00015347,-0.00019385,-0.00002297,-0.00075125,-
 0.00082125,-0.00349991,0.24012928,-0.00116773,-0.00013489,-0.00043130,
 0.00326821,0.00135648,-0.00026795,-0.00008411,-0.00061104,0.00045697,0
 .00070538,-0.00054183,-0.00022528,0.00015318,0.00045370,-0.00002421,-0
 .00063865,0.00095205,0.00115503,-0.00865227,0.00382168,-0.00145574,0.1
 2546601,-0.13240402,0.00773858,0.02264272,-0.01996031,0.00352397,-0.00
 003318,0.00003180,0.00011817,-0.00006145,0.00009385,-0.00008753,-0.000
 17844,0.00074474,-0.00018335,-0.00020612,0.00014576,-0.00016005,0.0000
 6529,-0.00002343,-0.00005557,-0.00120516,-0.00058460,-0.00158937,-0.13
 388303,0.14888409,-0.00011088,-0.00002367,-0.00017442,-0.00050474,0.00
 049466,0.00039542,0.00011547,0.00004432,0.00010137,0.00002778,0.000184
 44,-0.00066030,-0.00132330,0.00127869,0.00049447,0.00180768,-0.0003340
 0,0.00346816,-0.02311569,0.01479623,-0.00249769,-0.00791896,0.00554288
 ,-0.05011229,-0.00157393,0.00295770,-0.00034995,0.00000698,-0.00002988
 ,0.00004175,0.00000425,-0.00010796,0.00003707,0.00083700,-0.00003150,-
 0.00117414,0.00014151,-0.00007829,0.00008526,0.00037436,-0.00014509,-0
 .00018889,-0.00204475,-0.00112781,-0.00320469,0.01055575,-0.00775639,0
 .05146028,-0.00069034,0.00002941,0.00025332,0.00158369,-0.00150419,-0.
 00138931,-0.00005195,0.00048633,-0.00010625,-0.00071431,0.00024736,0.0
 0029559,-0.00232625,-0.00073956,-0.00314504,0.00037382,0.00017542,0.00
 080407,0.00957428,0.00280615,-0.01986049,-0.11889808,-0.01608108,0.116
 52413,-0.00520405,-0.00310150,0.00694201,0.00001416,0.00008682,0.00002
 294,0.00000095,-0.00008922,-0.00002126,0.00030668,-0.00025980,0.000072
 32,0.00026556,0.00002766,0.00012706,0.00034486,-0.00055162,-0.00064129
 ,0.00122924,0.00020545,0.00037154,-0.01368976,-0.00384916,0.02257695,0
 .12732720,-0.00316813,0.00041240,0.00046394,0.00361144,-0.00604973,-0.
 00291662,-0.00027439,0.00075175,0.00014661,0.00025184,-0.00038064,0.00
 037270,-0.00124919,0.00011826,-0.00033407,-0.00056325,-0.00031458,-0.0
 0048889,0.00569921,0.00151022,-0.00791553,-0.01593036,-0.04870627,0.02
 959671,-0.02087623,-0.01015055,0.02815322,-0.00006252,0.00012406,0.000
 12574,-0.00003476,0.00000816,-0.00006815,-0.00019187,0.00014733,-0.000
 07476,0.00005692,0.00021972,-0.00002371,0.00012031,-0.00021887,-0.0001
 5906,0.00005877,0.00020673,0.00031385,0.00948258,0.00290701,-0.0164431
 8,0.02232117,0.05667090,-0.00007915,0.00000289,-0.00015380,-0.00010548
 ,-0.00018227,0.00109775,-0.00016114,0.00005937,0.00014155,-0.00071586,
 0.00002809,0.00064167,-0.00405371,-0.00039023,-0.00169614,-0.00026634,
 -0.00136485,-0.00073611,0.01403989,0.00349739,-0.02381514,0.11434561,0
 .03017199,-0.23186798,0.00018652,-0.00041375,-0.00044160,0.00004638,0.
 00009753,0.00005274,-0.00001585,-0.00006177,0.00000151,0.00006412,-0.0
 0002639,0.00001185,0.00011020,0.00005115,0.00000922,0.00039478,-0.0008
 2181,-0.00066086,-0.00030587,-0.00005273,0.00137857,-0.00088227,-0.000
 39903,0.00167419,-0.12238493,-0.03043709,0.25338835,0.00227682,0.00071
 737,-0.00193104,0.00603172,0.00821010,0.02688444,-0.00402562,-0.001772
 47,0.00170787,-0.00005186,-0.00028350,-0.00038634,-0.00023818,0.000049
 62,0.00068933,-0.00034652,-0.00063496,-0.00066279,0.00116025,-0.001953
 47,0.00012719,-0.00331426,-0.00276132,-0.00662813,-0.07285521,-0.02389
 608,-0.07701544,0.00027437,0.00015420,0.00153446,0.00007100,-0.0001236
 4,0.00003168,0.00003230,0.00005587,-0.00001696,0.00006795,0.00003964,-
 0.00003434,0.00005296,0.00004697,-0.00005944,0.00005033,0.00031461,0.0
 0004877,0.00009788,-0.00009006,0.00024745,0.00012938,-0.00002341,-0.00
 019578,0.07748380,0.00074727,-0.00091518,0.00091895,0.00058932,0.00110
 494,0.00410331,-0.00120191,0.00084817,0.00058798,-0.00019472,-0.000135
 88,0.00020352,0.00016819,-0.00006987,0.00075476,-0.00094784,-0.0012581
 8,-0.00201259,0.00070244,-0.00474771,0.00244039,-0.01194105,-0.0108044
 9,-0.02755410,-0.02281305,-0.07318194,-0.07614904,-0.00011099,0.000337
 05,0.00030070,-0.00017187,0.00005311,-0.00038783,-0.00001974,0.0000298
 2,0.00002270,0.00013019,0.00011982,-0.00001435,0.00002958,0.00003273,-
 0.00018012,-0.00052758,0.00002957,-0.00028793,0.00069501,0.00052345,-0
 .00005032,-0.00011062,0.00166168,0.00003430,0.03015332,0.08074685,-0.0
 0192037,0.00057993,0.00529446,-0.00790923,-0.00772644,-0.02582242,0.00
 427232,0.00134453,-0.00054969,0.00000222,0.00025115,0.00014549,0.00007
 781,0.00033312,0.00027871,-0.00008995,0.00014617,0.00078901,0.00027661
 ,0.00064887,-0.00012561,0.00238675,0.00227193,0.00402244,-0.07313043,-
 0.07510476,-0.26355419,-0.00001869,-0.00032881,-0.00135499,-0.00005565
 ,0.00005113,0.00044027,-0.00002397,-0.00010926,0.00001508,-0.00001361,
 -0.00013691,0.00000319,-0.00002020,-0.00000155,0.00001038,0.00001587,-
 0.00005730,0.00007669,-0.00010165,-0.00037985,-0.00007622,-0.00010274,
 -0.00026421,0.00118570,0.07798724,0.08059424,0.28585239,-0.00344969,-0
 .00370218,0.00497429,-0.02003336,0.01355075,-0.01192403,0.00098001,-0.
 00117854,0.00028003,0.00009358,-0.00007229,-0.00025239,-0.00005279,0.0
 0011763,0.00017487,-0.00014763,0.00021512,0.00017675,0.00138534,-0.000
 64640,-0.00088407,0.00867532,-0.00578103,0.00249230,-0.20581041,0.1128
 8134,-0.05556514,0.00022694,-0.00039405,-0.00013286,0.00044184,-0.0001
 0945,0.00108093,-0.00001452,-0.00010475,-0.00004832,-0.00001868,-0.000
 07168,-0.00000036,0.00000212,0.00001516,0.00006344,-0.00000791,0.00040
 217,0.00042616,0.00013242,-0.00225143,-0.00010292,0.00042492,0.0007718
 6,-0.00002111,-0.00689711,0.00482406,-0.00163234,0.22406958,-0.0008451
 7,-0.00162528,0.00113569,-0.00513259,0.00268649,-0.00171996,0.00052808
 ,-0.00052785,0.00023871,0.00007654,-0.00013908,0.00000770,0.00019208,-
 0.00033995,-0.00097034,-0.00030242,0.00125889,-0.00007990,0.00150820,0
 .00117762,0.00155943,0.02553975,-0.02245734,0.00722240,0.10923932,-0.1
 1296382,0.03649589,-0.00006145,0.00005759,-0.00011618,-0.00015144,0.00
 021772,-0.00002649,-0.00010074,0.00009689,0.00005208,-0.00010710,0.000
 00975,-0.00001534,-0.00002030,-0.00006867,-0.00008442,-0.00064781,-0.0
 0032718,-0.00023885,-0.00294686,-0.00565448,0.00082920,-0.00009902,0.0
 0108242,0.00020722,-0.00820278,0.00562606,-0.00211200,-0.11846629,0.13
 189021,0.00264881,0.00381858,-0.00119319,0.01481141,-0.01487056,0.0092
 2582,-0.00164179,0.00138932,-0.00075147,0.00018857,0.00022712,0.000211
 64,0.00030212,-0.00001902,0.00004525,-0.00023105,0.00019337,0.00005168
 ,0.00051490,-0.00096841,0.00004894,-0.00185653,-0.00001232,0.00029008,
 -0.05358241,0.03578360,-0.07019816,-0.00022449,0.00017299,0.00027988,0
 .00045174,-0.00011515,-0.00120065,0.00000246,0.00002098,0.00003195,0.0
 0000606,0.00002638,0.00001954,-0.00004528,-0.00001224,0.00002783,0.000
 11289,0.00009935,0.00030477,0.00031462,0.00002291,0.00068064,-0.000338
 62,-0.00004749,-0.00021146,-0.02232818,0.01667544,-0.00663067,0.060894
 77,-0.04238484,0.06896757\\-0.00004992,-0.00001800,-0.00001951,0.00010
 356,0.00003838,0.00004028,-0.00001192,-0.00004728,-0.00005723,0.000057
 14,0.00005654,0.00001553,-0.00003028,0.00003804,-0.00002845,0.00001683
 ,-0.00005255,0.00000689,-0.00004271,0.00003947,-0.00000018,0.00005315,
 0.00005723,0.00002574,-0.00004839,-0.00004683,0.00003513,-0.00000926,-
 0.00001027,0.00000602,0.00000086,0.00000249,0.00001086,-0.00002277,-0.
 00000562,-0.00000357,-0.00000935,0.00000210,0.00000501,0.00000403,-0.0
 0002093,0.00000453,0.00000600,-0.00002083,-0.00000020,-0.00001904,-0.0
 0000565,-0.00001294,-0.00000345,0.00000164,-0.00001004,-0.00000278,-0.
 00001049,-0.00001049,0.00000829,0.00000258,-0.00000738\\\@


 A SUCCESSFUL PURSUIT OF SCIENCE MAKES A MAN THE
 BENEFACTOR OF ALL MANKIND OF EVERY AGE.
   --  JOSEPH PRIESTLEY, "EXPERIMENTS AND
 OBSERVATIONS ON DIFFERENT KINDS OF AIR", 1774
 Job cpu time:       0 days  0 hours 47 minutes 48.3 seconds.
 File lengths (MBytes):  RWF=    152 Int=      0 D2E=      0 Chk=      8 Scr=      1
 Normal termination of Gaussian 09 at Mon Jan 27 14:29:28 2020.
