 Entering Gaussian System, Link 0=/home/puck/opt/gaussian_09/g09
 Input=dsC7O2H10nsd_5224.com
 Output=dsC7O2H10nsd_5224.log
 Initial command:
 /home/puck/opt/gaussian_09/l1.exe "/scratch/puck/g09_2622ca17-5c57-4399-86dc-c074e815e639/Gau-133622.inp" -scrdir="/scratch/puck/g09_2622ca17-5c57-4399-86dc-c074e815e639/"
 Entering Link 1 = /home/puck/opt/gaussian_09/l1.exe PID=    133623.
  
 Copyright (c) 1988,1990,1992,1993,1995,1998,2003,2009,2013,
            Gaussian, Inc.  All Rights Reserved.
  
 This is part of the Gaussian(R) 09 program.  It is based on
 the Gaussian(R) 03 system (copyright 2003, Gaussian, Inc.),
 the Gaussian(R) 98 system (copyright 1998, Gaussian, Inc.),
 the Gaussian(R) 94 system (copyright 1995, Gaussian, Inc.),
 the Gaussian 92(TM) system (copyright 1992, Gaussian, Inc.),
 the Gaussian 90(TM) system (copyright 1990, Gaussian, Inc.),
 the Gaussian 88(TM) system (copyright 1988, Gaussian, Inc.),
 the Gaussian 86(TM) system (copyright 1986, Carnegie Mellon
 University), and the Gaussian 82(TM) system (copyright 1983,
 Carnegie Mellon University). Gaussian is a federally registered
 trademark of Gaussian, Inc.
  
 This software contains proprietary and confidential information,
 including trade secrets, belonging to Gaussian, Inc.
  
 This software is provided under written license and may be
 used, copied, transmitted, or stored only in accord with that
 written license.
  
 The following legend is applicable only to US Government
 contracts under FAR:
  
                    RESTRICTED RIGHTS LEGEND
  
 Use, reproduction and disclosure by the US Government is
 subject to restrictions as set forth in subparagraphs (a)
 and (c) of the Commercial Computer Software - Restricted
 Rights clause in FAR 52.227-19.
  
 Gaussian, Inc.
 340 Quinnipiac St., Bldg. 40, Wallingford CT 06492
  
  
 ---------------------------------------------------------------
 Warning -- This program may not be used in any manner that
 competes with the business of Gaussian, Inc. or will provide
 assistance to any competitor of Gaussian, Inc.  The licensee
 of this program is prohibited from giving any competitor of
 Gaussian, Inc. access to this program.  By using this program,
 the user acknowledges that Gaussian, Inc. is engaged in the
 business of creating and licensing software in the field of
 computational chemistry and represents and warrants to the
 licensee that it is not a competitor of Gaussian, Inc. and that
 it will not use this program in any manner prohibited above.
 ---------------------------------------------------------------
  

 Cite this work as:
 Gaussian 09, Revision D.01,
 M. J. Frisch, G. W. Trucks, H. B. Schlegel, G. E. Scuseria, 
 M. A. Robb, J. R. Cheeseman, G. Scalmani, V. Barone, B. Mennucci, 
 G. A. Petersson, H. Nakatsuji, M. Caricato, X. Li, H. P. Hratchian, 
 A. F. Izmaylov, J. Bloino, G. Zheng, J. L. Sonnenberg, M. Hada, 
 M. Ehara, K. Toyota, R. Fukuda, J. Hasegawa, M. Ishida, T. Nakajima, 
 Y. Honda, O. Kitao, H. Nakai, T. Vreven, J. A. Montgomery, Jr., 
 J. E. Peralta, F. Ogliaro, M. Bearpark, J. J. Heyd, E. Brothers, 
 K. N. Kudin, V. N. Staroverov, T. Keith, R. Kobayashi, J. Normand, 
 K. Raghavachari, A. Rendell, J. C. Burant, S. S. Iyengar, J. Tomasi, 
 M. Cossi, N. Rega, J. M. Millam, M. Klene, J. E. Knox, J. B. Cross, 
 V. Bakken, C. Adamo, J. Jaramillo, R. Gomperts, R. E. Stratmann, 
 O. Yazyev, A. J. Austin, R. Cammi, C. Pomelli, J. W. Ochterski, 
 R. L. Martin, K. Morokuma, V. G. Zakrzewski, G. A. Voth, 
 P. Salvador, J. J. Dannenberg, S. Dapprich, A. D. Daniels, 
 O. Farkas, J. B. Foresman, J. V. Ortiz, J. Cioslowski, 
 and D. J. Fox, Gaussian, Inc., Wallingford CT, 2013.
 
 ******************************************
 Gaussian 09:  ES64L-G09RevD.01 24-Apr-2013
                28-Jan-2020 
 ******************************************
 -----------------------------
 # b3lyp 6-31G(2df,p) opt Freq
 -----------------------------
 1/14=-1,18=20,19=15,26=3,38=1/1,3;
 2/9=110,12=2,17=6,18=5,40=1/2;
 3/5=1,6=6,7=104,11=2,16=1,25=1,30=1,71=1,74=-5/1,2,3;
 4//1;
 5/5=2,38=5/2;
 6/7=2,8=2,9=2,10=2,28=1/1;
 7//1,2,3,16;
 1/14=-1,18=20,19=15,26=3/3(2);
 2/9=110/2;
 99//99;
 2/9=110/2;
 3/5=1,6=6,7=104,11=2,16=1,25=1,30=1,71=1,74=-5/1,2,3;
 4/5=5,16=3,69=1/1;
 5/5=2,38=5/2;
 7//1,2,3,16;
 1/14=-1,18=20,19=15,26=3/3(-5);
 2/9=110/2;
 6/7=2,8=2,9=2,10=2,19=2,28=1/1;
 99/9=1/99;
 -----
 titel
 -----
 Symbolic Z-matrix:
 Charge =  0 Multiplicity = 1
 C                     1.508    -0.08349  -0.0947 
 O                     0.09957  -0.03849   0.02798 
 C                    -0.34182   0.64842   1.15223 
 C                    -0.1538   -0.00033   2.55623 
 C                    -1.56394   0.51206   2.94044 
 O                    -1.55351   1.92336   3.25281 
 C                    -1.60244   2.27106   1.85062 
 C                    -0.20194   2.1996    1.19321 
 C                    -1.87941   0.79652   1.44559 
 H                     1.97667  -0.59313   0.7596 
 H                     1.73237  -0.64286  -1.0055 
 H                     1.94328   0.92276  -0.17962 
 H                    -0.16299  -1.09085   2.45331 
 H                     0.67984   0.31354   3.1895 
 H                    -2.17031  -0.06013   3.64383 
 H                    -2.24026   3.13596   1.66362 
 H                    -0.24361   2.59218   0.17141 
 H                     0.62864   2.65322   1.73988 
 H                    -2.69395   0.40578   0.84369 
 

 GradGradGradGradGradGradGradGradGradGradGradGradGradGradGradGradGradGrad
 Berny optimization.
 Initialization pass.
                           ----------------------------
                           !    Initial Parameters    !
                           ! (Angstroms and Degrees)  !
 --------------------------                            --------------------------
 ! Name  Definition              Value          Derivative Info.                !
 --------------------------------------------------------------------------------
 ! R1    R(1,2)                  1.4145         estimate D2E/DX2                !
 ! R2    R(1,10)                 1.0996         estimate D2E/DX2                !
 ! R3    R(1,11)                 1.0922         estimate D2E/DX2                !
 ! R4    R(1,12)                 1.0996         estimate D2E/DX2                !
 ! R5    R(2,3)                  1.3895         estimate D2E/DX2                !
 ! R6    R(3,4)                  1.558          estimate D2E/DX2                !
 ! R7    R(3,8)                  1.558          estimate D2E/DX2                !
 ! R8    R(3,9)                  1.5723         estimate D2E/DX2                !
 ! R9    R(4,5)                  1.5488         estimate D2E/DX2                !
 ! R10   R(4,13)                 1.0954         estimate D2E/DX2                !
 ! R11   R(4,14)                 1.0929         estimate D2E/DX2                !
 ! R12   R(5,6)                  1.4455         estimate D2E/DX2                !
 ! R13   R(5,9)                  1.554          estimate D2E/DX2                !
 ! R14   R(5,15)                 1.0908         estimate D2E/DX2                !
 ! R15   R(6,7)                  1.4455         estimate D2E/DX2                !
 ! R16   R(7,8)                  1.5488         estimate D2E/DX2                !
 ! R17   R(7,9)                  1.554          estimate D2E/DX2                !
 ! R18   R(7,16)                 1.0908         estimate D2E/DX2                !
 ! R19   R(8,17)                 1.0954         estimate D2E/DX2                !
 ! R20   R(8,18)                 1.0929         estimate D2E/DX2                !
 ! R21   R(9,19)                 1.0856         estimate D2E/DX2                !
 ! A1    A(2,1,10)             111.823          estimate D2E/DX2                !
 ! A2    A(2,1,11)             107.0488         estimate D2E/DX2                !
 ! A3    A(2,1,12)             111.8229         estimate D2E/DX2                !
 ! A4    A(10,1,11)            108.8413         estimate D2E/DX2                !
 ! A5    A(10,1,12)            108.3841         estimate D2E/DX2                !
 ! A6    A(11,1,12)            108.8414         estimate D2E/DX2                !
 ! A7    A(1,2,3)              113.7165         estimate D2E/DX2                !
 ! A8    A(2,3,4)              119.009          estimate D2E/DX2                !
 ! A9    A(2,3,8)              119.01           estimate D2E/DX2                !
 ! A10   A(2,3,9)              120.543          estimate D2E/DX2                !
 ! A11   A(4,3,8)              112.3357         estimate D2E/DX2                !
 ! A12   A(4,3,9)               89.3757         estimate D2E/DX2                !
 ! A13   A(8,3,9)               89.3759         estimate D2E/DX2                !
 ! A14   A(3,4,5)               88.6198         estimate D2E/DX2                !
 ! A15   A(3,4,13)             109.1991         estimate D2E/DX2                !
 ! A16   A(3,4,14)             119.6442         estimate D2E/DX2                !
 ! A17   A(5,4,13)             110.1837         estimate D2E/DX2                !
 ! A18   A(5,4,14)             117.1123         estimate D2E/DX2                !
 ! A19   A(13,4,14)            110.2882         estimate D2E/DX2                !
 ! A20   A(4,5,6)              111.7189         estimate D2E/DX2                !
 ! A21   A(4,5,9)               90.3872         estimate D2E/DX2                !
 ! A22   A(4,5,15)             119.5092         estimate D2E/DX2                !
 ! A23   A(6,5,9)               91.7545         estimate D2E/DX2                !
 ! A24   A(6,5,15)             112.1365         estimate D2E/DX2                !
 ! A25   A(9,5,15)             127.1179         estimate D2E/DX2                !
 ! A26   A(5,6,7)               91.4315         estimate D2E/DX2                !
 ! A27   A(6,7,8)              111.7192         estimate D2E/DX2                !
 ! A28   A(6,7,9)               91.7547         estimate D2E/DX2                !
 ! A29   A(6,7,16)             112.1366         estimate D2E/DX2                !
 ! A30   A(8,7,9)               90.3872         estimate D2E/DX2                !
 ! A31   A(8,7,16)             119.5087         estimate D2E/DX2                !
 ! A32   A(9,7,16)             127.1178         estimate D2E/DX2                !
 ! A33   A(3,8,7)               88.6197         estimate D2E/DX2                !
 ! A34   A(3,8,17)             109.1999         estimate D2E/DX2                !
 ! A35   A(3,8,18)             119.644          estimate D2E/DX2                !
 ! A36   A(7,8,17)             110.1832         estimate D2E/DX2                !
 ! A37   A(7,8,18)             117.1124         estimate D2E/DX2                !
 ! A38   A(17,8,18)            110.2881         estimate D2E/DX2                !
 ! A39   A(3,9,5)               87.9207         estimate D2E/DX2                !
 ! A40   A(3,9,7)               87.9205         estimate D2E/DX2                !
 ! A41   A(3,9,19)             126.6135         estimate D2E/DX2                !
 ! A42   A(5,9,7)               83.5001         estimate D2E/DX2                !
 ! A43   A(5,9,19)             128.2997         estimate D2E/DX2                !
 ! A44   A(7,9,19)             128.2996         estimate D2E/DX2                !
 ! D1    D(10,1,2,3)            60.8807         estimate D2E/DX2                !
 ! D2    D(11,1,2,3)          -179.9975         estimate D2E/DX2                !
 ! D3    D(12,1,2,3)           -60.8756         estimate D2E/DX2                !
 ! D4    D(1,2,3,4)            -71.7833         estimate D2E/DX2                !
 ! D5    D(1,2,3,8)             71.7682         estimate D2E/DX2                !
 ! D6    D(1,2,3,9)            179.993          estimate D2E/DX2                !
 ! D7    D(2,3,4,5)           -139.5387         estimate D2E/DX2                !
 ! D8    D(2,3,4,13)           -28.6185         estimate D2E/DX2                !
 ! D9    D(2,3,4,14)            99.7435         estimate D2E/DX2                !
 ! D10   D(8,3,4,5)             74.6351         estimate D2E/DX2                !
 ! D11   D(8,3,4,13)          -174.4448         estimate D2E/DX2                !
 ! D12   D(8,3,4,14)           -46.0827         estimate D2E/DX2                !
 ! D13   D(9,3,4,5)            -14.4336         estimate D2E/DX2                !
 ! D14   D(9,3,4,13)            96.4865         estimate D2E/DX2                !
 ! D15   D(9,3,4,14)          -135.1514         estimate D2E/DX2                !
 ! D16   D(2,3,8,7)            139.5393         estimate D2E/DX2                !
 ! D17   D(2,3,8,17)            28.6196         estimate D2E/DX2                !
 ! D18   D(2,3,8,18)           -99.7429         estimate D2E/DX2                !
 ! D19   D(4,3,8,7)            -74.6348         estimate D2E/DX2                !
 ! D20   D(4,3,8,17)           174.4455         estimate D2E/DX2                !
 ! D21   D(4,3,8,18)            46.083          estimate D2E/DX2                !
 ! D22   D(9,3,8,7)             14.4338         estimate D2E/DX2                !
 ! D23   D(9,3,8,17)           -96.486          estimate D2E/DX2                !
 ! D24   D(9,3,8,18)           135.1515         estimate D2E/DX2                !
 ! D25   D(2,3,9,5)            138.2155         estimate D2E/DX2                !
 ! D26   D(2,3,9,7)           -138.217          estimate D2E/DX2                !
 ! D27   D(2,3,9,19)            -0.0009         estimate D2E/DX2                !
 ! D28   D(4,3,9,5)             14.3891         estimate D2E/DX2                !
 ! D29   D(4,3,9,7)             97.9565         estimate D2E/DX2                !
 ! D30   D(4,3,9,19)          -123.8273         estimate D2E/DX2                !
 ! D31   D(8,3,9,5)            -97.9567         estimate D2E/DX2                !
 ! D32   D(8,3,9,7)            -14.3892         estimate D2E/DX2                !
 ! D33   D(8,3,9,19)           123.8269         estimate D2E/DX2                !
 ! D34   D(3,4,5,6)            -77.4364         estimate D2E/DX2                !
 ! D35   D(3,4,5,9)             14.6066         estimate D2E/DX2                !
 ! D36   D(3,4,5,15)           148.8133         estimate D2E/DX2                !
 ! D37   D(13,4,5,6)           172.5885         estimate D2E/DX2                !
 ! D38   D(13,4,5,9)           -95.3685         estimate D2E/DX2                !
 ! D39   D(13,4,5,15)           38.8382         estimate D2E/DX2                !
 ! D40   D(14,4,5,6)            45.4857         estimate D2E/DX2                !
 ! D41   D(14,4,5,9)           137.5287         estimate D2E/DX2                !
 ! D42   D(14,4,5,15)          -88.2646         estimate D2E/DX2                !
 ! D43   D(4,5,6,7)             81.3615         estimate D2E/DX2                !
 ! D44   D(9,5,6,7)             -9.7547         estimate D2E/DX2                !
 ! D45   D(15,5,6,7)          -141.379          estimate D2E/DX2                !
 ! D46   D(4,5,9,3)            -14.4764         estimate D2E/DX2                !
 ! D47   D(4,5,9,7)           -102.6193         estimate D2E/DX2                !
 ! D48   D(4,5,9,19)           122.5615         estimate D2E/DX2                !
 ! D49   D(6,5,9,3)             97.2665         estimate D2E/DX2                !
 ! D50   D(6,5,9,7)              9.1237         estimate D2E/DX2                !
 ! D51   D(6,5,9,19)          -125.6956         estimate D2E/DX2                !
 ! D52   D(15,5,9,3)          -143.0005         estimate D2E/DX2                !
 ! D53   D(15,5,9,7)           128.8566         estimate D2E/DX2                !
 ! D54   D(15,5,9,19)           -5.9626         estimate D2E/DX2                !
 ! D55   D(5,6,7,8)            -81.3615         estimate D2E/DX2                !
 ! D56   D(5,6,7,9)              9.7547         estimate D2E/DX2                !
 ! D57   D(5,6,7,16)           141.3792         estimate D2E/DX2                !
 ! D58   D(6,7,8,3)             77.4364         estimate D2E/DX2                !
 ! D59   D(6,7,8,17)          -172.5877         estimate D2E/DX2                !
 ! D60   D(6,7,8,18)           -45.4854         estimate D2E/DX2                !
 ! D61   D(9,7,8,3)            -14.6068         estimate D2E/DX2                !
 ! D62   D(9,7,8,17)            95.3691         estimate D2E/DX2                !
 ! D63   D(9,7,8,18)          -137.5286         estimate D2E/DX2                !
 ! D64   D(16,7,8,3)          -148.8131         estimate D2E/DX2                !
 ! D65   D(16,7,8,17)          -38.8373         estimate D2E/DX2                !
 ! D66   D(16,7,8,18)           88.265          estimate D2E/DX2                !
 ! D67   D(6,7,9,3)            -97.2667         estimate D2E/DX2                !
 ! D68   D(6,7,9,5)             -9.1237         estimate D2E/DX2                !
 ! D69   D(6,7,9,19)           125.6957         estimate D2E/DX2                !
 ! D70   D(8,7,9,3)             14.4765         estimate D2E/DX2                !
 ! D71   D(8,7,9,5)            102.6195         estimate D2E/DX2                !
 ! D72   D(8,7,9,19)          -122.5611         estimate D2E/DX2                !
 ! D73   D(16,7,9,3)           142.9999         estimate D2E/DX2                !
 ! D74   D(16,7,9,5)          -128.857          estimate D2E/DX2                !
 ! D75   D(16,7,9,19)            5.9623         estimate D2E/DX2                !
 --------------------------------------------------------------------------------
 Trust Radius=3.00D-01 FncErr=1.00D-07 GrdErr=1.00D-06
 Number of steps in this run=    114 maximum allowed number of steps=    114.
 GradGradGradGradGradGradGradGradGradGradGradGradGradGradGradGradGradGrad

                          Input orientation:                          
 ---------------------------------------------------------------------
 Center     Atomic      Atomic             Coordinates (Angstroms)
 Number     Number       Type             X           Y           Z
 ---------------------------------------------------------------------
      1          6           0        1.507996   -0.083487   -0.094698
      2          8           0        0.099568   -0.038495    0.027981
      3          6           0       -0.341821    0.648417    1.152232
      4          6           0       -0.153797   -0.000331    2.556232
      5          6           0       -1.563942    0.512062    2.940443
      6          8           0       -1.553515    1.923359    3.252810
      7          6           0       -1.602438    2.271056    1.850618
      8          6           0       -0.201943    2.199604    1.193205
      9          6           0       -1.879407    0.796520    1.445591
     10          1           0        1.976667   -0.593133    0.759604
     11          1           0        1.732373   -0.642863   -1.005499
     12          1           0        1.943280    0.922762   -0.179618
     13          1           0       -0.162991   -1.090854    2.453309
     14          1           0        0.679841    0.313535    3.189499
     15          1           0       -2.170311   -0.060129    3.643835
     16          1           0       -2.240256    3.135964    1.663618
     17          1           0       -0.243607    2.592179    0.171408
     18          1           0        0.628639    2.653221    1.739881
     19          1           0       -2.693948    0.405775    0.843692
 ---------------------------------------------------------------------
                    Distance matrix (angstroms):
                    1          2          3          4          5
     1  C    0.000000
     2  O    1.414476   0.000000
     3  C    2.347837   1.389465   0.000000
     4  C    3.129840   2.541201   1.558025   0.000000
     5  C    4.359308   3.398943   2.170224   1.548765   0.000000
     6  O    4.960453   4.120810   2.739728   2.478913   1.445490
     7  C    4.359235   3.398949   2.170221   2.784897   2.069604
     8  C    3.129712   2.541209   1.558020   2.588411   2.784902
     9  C    3.823794   2.573560   1.572312   2.201414   1.554032
    10  H    1.099647   2.089592   2.659132   2.849239   4.302723
    11  H    1.092156   2.024696   3.259676   4.081227   5.269725
    12  H    1.099646   2.089590   2.659093   3.568572   4.712119
    13  H    3.209257   2.656806   2.179414   1.095408   2.183873
    14  H    3.410193   3.233549   2.303561   1.092928   2.266275
    15  H    5.244723   4.269335   3.170725   2.291896   1.090801
    16  H    5.244610   4.269341   3.170720   3.871229   2.995421
    17  H    3.209067   2.656837   2.179420   3.523713   3.706444
    18  H    3.410062   3.233552   2.303555   2.884436   3.291402
    19  H    4.333162   2.943891   2.384655   3.090321   2.384235
                    6          7          8          9         10
     6  O    0.000000
     7  C    1.445486   0.000000
     8  C    2.478917   1.548768   0.000000
     9  C    2.154532   1.554032   2.201415   0.000000
    10  H    5.001098   4.712100   3.568436   4.155841   0.000000
    11  H    5.959509   5.269658   4.081115   4.596153   1.782622
    12  H    5.001033   4.302543   2.849027   4.155740   1.783589
    13  H    3.414416   3.706438   3.523705   2.742947   2.773896
    14  H    2.753801   3.291396   2.884439   3.134364   2.899688
    15  H    2.113661   2.995418   3.871234   2.377130   5.079400
    16  H    2.113660   1.090801   2.291893   2.377130   5.701389
    17  H    3.414413   2.183870   1.095409   2.742950   3.927060
    18  H    2.753806   2.266279   1.092928   3.134364   3.649238
    19  H    3.067165   2.384233   3.090319   1.085561   4.776980
                   11         12         13         14         15
    11  H    0.000000
    12  H    1.782622   0.000000
    13  H    3.969441   3.927256   0.000000
    14  H    4.429506   3.649436   1.795731   0.000000
    15  H    6.098100   5.701447   2.551289   2.910226   0.000000
    16  H    6.097992   5.079149   4.775420   4.338362   3.760474
    17  H    3.969270   2.773562   4.333394   3.892794   4.775424
    18  H    4.429392   2.899525   3.892783   2.752843   4.338368
    19  H    4.910344   4.776853   3.352091   4.110203   2.886531
                   16         17         18         19
    16  H    0.000000
    17  H    2.551274   0.000000
    18  H    2.910226   1.795730   0.000000
    19  H    2.886529   3.352089   4.110202   0.000000
 Stoichiometry    C7H10O2
 Framework group  C1[X(C7H10O2)]
 Deg. of freedom    51
 Full point group                 C1      NOp   1
 Largest Abelian subgroup         C1      NOp   1
 Largest concise Abelian subgroup C1      NOp   1
                         Standard orientation:                         
 ---------------------------------------------------------------------
 Center     Atomic      Atomic             Coordinates (Angstroms)
 Number     Number       Type             X           Y           Z
 ---------------------------------------------------------------------
      1          6           0       -2.799769    0.000043   -0.295480
      2          8           0       -1.778295   -0.000106    0.682955
      3          6           0       -0.494749   -0.000039    0.150864
      4          6           0        0.040089   -1.294213   -0.532145
      5          6           0        1.412860   -1.034780    0.136336
      6          8           0        2.154230    0.000064   -0.548434
      7          6           0        1.412791    1.034824    0.136378
      8          6           0        0.039998    1.294198   -0.532088
      9          6           0        0.761934   -0.000019    1.095805
     10          1           0       -2.751348   -0.891681   -0.937125
     11          1           0       -3.753285    0.000018    0.237072
     12          1           0       -2.751279    0.891908   -0.936921
     13          1           0       -0.442371   -2.166726   -0.078413
     14          1           0        0.024325   -1.376407   -1.621864
     15          1           0        2.045113   -1.880198    0.410875
     16          1           0        2.044982    1.880276    0.410952
     17          1           0       -0.442506    2.166668   -0.078319
     18          1           0        0.024224    1.376436   -1.621803
     19          1           0        0.755736   -0.000040    2.181349
 ---------------------------------------------------------------------
 Rotational constants (GHZ):      3.7385220      1.3928001      1.2525262
 Standard basis: 6-31G(2df,p) (6D, 7F)
 There are   329 symmetry adapted cartesian basis functions of A   symmetry.
 There are   302 symmetry adapted basis functions of A   symmetry.
   302 basis functions,   466 primitive gaussians,   329 cartesian basis functions
    34 alpha electrons       34 beta electrons
       nuclear repulsion energy       482.3185300531 Hartrees.
 NAtoms=   19 NActive=   19 NUniq=   19 SFac= 1.00D+00 NAtFMM=   60 NAOKFM=F Big=F
 Integral buffers will be    131072 words long.
 Raffenetti 2 integral format.
 Two-electron integral symmetry is turned on.
 One-electron integrals computed using PRISM.
 NBasis=   302 RedAO= T EigKep=  2.61D-04  NBF=   302
 NBsUse=   302 1.00D-06 EigRej= -1.00D+00 NBFU=   302
 ExpMin= 1.61D-01 ExpMax= 5.48D+03 ExpMxC= 8.25D+02 IAcc=1 IRadAn=         1 AccDes= 0.00D+00
 Harris functional with IExCor=  402 and IRadAn=       1 diagonalized for initial guess.
 HarFok:  IExCor=  402 AccDes= 0.00D+00 IRadAn=         1 IDoV= 1 UseB2=F ITyADJ=14
 ICtDFT=  3500011 ScaDFX=  1.000000  1.000000  1.000000  1.000000
 FoFCou: FMM=F IPFlag=           0 FMFlag=      100000 FMFlg1=           0
         NFxFlg=           0 DoJE=T BraDBF=F KetDBF=T FulRan=T
         wScrn=  0.000000 ICntrl=     500 IOpCl=  0 I1Cent=   200000004 NGrid=           0
         NMat0=    1 NMatS0=      1 NMatT0=    0 NMatD0=    1 NMtDS0=    0 NMtDT0=    0
 Petite list used in FoFCou.
 Requested convergence on RMS density matrix=1.00D-08 within 128 cycles.
 Requested convergence on MAX density matrix=1.00D-06.
 Requested convergence on             energy=1.00D-06.
 No special actions if energy rises.
 Integral accuracy reduced to 1.0D-05 until final iterations.
 Initial convergence to 1.0D-05 achieved.  Increase integral accuracy.
 SCF Done:  E(RB3LYP) =  -423.124986783     A.U. after   13 cycles
            NFock= 13  Conv=0.43D-08     -V/T= 2.0073

 **********************************************************************

            Population analysis using the SCF density.

 **********************************************************************

 Orbital symmetries:
       Occupied  (A) (A) (A) (A) (A) (A) (A) (A) (A) (A) (A) (A)
                 (A) (A) (A) (A) (A) (A) (A) (A) (A) (A) (A) (A)
                 (A) (A) (A) (A) (A) (A) (A) (A) (A) (A)
       Virtual   (A) (A) (A) (A) (A) (A) (A) (A) (A) (A) (A) (A)
                 (A) (A) (A) (A) (A) (A) (A) (A) (A) (A) (A) (A)
                 (A) (A) (A) (A) (A) (A) (A) (A) (A) (A) (A) (A)
                 (A) (A) (A) (A) (A) (A) (A) (A) (A) (A) (A) (A)
                 (A) (A) (A) (A) (A) (A) (A) (A) (A) (A) (A) (A)
                 (A) (A) (A) (A) (A) (A) (A) (A) (A) (A) (A) (A)
                 (A) (A) (A) (A) (A) (A) (A) (A) (A) (A) (A) (A)
                 (A) (A) (A) (A) (A) (A) (A) (A) (A) (A) (A) (A)
                 (A) (A) (A) (A) (A) (A) (A) (A) (A) (A) (A) (A)
                 (A) (A) (A) (A) (A) (A) (A) (A) (A) (A) (A) (A)
                 (A) (A) (A) (A) (A) (A) (A) (A) (A) (A) (A) (A)
                 (A) (A) (A) (A) (A) (A) (A) (A) (A) (A) (A) (A)
                 (A) (A) (A) (A) (A) (A) (A) (A) (A) (A) (A) (A)
                 (A) (A) (A) (A) (A) (A) (A) (A) (A) (A) (A) (A)
                 (A) (A) (A) (A) (A) (A) (A) (A) (A) (A) (A) (A)
                 (A) (A) (A) (A) (A) (A) (A) (A) (A) (A) (A) (A)
                 (A) (A) (A) (A) (A) (A) (A) (A) (A) (A) (A) (A)
                 (A) (A) (A) (A) (A) (A) (A) (A) (A) (A) (A) (A)
                 (A) (A) (A) (A) (A) (A) (A) (A) (A) (A) (A) (A)
                 (A) (A) (A) (A) (A) (A) (A) (A) (A) (A) (A) (A)
                 (A) (A) (A) (A) (A) (A) (A) (A) (A) (A) (A) (A)
                 (A) (A) (A) (A) (A) (A) (A) (A) (A) (A) (A) (A)
                 (A) (A) (A) (A)
 The electronic state is 1-A.
 Alpha  occ. eigenvalues --  -19.14490 -19.13110 -10.24020 -10.23489 -10.23489
 Alpha  occ. eigenvalues --  -10.22675 -10.18754 -10.18036 -10.18036  -1.04883
 Alpha  occ. eigenvalues --   -1.03512  -0.84336  -0.75457  -0.69681  -0.67095
 Alpha  occ. eigenvalues --   -0.61029  -0.58493  -0.53181  -0.50463  -0.47794
 Alpha  occ. eigenvalues --   -0.46938  -0.44964  -0.43912  -0.42280  -0.41649
 Alpha  occ. eigenvalues --   -0.41206  -0.38143  -0.34828  -0.33634  -0.30488
 Alpha  occ. eigenvalues --   -0.29511  -0.27851  -0.24518  -0.24188
 Alpha virt. eigenvalues --    0.07079   0.09585   0.10485   0.10608   0.13368
 Alpha virt. eigenvalues --    0.14721   0.14866   0.15260   0.15438   0.16499
 Alpha virt. eigenvalues --    0.16719   0.17992   0.19007   0.19249   0.19492
 Alpha virt. eigenvalues --    0.22339   0.23989   0.26949   0.29692   0.32541
 Alpha virt. eigenvalues --    0.37160   0.41295   0.42347   0.42927   0.46130
 Alpha virt. eigenvalues --    0.47257   0.48847   0.48867   0.51740   0.51840
 Alpha virt. eigenvalues --    0.52328   0.54070   0.56493   0.59211   0.59461
 Alpha virt. eigenvalues --    0.62126   0.62604   0.64192   0.66357   0.66977
 Alpha virt. eigenvalues --    0.68456   0.70799   0.74437   0.74703   0.75454
 Alpha virt. eigenvalues --    0.75764   0.75818   0.77607   0.77642   0.78228
 Alpha virt. eigenvalues --    0.79992   0.83032   0.86383   0.87967   0.89997
 Alpha virt. eigenvalues --    0.91812   0.93530   0.93630   0.98878   0.98881
 Alpha virt. eigenvalues --    1.00559   1.05280   1.07082   1.13441   1.13822
 Alpha virt. eigenvalues --    1.15986   1.18118   1.21644   1.22367   1.26552
 Alpha virt. eigenvalues --    1.28186   1.30549   1.32223   1.33489   1.33927
 Alpha virt. eigenvalues --    1.37087   1.39428   1.41680   1.45388   1.47212
 Alpha virt. eigenvalues --    1.47375   1.48635   1.48809   1.48995   1.53880
 Alpha virt. eigenvalues --    1.53927   1.54363   1.55507   1.58650   1.60496
 Alpha virt. eigenvalues --    1.62360   1.64182   1.67259   1.68493   1.69560
 Alpha virt. eigenvalues --    1.69594   1.73484   1.74882   1.75942   1.82832
 Alpha virt. eigenvalues --    1.83450   1.86194   1.87357   1.88262   1.90482
 Alpha virt. eigenvalues --    1.94436   1.94709   2.01685   2.05737   2.11021
 Alpha virt. eigenvalues --    2.13793   2.19592   2.22599   2.25224   2.30068
 Alpha virt. eigenvalues --    2.32533   2.33278   2.37248   2.41049   2.41887
 Alpha virt. eigenvalues --    2.44167   2.46642   2.51964   2.55093   2.57781
 Alpha virt. eigenvalues --    2.61423   2.63620   2.66864   2.72278   2.74407
 Alpha virt. eigenvalues --    2.75985   2.76267   2.81053   2.82698   2.82794
 Alpha virt. eigenvalues --    2.83370   2.88140   2.88231   2.90564   2.91300
 Alpha virt. eigenvalues --    2.92282   2.94085   2.97093   2.99659   3.03884
 Alpha virt. eigenvalues --    3.05963   3.09301   3.11299   3.11738   3.16721
 Alpha virt. eigenvalues --    3.16751   3.17619   3.20488   3.21650   3.23105
 Alpha virt. eigenvalues --    3.27920   3.29945   3.30833   3.34383   3.36520
 Alpha virt. eigenvalues --    3.42308   3.43792   3.46575   3.46673   3.49476
 Alpha virt. eigenvalues --    3.52073   3.52934   3.59289   3.60576   3.66864
 Alpha virt. eigenvalues --    3.67340   3.72447   3.79486   3.84053   3.84063
 Alpha virt. eigenvalues --    3.89398   3.90914   3.92529   3.93354   3.97734
 Alpha virt. eigenvalues --    4.00304   4.01934   4.05931   4.08090   4.13679
 Alpha virt. eigenvalues --    4.14252   4.24277   4.25548   4.31346   4.31401
 Alpha virt. eigenvalues --    4.33591   4.35188   4.37736   4.38318   4.38903
 Alpha virt. eigenvalues --    4.40985   4.43200   4.44130   4.47407   4.47933
 Alpha virt. eigenvalues --    4.48114   4.54129   4.56703   4.57783   4.61578
 Alpha virt. eigenvalues --    4.61879   4.65504   4.67041   4.67664   4.69262
 Alpha virt. eigenvalues --    4.71031   4.72601   4.72712   4.75822   4.76888
 Alpha virt. eigenvalues --    4.78522   4.82562   4.86707   4.88125   4.90644
 Alpha virt. eigenvalues --    4.93698   4.93760   4.95394   4.97200   5.00158
 Alpha virt. eigenvalues --    5.02770   5.05740   5.06196   5.10863   5.16777
 Alpha virt. eigenvalues --    5.20482   5.22682   5.25717   5.29159   5.38068
 Alpha virt. eigenvalues --    5.38990   5.46020   5.46111   5.49398   5.51745
 Alpha virt. eigenvalues --    5.62538   5.64252   5.67801   5.75679   5.76568
 Alpha virt. eigenvalues --    5.87660   5.90431   5.92324   5.96237   6.04991
 Alpha virt. eigenvalues --    6.09628   6.11529   6.22420   6.25502   6.45745
 Alpha virt. eigenvalues --    6.65557   7.05405   7.21578   7.76960  10.83969
 Alpha virt. eigenvalues --   11.29058  11.56212  11.92569  12.31044  12.55549
 Alpha virt. eigenvalues --   13.15398  13.64871  13.78927
          Condensed to atoms (all electrons):
               1          2          3          4          5          6
     1  C    4.860582   0.386269  -0.099336  -0.004077   0.000046  -0.000008
     2  O    0.386269   7.681200   0.417471  -0.048466  -0.001452  -0.000073
     3  C   -0.099336   0.417471   4.384023   0.337108  -0.027029  -0.017127
     4  C   -0.004077  -0.048466   0.337108   5.254318   0.326923  -0.025648
     5  C    0.000046  -0.001452  -0.027029   0.326923   4.700942   0.337622
     6  O   -0.000008  -0.000073  -0.017127  -0.025648   0.337622   7.812169
     7  C    0.000046  -0.001453  -0.027029  -0.012777  -0.091621   0.337624
     8  C   -0.004081  -0.048463   0.337110  -0.032882  -0.012776  -0.025649
     9  C    0.004873  -0.006597   0.339565  -0.096281   0.339646  -0.058677
    10  H    0.366097  -0.034377  -0.000168   0.010891   0.000173   0.000001
    11  H    0.388117  -0.019965   0.001973   0.000016  -0.000008   0.000000
    12  H    0.366096  -0.034377  -0.000170  -0.001906   0.000000   0.000001
    13  H    0.000278  -0.000573  -0.014015   0.317700  -0.006184   0.002434
    14  H    0.000472   0.002070  -0.012739   0.337740  -0.016285  -0.001863
    15  H    0.000010  -0.000118   0.004913  -0.061916   0.370076  -0.030572
    16  H    0.000010  -0.000118   0.004913  -0.001326   0.006191  -0.030572
    17  H    0.000278  -0.000574  -0.014015   0.004988   0.001033   0.002434
    18  H    0.000472   0.002070  -0.012738  -0.009061   0.000902  -0.001863
    19  H   -0.000154  -0.000525  -0.033243   0.011204  -0.032022   0.006034
               7          8          9         10         11         12
     1  C    0.000046  -0.004081   0.004873   0.366097   0.388117   0.366096
     2  O   -0.001453  -0.048463  -0.006597  -0.034377  -0.019965  -0.034377
     3  C   -0.027029   0.337110   0.339565  -0.000168   0.001973  -0.000170
     4  C   -0.012777  -0.032882  -0.096281   0.010891   0.000016  -0.001906
     5  C   -0.091621  -0.012776   0.339646   0.000173  -0.000008   0.000000
     6  O    0.337624  -0.025649  -0.058677   0.000001   0.000000   0.000001
     7  C    4.700941   0.326924   0.339646   0.000000  -0.000008   0.000173
     8  C    0.326924   5.254307  -0.096273  -0.001906   0.000017   0.010894
     9  C    0.339646  -0.096273   5.112731  -0.000183  -0.000193  -0.000183
    10  H    0.000000  -0.001906  -0.000183   0.632505  -0.035634  -0.049329
    11  H   -0.000008   0.000017  -0.000193  -0.035634   0.572744  -0.035632
    12  H    0.000173   0.010894  -0.000183  -0.049329  -0.035632   0.632501
    13  H    0.001033   0.004988  -0.000752  -0.000144  -0.000062   0.000262
    14  H    0.000902  -0.009061   0.007350  -0.000592   0.000003   0.000113
    15  H    0.006191  -0.001326  -0.033396   0.000010   0.000000   0.000000
    16  H    0.370076  -0.061917  -0.033396   0.000000   0.000000   0.000010
    17  H   -0.006184   0.317701  -0.000752   0.000262  -0.000062  -0.000143
    18  H   -0.016285   0.337741   0.007350   0.000113   0.000003  -0.000593
    19  H   -0.032022   0.011204   0.348556  -0.000001   0.000000  -0.000001
              13         14         15         16         17         18
     1  C    0.000278   0.000472   0.000010   0.000010   0.000278   0.000472
     2  O   -0.000573   0.002070  -0.000118  -0.000118  -0.000574   0.002070
     3  C   -0.014015  -0.012739   0.004913   0.004913  -0.014015  -0.012738
     4  C    0.317700   0.337740  -0.061916  -0.001326   0.004988  -0.009061
     5  C   -0.006184  -0.016285   0.370076   0.006191   0.001033   0.000902
     6  O    0.002434  -0.001863  -0.030572  -0.030572   0.002434  -0.001863
     7  C    0.001033   0.000902   0.006191   0.370076  -0.006184  -0.016285
     8  C    0.004988  -0.009061  -0.001326  -0.061917   0.317701   0.337741
     9  C   -0.000752   0.007350  -0.033396  -0.033396  -0.000752   0.007350
    10  H   -0.000144  -0.000592   0.000010   0.000000   0.000262   0.000113
    11  H   -0.000062   0.000003   0.000000   0.000000  -0.000062   0.000003
    12  H    0.000262   0.000113   0.000000   0.000010  -0.000143  -0.000593
    13  H    0.626486  -0.034814  -0.003135   0.000059  -0.000157  -0.000021
    14  H   -0.034814   0.621069   0.002365   0.000104  -0.000021   0.003409
    15  H   -0.003135   0.002365   0.668699  -0.000489   0.000059   0.000104
    16  H    0.000059   0.000104  -0.000489   0.668701  -0.003135   0.002365
    17  H   -0.000157  -0.000021   0.000059  -0.003135   0.626488  -0.034815
    18  H   -0.000021   0.003409   0.000104   0.002365  -0.034815   0.621068
    19  H   -0.000271  -0.000467  -0.002897  -0.002897  -0.000271  -0.000467
              19
     1  C   -0.000154
     2  O   -0.000525
     3  C   -0.033243
     4  C    0.011204
     5  C   -0.032022
     6  O    0.006034
     7  C   -0.032022
     8  C    0.011204
     9  C    0.348556
    10  H   -0.000001
    11  H    0.000000
    12  H   -0.000001
    13  H   -0.000271
    14  H   -0.000467
    15  H   -0.002897
    16  H   -0.002897
    17  H   -0.000271
    18  H   -0.000467
    19  H    0.646445
 Mulliken charges:
               1
     1  C   -0.265990
     2  O   -0.291948
     3  C    0.430533
     4  C   -0.306549
     5  C    0.103824
     6  O   -0.306267
     7  C    0.103823
     8  C   -0.306551
     9  C   -0.173036
    10  H    0.112283
    11  H    0.128693
    12  H    0.112285
    13  H    0.106887
    14  H    0.100244
    15  H    0.081421
    16  H    0.081421
    17  H    0.106887
    18  H    0.100246
    19  H    0.081795
 Sum of Mulliken charges =   0.00000
 Mulliken charges with hydrogens summed into heavy atoms:
               1
     1  C    0.087270
     2  O   -0.291948
     3  C    0.430533
     4  C   -0.099417
     5  C    0.185245
     6  O   -0.306267
     7  C    0.185243
     8  C   -0.099418
     9  C   -0.091241
 Electronic spatial extent (au):  <R**2>=           1052.3423
 Charge=              0.0000 electrons
 Dipole moment (field-independent basis, Debye):
    X=             -1.2819    Y=              0.0001    Z=              0.0337  Tot=              1.2823
 Quadrupole moment (field-independent basis, Debye-Ang):
   XX=            -55.3732   YY=            -50.1379   ZZ=            -53.7472
   XY=             -0.0007   XZ=              5.0732   YZ=              0.0003
 Traceless Quadrupole moment (field-independent basis, Debye-Ang):
   XX=             -2.2871   YY=              2.9482   ZZ=             -0.6611
   XY=             -0.0007   XZ=              5.0732   YZ=              0.0003
 Octapole moment (field-independent basis, Debye-Ang**2):
  XXX=            -24.5936  YYY=              0.0002  ZZZ=              1.4559  XYY=              4.4249
  XXY=             -0.0001  XXZ=              2.5633  XZZ=              0.9727  YZZ=             -0.0001
  YYZ=              0.7652  XYZ=             -0.0001
 Hexadecapole moment (field-independent basis, Debye-Ang**3):
 XXXX=           -831.3990 YYYY=           -307.6848 ZZZZ=           -178.8252 XXXY=             -0.0022
 XXXZ=              6.0776 YYYX=              0.0015 YYYZ=             -0.0004 ZZZX=             -4.3782
 ZZZY=             -0.0004 XXYY=           -183.7794 XXZZ=           -181.6033 YYZZ=            -84.2494
 XXYZ=              0.0011 YYXZ=             -1.5558 ZZXY=              0.0002
 N-N= 4.823185300531D+02 E-N=-1.951532307509D+03  KE= 4.200488974260D+02
 Calling FoFJK, ICntrl=      2127 FMM=F ISym2X=0 I1Cent= 0 IOpClX= 0 NMat=1 NMatS=1 NMatT=0.
 ***** Axes restored to original set *****
 -------------------------------------------------------------------
 Center     Atomic                   Forces (Hartrees/Bohr)
 Number     Number              X              Y              Z
 -------------------------------------------------------------------
      1        6           0.000101737   -0.000037800   -0.000062056
      2        8          -0.000050688    0.000026323    0.000039995
      3        6          -0.000032635    0.000015712    0.000030219
      4        6          -0.000050996    0.000025984   -0.000067524
      5        6           0.000068521    0.000053305    0.000014289
      6        8          -0.000021386   -0.000036168   -0.000055924
      7        6           0.000070222   -0.000007992    0.000051244
      8        6          -0.000049747   -0.000072565   -0.000006113
      9        6           0.000023617    0.000000339    0.000000067
     10        1          -0.000024521    0.000012274    0.000005457
     11        1           0.000028515    0.000002831    0.000003656
     12        1          -0.000024063   -0.000001213    0.000013637
     13        1           0.000009937    0.000003669    0.000010478
     14        1           0.000017469    0.000005786    0.000026794
     15        1          -0.000024340   -0.000028914    0.000022588
     16        1          -0.000025795    0.000032244   -0.000015149
     17        1           0.000009988    0.000007648    0.000007710
     18        1           0.000017055    0.000021961    0.000016793
     19        1          -0.000042889   -0.000023422   -0.000036164
 -------------------------------------------------------------------
 Cartesian Forces:  Max     0.000101737 RMS     0.000035453

 GradGradGradGradGradGradGradGradGradGradGradGradGradGradGradGradGradGrad
 Berny optimization.
 FormGI is forming the generalized inverse of G from B-inverse, IUseBI=4.
 Internal  Forces:  Max     0.000076291 RMS     0.000015136
 Search for a local minimum.
 Step number   1 out of a maximum of  114
 All quantities printed in internal units (Hartrees-Bohrs-Radians)
 Mixed Optimization -- En-DIIS/RFO-DIIS
 Second derivative matrix not updated -- first step.
 ITU=  0
     Eigenvalues ---    0.01173   0.01388   0.01500   0.01831   0.02275
     Eigenvalues ---    0.02506   0.03049   0.03107   0.03410   0.04202
     Eigenvalues ---    0.04470   0.04705   0.04847   0.04997   0.05599
     Eigenvalues ---    0.05779   0.06072   0.06283   0.06760   0.07196
     Eigenvalues ---    0.08096   0.10015   0.10526   0.11362   0.12254
     Eigenvalues ---    0.12346   0.16000   0.16000   0.16000   0.17361
     Eigenvalues ---    0.18697   0.20625   0.24472   0.25000   0.25384
     Eigenvalues ---    0.25686   0.26972   0.33721   0.33721   0.33963
     Eigenvalues ---    0.34195   0.34195   0.34476   0.34477   0.34565
     Eigenvalues ---    0.34720   0.34720   0.34990   0.35331   0.43303
     Eigenvalues ---    0.47412
 RFO step:  Lambda=-1.65150859D-07 EMin= 1.17339153D-02
 Linear search not attempted -- first point.
 Iteration  1 RMS(Cart)=  0.00015380 RMS(Int)=  0.00000002
 Iteration  2 RMS(Cart)=  0.00000002 RMS(Int)=  0.00000001
 Variable       Old X    -DE/DX   Delta X   Delta X   Delta X     New X
                                 (Linear)    (Quad)   (Total)
    R1        2.67297   0.00008   0.00000   0.00018   0.00018   2.67315
    R2        2.07803  -0.00001   0.00000  -0.00004  -0.00004   2.07799
    R3        2.06388   0.00000   0.00000   0.00001   0.00001   2.06389
    R4        2.07803  -0.00001   0.00000  -0.00004  -0.00004   2.07799
    R5        2.62571   0.00002   0.00000   0.00003   0.00003   2.62574
    R6        2.94424  -0.00003   0.00000  -0.00015  -0.00015   2.94409
    R7        2.94423  -0.00003   0.00000  -0.00015  -0.00015   2.94408
    R8        2.97124  -0.00001   0.00000  -0.00003  -0.00003   2.97121
    R9        2.92674  -0.00002   0.00000  -0.00008  -0.00008   2.92666
   R10        2.07002   0.00000   0.00000  -0.00001  -0.00001   2.07001
   R11        2.06533   0.00003   0.00000   0.00009   0.00009   2.06542
   R12        2.73158  -0.00003   0.00000  -0.00009  -0.00009   2.73149
   R13        2.93670   0.00001   0.00000   0.00008   0.00008   2.93677
   R14        2.06131   0.00004   0.00000   0.00012   0.00012   2.06144
   R15        2.73157  -0.00003   0.00000  -0.00008  -0.00008   2.73149
   R16        2.92675  -0.00003   0.00000  -0.00008  -0.00008   2.92667
   R17        2.93669   0.00001   0.00000   0.00008   0.00008   2.93677
   R18        2.06131   0.00004   0.00000   0.00012   0.00012   2.06144
   R19        2.07002   0.00000   0.00000  -0.00001  -0.00001   2.07001
   R20        2.06533   0.00003   0.00000   0.00009   0.00009   2.06542
   R21        2.05141   0.00006   0.00000   0.00017   0.00017   2.05158
    A1        1.95168  -0.00004   0.00000  -0.00027  -0.00027   1.95141
    A2        1.86835   0.00006   0.00000   0.00040   0.00040   1.86876
    A3        1.95168  -0.00004   0.00000  -0.00027  -0.00027   1.95141
    A4        1.89964   0.00001   0.00000   0.00009   0.00009   1.89973
    A5        1.89166   0.00001   0.00000  -0.00002  -0.00002   1.89164
    A6        1.89964   0.00001   0.00000   0.00009   0.00009   1.89973
    A7        1.98473   0.00003   0.00000   0.00011   0.00011   1.98484
    A8        2.07710   0.00000   0.00000   0.00004   0.00004   2.07714
    A9        2.07712   0.00000   0.00000   0.00004   0.00004   2.07715
   A10        2.10387   0.00000   0.00000   0.00005   0.00005   2.10392
   A11        1.96063  -0.00001   0.00000  -0.00023  -0.00023   1.96040
   A12        1.55990   0.00000   0.00000   0.00007   0.00007   1.55997
   A13        1.55990   0.00000   0.00000   0.00007   0.00007   1.55997
   A14        1.54671   0.00001   0.00000   0.00003   0.00003   1.54674
   A15        1.90588   0.00000   0.00000   0.00008   0.00008   1.90597
   A16        2.08819   0.00000   0.00000   0.00005   0.00005   2.08823
   A17        1.92307   0.00000   0.00000   0.00004   0.00004   1.92311
   A18        2.04400  -0.00001   0.00000  -0.00010  -0.00010   2.04390
   A19        1.92489   0.00000   0.00000  -0.00008  -0.00008   1.92481
   A20        1.94986   0.00000   0.00000   0.00006   0.00006   1.94992
   A21        1.57755   0.00000   0.00000   0.00001   0.00001   1.57756
   A22        2.08583   0.00000   0.00000  -0.00002  -0.00002   2.08581
   A23        1.60142   0.00000   0.00000  -0.00006  -0.00006   1.60136
   A24        1.95715   0.00000   0.00000   0.00004   0.00004   1.95719
   A25        2.21863   0.00000   0.00000  -0.00003  -0.00003   2.21860
   A26        1.59578   0.00002   0.00000   0.00008   0.00008   1.59586
   A27        1.94987   0.00000   0.00000   0.00006   0.00006   1.94993
   A28        1.60142   0.00000   0.00000  -0.00006  -0.00006   1.60136
   A29        1.95715   0.00000   0.00000   0.00004   0.00004   1.95719
   A30        1.57755   0.00000   0.00000   0.00001   0.00001   1.57756
   A31        2.08582   0.00000   0.00000  -0.00002  -0.00002   2.08580
   A32        2.21862   0.00000   0.00000  -0.00003  -0.00003   2.21860
   A33        1.54671   0.00001   0.00000   0.00003   0.00003   1.54674
   A34        1.90590   0.00000   0.00000   0.00008   0.00008   1.90598
   A35        2.08818   0.00000   0.00000   0.00005   0.00005   2.08823
   A36        1.92306   0.00000   0.00000   0.00004   0.00004   1.92310
   A37        2.04400  -0.00001   0.00000  -0.00010  -0.00010   2.04390
   A38        1.92489   0.00000   0.00000  -0.00008  -0.00008   1.92481
   A39        1.53451  -0.00001   0.00000  -0.00006  -0.00006   1.53445
   A40        1.53450  -0.00001   0.00000  -0.00006  -0.00006   1.53445
   A41        2.20982   0.00000   0.00000   0.00002   0.00002   2.20984
   A42        1.45735  -0.00001   0.00000  -0.00003  -0.00003   1.45732
   A43        2.23925   0.00001   0.00000   0.00004   0.00004   2.23929
   A44        2.23925   0.00001   0.00000   0.00004   0.00004   2.23929
    D1        1.06257  -0.00002   0.00000  -0.00022  -0.00022   1.06235
    D2       -3.14155   0.00000   0.00000  -0.00001  -0.00001  -3.14156
    D3       -1.06248   0.00002   0.00000   0.00019   0.00019  -1.06229
    D4       -1.25285   0.00001   0.00000   0.00021   0.00021  -1.25264
    D5        1.25259   0.00000   0.00000  -0.00012  -0.00012   1.25247
    D6        3.14147   0.00000   0.00000   0.00004   0.00004   3.14151
    D7       -2.43541   0.00000   0.00000  -0.00003  -0.00003  -2.43544
    D8       -0.49949   0.00000   0.00000   0.00003   0.00003  -0.49945
    D9        1.74085   0.00000   0.00000   0.00005   0.00005   1.74090
   D10        1.30263   0.00000   0.00000   0.00019   0.00019   1.30282
   D11       -3.04464   0.00001   0.00000   0.00026   0.00026  -3.04438
   D12       -0.80430   0.00000   0.00000   0.00027   0.00027  -0.80402
   D13       -0.25191   0.00000   0.00000   0.00009   0.00009  -0.25183
   D14        1.68401   0.00000   0.00000   0.00015   0.00015   1.68416
   D15       -2.35884   0.00000   0.00000   0.00017   0.00017  -2.35867
   D16        2.43542   0.00000   0.00000   0.00003   0.00003   2.43545
   D17        0.49951   0.00000   0.00000  -0.00004  -0.00004   0.49947
   D18       -1.74084   0.00000   0.00000  -0.00005  -0.00005  -1.74089
   D19       -1.30262   0.00000   0.00000  -0.00019  -0.00019  -1.30282
   D20        3.04465  -0.00001   0.00000  -0.00026  -0.00026   3.04439
   D21        0.80430   0.00000   0.00000  -0.00027  -0.00027   0.80403
   D22        0.25192   0.00000   0.00000  -0.00009  -0.00009   0.25183
   D23       -1.68400   0.00000   0.00000  -0.00016  -0.00016  -1.68415
   D24        2.35884   0.00000   0.00000  -0.00017  -0.00017   2.35867
   D25        2.41232   0.00001   0.00000   0.00002   0.00002   2.41233
   D26       -2.41234  -0.00001   0.00000  -0.00001  -0.00001  -2.41235
   D27       -0.00002   0.00000   0.00000   0.00001   0.00001  -0.00001
   D28        0.25114   0.00000   0.00000  -0.00010  -0.00010   0.25104
   D29        1.70966  -0.00001   0.00000  -0.00013  -0.00013   1.70953
   D30       -2.16119  -0.00001   0.00000  -0.00011  -0.00011  -2.16131
   D31       -1.70967   0.00001   0.00000   0.00013   0.00013  -1.70954
   D32       -0.25114   0.00000   0.00000   0.00010   0.00010  -0.25104
   D33        2.16119   0.00001   0.00000   0.00012   0.00012   2.16130
   D34       -1.35152   0.00001   0.00000  -0.00004  -0.00004  -1.35156
   D35        0.25493   0.00000   0.00000  -0.00010  -0.00010   0.25483
   D36        2.59728   0.00000   0.00000  -0.00014  -0.00014   2.59714
   D37        3.01224   0.00000   0.00000  -0.00015  -0.00014   3.01209
   D38       -1.66449  -0.00001   0.00000  -0.00021  -0.00021  -1.66470
   D39        0.67785  -0.00001   0.00000  -0.00025  -0.00025   0.67760
   D40        0.79388   0.00001   0.00000   0.00001   0.00001   0.79388
   D41        2.40033   0.00000   0.00000  -0.00005  -0.00005   2.40028
   D42       -1.54051   0.00000   0.00000  -0.00010  -0.00010  -1.54060
   D43        1.42003  -0.00001   0.00000  -0.00026  -0.00026   1.41977
   D44       -0.17025  -0.00001   0.00000  -0.00024  -0.00024  -0.17049
   D45       -2.46753  -0.00001   0.00000  -0.00019  -0.00019  -2.46772
   D46       -0.25266   0.00000   0.00000   0.00011   0.00011  -0.25255
   D47       -1.79104   0.00001   0.00000   0.00016   0.00016  -1.79089
   D48        2.13910   0.00000   0.00000   0.00011   0.00011   2.13921
   D49        1.69762   0.00000   0.00000   0.00017   0.00017   1.69779
   D50        0.15924   0.00000   0.00000   0.00022   0.00022   0.15946
   D51       -2.19380   0.00000   0.00000   0.00017   0.00017  -2.19364
   D52       -2.49583   0.00000   0.00000   0.00015   0.00015  -2.49568
   D53        2.24897   0.00001   0.00000   0.00020   0.00020   2.24917
   D54       -0.10407   0.00000   0.00000   0.00015   0.00015  -0.10392
   D55       -1.42003   0.00001   0.00000   0.00026   0.00026  -1.41977
   D56        0.17025   0.00001   0.00000   0.00024   0.00024   0.17049
   D57        2.46753   0.00001   0.00000   0.00019   0.00019   2.46772
   D58        1.35152  -0.00001   0.00000   0.00004   0.00004   1.35156
   D59       -3.01222   0.00000   0.00000   0.00014   0.00014  -3.01208
   D60       -0.79387  -0.00001   0.00000  -0.00001  -0.00001  -0.79388
   D61       -0.25494   0.00000   0.00000   0.00010   0.00010  -0.25484
   D62        1.66450   0.00001   0.00000   0.00020   0.00020   1.66471
   D63       -2.40033   0.00000   0.00000   0.00005   0.00005  -2.40028
   D64       -2.59728   0.00000   0.00000   0.00014   0.00014  -2.59714
   D65       -0.67784   0.00001   0.00000   0.00025   0.00025  -0.67759
   D66        1.54051   0.00000   0.00000   0.00009   0.00009   1.54061
   D67       -1.69762   0.00000   0.00000  -0.00017  -0.00017  -1.69779
   D68       -0.15924   0.00000   0.00000  -0.00022  -0.00022  -0.15946
   D69        2.19380   0.00000   0.00000  -0.00017  -0.00017   2.19364
   D70        0.25266   0.00000   0.00000  -0.00011  -0.00011   0.25256
   D71        1.79105  -0.00001   0.00000  -0.00016  -0.00016   1.79089
   D72       -2.13909   0.00000   0.00000  -0.00011  -0.00011  -2.13920
   D73        2.49582   0.00000   0.00000  -0.00015  -0.00015   2.49567
   D74       -2.24898  -0.00001   0.00000  -0.00020  -0.00020  -2.24918
   D75        0.10406   0.00000   0.00000  -0.00015  -0.00015   0.10391
         Item               Value     Threshold  Converged?
 Maximum Force            0.000076     0.000450     YES
 RMS     Force            0.000015     0.000300     YES
 Maximum Displacement     0.000658     0.001800     YES
 RMS     Displacement     0.000154     0.001200     YES
 Predicted change in Energy=-8.257206D-08
 Optimization completed.
    -- Stationary point found.
                           ----------------------------
                           !   Optimized Parameters   !
                           ! (Angstroms and Degrees)  !
 --------------------------                            --------------------------
 ! Name  Definition              Value          Derivative Info.                !
 --------------------------------------------------------------------------------
 ! R1    R(1,2)                  1.4145         -DE/DX =    0.0001              !
 ! R2    R(1,10)                 1.0996         -DE/DX =    0.0                 !
 ! R3    R(1,11)                 1.0922         -DE/DX =    0.0                 !
 ! R4    R(1,12)                 1.0996         -DE/DX =    0.0                 !
 ! R5    R(2,3)                  1.3895         -DE/DX =    0.0                 !
 ! R6    R(3,4)                  1.558          -DE/DX =    0.0                 !
 ! R7    R(3,8)                  1.558          -DE/DX =    0.0                 !
 ! R8    R(3,9)                  1.5723         -DE/DX =    0.0                 !
 ! R9    R(4,5)                  1.5488         -DE/DX =    0.0                 !
 ! R10   R(4,13)                 1.0954         -DE/DX =    0.0                 !
 ! R11   R(4,14)                 1.0929         -DE/DX =    0.0                 !
 ! R12   R(5,6)                  1.4455         -DE/DX =    0.0                 !
 ! R13   R(5,9)                  1.554          -DE/DX =    0.0                 !
 ! R14   R(5,15)                 1.0908         -DE/DX =    0.0                 !
 ! R15   R(6,7)                  1.4455         -DE/DX =    0.0                 !
 ! R16   R(7,8)                  1.5488         -DE/DX =    0.0                 !
 ! R17   R(7,9)                  1.554          -DE/DX =    0.0                 !
 ! R18   R(7,16)                 1.0908         -DE/DX =    0.0                 !
 ! R19   R(8,17)                 1.0954         -DE/DX =    0.0                 !
 ! R20   R(8,18)                 1.0929         -DE/DX =    0.0                 !
 ! R21   R(9,19)                 1.0856         -DE/DX =    0.0001              !
 ! A1    A(2,1,10)             111.823          -DE/DX =    0.0                 !
 ! A2    A(2,1,11)             107.0488         -DE/DX =    0.0001              !
 ! A3    A(2,1,12)             111.8229         -DE/DX =    0.0                 !
 ! A4    A(10,1,11)            108.8413         -DE/DX =    0.0                 !
 ! A5    A(10,1,12)            108.3841         -DE/DX =    0.0                 !
 ! A6    A(11,1,12)            108.8414         -DE/DX =    0.0                 !
 ! A7    A(1,2,3)              113.7165         -DE/DX =    0.0                 !
 ! A8    A(2,3,4)              119.009          -DE/DX =    0.0                 !
 ! A9    A(2,3,8)              119.01           -DE/DX =    0.0                 !
 ! A10   A(2,3,9)              120.543          -DE/DX =    0.0                 !
 ! A11   A(4,3,8)              112.3357         -DE/DX =    0.0                 !
 ! A12   A(4,3,9)               89.3757         -DE/DX =    0.0                 !
 ! A13   A(8,3,9)               89.3759         -DE/DX =    0.0                 !
 ! A14   A(3,4,5)               88.6198         -DE/DX =    0.0                 !
 ! A15   A(3,4,13)             109.1991         -DE/DX =    0.0                 !
 ! A16   A(3,4,14)             119.6442         -DE/DX =    0.0                 !
 ! A17   A(5,4,13)             110.1837         -DE/DX =    0.0                 !
 ! A18   A(5,4,14)             117.1123         -DE/DX =    0.0                 !
 ! A19   A(13,4,14)            110.2882         -DE/DX =    0.0                 !
 ! A20   A(4,5,6)              111.7189         -DE/DX =    0.0                 !
 ! A21   A(4,5,9)               90.3872         -DE/DX =    0.0                 !
 ! A22   A(4,5,15)             119.5092         -DE/DX =    0.0                 !
 ! A23   A(6,5,9)               91.7545         -DE/DX =    0.0                 !
 ! A24   A(6,5,15)             112.1365         -DE/DX =    0.0                 !
 ! A25   A(9,5,15)             127.1179         -DE/DX =    0.0                 !
 ! A26   A(5,6,7)               91.4315         -DE/DX =    0.0                 !
 ! A27   A(6,7,8)              111.7192         -DE/DX =    0.0                 !
 ! A28   A(6,7,9)               91.7547         -DE/DX =    0.0                 !
 ! A29   A(6,7,16)             112.1366         -DE/DX =    0.0                 !
 ! A30   A(8,7,9)               90.3872         -DE/DX =    0.0                 !
 ! A31   A(8,7,16)             119.5087         -DE/DX =    0.0                 !
 ! A32   A(9,7,16)             127.1178         -DE/DX =    0.0                 !
 ! A33   A(3,8,7)               88.6197         -DE/DX =    0.0                 !
 ! A34   A(3,8,17)             109.1999         -DE/DX =    0.0                 !
 ! A35   A(3,8,18)             119.644          -DE/DX =    0.0                 !
 ! A36   A(7,8,17)             110.1832         -DE/DX =    0.0                 !
 ! A37   A(7,8,18)             117.1124         -DE/DX =    0.0                 !
 ! A38   A(17,8,18)            110.2881         -DE/DX =    0.0                 !
 ! A39   A(3,9,5)               87.9207         -DE/DX =    0.0                 !
 ! A40   A(3,9,7)               87.9205         -DE/DX =    0.0                 !
 ! A41   A(3,9,19)             126.6135         -DE/DX =    0.0                 !
 ! A42   A(5,9,7)               83.5001         -DE/DX =    0.0                 !
 ! A43   A(5,9,19)             128.2997         -DE/DX =    0.0                 !
 ! A44   A(7,9,19)             128.2996         -DE/DX =    0.0                 !
 ! D1    D(10,1,2,3)            60.8807         -DE/DX =    0.0                 !
 ! D2    D(11,1,2,3)          -179.9975         -DE/DX =    0.0                 !
 ! D3    D(12,1,2,3)           -60.8756         -DE/DX =    0.0                 !
 ! D4    D(1,2,3,4)            -71.7833         -DE/DX =    0.0                 !
 ! D5    D(1,2,3,8)             71.7682         -DE/DX =    0.0                 !
 ! D6    D(1,2,3,9)            179.993          -DE/DX =    0.0                 !
 ! D7    D(2,3,4,5)           -139.5387         -DE/DX =    0.0                 !
 ! D8    D(2,3,4,13)           -28.6185         -DE/DX =    0.0                 !
 ! D9    D(2,3,4,14)            99.7435         -DE/DX =    0.0                 !
 ! D10   D(8,3,4,5)             74.6351         -DE/DX =    0.0                 !
 ! D11   D(8,3,4,13)          -174.4448         -DE/DX =    0.0                 !
 ! D12   D(8,3,4,14)           -46.0827         -DE/DX =    0.0                 !
 ! D13   D(9,3,4,5)            -14.4336         -DE/DX =    0.0                 !
 ! D14   D(9,3,4,13)            96.4865         -DE/DX =    0.0                 !
 ! D15   D(9,3,4,14)          -135.1514         -DE/DX =    0.0                 !
 ! D16   D(2,3,8,7)            139.5393         -DE/DX =    0.0                 !
 ! D17   D(2,3,8,17)            28.6196         -DE/DX =    0.0                 !
 ! D18   D(2,3,8,18)           -99.7429         -DE/DX =    0.0                 !
 ! D19   D(4,3,8,7)            -74.6348         -DE/DX =    0.0                 !
 ! D20   D(4,3,8,17)           174.4455         -DE/DX =    0.0                 !
 ! D21   D(4,3,8,18)            46.083          -DE/DX =    0.0                 !
 ! D22   D(9,3,8,7)             14.4338         -DE/DX =    0.0                 !
 ! D23   D(9,3,8,17)           -96.486          -DE/DX =    0.0                 !
 ! D24   D(9,3,8,18)           135.1515         -DE/DX =    0.0                 !
 ! D25   D(2,3,9,5)            138.2155         -DE/DX =    0.0                 !
 ! D26   D(2,3,9,7)           -138.217          -DE/DX =    0.0                 !
 ! D27   D(2,3,9,19)            -0.0009         -DE/DX =    0.0                 !
 ! D28   D(4,3,9,5)             14.3891         -DE/DX =    0.0                 !
 ! D29   D(4,3,9,7)             97.9565         -DE/DX =    0.0                 !
 ! D30   D(4,3,9,19)          -123.8273         -DE/DX =    0.0                 !
 ! D31   D(8,3,9,5)            -97.9567         -DE/DX =    0.0                 !
 ! D32   D(8,3,9,7)            -14.3892         -DE/DX =    0.0                 !
 ! D33   D(8,3,9,19)           123.8269         -DE/DX =    0.0                 !
 ! D34   D(3,4,5,6)            -77.4364         -DE/DX =    0.0                 !
 ! D35   D(3,4,5,9)             14.6066         -DE/DX =    0.0                 !
 ! D36   D(3,4,5,15)           148.8133         -DE/DX =    0.0                 !
 ! D37   D(13,4,5,6)           172.5885         -DE/DX =    0.0                 !
 ! D38   D(13,4,5,9)           -95.3685         -DE/DX =    0.0                 !
 ! D39   D(13,4,5,15)           38.8382         -DE/DX =    0.0                 !
 ! D40   D(14,4,5,6)            45.4857         -DE/DX =    0.0                 !
 ! D41   D(14,4,5,9)           137.5287         -DE/DX =    0.0                 !
 ! D42   D(14,4,5,15)          -88.2646         -DE/DX =    0.0                 !
 ! D43   D(4,5,6,7)             81.3615         -DE/DX =    0.0                 !
 ! D44   D(9,5,6,7)             -9.7547         -DE/DX =    0.0                 !
 ! D45   D(15,5,6,7)          -141.379          -DE/DX =    0.0                 !
 ! D46   D(4,5,9,3)            -14.4764         -DE/DX =    0.0                 !
 ! D47   D(4,5,9,7)           -102.6193         -DE/DX =    0.0                 !
 ! D48   D(4,5,9,19)           122.5615         -DE/DX =    0.0                 !
 ! D49   D(6,5,9,3)             97.2665         -DE/DX =    0.0                 !
 ! D50   D(6,5,9,7)              9.1237         -DE/DX =    0.0                 !
 ! D51   D(6,5,9,19)          -125.6956         -DE/DX =    0.0                 !
 ! D52   D(15,5,9,3)          -143.0005         -DE/DX =    0.0                 !
 ! D53   D(15,5,9,7)           128.8566         -DE/DX =    0.0                 !
 ! D54   D(15,5,9,19)           -5.9626         -DE/DX =    0.0                 !
 ! D55   D(5,6,7,8)            -81.3615         -DE/DX =    0.0                 !
 ! D56   D(5,6,7,9)              9.7547         -DE/DX =    0.0                 !
 ! D57   D(5,6,7,16)           141.3792         -DE/DX =    0.0                 !
 ! D58   D(6,7,8,3)             77.4364         -DE/DX =    0.0                 !
 ! D59   D(6,7,8,17)          -172.5877         -DE/DX =    0.0                 !
 ! D60   D(6,7,8,18)           -45.4854         -DE/DX =    0.0                 !
 ! D61   D(9,7,8,3)            -14.6068         -DE/DX =    0.0                 !
 ! D62   D(9,7,8,17)            95.3691         -DE/DX =    0.0                 !
 ! D63   D(9,7,8,18)          -137.5286         -DE/DX =    0.0                 !
 ! D64   D(16,7,8,3)          -148.8131         -DE/DX =    0.0                 !
 ! D65   D(16,7,8,17)          -38.8373         -DE/DX =    0.0                 !
 ! D66   D(16,7,8,18)           88.265          -DE/DX =    0.0                 !
 ! D67   D(6,7,9,3)            -97.2667         -DE/DX =    0.0                 !
 ! D68   D(6,7,9,5)             -9.1237         -DE/DX =    0.0                 !
 ! D69   D(6,7,9,19)           125.6957         -DE/DX =    0.0                 !
 ! D70   D(8,7,9,3)             14.4765         -DE/DX =    0.0                 !
 ! D71   D(8,7,9,5)            102.6195         -DE/DX =    0.0                 !
 ! D72   D(8,7,9,19)          -122.5611         -DE/DX =    0.0                 !
 ! D73   D(16,7,9,3)           142.9999         -DE/DX =    0.0                 !
 ! D74   D(16,7,9,5)          -128.857          -DE/DX =    0.0                 !
 ! D75   D(16,7,9,19)            5.9623         -DE/DX =    0.0                 !
 --------------------------------------------------------------------------------
 GradGradGradGradGradGradGradGradGradGradGradGradGradGradGradGradGradGrad

                          Input orientation:                          
 ---------------------------------------------------------------------
 Center     Atomic      Atomic             Coordinates (Angstroms)
 Number     Number       Type             X           Y           Z
 ---------------------------------------------------------------------
      1          6           0        1.507996   -0.083487   -0.094698
      2          8           0        0.099568   -0.038495    0.027981
      3          6           0       -0.341821    0.648417    1.152232
      4          6           0       -0.153797   -0.000331    2.556232
      5          6           0       -1.563942    0.512062    2.940443
      6          8           0       -1.553515    1.923359    3.252810
      7          6           0       -1.602438    2.271056    1.850618
      8          6           0       -0.201943    2.199604    1.193205
      9          6           0       -1.879407    0.796520    1.445591
     10          1           0        1.976667   -0.593133    0.759604
     11          1           0        1.732373   -0.642863   -1.005499
     12          1           0        1.943280    0.922762   -0.179618
     13          1           0       -0.162991   -1.090854    2.453309
     14          1           0        0.679841    0.313535    3.189499
     15          1           0       -2.170311   -0.060129    3.643835
     16          1           0       -2.240256    3.135964    1.663618
     17          1           0       -0.243607    2.592179    0.171408
     18          1           0        0.628639    2.653221    1.739881
     19          1           0       -2.693948    0.405775    0.843692
 ---------------------------------------------------------------------
                    Distance matrix (angstroms):
                    1          2          3          4          5
     1  C    0.000000
     2  O    1.414476   0.000000
     3  C    2.347837   1.389465   0.000000
     4  C    3.129840   2.541201   1.558025   0.000000
     5  C    4.359308   3.398943   2.170224   1.548765   0.000000
     6  O    4.960453   4.120810   2.739728   2.478913   1.445490
     7  C    4.359235   3.398949   2.170221   2.784897   2.069604
     8  C    3.129712   2.541209   1.558020   2.588411   2.784902
     9  C    3.823794   2.573560   1.572312   2.201414   1.554032
    10  H    1.099647   2.089592   2.659132   2.849239   4.302723
    11  H    1.092156   2.024696   3.259676   4.081227   5.269725
    12  H    1.099646   2.089590   2.659093   3.568572   4.712119
    13  H    3.209257   2.656806   2.179414   1.095408   2.183873
    14  H    3.410193   3.233549   2.303561   1.092928   2.266275
    15  H    5.244723   4.269335   3.170725   2.291896   1.090801
    16  H    5.244610   4.269341   3.170720   3.871229   2.995421
    17  H    3.209067   2.656837   2.179420   3.523713   3.706444
    18  H    3.410062   3.233552   2.303555   2.884436   3.291402
    19  H    4.333162   2.943891   2.384655   3.090321   2.384235
                    6          7          8          9         10
     6  O    0.000000
     7  C    1.445486   0.000000
     8  C    2.478917   1.548768   0.000000
     9  C    2.154532   1.554032   2.201415   0.000000
    10  H    5.001098   4.712100   3.568436   4.155841   0.000000
    11  H    5.959509   5.269658   4.081115   4.596153   1.782622
    12  H    5.001033   4.302543   2.849027   4.155740   1.783589
    13  H    3.414416   3.706438   3.523705   2.742947   2.773896
    14  H    2.753801   3.291396   2.884439   3.134364   2.899688
    15  H    2.113661   2.995418   3.871234   2.377130   5.079400
    16  H    2.113660   1.090801   2.291893   2.377130   5.701389
    17  H    3.414413   2.183870   1.095409   2.742950   3.927060
    18  H    2.753806   2.266279   1.092928   3.134364   3.649238
    19  H    3.067165   2.384233   3.090319   1.085561   4.776980
                   11         12         13         14         15
    11  H    0.000000
    12  H    1.782622   0.000000
    13  H    3.969441   3.927256   0.000000
    14  H    4.429506   3.649436   1.795731   0.000000
    15  H    6.098100   5.701447   2.551289   2.910226   0.000000
    16  H    6.097992   5.079149   4.775420   4.338362   3.760474
    17  H    3.969270   2.773562   4.333394   3.892794   4.775424
    18  H    4.429392   2.899525   3.892783   2.752843   4.338368
    19  H    4.910344   4.776853   3.352091   4.110203   2.886531
                   16         17         18         19
    16  H    0.000000
    17  H    2.551274   0.000000
    18  H    2.910226   1.795730   0.000000
    19  H    2.886529   3.352089   4.110202   0.000000
 Stoichiometry    C7H10O2
 Framework group  C1[X(C7H10O2)]
 Deg. of freedom    51
 Full point group                 C1      NOp   1
 Largest Abelian subgroup         C1      NOp   1
 Largest concise Abelian subgroup C1      NOp   1
                         Standard orientation:                         
 ---------------------------------------------------------------------
 Center     Atomic      Atomic             Coordinates (Angstroms)
 Number     Number       Type             X           Y           Z
 ---------------------------------------------------------------------
      1          6           0       -2.799769    0.000043   -0.295480
      2          8           0       -1.778295   -0.000106    0.682955
      3          6           0       -0.494749   -0.000039    0.150864
      4          6           0        0.040089   -1.294213   -0.532145
      5          6           0        1.412860   -1.034780    0.136336
      6          8           0        2.154230    0.000064   -0.548434
      7          6           0        1.412791    1.034824    0.136378
      8          6           0        0.039998    1.294198   -0.532088
      9          6           0        0.761934   -0.000019    1.095805
     10          1           0       -2.751348   -0.891681   -0.937125
     11          1           0       -3.753285    0.000018    0.237072
     12          1           0       -2.751279    0.891908   -0.936921
     13          1           0       -0.442371   -2.166726   -0.078413
     14          1           0        0.024325   -1.376407   -1.621864
     15          1           0        2.045113   -1.880198    0.410875
     16          1           0        2.044982    1.880276    0.410952
     17          1           0       -0.442506    2.166668   -0.078319
     18          1           0        0.024224    1.376436   -1.621803
     19          1           0        0.755736   -0.000040    2.181349
 ---------------------------------------------------------------------
 Rotational constants (GHZ):      3.7385220      1.3928001      1.2525262
 1\1\GINC-ALCHEMY-LI\FOpt\RB3LYP\6-31G(2df,p)\C7H10O2\PUCK\28-Jan-2020\
 0\\# b3lyp 6-31G(2df,p) opt Freq\\titel\\0,1\C,1.5079957755,-0.0834870
 179,-0.0946982022\O,0.099567829,-0.038494831,0.0279809401\C,-0.3418206
 351,0.6484167992,1.152232105\C,-0.1537971112,-0.0003306399,2.556231842
 7\C,-1.5639421493,0.5120617502,2.9404432335\O,-1.5535148836,1.92335870
 54,3.2528101125\C,-1.6024382491,2.2710561963,1.8506183303\C,-0.2019434
 654,2.1996043977,1.1932054853\C,-1.879406905,0.7965203705,1.4455913876
 \H,1.976666771,-0.5931326455,0.7596044114\H,1.732373419,-0.6428625613,
 -1.0054988908\H,1.9432799413,0.9227624082,-0.1796177267\H,-0.162991328
 5,-1.0908542337,2.4533093877\H,0.6798409232,0.31353501,3.1894986803\H,
 -2.1703111501,-0.0601294441,3.6438349139\H,-2.240255975,3.1359642095,1
 .6636180893\H,-0.2436067009,2.5921789553,0.1714080456\H,0.6286392686,2
 .6532213596,1.739881442\H,-2.6939484843,0.4057753016,0.8436919827\\Ver
 sion=ES64L-G09RevD.01\State=1-A\HF=-423.1249868\RMSD=4.324e-09\RMSF=3.
 545e-05\Dipole=0.3210879,-0.1997896,-0.3339211\Quadrupole=2.7229342,0.
 2217824,-2.9447167,0.0502407,0.0619855,-3.1814092\PG=C01 [X(C7H10O2)]\
 \@


 ERWIN WITH HIS PSI CAN DO
 CALCULATIONS QUITE A FEW.
 BUT ONE THING HAS NOT BEEN SEEN
 JUST WHAT DOES PSI REALLY MEAN.
 -- WALTER HUCKEL, TRANS. BY FELIX BLOCH
 Job cpu time:       0 days  0 hours  7 minutes  6.2 seconds.
 File lengths (MBytes):  RWF=     52 Int=      0 D2E=      0 Chk=      7 Scr=      1
 Normal termination of Gaussian 09 at Tue Jan 28 10:06:45 2020.
 Link1:  Proceeding to internal job step number  2.
 ----------------------------------------------------------------------
 #N Geom=AllCheck Guess=TCheck SCRF=Check GenChk RB3LYP/6-31G(2df,p) Fr
 eq
 ----------------------------------------------------------------------
 1/10=4,29=7,30=1,38=1,40=1/1,3;
 2/12=2,40=1/2;
 3/5=1,6=6,7=104,11=2,14=-4,16=1,25=1,30=1,70=2,71=2,74=-5,116=1,140=1/1,2,3;
 4/5=101/1;
 5/5=2,98=1/2;
 8/6=4,10=90,11=11/1;
 11/6=1,8=1,9=11,15=111,16=1/1,2,10;
 10/6=1/2;
 6/7=2,8=2,9=2,10=2,18=1,28=1/1;
 7/8=1,10=1,25=1/1,2,3,16;
 1/10=4,30=1/3;
 99//99;
 Structure from the checkpoint file:  "/scratch/puck/g09_2622ca17-5c57-4399-86dc-c074e815e639/Gau-133623.chk"
 -----
 titel
 -----
 Charge =  0 Multiplicity = 1
 Redundant internal coordinates found in file.
 C,0,1.5079957755,-0.0834870179,-0.0946982022
 O,0,0.099567829,-0.038494831,0.0279809401
 C,0,-0.3418206351,0.6484167992,1.152232105
 C,0,-0.1537971112,-0.0003306399,2.5562318427
 C,0,-1.5639421493,0.5120617502,2.9404432335
 O,0,-1.5535148836,1.9233587054,3.2528101125
 C,0,-1.6024382491,2.2710561963,1.8506183303
 C,0,-0.2019434654,2.1996043977,1.1932054853
 C,0,-1.879406905,0.7965203705,1.4455913876
 H,0,1.976666771,-0.5931326455,0.7596044114
 H,0,1.732373419,-0.6428625613,-1.0054988908
 H,0,1.9432799413,0.9227624082,-0.1796177267
 H,0,-0.1629913285,-1.0908542337,2.4533093877
 H,0,0.6798409232,0.31353501,3.1894986803
 H,0,-2.1703111501,-0.0601294441,3.6438349139
 H,0,-2.240255975,3.1359642095,1.6636180893
 H,0,-0.2436067009,2.5921789553,0.1714080456
 H,0,0.6286392686,2.6532213596,1.739881442
 H,0,-2.6939484843,0.4057753016,0.8436919827
 Recover connectivity data from disk.

 GradGradGradGradGradGradGradGradGradGradGradGradGradGradGradGradGradGrad
 Berny optimization.
 Initialization pass.
                           ----------------------------
                           !    Initial Parameters    !
                           ! (Angstroms and Degrees)  !
 --------------------------                            --------------------------
 ! Name  Definition              Value          Derivative Info.                !
 --------------------------------------------------------------------------------
 ! R1    R(1,2)                  1.4145         calculate D2E/DX2 analytically  !
 ! R2    R(1,10)                 1.0996         calculate D2E/DX2 analytically  !
 ! R3    R(1,11)                 1.0922         calculate D2E/DX2 analytically  !
 ! R4    R(1,12)                 1.0996         calculate D2E/DX2 analytically  !
 ! R5    R(2,3)                  1.3895         calculate D2E/DX2 analytically  !
 ! R6    R(3,4)                  1.558          calculate D2E/DX2 analytically  !
 ! R7    R(3,8)                  1.558          calculate D2E/DX2 analytically  !
 ! R8    R(3,9)                  1.5723         calculate D2E/DX2 analytically  !
 ! R9    R(4,5)                  1.5488         calculate D2E/DX2 analytically  !
 ! R10   R(4,13)                 1.0954         calculate D2E/DX2 analytically  !
 ! R11   R(4,14)                 1.0929         calculate D2E/DX2 analytically  !
 ! R12   R(5,6)                  1.4455         calculate D2E/DX2 analytically  !
 ! R13   R(5,9)                  1.554          calculate D2E/DX2 analytically  !
 ! R14   R(5,15)                 1.0908         calculate D2E/DX2 analytically  !
 ! R15   R(6,7)                  1.4455         calculate D2E/DX2 analytically  !
 ! R16   R(7,8)                  1.5488         calculate D2E/DX2 analytically  !
 ! R17   R(7,9)                  1.554          calculate D2E/DX2 analytically  !
 ! R18   R(7,16)                 1.0908         calculate D2E/DX2 analytically  !
 ! R19   R(8,17)                 1.0954         calculate D2E/DX2 analytically  !
 ! R20   R(8,18)                 1.0929         calculate D2E/DX2 analytically  !
 ! R21   R(9,19)                 1.0856         calculate D2E/DX2 analytically  !
 ! A1    A(2,1,10)             111.823          calculate D2E/DX2 analytically  !
 ! A2    A(2,1,11)             107.0488         calculate D2E/DX2 analytically  !
 ! A3    A(2,1,12)             111.8229         calculate D2E/DX2 analytically  !
 ! A4    A(10,1,11)            108.8413         calculate D2E/DX2 analytically  !
 ! A5    A(10,1,12)            108.3841         calculate D2E/DX2 analytically  !
 ! A6    A(11,1,12)            108.8414         calculate D2E/DX2 analytically  !
 ! A7    A(1,2,3)              113.7165         calculate D2E/DX2 analytically  !
 ! A8    A(2,3,4)              119.009          calculate D2E/DX2 analytically  !
 ! A9    A(2,3,8)              119.01           calculate D2E/DX2 analytically  !
 ! A10   A(2,3,9)              120.543          calculate D2E/DX2 analytically  !
 ! A11   A(4,3,8)              112.3357         calculate D2E/DX2 analytically  !
 ! A12   A(4,3,9)               89.3757         calculate D2E/DX2 analytically  !
 ! A13   A(8,3,9)               89.3759         calculate D2E/DX2 analytically  !
 ! A14   A(3,4,5)               88.6198         calculate D2E/DX2 analytically  !
 ! A15   A(3,4,13)             109.1991         calculate D2E/DX2 analytically  !
 ! A16   A(3,4,14)             119.6442         calculate D2E/DX2 analytically  !
 ! A17   A(5,4,13)             110.1837         calculate D2E/DX2 analytically  !
[...]
 2,0.01224615,-0.05549797,0.00192075,-0.01428454,0.50438331,-0.00333253
 ,0.00065807,-0.00015898,-0.00328813,0.00785457,-0.02223530,0.00493700,
 -0.09852847,0.03300678,0.02020923,0.57348400,-0.00266108,-0.00058690,0
 .00072027,0.00408997,0.00229481,-0.03228991,-0.02373165,0.02771645,-0.
 12363316,0.12332445,0.04044354,0.42116985,0.00020456,-0.00011722,0.001
 29441,-0.00273639,-0.00088806,-0.00019231,-0.02702458,-0.00241439,0.04
 280821,-0.15596400,0.00922028,0.02970045,0.45124844,0.00101192,0.00072
 013,-0.00034595,-0.00025195,-0.00253049,0.00496702,-0.00469612,0.01468
 396,-0.00049790,0.01042135,-0.07211156,-0.00598707,0.06417889,0.468421
 11,-0.00089947,0.00028136,-0.00028482,0.00181331,0.00256960,-0.0057309
 3,0.03649125,0.00293647,-0.05480698,0.01992507,-0.00803358,-0.05977738
 ,-0.12903308,-0.11954178,0.53496793,-0.00037311,-0.00031643,-0.0005458
 0,0.00174616,-0.00026241,-0.00035279,0.00239741,-0.00283241,-0.0048751
 8,0.00833104,0.03396593,0.00562063,-0.06651189,0.00093249,0.00506521,0
 .09526615,-0.00012415,-0.00101774,0.00058389,0.00085488,0.00249763,-0.
 00206687,-0.00088833,-0.00411922,0.00338465,0.00753588,-0.03102086,-0.
 00933839,-0.01406410,-0.17008252,-0.05730914,-0.00086099,0.32963726,-0
 .00023544,0.00059061,-0.00041519,0.00145081,-0.00202700,0.00043642,-0.
 00173723,0.00345308,-0.00056224,0.00180483,-0.00603162,0.00140277,0.00
 538802,-0.01062511,-0.07249869,0.00624931,0.02926668,0.35854591,0.0002
 2568,0.00120595,0.00047898,-0.00280987,0.00043313,-0.00082156,-0.02877
 187,0.03924927,0.01827571,-0.00129196,-0.00034259,-0.00117493,0.010543
 54,-0.00442769,-0.00253450,-0.06719548,0.01182900,-0.01220469,0.460549
 08,-0.00124920,-0.00006150,-0.00006656,0.00189918,-0.00803307,-0.00026
 284,0.03467853,-0.03966141,-0.02537502,0.00129247,0.00195829,0.0018266
 2,0.00337325,-0.07460478,0.04993349,0.00394553,-0.06426963,-0.00537283
 ,-0.14993031,0.60778794,0.00053405,-0.00074093,0.00047573,0.00056351,0
 .00220890,-0.00015525,0.01353304,-0.02905119,0.00128673,-0.00050691,-0
 .00454359,0.00041215,-0.00732257,0.04786483,-0.02579166,-0.00040036,0.
 04156248,-0.17763464,0.00005482,-0.04273796,0.38630296,0.00267565,0.00
 194518,-0.00007301,0.00207665,0.01227855,0.00273069,-0.05464361,-0.010
 63791,-0.00529772,0.00325990,0.00601683,-0.00235395,-0.00122329,-0.001
 21551,0.00091140,0.00946484,-0.00128159,0.00655082,-0.15618216,0.01003
 752,0.01972080,0.50081727,-0.00085281,0.00103848,-0.00039913,0.0055176
 6,-0.01582485,-0.00977441,-0.02053966,-0.14395027,0.00594445,-0.004147
 19,-0.01469607,0.00362284,-0.00096040,0.00173690,0.00179612,-0.0097028
 8,0.00074217,0.00705124,0.01936185,-0.05560328,0.00189900,0.10325936,0
 .42559702,-0.00421228,-0.00015728,0.00045683,-0.00023899,-0.03454949,-
 0.00809018,-0.00696523,0.01099179,-0.07907195,0.00337794,0.02946384,0.
 00171626,-0.00064791,-0.00462287,0.00056512,0.03180052,0.01099423,-0.0
 3149320,0.02305840,0.00013926,-0.07606408,0.07554996,-0.03597064,0.572
 62249,0.00389574,-0.00050608,-0.00093665,0.00096242,0.00485464,0.00772
 666,-0.14372020,-0.00246559,-0.00034574,-0.05061629,0.01056988,-0.0325
 9397,-0.06036557,-0.00613023,-0.01291098,0.01103065,-0.00865120,-0.014
 99751,-0.05980599,-0.00619828,-0.00971583,-0.04820555,-0.03447611,-0.0
 0355666,0.54828687,-0.00047539,-0.00071095,-0.00200905,0.01538950,-0.0
 0243219,-0.00097244,0.00518463,-0.04550504,-0.00764622,0.02632487,0.00
 704370,0.01983035,0.00110905,-0.04304060,0.03942250,-0.01414543,-0.040
 23228,-0.03497654,-0.02197430,-0.15303757,-0.03651149,-0.03793410,-0.0
 3021874,-0.00858418,0.10471273,0.39861835,-0.00088539,-0.00200926,-0.0
 0266491,0.02472873,-0.00059849,-0.00400998,0.01200137,-0.00737598,-0.0
 5321018,-0.02836282,0.00821578,-0.02265696,-0.02645611,0.01757913,-0.1
 5068168,-0.02386529,-0.03517084,-0.07417540,-0.00995064,-0.01496971,-0
 .04124459,0.01205984,0.00346418,0.01219552,0.16182007,0.08315772,0.473
 30812,-0.08237478,0.04197698,-0.06869190,-0.03644635,0.01921859,-0.023
 41198,0.00246638,-0.00247777,-0.00772843,0.00091185,0.00010481,0.00138
 236,-0.00014199,0.00015078,0.00003562,0.00014482,-0.00029216,0.0001955
 4,-0.00000853,0.00019369,-0.00033015,-0.00018884,0.00022969,0.00081748
 ,0.00027160,-0.00005107,0.00017192,0.10481325,0.04301528,-0.10678392,0
 .09127898,0.00510500,0.00390203,-0.00313117,0.00017283,0.00054370,0.00
 251287,-0.00025765,0.00036920,-0.00020776,0.00009668,-0.00042449,-0.00
 017579,0.00004664,0.00023176,-0.00013999,-0.00012278,-0.00004867,0.000
 12190,0.00009141,-0.00027213,0.00011359,-0.00013971,-0.00003085,-0.000
 11953,-0.05100963,0.10783134,-0.07321055,0.09136774,-0.20764844,-0.002
 75093,-0.00294094,0.00901238,0.00106083,-0.00191319,0.00145806,-0.0010
 3221,0.00074038,-0.00007999,-0.00015948,-0.00022467,0.00046507,0.00006
 070,-0.00000797,0.00007619,0.00004474,-0.00005368,-0.00007840,0.000027
 13,0.00013309,-0.00008510,-0.00006574,0.00004009,0.00018564,0.08511303
 ,-0.10142079,0.21813714,-0.05215297,0.01836190,0.02970668,-0.02034285,
 0.02217946,0.03655276,-0.00616326,-0.00160112,-0.00236964,0.00015808,-
 0.00000452,0.00012437,-0.00033373,0.00004614,0.00004313,0.00017046,0.0
 0002421,0.00004191,-0.00032978,0.00000424,0.00005772,0.00015617,0.0001
 0840,0.00005157,0.00031192,0.00062583,0.00100528,0.00387287,-0.0070168
 6,-0.00908115,0.07084215,0.02501667,-0.12165371,-0.11626237,0.00258875
 ,0.00081750,-0.00030269,-0.00014593,0.00059072,0.00119400,-0.00001777,
 0.00008527,-0.00008021,0.00010134,-0.00013402,-0.00008939,-0.00003554,
 0.00013178,-0.00019189,-0.00004307,0.00012619,0.00026457,-0.00003869,0
 .00033560,-0.00012351,-0.00005750,0.00011650,-0.00008783,-0.00316037,0
 .00873443,0.01397443,-0.02868303,0.12472945,0.04044711,-0.11602611,-0.
 23887280,0.00493548,-0.00099920,-0.00083939,-0.00002176,0.00124608,0.0
 0186602,-0.00004336,-0.00024900,0.00023059,0.00001282,0.00013210,0.000
 21284,-0.00005458,-0.00019394,-0.00005974,0.00010068,0.00004333,-0.000
 05127,-0.00004001,0.00003964,-0.00001747,-0.00009785,-0.00011204,-0.00
 000525,0.00328665,-0.01359652,-0.01954466,-0.04715561,0.12713597,0.253
 46184,-0.07706410,-0.07405233,0.00700416,-0.03509608,-0.03096328,0.007
 52366,0.00252175,-0.00571334,-0.00563238,-0.00019537,0.00063302,0.0005
 6535,-0.00000072,-0.00037681,0.00002851,0.00013222,0.00030077,-0.00017
 318,-0.00013158,-0.00004866,0.00013865,0.00089910,0.00121602,0.0006864
 4,0.00026323,0.00017886,0.00002042,0.00688547,0.01030609,-0.00043623,0
 .00365896,0.00442272,-0.00145841,0.09838970,-0.07855911,-0.26552471,0.
 01678955,-0.00617928,0.00928334,0.00063534,0.00088750,0.00088191,-0.00
 186484,-0.00001257,-0.00020072,0.00017713,0.00009633,-0.00010889,-0.00
 008000,0.00003169,0.00017673,-0.00004695,-0.00020000,0.00044109,0.0002
 1778,-0.00076473,-0.00018985,0.00049327,0.00000914,0.00018023,0.000142
 82,-0.00431562,-0.01391105,-0.00003441,-0.00438670,-0.01409956,0.00267
 370,0.09287604,0.28324446,0.00592669,0.01657726,-0.05421886,0.00408432
 ,0.00082391,0.00227943,0.00050837,0.00289055,0.00106434,0.00009055,0.0
 0012943,-0.00014984,-0.00009355,0.00010118,-0.00002609,0.00007434,-0.0
 0017641,0.00014401,0.00000213,0.00025941,-0.00041092,-0.00068216,-0.00
 053803,0.00049212,-0.00015930,-0.00002590,-0.00001698,0.00806674,0.025
 22854,-0.00158604,-0.00953322,-0.02534734,0.00350365,-0.00823573,-0.01
 938898,0.04914833,0.00024498,-0.00042564,0.00014114,0.00019377,0.00041
 385,-0.00057846,-0.00057993,-0.00268364,0.00057567,-0.04806987,-0.0032
 4964,-0.00498425,0.00374562,0.02651508,0.00073178,-0.00564779,0.005601
 77,0.00015399,-0.00026129,-0.00110027,0.00244322,0.00040934,-0.0007112
 0,0.00090819,-0.00004633,-0.00181288,0.00030624,-0.00030890,-0.0000145
 8,0.00006436,0.00002130,0.00008872,-0.00006562,-0.00000502,0.00005205,
 -0.00010457,0.04698923,-0.00005136,-0.00008687,0.00036982,-0.00017425,
 0.00264489,-0.00102599,-0.00038612,-0.01575923,-0.00212899,-0.00365711
 ,-0.30583405,-0.02593036,-0.00211902,-0.00852672,-0.00026048,0.0025462
 7,0.00012359,-0.00022647,-0.00066611,0.00092926,-0.00082675,0.00039129
 ,0.00089836,0.00293807,0.00051710,0.00098893,0.00016247,-0.00043286,-0
 .00006878,0.00005162,-0.00009364,0.00006399,-0.00003537,0.00007744,0.0
 0009080,-0.00015479,0.00228365,0.33130051,0.00117802,0.00009314,-0.000
 21092,-0.00014080,-0.00211206,0.00436415,-0.00087241,0.03325595,0.0022
 5115,-0.00446555,-0.02599573,-0.04637405,-0.00310191,-0.01338612,-0.00
 117488,0.00395238,-0.00364609,0.00076054,0.00156475,-0.00058492,-0.001
 81931,-0.00119481,0.00138370,-0.00599016,0.00123853,-0.00161096,0.0000
 1208,0.00023257,0.00011537,-0.00027483,0.00003069,-0.00005557,0.000052
 72,-0.00026153,-0.00004973,0.00006055,0.00198630,0.02713556,0.04818509
 ,-0.00058553,0.00024095,-0.00034945,0.00045043,-0.00048086,0.00094604,
 -0.00073545,0.00334277,0.00118291,-0.20058193,-0.06234367,-0.11299996,
 -0.01388705,-0.01160576,-0.01655699,0.00420717,-0.00066696,0.00069501,
 -0.00012969,0.00035310,-0.00081858,-0.00016142,0.00035795,-0.00025731,
 -0.00300387,0.00141258,-0.00187320,0.00001553,-0.00003543,0.00054720,0
 .00005798,-0.00005891,0.00003242,-0.00001417,-0.00003089,0.00002178,0.
 00127248,0.00082994,0.00118103,0.21427331,-0.00053831,0.00042381,-0.00
 036167,0.00027731,0.00057135,0.00069402,0.01013581,0.00293013,0.004904
 59,-0.06343119,-0.07238634,-0.04588867,0.00811197,0.00070632,0.0052175
 9,-0.00136448,0.00199632,-0.00023527,0.00046334,0.00006347,0.00060275,
 0.00035721,0.00155045,-0.00015297,0.00382341,-0.00076542,0.00287705,-0
 .00006719,-0.00016181,0.00015723,0.00000051,-0.00004968,0.00006611,0.0
 0000744,-0.00004351,0.00005593,-0.02419184,-0.00689859,-0.01723196,0.0
 6612896,0.07273640,-0.00160086,-0.00002048,0.00029350,0.00104751,0.000
 46666,-0.00462607,-0.01827391,-0.01207036,-0.00369854,-0.11364753,-0.0
 4603900,-0.13940556,0.00691218,0.00657378,0.00646040,-0.00158001,0.001
 43000,0.00029680,-0.00102618,0.00025827,0.00019769,0.00014618,-0.00189
 078,0.00136851,-0.00125708,0.00132106,-0.00213478,0.00064689,-0.000402
 93,-0.00010482,0.00025909,-0.00005803,0.00010699,0.00024750,0.00014215
 ,-0.00009723,-0.00126188,0.00004928,-0.00094343,0.12891843,0.04933046,
 0.14143634,0.00065754,0.00000025,-0.00016105,0.00027687,-0.00060502,0.
 00225399,-0.00443774,0.00296144,-0.00084677,-0.00853988,-0.01416152,0.
 01635765,-0.13733023,-0.07790203,0.09505649,0.00433908,0.00063798,-0.0
 0084935,-0.00043413,0.00098404,-0.00157274,0.00014512,0.00019890,0.000
 46583,0.00775261,0.00650397,-0.00276201,0.00005857,-0.00009719,-0.0001
 5171,0.00001853,-0.00001044,0.00004950,-0.00007670,-0.00000742,0.00000
 829,0.00177539,0.00016429,-0.00070249,-0.00128211,-0.00014633,0.000533
 96,0.13624236,-0.00010345,-0.00010330,0.00000967,0.00015217,0.00028965
 ,-0.00104000,0.00222288,-0.00082801,-0.00059019,0.00655160,0.00747168,
 -0.00624220,-0.07649122,-0.11253554,0.08424400,-0.01341193,-0.02621695
 ,0.02051803,-0.00194094,-0.00427182,-0.00365082,0.00014094,-0.00043663
 ,0.00099322,0.00196662,0.00153085,-0.00025269,-0.00001702,0.00006065,0
 .00003921,0.00000491,0.00001205,-0.00000984,0.00004954,0.00001172,-0.0
 0002198,-0.00087639,0.00077514,0.00079881,0.00070948,0.00009741,-0.000
 49050,0.08176345,0.13364157,-0.00031586,-0.00003323,-0.00025211,0.0014
 0172,0.00033355,-0.00019413,0.00047408,0.00051462,-0.00257600,0.000851
 13,-0.00018418,-0.00095970,0.09782216,0.09261935,-0.17073813,-0.006142
 42,-0.00431258,0.01149779,-0.00077206,-0.00066253,-0.00321052,0.000507
 35,-0.00018694,0.00155826,0.01422210,0.00875508,-0.00347222,0.00007324
 ,-0.00000621,0.00002546,0.00015363,-0.00003295,-0.00003700,0.00006906,
 0.00002493,0.00000164,0.00042184,-0.00034034,0.00052356,0.00001105,-0.
 00006752,-0.00019567,-0.10880710,-0.09625848,0.16574318,0.00066250,-0.
 00011741,-0.00008443,0.00019120,0.00226585,0.00044640,-0.00426221,-0.0
 0216717,0.00233966,0.00013627,0.00033797,0.00037383,-0.00042069,-0.001
 85208,0.00005689,0.00403457,-0.00020560,-0.00036411,-0.14608091,0.1229
 3847,-0.02673256,-0.00909470,0.02039503,-0.00508779,0.00778016,-0.0050
 1448,0.00435743,-0.00007675,0.00000767,-0.00000187,0.00001441,0.000049
 35,0.00001349,0.00005647,-0.00009094,-0.00015346,-0.00011397,0.0001916
 4,-0.00015897,0.00021970,-0.00002310,0.00013477,0.00021498,-0.00017476
 ,0.00041688,0.14579643,-0.00021069,-0.00022454,-0.00008585,0.00119265,
 0.00029314,0.00027155,-0.00063440,-0.00228551,-0.00008247,0.00037783,0
 .00086414,0.00045302,0.00022606,-0.00175347,0.00061542,0.00082804,-0.0
 0243770,0.00749520,0.12494985,-0.22196874,0.03108453,-0.00259225,0.003
 85244,-0.00239091,0.01238570,-0.00565100,0.00497923,0.00003768,0.00000
 398,0.00001948,0.00013524,-0.00000435,-0.00004627,0.00007377,0.0000187
 3,-0.00003310,-0.00018815,-0.00001970,-0.00020657,0.00036058,0.0000035
 2,0.00024364,0.00047915,-0.00030286,0.00059096,-0.13755756,0.22754268,
 -0.00024742,-0.00005009,-0.00013586,0.00078867,-0.00111292,-0.00011203
 ,0.00230063,-0.00115922,-0.00129402,0.00030312,0.00163255,0.00026642,-
 0.00211077,-0.00240278,-0.00574228,-0.01607937,0.03186603,-0.01197693,
 -0.02397489,0.02283005,-0.05255383,0.00674828,-0.00852926,0.00321384,0
 .00813394,-0.00357434,0.00368199,0.00007763,-0.00002432,0.00000943,0.0
 0007279,-0.00001957,-0.00001642,0.00001694,0.00002099,0.00006953,-0.00
 052706,0.00023910,0.00015151,0.00026598,-0.00009747,0.00016094,-0.0000
 0074,0.00116060,0.00055738,0.02461532,-0.04185896,0.06228790,0.0002033
 5,0.00033885,-0.00031935,0.00022129,-0.00085606,0.00016845,-0.00070456
 ,0.00210088,-0.00321194,0.00040021,0.00133011,-0.00014580,-0.00039407,
 0.00265481,0.00015020,-0.00546009,-0.00258330,0.00524727,0.00455716,-0
 .01099433,0.02396985,-0.04832761,-0.00037960,-0.01234663,-0.00011560,0
 .00105421,-0.00142573,0.00000651,-0.00012374,0.00000070,0.00002194,-0.
 00010094,0.00005165,-0.00032866,0.00006179,0.00002118,0.00032943,0.000
 32555,-0.00032309,0.00011396,-0.00008802,0.00032704,-0.00010026,-0.000
 38855,-0.00039573,0.00175666,0.00080075,-0.00063266,0.04730676,0.00109
 448,-0.00032620,-0.00007945,-0.00022407,0.00524489,-0.00079784,0.00047
 506,-0.01366912,0.03418276,-0.00107383,-0.00634537,-0.00220249,0.00167
 988,-0.00057397,-0.00142991,0.00211058,0.00217136,-0.00250535,-0.00192
 908,0.00239846,-0.00695333,0.00026479,-0.07719377,0.08747976,0.0008162
 3,0.00084370,-0.00177584,-0.00027343,0.00013564,-0.00001587,0.00006620
 ,0.00009027,-0.00004177,0.00040052,-0.00028558,-0.00000719,-0.00035540
 ,-0.00082075,0.00216758,0.00017707,0.00021824,-0.00031641,-0.00023699,
 0.00008497,-0.00015282,-0.00064686,0.00039416,0.00060136,-0.00225310,0
 .08262407,0.00046842,0.00023726,0.00007005,-0.00019780,0.00029042,0.00
 173583,-0.00068040,-0.00117878,0.00028671,-0.00014335,-0.00069411,0.00
 126280,0.00015585,-0.00169089,-0.00018333,0.00409361,0.00097218,-0.001
 47507,-0.00378069,0.00548120,-0.01291173,-0.01248287,0.08755330,-0.274
 75499,0.00101833,0.00007137,0.00022640,-0.00004310,-0.00012546,0.00000
 418,-0.00006943,-0.00002213,0.00002589,-0.00027660,-0.00007382,-0.0000
 3784,0.00014906,-0.00012965,0.00019595,0.00006063,-0.00010827,0.000125
 51,0.00009383,0.00031160,0.00003312,-0.00016525,-0.00055216,0.00092338
 ,0.01087120,-0.09625838,0.29654211,-0.00055505,-0.00045956,0.00007604,
 0.00040259,0.00117104,0.00004028,0.00003182,-0.00037190,0.00391373,-0.
 00013308,-0.00046068,0.00027159,-0.00006799,-0.00087716,-0.00004262,0.
 00415584,0.00102312,-0.00034376,-0.01379343,-0.01000534,-0.01755943,-0
 .19991184,-0.07793957,-0.10281190,-0.00277721,-0.00225253,0.00050007,-
 0.00002037,0.00003771,-0.00001965,0.00005036,0.00005705,-0.00003970,-0
 .00001122,0.00051031,0.00021747,0.00010957,-0.00003225,0.00019244,0.00
 020404,-0.00025643,0.00033872,0.00022219,0.00008100,0.00042974,-0.0012
 7286,-0.00035053,0.00067706,0.00053728,0.00033056,0.00082703,0.2131756
 2,-0.00122558,0.00041956,0.00002931,0.00091890,-0.00399589,-0.00185146
 ,-0.02114639,-0.00020601,-0.01276371,-0.00013324,0.00220327,-0.0015490
 4,-0.00111880,-0.00023560,0.00016165,-0.00066995,0.00016476,0.00052015
 ,0.00224590,0.00038427,0.00592445,-0.07803734,-0.09426309,-0.05635330,
 -0.00280522,-0.00369808,0.00001291,0.00022445,-0.00015739,0.00007653,0
 .00023102,0.00008185,-0.00000294,0.00060266,0.00001712,-0.00033672,0.0
 0032022,0.00032261,-0.00026963,0.00045147,-0.00021311,0.00105255,0.000
 14113,0.00007827,0.00028852,0.00049044,0.00009084,-0.00048602,0.009627
 82,0.00504734,0.00567372,0.09100735,0.09408465,-0.00116746,-0.00036668
 ,0.00026759,0.00075716,-0.00160665,-0.00001086,0.00080433,0.00371793,-
 0.00133077,0.00039545,0.00020034,0.00068735,-0.00004714,0.00050151,0.0
 0043507,-0.00192733,-0.00122959,0.00217963,0.01057015,0.00569759,0.006
 68909,-0.10407781,-0.05624519,-0.11819881,0.00288279,0.00163462,0.0005
 7128,0.00011774,-0.00000177,0.00002288,0.00011038,0.00012949,-0.000016
 86,0.00021552,0.00022578,-0.00025720,0.00006705,-0.00005837,0.00002553
 ,-0.00007442,-0.00010776,0.00024969,0.00003873,-0.00006400,0.00008369,
 0.00013021,-0.00006357,-0.00019839,-0.02211002,-0.01216299,-0.01215435
 ,0.11300220,0.05905765,0.12118641,0.00013923,-0.00001703,-0.00003781,0
 .00285219,0.00064284,0.00096197,-0.00358557,-0.01022870,-0.01652697,-0
 .00208019,-0.00014180,-0.00116505,0.00066004,0.00342389,0.00166877,-0.
 00023204,0.00181075,0.00312778,0.00135122,-0.00017364,0.00394347,-0.00
 196502,-0.00093544,-0.00059163,-0.21189858,-0.07883606,-0.12139021,0.0
 0011966,-0.00006174,-0.00000917,-0.00003254,0.00002760,0.00004714,0.00
 011671,0.00002240,-0.00005989,-0.00005799,0.00028555,-0.00033514,-0.00
 043338,0.00080095,-0.00086482,0.00049781,-0.00023833,-0.00042081,0.000
 45873,-0.00031374,-0.00042745,-0.00002369,-0.00042263,0.00010153,-0.00
 034626,-0.00112482,0.00031247,0.21445968,-0.00013976,-0.00009478,0.000
 10075,-0.00112671,0.00066073,-0.00004580,0.00322108,-0.00021030,0.0061
 3324,0.00213234,-0.00086876,0.00164834,0.00997948,0.00039421,-0.000258
 11,-0.00080471,0.00152355,-0.00651598,-0.01816144,0.00747149,-0.006735
 14,-0.00228094,-0.00310274,-0.00070188,-0.07822554,-0.08399954,-0.0582
 3113,-0.00003956,0.00004636,0.00001173,-0.00000219,0.00002573,-0.00002
 393,0.00000952,0.00001774,-0.00003578,0.00033429,-0.00012339,0.0001992
 1,0.00085763,-0.00077894,0.00042064,-0.00066767,0.00064115,-0.00088921
 ,0.00117354,0.00158425,0.00096427,-0.00052712,-0.00003834,0.00024261,-
 0.00121219,-0.00012539,0.00074163,0.08547995,0.07697696,-0.00023589,0.
 00009644,0.00000985,-0.00189412,-0.00010829,0.00060597,0.00518141,0.00
 660823,0.00640200,-0.00150779,0.00033245,-0.00254191,-0.01492928,-0.01
 101376,0.00433042,-0.00109356,-0.00660833,-0.00504898,0.00208979,0.003
 61683,-0.00343816,0.00124988,0.00064681,-0.00042302,-0.12040510,-0.058
 20963,-0.13590810,-0.00001185,-0.00001902,0.00000586,-0.00000095,-0.00
 002498,0.00000031,-0.00004215,-0.00000470,0.00003740,-0.00042701,0.000
 17164,0.00020474,-0.00093257,0.00034581,0.00050972,0.00099568,0.000545
 57,0.00161141,-0.00013644,-0.00043317,0.00070746,0.00010343,0.00026820
 ,0.00008538,0.00033070,0.00081536,-0.00023097,0.13166584,0.06297454,0.
 13308061\\-0.00010179,0.00003779,0.00006205,0.00005074,-0.00002629,-0.
 00003994,0.00003263,-0.00001573,-0.00003024,0.00005099,-0.00002600,0.0
 0006748,-0.00006848,-0.00005339,-0.00001429,0.00002137,0.00003623,0.00
 005602,-0.00007019,0.00000803,-0.00005132,0.00004974,0.00007253,0.0000
 0608,-0.00002360,-0.00000036,-0.00000011,0.00002452,-0.00001227,-0.000
 00547,-0.00002852,-0.00000282,-0.00000364,0.00002406,0.00000120,-0.000
 01364,-0.00000994,-0.00000364,-0.00001047,-0.00001747,-0.00000578,-0.0
 0002679,0.00002432,0.00002892,-0.00002258,0.00002578,-0.00003224,0.000
 01516,-0.00000999,-0.00000765,-0.00000768,-0.00001705,-0.00002195,-0.0
 0001679,0.00004288,0.00002342,0.00003617\\\@


 I DON'T PRETEND TO UNDERSTAND THE UNIVERSE --
 IT'S A GREAT DEAL BIGGER THAN I AM.
       -- ATTR. TO WILLIAM ALLINGHAM (1828-89)
 Job cpu time:       0 days  0 hours 44 minutes 57.4 seconds.
 File lengths (MBytes):  RWF=    152 Int=      0 D2E=      0 Chk=      8 Scr=      1
 Normal termination of Gaussian 09 at Tue Jan 28 10:51:40 2020.
