 Entering Gaussian System, Link 0=/home/puck/opt/gaussian_09/g09
 Input=dsC7O2H10nsd_2457.com
 Output=dsC7O2H10nsd_2457.log
 Initial command:
 /home/puck/opt/gaussian_09/l1.exe "/scratch/puck/g09_8f5439bb-d885-4df8-a4c3-ed1466258e15/Gau-183469.inp" -scrdir="/scratch/puck/g09_8f5439bb-d885-4df8-a4c3-ed1466258e15/"
 Entering Link 1 = /home/puck/opt/gaussian_09/l1.exe PID=    183472.
  
 Copyright (c) 1988,1990,1992,1993,1995,1998,2003,2009,2013,
            Gaussian, Inc.  All Rights Reserved.
  
 This is part of the Gaussian(R) 09 program.  It is based on
 the Gaussian(R) 03 system (copyright 2003, Gaussian, Inc.),
 the Gaussian(R) 98 system (copyright 1998, Gaussian, Inc.),
 the Gaussian(R) 94 system (copyright 1995, Gaussian, Inc.),
 the Gaussian 92(TM) system (copyright 1992, Gaussian, Inc.),
 the Gaussian 90(TM) system (copyright 1990, Gaussian, Inc.),
 the Gaussian 88(TM) system (copyright 1988, Gaussian, Inc.),
 the Gaussian 86(TM) system (copyright 1986, Carnegie Mellon
 University), and the Gaussian 82(TM) system (copyright 1983,
 Carnegie Mellon University). Gaussian is a federally registered
 trademark of Gaussian, Inc.
  
 This software contains proprietary and confidential information,
 including trade secrets, belonging to Gaussian, Inc.
  
 This software is provided under written license and may be
 used, copied, transmitted, or stored only in accord with that
 written license.
  
 The following legend is applicable only to US Government
 contracts under FAR:
  
                    RESTRICTED RIGHTS LEGEND
  
 Use, reproduction and disclosure by the US Government is
 subject to restrictions as set forth in subparagraphs (a)
 and (c) of the Commercial Computer Software - Restricted
 Rights clause in FAR 52.227-19.
  
 Gaussian, Inc.
 340 Quinnipiac St., Bldg. 40, Wallingford CT 06492
  
  
 ---------------------------------------------------------------
 Warning -- This program may not be used in any manner that
 competes with the business of Gaussian, Inc. or will provide
 assistance to any competitor of Gaussian, Inc.  The licensee
 of this program is prohibited from giving any competitor of
 Gaussian, Inc. access to this program.  By using this program,
 the user acknowledges that Gaussian, Inc. is engaged in the
 business of creating and licensing software in the field of
 computational chemistry and represents and warrants to the
 licensee that it is not a competitor of Gaussian, Inc. and that
 it will not use this program in any manner prohibited above.
 ---------------------------------------------------------------
  

 Cite this work as:
 Gaussian 09, Revision D.01,
 M. J. Frisch, G. W. Trucks, H. B. Schlegel, G. E. Scuseria, 
 M. A. Robb, J. R. Cheeseman, G. Scalmani, V. Barone, B. Mennucci, 
 G. A. Petersson, H. Nakatsuji, M. Caricato, X. Li, H. P. Hratchian, 
 A. F. Izmaylov, J. Bloino, G. Zheng, J. L. Sonnenberg, M. Hada, 
 M. Ehara, K. Toyota, R. Fukuda, J. Hasegawa, M. Ishida, T. Nakajima, 
 Y. Honda, O. Kitao, H. Nakai, T. Vreven, J. A. Montgomery, Jr., 
 J. E. Peralta, F. Ogliaro, M. Bearpark, J. J. Heyd, E. Brothers, 
 K. N. Kudin, V. N. Staroverov, T. Keith, R. Kobayashi, J. Normand, 
 K. Raghavachari, A. Rendell, J. C. Burant, S. S. Iyengar, J. Tomasi, 
 M. Cossi, N. Rega, J. M. Millam, M. Klene, J. E. Knox, J. B. Cross, 
 V. Bakken, C. Adamo, J. Jaramillo, R. Gomperts, R. E. Stratmann, 
 O. Yazyev, A. J. Austin, R. Cammi, C. Pomelli, J. W. Ochterski, 
 R. L. Martin, K. Morokuma, V. G. Zakrzewski, G. A. Voth, 
 P. Salvador, J. J. Dannenberg, S. Dapprich, A. D. Daniels, 
 O. Farkas, J. B. Foresman, J. V. Ortiz, J. Cioslowski, 
 and D. J. Fox, Gaussian, Inc., Wallingford CT, 2013.
 
 ******************************************
 Gaussian 09:  ES64L-G09RevD.01 24-Apr-2013
                27-Jan-2020 
 ******************************************
 -----------------------------
 # b3lyp 6-31G(2df,p) opt Freq
 -----------------------------
 1/14=-1,18=20,19=15,26=3,38=1/1,3;
 2/9=110,12=2,17=6,18=5,40=1/2;
 3/5=1,6=6,7=104,11=2,16=1,25=1,30=1,71=1,74=-5/1,2,3;
 4//1;
 5/5=2,38=5/2;
 6/7=2,8=2,9=2,10=2,28=1/1;
 7//1,2,3,16;
 1/14=-1,18=20,19=15,26=3/3(2);
 2/9=110/2;
 99//99;
 2/9=110/2;
 3/5=1,6=6,7=104,11=2,16=1,25=1,30=1,71=1,74=-5/1,2,3;
 4/5=5,16=3,69=1/1;
 5/5=2,38=5/2;
 7//1,2,3,16;
 1/14=-1,18=20,19=15,26=3/3(-5);
 2/9=110/2;
 6/7=2,8=2,9=2,10=2,19=2,28=1/1;
 99/9=1/99;
 -----
 titel
 -----
 Symbolic Z-matrix:
 Charge =  0 Multiplicity = 1
 O                     0.14742   0.26064   0.43206 
 C                    -1.08132   0.91878   0.32499 
 C                    -1.3448    2.04014   1.33632 
 O                    -2.76938   2.13078   1.39555 
 C                    -3.25391   1.38159   0.26951 
 C                    -2.72587   2.04731  -1.03559 
 C                    -1.44734   1.19944  -1.17738 
 C                    -2.05499  -0.23212  -1.20427 
 C                    -2.41125   0.08422   0.26586 
 H                     0.21868  -0.10668   1.32031 
 H                    -0.95469   1.78035   2.33047 
 H                    -0.896     2.9977    1.03744 
 H                    -4.33477   1.29494   0.37214 
 H                    -3.3909    1.91589  -1.89413 
 H                    -2.56476   3.11697  -0.88144 
 H                    -0.68042   1.5191   -1.88232 
 H                    -2.86518  -0.42906  -1.91199 
 H                    -1.29048  -1.00673  -1.27165 
 H                    -2.6592   -0.67438   1.00887 
 

 GradGradGradGradGradGradGradGradGradGradGradGradGradGradGradGradGradGrad
 Berny optimization.
 Initialization pass.
                           ----------------------------
                           !    Initial Parameters    !
                           ! (Angstroms and Degrees)  !
 --------------------------                            --------------------------
 ! Name  Definition              Value          Derivative Info.                !
 --------------------------------------------------------------------------------
 ! R1    R(1,2)                  1.398          estimate D2E/DX2                !
 ! R2    R(1,10)                 0.9638         estimate D2E/DX2                !
 ! R3    R(2,3)                  1.5329         estimate D2E/DX2                !
 ! R4    R(2,7)                  1.5716         estimate D2E/DX2                !
 ! R5    R(2,9)                  1.5712         estimate D2E/DX2                !
 ! R6    R(3,4)                  1.4287         estimate D2E/DX2                !
 ! R7    R(3,11)                 1.0991         estimate D2E/DX2                !
 ! R8    R(3,12)                 1.0989         estimate D2E/DX2                !
 ! R9    R(4,5)                  1.4367         estimate D2E/DX2                !
 ! R10   R(5,6)                  1.5573         estimate D2E/DX2                !
 ! R11   R(5,9)                  1.547          estimate D2E/DX2                !
 ! R12   R(5,13)                 1.0892         estimate D2E/DX2                !
 ! R13   R(6,7)                  1.5407         estimate D2E/DX2                !
 ! R14   R(6,14)                 1.0939         estimate D2E/DX2                !
 ! R15   R(6,15)                 1.0927         estimate D2E/DX2                !
 ! R16   R(7,8)                  1.5554         estimate D2E/DX2                !
 ! R17   R(7,16)                 1.0896         estimate D2E/DX2                !
 ! R18   R(8,9)                  1.5454         estimate D2E/DX2                !
 ! R19   R(8,17)                 1.0936         estimate D2E/DX2                !
 ! R20   R(8,18)                 1.0904         estimate D2E/DX2                !
 ! R21   R(9,19)                 1.0904         estimate D2E/DX2                !
 ! A1    A(2,1,10)             108.3596         estimate D2E/DX2                !
 ! A2    A(1,2,3)              116.4192         estimate D2E/DX2                !
 ! A3    A(1,2,7)              111.2224         estimate D2E/DX2                !
 ! A4    A(1,2,9)              119.7872         estimate D2E/DX2                !
 ! A5    A(3,2,7)              117.3895         estimate D2E/DX2                !
 ! A6    A(3,2,9)              105.5399         estimate D2E/DX2                !
 ! A7    A(7,2,9)               82.0532         estimate D2E/DX2                !
 ! A8    A(2,3,4)              104.1911         estimate D2E/DX2                !
 ! A9    A(2,3,11)             111.2751         estimate D2E/DX2                !
 ! A10   A(2,3,12)             112.818          estimate D2E/DX2                !
 ! A11   A(4,3,11)             109.3544         estimate D2E/DX2                !
 ! A12   A(4,3,12)             111.2978         estimate D2E/DX2                !
 ! A13   A(11,3,12)            107.8785         estimate D2E/DX2                !
 ! A14   A(3,4,5)              105.7065         estimate D2E/DX2                !
 ! A15   A(4,5,6)              108.6371         estimate D2E/DX2                !
 ! A16   A(4,5,9)              104.8012         estimate D2E/DX2                !
 ! A17   A(4,5,13)             107.5968         estimate D2E/DX2                !
 ! A18   A(6,5,9)               99.8935         estimate D2E/DX2                !
 ! A19   A(6,5,13)             116.7087         estimate D2E/DX2                !
 ! A20   A(9,5,13)             118.2975         estimate D2E/DX2                !
 ! A21   A(5,6,7)               97.0802         estimate D2E/DX2                !
 ! A22   A(5,6,14)             113.5931         estimate D2E/DX2                !
 ! A23   A(5,6,15)             110.5018         estimate D2E/DX2                !
 ! A24   A(7,6,14)             111.4787         estimate D2E/DX2                !
 ! A25   A(7,6,15)             115.4278         estimate D2E/DX2                !
 ! A26   A(14,6,15)            108.5405         estimate D2E/DX2                !
 ! A27   A(2,7,6)              101.7458         estimate D2E/DX2                !
 ! A28   A(2,7,8)               86.7407         estimate D2E/DX2                !
 ! A29   A(2,7,16)             120.4595         estimate D2E/DX2                !
 ! A30   A(6,7,8)              100.5969         estimate D2E/DX2                !
 ! A31   A(6,7,16)             118.8282         estimate D2E/DX2                !
 ! A32   A(8,7,16)             122.2617         estimate D2E/DX2                !
 ! A33   A(7,8,9)               83.4086         estimate D2E/DX2                !
 ! A34   A(7,8,17)             117.7963         estimate D2E/DX2                !
 ! A35   A(7,8,18)             112.3938         estimate D2E/DX2                !
 ! A36   A(9,8,17)             118.7957         estimate D2E/DX2                !
 ! A37   A(9,8,18)             111.4584         estimate D2E/DX2                !
 ! A38   A(17,8,18)            110.5782         estimate D2E/DX2                !
 ! A39   A(2,9,5)               90.8895         estimate D2E/DX2                !
 ! A40   A(2,9,8)               87.1            estimate D2E/DX2                !
 ! A41   A(2,9,19)             122.4359         estimate D2E/DX2                !
 ! A42   A(5,9,8)              107.4266         estimate D2E/DX2                !
 ! A43   A(5,9,19)             117.2555         estimate D2E/DX2                !
 ! A44   A(8,9,19)             123.9321         estimate D2E/DX2                !
 ! D1    D(10,1,2,3)            57.5022         estimate D2E/DX2                !
 ! D2    D(10,1,2,7)          -164.4258         estimate D2E/DX2                !
 ! D3    D(10,1,2,9)           -71.4801         estimate D2E/DX2                !
 ! D4    D(1,2,3,4)           -156.1362         estimate D2E/DX2                !
 ! D5    D(1,2,3,11)           -38.4061         estimate D2E/DX2                !
 ! D6    D(1,2,3,12)            83.01           estimate D2E/DX2                !
 ! D7    D(7,2,3,4)             68.413          estimate D2E/DX2                !
 ! D8    D(7,2,3,11)          -173.8569         estimate D2E/DX2                !
 ! D9    D(7,2,3,12)           -52.4409         estimate D2E/DX2                !
 ! D10   D(9,2,3,4)            -20.5819         estimate D2E/DX2                !
 ! D11   D(9,2,3,11)            97.1482         estimate D2E/DX2                !
 ! D12   D(9,2,3,12)          -141.4358         estimate D2E/DX2                !
 ! D13   D(1,2,7,6)           -174.037          estimate D2E/DX2                !
 ! D14   D(1,2,7,8)             85.809          estimate D2E/DX2                !
 ! D15   D(1,2,7,16)           -40.1188         estimate D2E/DX2                !
 ! D16   D(3,2,7,6)            -36.4106         estimate D2E/DX2                !
 ! D17   D(3,2,7,8)           -136.5647         estimate D2E/DX2                !
 ! D18   D(3,2,7,16)            97.5076         estimate D2E/DX2                !
 ! D19   D(9,2,7,6)             67.0239         estimate D2E/DX2                !
 ! D20   D(9,2,7,8)            -33.1302         estimate D2E/DX2                !
 ! D21   D(9,2,7,16)          -159.058          estimate D2E/DX2                !
 ! D22   D(1,2,9,5)            176.0034         estimate D2E/DX2                !
 ! D23   D(1,2,9,8)            -76.5919         estimate D2E/DX2                !
 ! D24   D(1,2,9,19)            52.4618         estimate D2E/DX2                !
 ! D25   D(3,2,9,5)             42.2706         estimate D2E/DX2                !
 ! D26   D(3,2,9,8)            149.6752         estimate D2E/DX2                !
 ! D27   D(3,2,9,19)           -81.271          estimate D2E/DX2                !
 ! D28   D(7,2,9,5)            -74.0443         estimate D2E/DX2                !
 ! D29   D(7,2,9,8)             33.3603         estimate D2E/DX2                !
 ! D30   D(7,2,9,19)           162.4141         estimate D2E/DX2                !
 ! D31   D(2,3,4,5)            -13.6314         estimate D2E/DX2                !
 ! D32   D(11,3,4,5)          -132.6773         estimate D2E/DX2                !
 ! D33   D(12,3,4,5)           108.2332         estimate D2E/DX2                !
 ! D34   D(3,4,5,6)            -61.7159         estimate D2E/DX2                !
 ! D35   D(3,4,5,9)             44.3453         estimate D2E/DX2                !
 ! D36   D(3,4,5,13)           171.0858         estimate D2E/DX2                !
 ! D37   D(4,5,6,7)             92.4288         estimate D2E/DX2                !
 ! D38   D(4,5,6,14)          -150.386          estimate D2E/DX2                !
 ! D39   D(4,5,6,15)           -28.1268         estimate D2E/DX2                !
 ! D40   D(9,5,6,7)            -16.9915         estimate D2E/DX2                !
 ! D41   D(9,5,6,14)           100.1938         estimate D2E/DX2                !
 ! D42   D(9,5,6,15)          -137.547          estimate D2E/DX2                !
 ! D43   D(13,5,6,7)          -145.779          estimate D2E/DX2                !
 ! D44   D(13,5,6,14)          -28.5937         estimate D2E/DX2                !
 ! D45   D(13,5,6,15)           93.6655         estimate D2E/DX2                !
 ! D46   D(4,5,9,2)            -51.9431         estimate D2E/DX2                !
 ! D47   D(4,5,9,8)           -139.1827         estimate D2E/DX2                !
 ! D48   D(4,5,9,19)            75.7488         estimate D2E/DX2                !
 ! D49   D(6,5,9,2)             60.4907         estimate D2E/DX2                !
 ! D50   D(6,5,9,8)            -26.7489         estimate D2E/DX2                !
 ! D51   D(6,5,9,19)          -171.8175         estimate D2E/DX2                !
 ! D52   D(13,5,9,2)          -171.7706         estimate D2E/DX2                !
 ! D53   D(13,5,9,8)           100.9898         estimate D2E/DX2                !
 ! D54   D(13,5,9,19)          -44.0788         estimate D2E/DX2                !
 ! D55   D(5,6,7,2)            -32.0406         estimate D2E/DX2                !
 ! D56   D(5,6,7,8)             56.8032         estimate D2E/DX2                !
 ! D57   D(5,6,7,16)          -166.9071         estimate D2E/DX2                !
 ! D58   D(14,6,7,2)          -150.8753         estimate D2E/DX2                !
 ! D59   D(14,6,7,8)           -62.0315         estimate D2E/DX2                !
 ! D60   D(14,6,7,16)           74.2582         estimate D2E/DX2                !
 ! D61   D(15,6,7,2)            84.6926         estimate D2E/DX2                !
 ! D62   D(15,6,7,8)           173.5363         estimate D2E/DX2                !
 ! D63   D(15,6,7,16)          -50.1739         estimate D2E/DX2                !
 ! D64   D(2,7,8,9)             33.6414         estimate D2E/DX2                !
 ! D65   D(2,7,8,17)           152.8001         estimate D2E/DX2                !
 ! D66   D(2,7,8,18)           -76.8878         estimate D2E/DX2                !
 ! D67   D(6,7,8,9)            -67.7075         estimate D2E/DX2                !
 ! D68   D(6,7,8,17)            51.4511         estimate D2E/DX2                !
 ! D69   D(6,7,8,18)          -178.2367         estimate D2E/DX2                !
 ! D70   D(16,7,8,9)           158.0091         estimate D2E/DX2                !
 ! D71   D(16,7,8,17)          -82.8322         estimate D2E/DX2                !
 ! D72   D(16,7,8,18)           47.4799         estimate D2E/DX2                !
 ! D73   D(7,8,9,2)            -33.6377         estimate D2E/DX2                !
 ! D74   D(7,8,9,5)             56.3846         estimate D2E/DX2                !
 ! D75   D(7,8,9,19)          -161.4585         estimate D2E/DX2                !
 ! D76   D(17,8,9,2)          -151.8122         estimate D2E/DX2                !
 ! D77   D(17,8,9,5)           -61.7899         estimate D2E/DX2                !
 ! D78   D(17,8,9,19)           80.367          estimate D2E/DX2                !
 ! D79   D(18,8,9,2)            77.8713         estimate D2E/DX2                !
 ! D80   D(18,8,9,5)           167.8936         estimate D2E/DX2                !
 ! D81   D(18,8,9,19)          -49.9495         estimate D2E/DX2                !
 --------------------------------------------------------------------------------
 Trust Radius=3.00D-01 FncErr=1.00D-07 GrdErr=1.00D-06
 Number of steps in this run=    114 maximum allowed number of steps=    114.
 GradGradGradGradGradGradGradGradGradGradGradGradGradGradGradGradGradGrad

                          Input orientation:                          
 ---------------------------------------------------------------------
 Center     Atomic      Atomic             Coordinates (Angstroms)
 Number     Number       Type             X           Y           Z
 ---------------------------------------------------------------------
      1          8           0        0.147420    0.260636    0.432063
      2          6           0       -1.081324    0.918782    0.324989
      3          6           0       -1.344799    2.040141    1.336316
      4          8           0       -2.769380    2.130778    1.395553
      5          6           0       -3.253911    1.381594    0.269512
      6          6           0       -2.725870    2.047308   -1.035589
      7          6           0       -1.447343    1.199442   -1.177384
      8          6           0       -2.054993   -0.232124   -1.204268
      9          6           0       -2.411246    0.084224    0.265857
     10          1           0        0.218683   -0.106683    1.320306
     11          1           0       -0.954686    1.780351    2.330468
     12          1           0       -0.896000    2.997700    1.037444
     13          1           0       -4.334766    1.294944    0.372144
     14          1           0       -3.390897    1.915888   -1.894132
     15          1           0       -2.564763    3.116969   -0.881435
     16          1           0       -0.680419    1.519100   -1.882320
     17          1           0       -2.865176   -0.429058   -1.911987
     18          1           0       -1.290476   -1.006734   -1.271655
     19          1           0       -2.659201   -0.674383    1.008865
 ---------------------------------------------------------------------
                    Distance matrix (angstroms):
                    1          2          3          4          5
     1  O    0.000000
     2  C    1.398011   0.000000
     3  C    2.492193   1.532855   0.000000
     4  O    3.596313   2.337642   1.428690   0.000000
     5  C    3.584972   2.222027   2.283958   1.436668   0.000000
     6  C    3.688088   2.414389   2.744693   2.432963   1.557334
     7  C    2.452538   1.571580   2.652541   3.038943   2.321718
     8  C    2.787654   2.147381   3.481685   3.585070   2.492693
     9  C    2.570120   1.571201   2.471599   2.364922   1.547019
    10  H    0.963835   1.931904   2.655859   3.733687   3.921485
    11  H    2.669853   2.186386   1.099099   2.071227   3.113356
    12  H    2.991109   2.205411   1.098938   2.095077   2.959943
    13  H    4.600366   3.275454   3.228753   2.048516   1.089169
    14  H    4.546507   3.354526   3.825931   3.354771   2.232844
    15  H    4.152091   2.913431   2.750689   2.489803   2.193429
    16  H    2.761416   2.322353   3.327537   3.934763   3.357402
    17  H    3.878915   3.162730   4.354303   4.183510   2.861558
    18  H    2.564454   2.510105   4.010974   4.375516   3.454618
    19  H    3.013981   2.344260   3.033730   2.833830   2.264369
                    6          7          8          9         10
     6  C    0.000000
     7  C    1.540654   0.000000
     8  C    2.382087   1.555424   0.000000
     9  C    2.376226   2.062950   1.545400   0.000000
    10  H    4.342847   3.274150   3.399826   2.839865   0.000000
    11  H    3.812965   3.589595   4.213679   3.043194   2.440926
    12  H    2.923890   2.905713   4.098817   3.373374   3.310547
    13  H    2.266342   3.278318   3.164549   2.275317   4.857722
    14  H    1.093905   2.191900   2.621928   2.996708   5.239511
    15  H    1.092655   2.239001   3.403015   3.246135   4.794494
    16  H    2.275924   1.089628   2.327229   3.109549   3.702482
    17  H    2.630564   2.280769   1.093638   2.283094   4.479044
    18  H    3.382789   2.213755   1.090435   2.193230   3.131440
    19  H    3.404679   3.124020   2.336369   1.090425   2.949829
                   11         12         13         14         15
    11  H    0.000000
    12  H    1.776878   0.000000
    13  H    3.936445   3.894498   0.000000
    14  H    4.878600   3.998620   2.532285   0.000000
    15  H    3.833435   2.545799   2.832692   1.775006   0.000000
    16  H    4.229783   3.279902   4.299663   2.739392   2.665654
    17  H    5.150717   4.931477   3.217006   2.403221   3.704942
    18  H    4.566825   4.639293   4.155417   3.652529   4.333706
    19  H    3.267679   4.073559   2.662927   3.958822   4.237512
                   16         17         18         19
    16  H    0.000000
    17  H    2.927347   0.000000
    18  H    2.669255   1.795387   0.000000
    19  H    4.133509   2.938365   2.680417   0.000000
 Stoichiometry    C7H10O2
 Framework group  C1[X(C7H10O2)]
 Deg. of freedom    51
 Full point group                 C1      NOp   1
 Largest Abelian subgroup         C1      NOp   1
 Largest concise Abelian subgroup C1      NOp   1
                         Standard orientation:                         
 ---------------------------------------------------------------------
 Center     Atomic      Atomic             Coordinates (Angstroms)
 Number     Number       Type             X           Y           Z
 ---------------------------------------------------------------------
      1          8           0        1.970854   -0.963167    0.141546
      2          6           0        0.649885   -0.506404    0.112535
      3          6           0       -0.441421   -1.561472    0.325908
      4          8           0       -1.598715   -0.998818   -0.294775
      5          6           0       -1.284152    0.384343   -0.522663
      6          6           0       -1.024033    1.068592    0.851903
      7          6           0        0.501240    0.854003    0.885232
      8          6           0        0.917210    1.550942   -0.441640
      9          6           0        0.154675    0.373992   -1.090937
     10          1           0        2.070849   -1.645912   -0.531386
     11          1           0       -0.184599   -2.507173   -0.171798
     12          1           0       -0.623352   -1.777687    1.387895
     13          1           0       -2.078803    0.805899   -1.136755
     14          1           0       -1.279300    2.132192    0.866794
     15          1           0       -1.585998    0.565315    1.642347
     16          1           0        1.034698    1.018939    1.820918
     17          1           0        0.560531    2.569963   -0.616059
     18          1           0        1.989418    1.482972   -0.628186
     19          1           0        0.279022    0.067394   -2.129957
 ---------------------------------------------------------------------
 Rotational constants (GHZ):      2.4987541      2.1792539      1.5762543
 Standard basis: 6-31G(2df,p) (6D, 7F)
 There are   329 symmetry adapted cartesian basis functions of A   symmetry.
 There are   302 symmetry adapted basis functions of A   symmetry.
   302 basis functions,   466 primitive gaussians,   329 cartesian basis functions
    34 alpha electrons       34 beta electrons
       nuclear repulsion energy       496.6374095883 Hartrees.
 NAtoms=   19 NActive=   19 NUniq=   19 SFac= 1.00D+00 NAtFMM=   60 NAOKFM=F Big=F
 Integral buffers will be    131072 words long.
 Raffenetti 2 integral format.
 Two-electron integral symmetry is turned on.
 One-electron integrals computed using PRISM.
 NBasis=   302 RedAO= T EigKep=  3.53D-04  NBF=   302
 NBsUse=   302 1.00D-06 EigRej= -1.00D+00 NBFU=   302
 ExpMin= 1.61D-01 ExpMax= 5.48D+03 ExpMxC= 8.25D+02 IAcc=1 IRadAn=         1 AccDes= 0.00D+00
 Harris functional with IExCor=  402 and IRadAn=       1 diagonalized for initial guess.
 HarFok:  IExCor=  402 AccDes= 0.00D+00 IRadAn=         1 IDoV= 1 UseB2=F ITyADJ=14
 ICtDFT=  3500011 ScaDFX=  1.000000  1.000000  1.000000  1.000000
 FoFCou: FMM=F IPFlag=           0 FMFlag=      100000 FMFlg1=           0
         NFxFlg=           0 DoJE=T BraDBF=F KetDBF=T FulRan=T
         wScrn=  0.000000 ICntrl=     500 IOpCl=  0 I1Cent=   200000004 NGrid=           0
         NMat0=    1 NMatS0=      1 NMatT0=    0 NMatD0=    1 NMtDS0=    0 NMtDT0=    0
 Petite list used in FoFCou.
 Requested convergence on RMS density matrix=1.00D-08 within 128 cycles.
 Requested convergence on MAX density matrix=1.00D-06.
 Requested convergence on             energy=1.00D-06.
 No special actions if energy rises.
 Integral accuracy reduced to 1.0D-05 until final iterations.
 Initial convergence to 1.0D-05 achieved.  Increase integral accuracy.
 SCF Done:  E(RB3LYP) =  -423.175010911     A.U. after   13 cycles
            NFock= 13  Conv=0.50D-08     -V/T= 2.0073

 **********************************************************************

            Population analysis using the SCF density.

 **********************************************************************

 Orbital symmetries:
       Occupied  (A) (A) (A) (A) (A) (A) (A) (A) (A) (A) (A) (A)
                 (A) (A) (A) (A) (A) (A) (A) (A) (A) (A) (A) (A)
                 (A) (A) (A) (A) (A) (A) (A) (A) (A) (A)
       Virtual   (A) (A) (A) (A) (A) (A) (A) (A) (A) (A) (A) (A)
                 (A) (A) (A) (A) (A) (A) (A) (A) (A) (A) (A) (A)
                 (A) (A) (A) (A) (A) (A) (A) (A) (A) (A) (A) (A)
                 (A) (A) (A) (A) (A) (A) (A) (A) (A) (A) (A) (A)
                 (A) (A) (A) (A) (A) (A) (A) (A) (A) (A) (A) (A)
                 (A) (A) (A) (A) (A) (A) (A) (A) (A) (A) (A) (A)
                 (A) (A) (A) (A) (A) (A) (A) (A) (A) (A) (A) (A)
                 (A) (A) (A) (A) (A) (A) (A) (A) (A) (A) (A) (A)
                 (A) (A) (A) (A) (A) (A) (A) (A) (A) (A) (A) (A)
                 (A) (A) (A) (A) (A) (A) (A) (A) (A) (A) (A) (A)
                 (A) (A) (A) (A) (A) (A) (A) (A) (A) (A) (A) (A)
                 (A) (A) (A) (A) (A) (A) (A) (A) (A) (A) (A) (A)
                 (A) (A) (A) (A) (A) (A) (A) (A) (A) (A) (A) (A)
                 (A) (A) (A) (A) (A) (A) (A) (A) (A) (A) (A) (A)
                 (A) (A) (A) (A) (A) (A) (A) (A) (A) (A) (A) (A)
                 (A) (A) (A) (A) (A) (A) (A) (A) (A) (A) (A) (A)
                 (A) (A) (A) (A) (A) (A) (A) (A) (A) (A) (A) (A)
                 (A) (A) (A) (A) (A) (A) (A) (A) (A) (A) (A) (A)
                 (A) (A) (A) (A) (A) (A) (A) (A) (A) (A) (A) (A)
                 (A) (A) (A) (A) (A) (A) (A) (A) (A) (A) (A) (A)
                 (A) (A) (A) (A) (A) (A) (A) (A) (A) (A) (A) (A)
                 (A) (A) (A) (A) (A) (A) (A) (A) (A) (A) (A) (A)
                 (A) (A) (A) (A)
 The electronic state is 1-A.
 Alpha  occ. eigenvalues --  -19.14992 -19.13204 -10.23968 -10.22967 -10.22213
 Alpha  occ. eigenvalues --  -10.19119 -10.18471 -10.18161 -10.17896  -1.04380
 Alpha  occ. eigenvalues --   -1.02438  -0.87404  -0.73472  -0.70265  -0.67798
 Alpha  occ. eigenvalues --   -0.62316  -0.56179  -0.54140  -0.51749  -0.49414
 Alpha  occ. eigenvalues --   -0.47399  -0.45773  -0.42340  -0.40456  -0.38947
 Alpha  occ. eigenvalues --   -0.38129  -0.35903  -0.34761  -0.33871  -0.32660
 Alpha  occ. eigenvalues --   -0.31351  -0.29108  -0.26045  -0.23816
 Alpha virt. eigenvalues --    0.06507   0.10329   0.11527   0.11757   0.13249
 Alpha virt. eigenvalues --    0.14058   0.15162   0.16121   0.16880   0.17504
 Alpha virt. eigenvalues --    0.17949   0.18698   0.19601   0.21348   0.22392
 Alpha virt. eigenvalues --    0.24166   0.26080   0.27550   0.27770   0.31443
 Alpha virt. eigenvalues --    0.32616   0.42409   0.43834   0.46685   0.47626
 Alpha virt. eigenvalues --    0.49157   0.50506   0.51245   0.52919   0.53388
 Alpha virt. eigenvalues --    0.54491   0.56676   0.57598   0.57960   0.61780
 Alpha virt. eigenvalues --    0.62370   0.63969   0.64903   0.68102   0.68637
 Alpha virt. eigenvalues --    0.71252   0.71973   0.74337   0.75080   0.76225
 Alpha virt. eigenvalues --    0.76348   0.76791   0.78882   0.80979   0.82337
 Alpha virt. eigenvalues --    0.83963   0.84246   0.86691   0.88043   0.88895
 Alpha virt. eigenvalues --    0.91035   0.94030   0.96798   0.99031   0.99992
 Alpha virt. eigenvalues --    1.03533   1.08366   1.09587   1.11824   1.13435
 Alpha virt. eigenvalues --    1.16222   1.20575   1.23949   1.25728   1.27408
 Alpha virt. eigenvalues --    1.29826   1.31065   1.33640   1.35971   1.37289
 Alpha virt. eigenvalues --    1.38517   1.41054   1.41534   1.43223   1.44095
 Alpha virt. eigenvalues --    1.48387   1.49559   1.49945   1.51934   1.52391
 Alpha virt. eigenvalues --    1.55190   1.57031   1.57401   1.58508   1.61223
 Alpha virt. eigenvalues --    1.62357   1.63308   1.65130   1.66969   1.69562
 Alpha virt. eigenvalues --    1.72106   1.76738   1.77484   1.80233   1.80742
 Alpha virt. eigenvalues --    1.85140   1.88311   1.93212   1.94888   1.96294
 Alpha virt. eigenvalues --    1.99224   2.04311   2.08010   2.14089   2.17254
 Alpha virt. eigenvalues --    2.20068   2.24115   2.27348   2.31335   2.31959
 Alpha virt. eigenvalues --    2.32590   2.37340   2.41742   2.42527   2.48320
 Alpha virt. eigenvalues --    2.49504   2.50710   2.53716   2.54907   2.58862
 Alpha virt. eigenvalues --    2.60003   2.62322   2.68959   2.71167   2.76772
 Alpha virt. eigenvalues --    2.78111   2.79226   2.80748   2.83517   2.84438
 Alpha virt. eigenvalues --    2.87008   2.89907   2.92471   2.93592   2.96333
 Alpha virt. eigenvalues --    2.97317   2.98749   3.03180   3.05183   3.07567
 Alpha virt. eigenvalues --    3.10455   3.12073   3.13942   3.16460   3.19226
 Alpha virt. eigenvalues --    3.20607   3.23649   3.25007   3.26484   3.29588
 Alpha virt. eigenvalues --    3.31988   3.34082   3.35717   3.37361   3.39465
 Alpha virt. eigenvalues --    3.42628   3.43331   3.48544   3.51300   3.53730
 Alpha virt. eigenvalues --    3.54399   3.60380   3.62590   3.63965   3.67556
 Alpha virt. eigenvalues --    3.73346   3.77861   3.80088   3.80686   3.88623
 Alpha virt. eigenvalues --    3.92537   3.96053   3.99604   4.00714   4.04022
 Alpha virt. eigenvalues --    4.07448   4.11632   4.13944   4.20166   4.22571
 Alpha virt. eigenvalues --    4.25680   4.29224   4.30768   4.31956   4.34470
 Alpha virt. eigenvalues --    4.37739   4.38790   4.42309   4.44098   4.46326
 Alpha virt. eigenvalues --    4.46995   4.50605   4.52331   4.53421   4.55783
 Alpha virt. eigenvalues --    4.57215   4.58023   4.59377   4.62828   4.64428
 Alpha virt. eigenvalues --    4.66127   4.67515   4.69795   4.71533   4.72981
 Alpha virt. eigenvalues --    4.75582   4.76418   4.78603   4.79364   4.82256
 Alpha virt. eigenvalues --    4.83825   4.85526   4.86022   4.88805   4.93300
 Alpha virt. eigenvalues --    4.95518   4.96412   4.98149   4.99831   5.03506
 Alpha virt. eigenvalues --    5.10838   5.11759   5.13926   5.15640   5.19415
 Alpha virt. eigenvalues --    5.21348   5.28657   5.31752   5.39103   5.41177
 Alpha virt. eigenvalues --    5.44580   5.46673   5.49586   5.53311   5.56356
 Alpha virt. eigenvalues --    5.57494   5.63856   5.67057   5.72749   5.75387
 Alpha virt. eigenvalues --    5.83007   5.85766   5.90559   5.96001   6.02017
 Alpha virt. eigenvalues --    6.04791   6.09985   6.13189   6.23279   6.28453
 Alpha virt. eigenvalues --    7.08012   7.19662   7.43245   7.73477  11.05771
 Alpha virt. eigenvalues --   11.70017  11.81610  11.94778  12.28621  12.98269
 Alpha virt. eigenvalues --   13.08313  13.61820  13.73136
          Condensed to atoms (all electrons):
               1          2          3          4          5          6
     1  O    7.873255   0.391604  -0.040338   0.001355   0.000995   0.000899
     2  C    0.391604   4.473517   0.355514  -0.047084  -0.022852  -0.044821
     3  C   -0.040338   0.355514   5.061441   0.353712  -0.104280   0.007470
     4  O    0.001355  -0.047084   0.353712   7.727364   0.393504  -0.046801
     5  C    0.000995  -0.022852  -0.104280   0.393504   4.689210   0.337486
     6  C    0.000899  -0.044821   0.007470  -0.046801   0.337486   5.045262
     7  C   -0.014073   0.343736  -0.052109   0.002304  -0.022037   0.369707
     8  C   -0.003118  -0.025962   0.013067   0.002333  -0.009789  -0.015698
     9  C   -0.041733   0.316058  -0.113809  -0.043203   0.332830  -0.040437
    10  H    0.321479  -0.076508  -0.003974   0.000000  -0.000038  -0.000343
    11  H   -0.001794  -0.005787   0.331363  -0.020021   0.005202  -0.000935
    12  H    0.003250  -0.021119   0.344654  -0.029430   0.002374   0.005712
    13  H   -0.000025   0.003935   0.006829  -0.025530   0.376634  -0.053659
    14  H   -0.000010   0.005335  -0.001248   0.002618  -0.016378   0.354932
    15  H   -0.000015  -0.004210   0.005031  -0.000781  -0.026310   0.359026
    16  H   -0.001545  -0.030736  -0.000605  -0.000057   0.005099  -0.041917
    17  H    0.000240   0.003908  -0.000652   0.000045  -0.006783  -0.006433
    18  H    0.009763  -0.002362   0.000546  -0.000098   0.003826   0.003798
    19  H    0.000027  -0.036060   0.002610   0.001186  -0.042213   0.007559
               7          8          9         10         11         12
     1  O   -0.014073  -0.003118  -0.041733   0.321479  -0.001794   0.003250
     2  C    0.343736  -0.025962   0.316058  -0.076508  -0.005787  -0.021119
     3  C   -0.052109   0.013067  -0.113809  -0.003974   0.331363   0.344654
     4  O    0.002304   0.002333  -0.043203   0.000000  -0.020021  -0.029430
     5  C   -0.022037  -0.009789   0.332830  -0.000038   0.005202   0.002374
     6  C    0.369707  -0.015698  -0.040437  -0.000343  -0.000935   0.005712
     7  C    4.887491   0.336940  -0.065281   0.008942   0.004956  -0.008785
     8  C    0.336940   5.019230   0.301454  -0.000109  -0.000511   0.000233
     9  C   -0.065281   0.301454   5.174505  -0.004185  -0.002676   0.005978
    10  H    0.008942  -0.000109  -0.004185   0.467030   0.005242  -0.000417
    11  H    0.004956  -0.000511  -0.002676   0.005242   0.654922  -0.058183
    12  H   -0.008785   0.000233   0.005978  -0.000417  -0.058183   0.655294
    13  H    0.004284   0.001711  -0.043063  -0.000003  -0.000190  -0.000181
    14  H   -0.028029  -0.009560   0.000147   0.000007   0.000016  -0.000153
    15  H   -0.026617   0.004419   0.005637  -0.000006   0.000041  -0.001115
    16  H    0.361018  -0.038567   0.011874  -0.000290  -0.000125   0.001205
    17  H   -0.023751   0.357546  -0.020769   0.000029   0.000010   0.000014
    18  H   -0.021466   0.359275  -0.019964  -0.000392   0.000003  -0.000028
    19  H    0.009819  -0.044101   0.363461   0.002239   0.000505  -0.000107
              13         14         15         16         17         18
     1  O   -0.000025  -0.000010  -0.000015  -0.001545   0.000240   0.009763
     2  C    0.003935   0.005335  -0.004210  -0.030736   0.003908  -0.002362
     3  C    0.006829  -0.001248   0.005031  -0.000605  -0.000652   0.000546
     4  O   -0.025530   0.002618  -0.000781  -0.000057   0.000045  -0.000098
     5  C    0.376634  -0.016378  -0.026310   0.005099  -0.006783   0.003826
     6  C   -0.053659   0.354932   0.359026  -0.041917  -0.006433   0.003798
     7  C    0.004284  -0.028029  -0.026617   0.361018  -0.023751  -0.021466
     8  C    0.001711  -0.009560   0.004419  -0.038567   0.357546   0.359275
     9  C   -0.043063   0.000147   0.005637   0.011874  -0.020769  -0.019964
    10  H   -0.000003   0.000007  -0.000006  -0.000290   0.000029  -0.000392
    11  H   -0.000190   0.000016   0.000041  -0.000125   0.000010   0.000003
    12  H   -0.000181  -0.000153  -0.001115   0.001205   0.000014  -0.000028
    13  H    0.655441  -0.003176   0.001802  -0.000144   0.000537  -0.000096
    14  H   -0.003176   0.629108  -0.037279   0.000379   0.005625   0.000185
    15  H    0.001802  -0.037279   0.615952  -0.001147  -0.000062  -0.000164
    16  H   -0.000144   0.000379  -0.001147   0.667051   0.001429  -0.001640
    17  H    0.000537   0.005625  -0.000062   0.001429   0.642258  -0.042176
    18  H   -0.000096   0.000185  -0.000164  -0.001640  -0.042176   0.599189
    19  H   -0.002709  -0.000140  -0.000126  -0.000501   0.001524  -0.001427
              19
     1  O    0.000027
     2  C   -0.036060
     3  C    0.002610
     4  O    0.001186
     5  C   -0.042213
     6  C    0.007559
     7  C    0.009819
     8  C   -0.044101
     9  C    0.363461
    10  H    0.002239
    11  H    0.000505
    12  H   -0.000107
    13  H   -0.002709
    14  H   -0.000140
    15  H   -0.000126
    16  H   -0.000501
    17  H    0.001524
    18  H   -0.001427
    19  H    0.676662
 Mulliken charges:
               1
     1  O   -0.500213
     2  C    0.423896
     3  C   -0.165225
     4  O   -0.271416
     5  C    0.103520
     6  C   -0.240807
     7  C   -0.067049
     8  C   -0.248795
     9  C   -0.116822
    10  H    0.281298
    11  H    0.087961
    12  H    0.100800
    13  H    0.077603
    14  H    0.097622
    15  H    0.105925
    16  H    0.069219
    17  H    0.087461
    18  H    0.113230
    19  H    0.061792
 Sum of Mulliken charges =   0.00000
 Mulliken charges with hydrogens summed into heavy atoms:
               1
     1  O   -0.218915
     2  C    0.423896
     3  C    0.023537
     4  O   -0.271416
     5  C    0.181124
     6  C   -0.037260
     7  C    0.002170
     8  C   -0.048104
     9  C   -0.055031
 Electronic spatial extent (au):  <R**2>=            902.0733
 Charge=              0.0000 electrons
 Dipole moment (field-independent basis, Debye):
    X=              0.6004    Y=              0.1921    Z=             -0.5758  Tot=              0.8538
 Quadrupole moment (field-independent basis, Debye-Ang):
   XX=            -57.7178   YY=            -50.2414   ZZ=            -51.6920
   XY=             -4.1082   XZ=             -2.8788   YZ=              1.0230
 Traceless Quadrupole moment (field-independent basis, Debye-Ang):
   XX=             -4.5007   YY=              2.9757   ZZ=              1.5251
   XY=             -4.1082   XZ=             -2.8788   YZ=              1.0230
 Octapole moment (field-independent basis, Debye-Ang**2):
  XXX=              3.8159  YYY=            -15.4022  ZZZ=             -0.5123  XYY=              7.2490
  XXY=              1.2195  XXZ=             -5.4448  XZZ=              1.1124  YZZ=             -4.3348
  YYZ=             -2.6196  XYZ=              6.4515
 Hexadecapole moment (field-independent basis, Debye-Ang**3):
 XXXX=           -485.2513 YYYY=           -434.2833 ZZZZ=           -218.1558 XXXY=            -20.8906
 XXXZ=             -8.9704 YYYX=            -20.1415 YYYZ=              6.3272 ZZZX=              2.2532
 ZZZY=              2.2641 XXYY=           -148.4120 XXZZ=           -110.8778 YYZZ=           -113.2812
 XXYZ=              5.7004 YYXZ=             -7.8244 ZZXY=             -2.7374
 N-N= 4.966374095883D+02 E-N=-1.980396727798D+03  KE= 4.201007748089D+02
 Calling FoFJK, ICntrl=      2127 FMM=F ISym2X=0 I1Cent= 0 IOpClX= 0 NMat=1 NMatS=1 NMatT=0.
 ***** Axes restored to original set *****
 -------------------------------------------------------------------
 Center     Atomic                   Forces (Hartrees/Bohr)
 Number     Number              X              Y              Z
 -------------------------------------------------------------------
      1        8          -0.000028215    0.000019904    0.000010955
      2        6           0.000046008   -0.000069974    0.000008017
      3        6           0.000048758    0.000014606   -0.000026297
      4        8          -0.000044647   -0.000030158   -0.000073398
      5        6           0.000067809   -0.000033071    0.000159427
      6        6           0.000079728    0.000003289   -0.000070636
      7        6          -0.000159978    0.000045590   -0.000040001
      8        6           0.000058438    0.000028511    0.000032697
      9        6          -0.000048201    0.000058793   -0.000065768
     10        1           0.000022723   -0.000002297   -0.000011481
     11        1           0.000009251   -0.000002937    0.000003455
     12        1          -0.000013485   -0.000001580    0.000011497
     13        1          -0.000014556   -0.000016043   -0.000006951
     14        1          -0.000015931   -0.000004089    0.000019633
     15        1          -0.000017695   -0.000000079    0.000010933
     16        1           0.000035609   -0.000000427   -0.000005325
     17        1          -0.000012733   -0.000006951   -0.000000869
     18        1          -0.000009214    0.000004972   -0.000002643
     19        1          -0.000003669   -0.000008059    0.000046754
 -------------------------------------------------------------------
 Cartesian Forces:  Max     0.000159978 RMS     0.000044657

 GradGradGradGradGradGradGradGradGradGradGradGradGradGradGradGradGradGrad
 Berny optimization.
 FormGI is forming the generalized inverse of G from B-inverse, IUseBI=4.
 Internal  Forces:  Max     0.000073420 RMS     0.000013772
 Search for a local minimum.
 Step number   1 out of a maximum of  114
 All quantities printed in internal units (Hartrees-Bohrs-Radians)
 Mixed Optimization -- En-DIIS/RFO-DIIS
 Second derivative matrix not updated -- first step.
 ITU=  0
     Eigenvalues ---    0.00861   0.01122   0.01718   0.01867   0.02326
     Eigenvalues ---    0.02500   0.02951   0.03430   0.03636   0.03812
     Eigenvalues ---    0.04043   0.04104   0.04813   0.05495   0.05564
     Eigenvalues ---    0.05816   0.05864   0.05929   0.06088   0.06602
     Eigenvalues ---    0.07517   0.07832   0.08178   0.09462   0.10113
     Eigenvalues ---    0.10894   0.11095   0.12595   0.14347   0.16000
     Eigenvalues ---    0.16444   0.20247   0.22378   0.23067   0.23866
     Eigenvalues ---    0.26556   0.26771   0.28091   0.33782   0.33800
     Eigenvalues ---    0.34365   0.34396   0.34508   0.34762   0.34764
     Eigenvalues ---    0.34856   0.34909   0.36248   0.38204   0.45952
     Eigenvalues ---    0.54657
 RFO step:  Lambda=-1.69084563D-07 EMin= 8.61090931D-03
 Linear search not attempted -- first point.
 Iteration  1 RMS(Cart)=  0.00012152 RMS(Int)=  0.00000002
 Iteration  2 RMS(Cart)=  0.00000002 RMS(Int)=  0.00000001
 Variable       Old X    -DE/DX   Delta X   Delta X   Delta X     New X
                                 (Linear)    (Quad)   (Total)
    R1        2.64186  -0.00002   0.00000  -0.00004  -0.00004   2.64182
    R2        1.82138   0.00000   0.00000   0.00000   0.00000   1.82139
    R3        2.89668  -0.00001   0.00000   0.00001   0.00001   2.89669
    R4        2.96986   0.00003   0.00000   0.00016   0.00016   2.97002
    R5        2.96914   0.00000   0.00000  -0.00003  -0.00003   2.96911
    R6        2.69983   0.00002   0.00000   0.00006   0.00006   2.69989
    R7        2.07700   0.00001   0.00000   0.00002   0.00002   2.07702
    R8        2.07669  -0.00001   0.00000  -0.00004  -0.00004   2.07665
    R9        2.71491  -0.00007   0.00000  -0.00020  -0.00020   2.71471
   R10        2.94294   0.00005   0.00000   0.00018   0.00018   2.94311
   R11        2.92344  -0.00006   0.00000  -0.00023  -0.00023   2.92321
   R12        2.05823   0.00002   0.00000   0.00004   0.00004   2.05827
   R13        2.91141  -0.00005   0.00000  -0.00021  -0.00021   2.91121
   R14        2.06718  -0.00001   0.00000  -0.00002  -0.00002   2.06716
   R15        2.06482   0.00000   0.00000   0.00000   0.00000   2.06482
   R16        2.93933  -0.00002   0.00000  -0.00008  -0.00008   2.93925
   R17        2.05910   0.00003   0.00000   0.00009   0.00009   2.05918
   R18        2.92038   0.00000   0.00000  -0.00002  -0.00002   2.92036
   R19        2.06668   0.00001   0.00000   0.00003   0.00003   2.06670
   R20        2.06062  -0.00001   0.00000  -0.00002  -0.00002   2.06060
   R21        2.06060   0.00004   0.00000   0.00011   0.00011   2.06071
    A1        1.89123   0.00003   0.00000   0.00019   0.00019   1.89142
    A2        2.03190   0.00000   0.00000  -0.00002  -0.00002   2.03188
    A3        1.94120   0.00001   0.00000   0.00007   0.00007   1.94127
    A4        2.09068   0.00001   0.00000   0.00005   0.00005   2.09073
    A5        2.04883  -0.00001   0.00000  -0.00007  -0.00007   2.04876
    A6        1.84202  -0.00001   0.00000  -0.00003  -0.00003   1.84199
    A7        1.43210   0.00000   0.00000   0.00000   0.00000   1.43210
    A8        1.81848  -0.00002   0.00000  -0.00005  -0.00005   1.81843
    A9        1.94212   0.00000   0.00000  -0.00001  -0.00001   1.94211
   A10        1.96905   0.00002   0.00000   0.00016   0.00016   1.96921
   A11        1.90859   0.00000   0.00000  -0.00003  -0.00003   1.90857
   A12        1.94251   0.00000   0.00000  -0.00008  -0.00008   1.94244
   A13        1.88283  -0.00001   0.00000   0.00000   0.00000   1.88283
   A14        1.84493   0.00001   0.00000   0.00002   0.00002   1.84495
   A15        1.89607   0.00000   0.00000  -0.00002  -0.00002   1.89606
   A16        1.82913   0.00001   0.00000   0.00011   0.00011   1.82924
   A17        1.87792   0.00000   0.00000   0.00014   0.00014   1.87806
   A18        1.74347   0.00000   0.00000   0.00002   0.00002   1.74349
   A19        2.03695   0.00000   0.00000  -0.00013  -0.00013   2.03682
   A20        2.06468  -0.00001   0.00000  -0.00011  -0.00011   2.06457
   A21        1.69437  -0.00001   0.00000  -0.00004  -0.00004   1.69433
   A22        1.98257   0.00000   0.00000  -0.00012  -0.00012   1.98245
   A23        1.92862   0.00000   0.00000  -0.00009  -0.00009   1.92853
   A24        1.94567   0.00000   0.00000   0.00009   0.00009   1.94576
   A25        2.01459   0.00001   0.00000   0.00013   0.00013   2.01472
   A26        1.89439   0.00000   0.00000   0.00002   0.00002   1.89441
   A27        1.77580   0.00001   0.00000   0.00009   0.00009   1.77589
   A28        1.51391  -0.00002   0.00000  -0.00020  -0.00020   1.51371
   A29        2.10242  -0.00001   0.00000  -0.00026  -0.00026   2.10216
   A30        1.75575   0.00001   0.00000   0.00016   0.00016   1.75591
   A31        2.07394   0.00000   0.00000   0.00017   0.00017   2.07411
   A32        2.13387   0.00000   0.00000  -0.00001  -0.00001   2.13386
   A33        1.45576   0.00001   0.00000   0.00007   0.00007   1.45583
   A34        2.05593  -0.00001   0.00000   0.00002   0.00002   2.05595
   A35        1.96164   0.00001   0.00000   0.00002   0.00002   1.96166
   A36        2.07338   0.00000   0.00000  -0.00003  -0.00003   2.07334
   A37        1.94532   0.00000   0.00000  -0.00002  -0.00002   1.94530
   A38        1.92995   0.00000   0.00000  -0.00003  -0.00003   1.92992
   A39        1.58632   0.00001   0.00000   0.00003   0.00003   1.58635
   A40        1.52018  -0.00001   0.00000  -0.00015  -0.00015   1.52003
   A41        2.13691  -0.00001   0.00000  -0.00011  -0.00011   2.13680
   A42        1.87495   0.00000   0.00000   0.00014   0.00014   1.87509
   A43        2.04650  -0.00001   0.00000  -0.00014  -0.00014   2.04635
   A44        2.16302   0.00001   0.00000   0.00018   0.00018   2.16321
    D1        1.00360   0.00000   0.00000  -0.00002  -0.00002   1.00358
    D2       -2.86977   0.00000   0.00000  -0.00007  -0.00007  -2.86984
    D3       -1.24756   0.00000   0.00000  -0.00001  -0.00001  -1.24757
    D4       -2.72509   0.00000   0.00000  -0.00008  -0.00008  -2.72517
    D5       -0.67031   0.00000   0.00000  -0.00014  -0.00014  -0.67046
    D6        1.44880   0.00001   0.00000  -0.00004  -0.00004   1.44876
    D7        1.19403   0.00000   0.00000  -0.00009  -0.00009   1.19394
    D8       -3.03438  -0.00001   0.00000  -0.00015  -0.00015  -3.03453
    D9       -0.91527   0.00000   0.00000  -0.00005  -0.00005  -0.91531
   D10       -0.35922   0.00001   0.00000  -0.00005  -0.00005  -0.35928
   D11        1.69556   0.00000   0.00000  -0.00012  -0.00012   1.69544
   D12       -2.46852   0.00001   0.00000  -0.00001  -0.00001  -2.46853
   D13       -3.03752   0.00000   0.00000  -0.00003  -0.00003  -3.03755
   D14        1.49765   0.00000   0.00000  -0.00015  -0.00015   1.49750
   D15       -0.70021   0.00001   0.00000   0.00008   0.00008  -0.70012
   D16       -0.63548   0.00000   0.00000  -0.00006  -0.00006  -0.63554
   D17       -2.38350   0.00000   0.00000  -0.00018  -0.00018  -2.38368
   D18        1.70183   0.00001   0.00000   0.00006   0.00006   1.70188
   D19        1.16979  -0.00001   0.00000  -0.00009  -0.00009   1.16970
   D20       -0.57823  -0.00001   0.00000  -0.00021  -0.00021  -0.57844
   D21       -2.77609   0.00000   0.00000   0.00003   0.00003  -2.77606
   D22        3.07184  -0.00001   0.00000  -0.00003  -0.00003   3.07181
   D23       -1.33678   0.00000   0.00000   0.00011   0.00011  -1.33668
   D24        0.91563   0.00000   0.00000   0.00017   0.00017   0.91580
   D25        0.73776  -0.00001   0.00000  -0.00002  -0.00002   0.73774
   D26        2.61233   0.00000   0.00000   0.00012   0.00012   2.61244
   D27       -1.41845   0.00000   0.00000   0.00018   0.00018  -1.41827
   D28       -1.29232   0.00000   0.00000   0.00005   0.00005  -1.29226
   D29        0.58225   0.00001   0.00000   0.00019   0.00019   0.58244
   D30        2.83466   0.00001   0.00000   0.00026   0.00026   2.83492
   D31       -0.23791   0.00000   0.00000   0.00014   0.00014  -0.23778
   D32       -2.31566   0.00001   0.00000   0.00019   0.00019  -2.31547
   D33        1.88903   0.00001   0.00000   0.00026   0.00026   1.88928
   D34       -1.07715   0.00000   0.00000  -0.00018  -0.00018  -1.07732
   D35        0.77397   0.00000   0.00000  -0.00011  -0.00011   0.77386
   D36        2.98601   0.00000   0.00000  -0.00010  -0.00010   2.98591
   D37        1.61319   0.00001   0.00000   0.00004   0.00004   1.61323
   D38       -2.62473   0.00001   0.00000   0.00007   0.00007  -2.62466
   D39       -0.49090   0.00000   0.00000  -0.00005  -0.00005  -0.49095
   D40       -0.29656   0.00000   0.00000  -0.00008  -0.00008  -0.29664
   D41        1.74871   0.00000   0.00000  -0.00005  -0.00005   1.74866
   D42       -2.40065  -0.00001   0.00000  -0.00017  -0.00017  -2.40082
   D43       -2.54432   0.00001   0.00000   0.00012   0.00012  -2.54420
   D44       -0.49905   0.00001   0.00000   0.00015   0.00015  -0.49890
   D45        1.63477   0.00000   0.00000   0.00003   0.00003   1.63480
   D46       -0.90658   0.00000   0.00000   0.00005   0.00005  -0.90653
   D47       -2.42920   0.00001   0.00000   0.00020   0.00020  -2.42900
   D48        1.32207   0.00000   0.00000  -0.00013  -0.00013   1.32194
   D49        1.05576   0.00000   0.00000   0.00007   0.00007   1.05583
   D50       -0.46686   0.00001   0.00000   0.00022   0.00022  -0.46664
   D51       -2.99878   0.00000   0.00000  -0.00011  -0.00011  -2.99889
   D52       -2.99796  -0.00001   0.00000  -0.00015  -0.00015  -2.99812
   D53        1.76260   0.00000   0.00000   0.00000   0.00000   1.76260
   D54       -0.76932  -0.00001   0.00000  -0.00033  -0.00033  -0.76965
   D55       -0.55921   0.00000   0.00000   0.00011   0.00011  -0.55911
   D56        0.99140  -0.00001   0.00000  -0.00005  -0.00005   0.99136
   D57       -2.91308   0.00000   0.00000   0.00025   0.00025  -2.91283
   D58       -2.63327   0.00001   0.00000   0.00024   0.00024  -2.63303
   D59       -1.08265   0.00000   0.00000   0.00008   0.00008  -1.08257
   D60        1.29605   0.00001   0.00000   0.00037   0.00037   1.29643
   D61        1.47816   0.00000   0.00000   0.00003   0.00003   1.47819
   D62        3.02878  -0.00001   0.00000  -0.00013  -0.00013   3.02866
   D63       -0.87570   0.00000   0.00000   0.00017   0.00017  -0.87553
   D64        0.58715   0.00001   0.00000   0.00020   0.00020   0.58736
   D65        2.66686   0.00001   0.00000   0.00021   0.00021   2.66707
   D66       -1.34194   0.00001   0.00000   0.00020   0.00020  -1.34175
   D67       -1.18172   0.00000   0.00000   0.00015   0.00015  -1.18156
   D68        0.89799   0.00000   0.00000   0.00016   0.00016   0.89815
   D69       -3.11082   0.00000   0.00000   0.00015   0.00015  -3.11067
   D70        2.75778  -0.00001   0.00000  -0.00026  -0.00026   2.75752
   D71       -1.44570  -0.00001   0.00000  -0.00026  -0.00026  -1.44596
   D72        0.82868  -0.00001   0.00000  -0.00027  -0.00027   0.82841
   D73       -0.58709  -0.00002   0.00000  -0.00024  -0.00024  -0.58733
   D74        0.98410  -0.00001   0.00000  -0.00026  -0.00026   0.98383
   D75       -2.81798  -0.00001   0.00000  -0.00006  -0.00006  -2.81804
   D76       -2.64962  -0.00001   0.00000  -0.00030  -0.00030  -2.64992
   D77       -1.07844   0.00000   0.00000  -0.00032  -0.00032  -1.07876
   D78        1.40267   0.00000   0.00000  -0.00011  -0.00011   1.40256
   D79        1.35911  -0.00001   0.00000  -0.00020  -0.00020   1.35891
   D80        2.93030   0.00000   0.00000  -0.00022  -0.00022   2.93008
   D81       -0.87178   0.00000   0.00000  -0.00001  -0.00001  -0.87179
         Item               Value     Threshold  Converged?
 Maximum Force            0.000073     0.000450     YES
 RMS     Force            0.000014     0.000300     YES
 Maximum Displacement     0.000396     0.001800     YES
 RMS     Displacement     0.000122     0.001200     YES
 Predicted change in Energy=-8.454052D-08
 Optimization completed.
    -- Stationary point found.
                           ----------------------------
                           !   Optimized Parameters   !
                           ! (Angstroms and Degrees)  !
 --------------------------                            --------------------------
 ! Name  Definition              Value          Derivative Info.                !
 --------------------------------------------------------------------------------
 ! R1    R(1,2)                  1.398          -DE/DX =    0.0                 !
 ! R2    R(1,10)                 0.9638         -DE/DX =    0.0                 !
 ! R3    R(2,3)                  1.5329         -DE/DX =    0.0                 !
 ! R4    R(2,7)                  1.5716         -DE/DX =    0.0                 !
 ! R5    R(2,9)                  1.5712         -DE/DX =    0.0                 !
 ! R6    R(3,4)                  1.4287         -DE/DX =    0.0                 !
 ! R7    R(3,11)                 1.0991         -DE/DX =    0.0                 !
 ! R8    R(3,12)                 1.0989         -DE/DX =    0.0                 !
 ! R9    R(4,5)                  1.4367         -DE/DX =   -0.0001              !
 ! R10   R(5,6)                  1.5573         -DE/DX =    0.0001              !
 ! R11   R(5,9)                  1.547          -DE/DX =   -0.0001              !
 ! R12   R(5,13)                 1.0892         -DE/DX =    0.0                 !
 ! R13   R(6,7)                  1.5407         -DE/DX =   -0.0001              !
 ! R14   R(6,14)                 1.0939         -DE/DX =    0.0                 !
 ! R15   R(6,15)                 1.0927         -DE/DX =    0.0                 !
 ! R16   R(7,8)                  1.5554         -DE/DX =    0.0                 !
 ! R17   R(7,16)                 1.0896         -DE/DX =    0.0                 !
 ! R18   R(8,9)                  1.5454         -DE/DX =    0.0                 !
 ! R19   R(8,17)                 1.0936         -DE/DX =    0.0                 !
 ! R20   R(8,18)                 1.0904         -DE/DX =    0.0                 !
 ! R21   R(9,19)                 1.0904         -DE/DX =    0.0                 !
 ! A1    A(2,1,10)             108.3596         -DE/DX =    0.0                 !
 ! A2    A(1,2,3)              116.4192         -DE/DX =    0.0                 !
 ! A3    A(1,2,7)              111.2224         -DE/DX =    0.0                 !
 ! A4    A(1,2,9)              119.7872         -DE/DX =    0.0                 !
 ! A5    A(3,2,7)              117.3895         -DE/DX =    0.0                 !
 ! A6    A(3,2,9)              105.5399         -DE/DX =    0.0                 !
 ! A7    A(7,2,9)               82.0532         -DE/DX =    0.0                 !
 ! A8    A(2,3,4)              104.1911         -DE/DX =    0.0                 !
 ! A9    A(2,3,11)             111.2751         -DE/DX =    0.0                 !
 ! A10   A(2,3,12)             112.818          -DE/DX =    0.0                 !
 ! A11   A(4,3,11)             109.3544         -DE/DX =    0.0                 !
 ! A12   A(4,3,12)             111.2978         -DE/DX =    0.0                 !
 ! A13   A(11,3,12)            107.8785         -DE/DX =    0.0                 !
 ! A14   A(3,4,5)              105.7065         -DE/DX =    0.0                 !
 ! A15   A(4,5,6)              108.6371         -DE/DX =    0.0                 !
 ! A16   A(4,5,9)              104.8012         -DE/DX =    0.0                 !
 ! A17   A(4,5,13)             107.5968         -DE/DX =    0.0                 !
 ! A18   A(6,5,9)               99.8935         -DE/DX =    0.0                 !
 ! A19   A(6,5,13)             116.7087         -DE/DX =    0.0                 !
 ! A20   A(9,5,13)             118.2975         -DE/DX =    0.0                 !
 ! A21   A(5,6,7)               97.0802         -DE/DX =    0.0                 !
 ! A22   A(5,6,14)             113.5931         -DE/DX =    0.0                 !
 ! A23   A(5,6,15)             110.5018         -DE/DX =    0.0                 !
 ! A24   A(7,6,14)             111.4787         -DE/DX =    0.0                 !
 ! A25   A(7,6,15)             115.4278         -DE/DX =    0.0                 !
 ! A26   A(14,6,15)            108.5405         -DE/DX =    0.0                 !
 ! A27   A(2,7,6)              101.7458         -DE/DX =    0.0                 !
 ! A28   A(2,7,8)               86.7407         -DE/DX =    0.0                 !
 ! A29   A(2,7,16)             120.4595         -DE/DX =    0.0                 !
 ! A30   A(6,7,8)              100.5969         -DE/DX =    0.0                 !
 ! A31   A(6,7,16)             118.8282         -DE/DX =    0.0                 !
 ! A32   A(8,7,16)             122.2617         -DE/DX =    0.0                 !
 ! A33   A(7,8,9)               83.4086         -DE/DX =    0.0                 !
 ! A34   A(7,8,17)             117.7963         -DE/DX =    0.0                 !
 ! A35   A(7,8,18)             112.3938         -DE/DX =    0.0                 !
 ! A36   A(9,8,17)             118.7957         -DE/DX =    0.0                 !
 ! A37   A(9,8,18)             111.4584         -DE/DX =    0.0                 !
 ! A38   A(17,8,18)            110.5782         -DE/DX =    0.0                 !
 ! A39   A(2,9,5)               90.8895         -DE/DX =    0.0                 !
 ! A40   A(2,9,8)               87.1            -DE/DX =    0.0                 !
 ! A41   A(2,9,19)             122.4359         -DE/DX =    0.0                 !
 ! A42   A(5,9,8)              107.4266         -DE/DX =    0.0                 !
 ! A43   A(5,9,19)             117.2555         -DE/DX =    0.0                 !
 ! A44   A(8,9,19)             123.9321         -DE/DX =    0.0                 !
 ! D1    D(10,1,2,3)            57.5022         -DE/DX =    0.0                 !
 ! D2    D(10,1,2,7)          -164.4258         -DE/DX =    0.0                 !
 ! D3    D(10,1,2,9)           -71.4801         -DE/DX =    0.0                 !
 ! D4    D(1,2,3,4)           -156.1362         -DE/DX =    0.0                 !
 ! D5    D(1,2,3,11)           -38.4061         -DE/DX =    0.0                 !
 ! D6    D(1,2,3,12)            83.01           -DE/DX =    0.0                 !
 ! D7    D(7,2,3,4)             68.413          -DE/DX =    0.0                 !
 ! D8    D(7,2,3,11)          -173.8569         -DE/DX =    0.0                 !
 ! D9    D(7,2,3,12)           -52.4409         -DE/DX =    0.0                 !
 ! D10   D(9,2,3,4)            -20.5819         -DE/DX =    0.0                 !
 ! D11   D(9,2,3,11)            97.1482         -DE/DX =    0.0                 !
 ! D12   D(9,2,3,12)          -141.4358         -DE/DX =    0.0                 !
 ! D13   D(1,2,7,6)           -174.037          -DE/DX =    0.0                 !
 ! D14   D(1,2,7,8)             85.809          -DE/DX =    0.0                 !
 ! D15   D(1,2,7,16)           -40.1188         -DE/DX =    0.0                 !
 ! D16   D(3,2,7,6)            -36.4106         -DE/DX =    0.0                 !
 ! D17   D(3,2,7,8)           -136.5647         -DE/DX =    0.0                 !
 ! D18   D(3,2,7,16)            97.5076         -DE/DX =    0.0                 !
 ! D19   D(9,2,7,6)             67.0239         -DE/DX =    0.0                 !
 ! D20   D(9,2,7,8)            -33.1302         -DE/DX =    0.0                 !
 ! D21   D(9,2,7,16)          -159.058          -DE/DX =    0.0                 !
 ! D22   D(1,2,9,5)            176.0034         -DE/DX =    0.0                 !
 ! D23   D(1,2,9,8)            -76.5919         -DE/DX =    0.0                 !
 ! D24   D(1,2,9,19)            52.4618         -DE/DX =    0.0                 !
 ! D25   D(3,2,9,5)             42.2706         -DE/DX =    0.0                 !
 ! D26   D(3,2,9,8)            149.6752         -DE/DX =    0.0                 !
 ! D27   D(3,2,9,19)           -81.271          -DE/DX =    0.0                 !
 ! D28   D(7,2,9,5)            -74.0443         -DE/DX =    0.0                 !
 ! D29   D(7,2,9,8)             33.3603         -DE/DX =    0.0                 !
 ! D30   D(7,2,9,19)           162.4141         -DE/DX =    0.0                 !
 ! D31   D(2,3,4,5)            -13.6314         -DE/DX =    0.0                 !
 ! D32   D(11,3,4,5)          -132.6773         -DE/DX =    0.0                 !
 ! D33   D(12,3,4,5)           108.2332         -DE/DX =    0.0                 !
 ! D34   D(3,4,5,6)            -61.7159         -DE/DX =    0.0                 !
 ! D35   D(3,4,5,9)             44.3453         -DE/DX =    0.0                 !
 ! D36   D(3,4,5,13)           171.0858         -DE/DX =    0.0                 !
 ! D37   D(4,5,6,7)             92.4288         -DE/DX =    0.0                 !
 ! D38   D(4,5,6,14)          -150.386          -DE/DX =    0.0                 !
 ! D39   D(4,5,6,15)           -28.1268         -DE/DX =    0.0                 !
 ! D40   D(9,5,6,7)            -16.9915         -DE/DX =    0.0                 !
 ! D41   D(9,5,6,14)           100.1938         -DE/DX =    0.0                 !
 ! D42   D(9,5,6,15)          -137.547          -DE/DX =    0.0                 !
 ! D43   D(13,5,6,7)          -145.779          -DE/DX =    0.0                 !
 ! D44   D(13,5,6,14)          -28.5937         -DE/DX =    0.0                 !
 ! D45   D(13,5,6,15)           93.6655         -DE/DX =    0.0                 !
 ! D46   D(4,5,9,2)            -51.9431         -DE/DX =    0.0                 !
 ! D47   D(4,5,9,8)           -139.1827         -DE/DX =    0.0                 !
 ! D48   D(4,5,9,19)            75.7488         -DE/DX =    0.0                 !
 ! D49   D(6,5,9,2)             60.4907         -DE/DX =    0.0                 !
 ! D50   D(6,5,9,8)            -26.7489         -DE/DX =    0.0                 !
 ! D51   D(6,5,9,19)          -171.8175         -DE/DX =    0.0                 !
 ! D52   D(13,5,9,2)          -171.7706         -DE/DX =    0.0                 !
 ! D53   D(13,5,9,8)           100.9898         -DE/DX =    0.0                 !
 ! D54   D(13,5,9,19)          -44.0788         -DE/DX =    0.0                 !
 ! D55   D(5,6,7,2)            -32.0406         -DE/DX =    0.0                 !
 ! D56   D(5,6,7,8)             56.8032         -DE/DX =    0.0                 !
 ! D57   D(5,6,7,16)          -166.9071         -DE/DX =    0.0                 !
 ! D58   D(14,6,7,2)          -150.8753         -DE/DX =    0.0                 !
 ! D59   D(14,6,7,8)           -62.0315         -DE/DX =    0.0                 !
 ! D60   D(14,6,7,16)           74.2582         -DE/DX =    0.0                 !
 ! D61   D(15,6,7,2)            84.6926         -DE/DX =    0.0                 !
 ! D62   D(15,6,7,8)           173.5363         -DE/DX =    0.0                 !
 ! D63   D(15,6,7,16)          -50.1739         -DE/DX =    0.0                 !
 ! D64   D(2,7,8,9)             33.6414         -DE/DX =    0.0                 !
 ! D65   D(2,7,8,17)           152.8001         -DE/DX =    0.0                 !
 ! D66   D(2,7,8,18)           -76.8878         -DE/DX =    0.0                 !
 ! D67   D(6,7,8,9)            -67.7075         -DE/DX =    0.0                 !
 ! D68   D(6,7,8,17)            51.4511         -DE/DX =    0.0                 !
 ! D69   D(6,7,8,18)          -178.2367         -DE/DX =    0.0                 !
 ! D70   D(16,7,8,9)           158.0091         -DE/DX =    0.0                 !
 ! D71   D(16,7,8,17)          -82.8322         -DE/DX =    0.0                 !
 ! D72   D(16,7,8,18)           47.4799         -DE/DX =    0.0                 !
 ! D73   D(7,8,9,2)            -33.6377         -DE/DX =    0.0                 !
 ! D74   D(7,8,9,5)             56.3846         -DE/DX =    0.0                 !
 ! D75   D(7,8,9,19)          -161.4585         -DE/DX =    0.0                 !
 ! D76   D(17,8,9,2)          -151.8122         -DE/DX =    0.0                 !
 ! D77   D(17,8,9,5)           -61.7899         -DE/DX =    0.0                 !
 ! D78   D(17,8,9,19)           80.367          -DE/DX =    0.0                 !
 ! D79   D(18,8,9,2)            77.8713         -DE/DX =    0.0                 !
 ! D80   D(18,8,9,5)           167.8936         -DE/DX =    0.0                 !
 ! D81   D(18,8,9,19)          -49.9495         -DE/DX =    0.0                 !
 --------------------------------------------------------------------------------
 GradGradGradGradGradGradGradGradGradGradGradGradGradGradGradGradGradGrad

                          Input orientation:                          
 ---------------------------------------------------------------------
 Center     Atomic      Atomic             Coordinates (Angstroms)
 Number     Number       Type             X           Y           Z
 ---------------------------------------------------------------------
      1          8           0        0.147420    0.260636    0.432063
      2          6           0       -1.081324    0.918782    0.324989
      3          6           0       -1.344799    2.040141    1.336316
      4          8           0       -2.769380    2.130778    1.395553
      5          6           0       -3.253911    1.381594    0.269512
      6          6           0       -2.725870    2.047308   -1.035589
      7          6           0       -1.447343    1.199442   -1.177384
      8          6           0       -2.054993   -0.232124   -1.204268
      9          6           0       -2.411246    0.084224    0.265857
     10          1           0        0.218683   -0.106683    1.320306
     11          1           0       -0.954686    1.780351    2.330468
     12          1           0       -0.896000    2.997700    1.037444
     13          1           0       -4.334766    1.294944    0.372144
     14          1           0       -3.390897    1.915888   -1.894132
     15          1           0       -2.564763    3.116969   -0.881435
     16          1           0       -0.680419    1.519100   -1.882320
     17          1           0       -2.865176   -0.429058   -1.911987
     18          1           0       -1.290476   -1.006734   -1.271655
     19          1           0       -2.659201   -0.674383    1.008865
 ---------------------------------------------------------------------
                    Distance matrix (angstroms):
                    1          2          3          4          5
     1  O    0.000000
     2  C    1.398011   0.000000
     3  C    2.492193   1.532855   0.000000
     4  O    3.596313   2.337642   1.428690   0.000000
     5  C    3.584972   2.222027   2.283958   1.436668   0.000000
     6  C    3.688088   2.414389   2.744693   2.432963   1.557334
     7  C    2.452538   1.571580   2.652541   3.038943   2.321718
     8  C    2.787654   2.147381   3.481685   3.585070   2.492693
     9  C    2.570120   1.571201   2.471599   2.364922   1.547019
    10  H    0.963835   1.931904   2.655859   3.733687   3.921485
    11  H    2.669853   2.186386   1.099099   2.071227   3.113356
    12  H    2.991109   2.205411   1.098938   2.095077   2.959943
    13  H    4.600366   3.275454   3.228753   2.048516   1.089169
    14  H    4.546507   3.354526   3.825931   3.354771   2.232844
    15  H    4.152091   2.913431   2.750689   2.489803   2.193429
    16  H    2.761416   2.322353   3.327537   3.934763   3.357402
    17  H    3.878915   3.162730   4.354303   4.183510   2.861558
    18  H    2.564454   2.510105   4.010974   4.375516   3.454618
    19  H    3.013981   2.344260   3.033730   2.833830   2.264369
                    6          7          8          9         10
     6  C    0.000000
     7  C    1.540654   0.000000
     8  C    2.382087   1.555424   0.000000
     9  C    2.376226   2.062950   1.545400   0.000000
    10  H    4.342847   3.274150   3.399826   2.839865   0.000000
    11  H    3.812965   3.589595   4.213679   3.043194   2.440926
    12  H    2.923890   2.905713   4.098817   3.373374   3.310547
    13  H    2.266342   3.278318   3.164549   2.275317   4.857722
    14  H    1.093905   2.191900   2.621928   2.996708   5.239511
    15  H    1.092655   2.239001   3.403015   3.246135   4.794494
    16  H    2.275924   1.089628   2.327229   3.109549   3.702482
    17  H    2.630564   2.280769   1.093638   2.283094   4.479044
    18  H    3.382789   2.213755   1.090435   2.193230   3.131440
    19  H    3.404679   3.124020   2.336369   1.090425   2.949829
                   11         12         13         14         15
    11  H    0.000000
    12  H    1.776878   0.000000
    13  H    3.936445   3.894498   0.000000
    14  H    4.878600   3.998620   2.532285   0.000000
    15  H    3.833435   2.545799   2.832692   1.775006   0.000000
    16  H    4.229783   3.279902   4.299663   2.739392   2.665654
    17  H    5.150717   4.931477   3.217006   2.403221   3.704942
    18  H    4.566825   4.639293   4.155417   3.652529   4.333706
    19  H    3.267679   4.073559   2.662927   3.958822   4.237512
                   16         17         18         19
    16  H    0.000000
    17  H    2.927347   0.000000
    18  H    2.669255   1.795387   0.000000
    19  H    4.133509   2.938365   2.680417   0.000000
 Stoichiometry    C7H10O2
 Framework group  C1[X(C7H10O2)]
 Deg. of freedom    51
 Full point group                 C1      NOp   1
 Largest Abelian subgroup         C1      NOp   1
 Largest concise Abelian subgroup C1      NOp   1
                         Standard orientation:                         
 ---------------------------------------------------------------------
 Center     Atomic      Atomic             Coordinates (Angstroms)
 Number     Number       Type             X           Y           Z
 ---------------------------------------------------------------------
      1          8           0        1.970854   -0.963167    0.141546
      2          6           0        0.649885   -0.506404    0.112535
      3          6           0       -0.441421   -1.561472    0.325908
      4          8           0       -1.598715   -0.998818   -0.294775
      5          6           0       -1.284152    0.384343   -0.522663
      6          6           0       -1.024033    1.068592    0.851903
      7          6           0        0.501240    0.854003    0.885232
      8          6           0        0.917210    1.550942   -0.441640
      9          6           0        0.154675    0.373992   -1.090937
     10          1           0        2.070849   -1.645912   -0.531386
     11          1           0       -0.184599   -2.507173   -0.171798
     12          1           0       -0.623352   -1.777687    1.387895
     13          1           0       -2.078803    0.805899   -1.136755
     14          1           0       -1.279300    2.132192    0.866794
     15          1           0       -1.585998    0.565315    1.642347
     16          1           0        1.034698    1.018939    1.820918
     17          1           0        0.560531    2.569963   -0.616059
     18          1           0        1.989418    1.482972   -0.628186
     19          1           0        0.279022    0.067394   -2.129957
 ---------------------------------------------------------------------
 Rotational constants (GHZ):      2.4987541      2.1792539      1.5762543
 1\1\GINC-ALCHEMY-P\FOpt\RB3LYP\6-31G(2df,p)\C7H10O2\PUCK\27-Jan-2020\0
 \\# b3lyp 6-31G(2df,p) opt Freq\\titel\\0,1\O,0.1474198567,0.260635760
 9,0.4320628638\C,-1.0813244484,0.9187818912,0.3249893955\C,-1.34479888
 79,2.0401409111,1.3363155956\O,-2.7693798331,2.1307781296,1.3955530384
 \C,-3.2539109131,1.3815942269,0.2695119438\C,-2.7258701713,2.047308219
 9,-1.0355888883\C,-1.447342568,1.1994422301,-1.1773835273\C,-2.0549934
 517,-0.2321240338,-1.2042681825\C,-2.4112458422,0.0842243788,0.2658573
 644\H,0.2186830924,-0.1066833728,1.3203062831\H,-0.954685595,1.7803510
 166,2.3304681947\H,-0.8959999712,2.9976998482,1.0374437702\H,-4.334765
 6291,1.2949438616,0.3721436486\H,-3.3908965024,1.9158880455,-1.8941320
 582\H,-2.5647631893,3.1169694874,-0.8814353074\H,-0.6804190976,1.51910
 01186,-1.8823203417\H,-2.8651760178,-0.4290578459,-1.9119869212\H,-1.2
 904764128,-1.0067344535,-1.2716545048\H,-2.6592007881,-0.6743828302,1.
 0088650334\\Version=ES64L-G09RevD.01\State=1-A\HF=-423.1750109\RMSD=5.
 040e-09\RMSF=4.466e-05\Dipole=0.0421149,-0.3332423,-0.0010734\Quadrupo
 le=-1.0073596,0.1155277,0.8918319,1.0937038,3.6769819,-2.7475387\PG=C0
 1 [X(C7H10O2)]\\@


 FROM AN ANONYMOUS WRITER, ON PERSPECTIVE:

 MAN, DESPITE HIS ARTISTIC PRETENSIONS, HIS SOPHISTICATION AND MANY 
 ACCOMPLISHMENTS, OWES THE FACT OF HIS EXISTENCE TO A SIX-INCH LAYER OF 
 TOPSOIL AND THE FACT THAT IT RAINS.
 Job cpu time:       0 days  0 hours  7 minutes 32.2 seconds.
 File lengths (MBytes):  RWF=     52 Int=      0 D2E=      0 Chk=      7 Scr=      1
 Normal termination of Gaussian 09 at Mon Jan 27 19:02:53 2020.
 Link1:  Proceeding to internal job step number  2.
 ----------------------------------------------------------------------
 #N Geom=AllCheck Guess=TCheck SCRF=Check GenChk RB3LYP/6-31G(2df,p) Fr
 eq
 ----------------------------------------------------------------------
 1/10=4,29=7,30=1,38=1,40=1/1,3;
 2/12=2,40=1/2;
 3/5=1,6=6,7=104,11=2,14=-4,16=1,25=1,30=1,70=2,71=2,74=-5,116=1,140=1/1,2,3;
 4/5=101/1;
 5/5=2,98=1/2;
 8/6=4,10=90,11=11/1;
 11/6=1,8=1,9=11,15=111,16=1/1,2,10;
 10/6=1/2;
 6/7=2,8=2,9=2,10=2,18=1,28=1/1;
 7/8=1,10=1,25=1/1,2,3,16;
 1/10=4,30=1/3;
 99//99;
 Structure from the checkpoint file:  "/scratch/puck/g09_8f5439bb-d885-4df8-a4c3-ed1466258e15/Gau-183472.chk"
 -----
 titel
 -----
 Charge =  0 Multiplicity = 1
 Redundant internal coordinates found in file.
 O,0,0.1474198567,0.2606357609,0.4320628638
 C,0,-1.0813244484,0.9187818912,0.3249893955
 C,0,-1.3447988879,2.0401409111,1.3363155956
 O,0,-2.7693798331,2.1307781296,1.3955530384
 C,0,-3.2539109131,1.3815942269,0.2695119438
 C,0,-2.7258701713,2.0473082199,-1.0355888883
 C,0,-1.447342568,1.1994422301,-1.1773835273
 C,0,-2.0549934517,-0.2321240338,-1.2042681825
 C,0,-2.4112458422,0.0842243788,0.2658573644
 H,0,0.2186830924,-0.1066833728,1.3203062831
 H,0,-0.954685595,1.7803510166,2.3304681947
 H,0,-0.8959999712,2.9976998482,1.0374437702
 H,0,-4.3347656291,1.2949438616,0.3721436486
 H,0,-3.3908965024,1.9158880455,-1.8941320582
 H,0,-2.5647631893,3.1169694874,-0.8814353074
 H,0,-0.6804190976,1.5191001186,-1.8823203417
 H,0,-2.8651760178,-0.4290578459,-1.9119869212
 H,0,-1.2904764128,-1.0067344535,-1.2716545048
 H,0,-2.6592007881,-0.6743828302,1.0088650334
 Recover connectivity data from disk.

 GradGradGradGradGradGradGradGradGradGradGradGradGradGradGradGradGradGrad
 Berny optimization.
 Initialization pass.
                           ----------------------------
                           !    Initial Parameters    !
                           ! (Angstroms and Degrees)  !
 --------------------------                            --------------------------
 ! Name  Definition              Value          Derivative Info.                !
 --------------------------------------------------------------------------------
 ! R1    R(1,2)                  1.398          calculate D2E/DX2 analytically  !
 ! R2    R(1,10)                 0.9638         calculate D2E/DX2 analytically  !
 ! R3    R(2,3)                  1.5329         calculate D2E/DX2 analytically  !
 ! R4    R(2,7)                  1.5716         calculate D2E/DX2 analytically  !
 ! R5    R(2,9)                  1.5712         calculate D2E/DX2 analytically  !
 ! R6    R(3,4)                  1.4287         calculate D2E/DX2 analytically  !
 ! R7    R(3,11)                 1.0991         calculate D2E/DX2 analytically  !
 ! R8    R(3,12)                 1.0989         calculate D2E/DX2 analytically  !
 ! R9    R(4,5)                  1.4367         calculate D2E/DX2 analytically  !
 ! R10   R(5,6)                  1.5573         calculate D2E/DX2 analytically  !
 ! R11   R(5,9)                  1.547          calculate D2E/DX2 analytically  !
 ! R12   R(5,13)                 1.0892         calculate D2E/DX2 analytically  !
 ! R13   R(6,7)                  1.5407         calculate D2E/DX2 analytically  !
 ! R14   R(6,14)                 1.0939         calculate D2E/DX2 analytically  !
 ! R15   R(6,15)                 1.0927         calculate D2E/DX2 analytically  !
 ! R16   R(7,8)                  1.5554         calculate D2E/DX2 analytically  !
 ! R17   R(7,16)                 1.0896         calculate D2E/DX2 analytically  !
 ! R18   R(8,9)                  1.5454         calculate D2E/DX2 analytically  !
 ! R19   R(8,17)                 1.0936         calculate D2E/DX2 analytically  !
[...]
 60141,-0.01126987,-0.00130779,0.18160301,0.00250136,-0.00318193,0.0002
 8466,0.01866188,-0.00585095,-0.00169050,-0.00443329,-0.01218913,-0.083
 45339,0.02337531,0.12200824,0.27373812,-0.00630983,-0.00506944,0.00000
 498,-0.04802365,0.02210516,-0.00004437,-0.04282101,-0.02036067,-0.0364
 9632,-0.09041222,0.00169920,0.00131503,0.71916376,-0.00711123,-0.00393
 882,-0.00289325,0.02152710,0.01335851,-0.00143410,-0.02128607,-0.00353
 258,0.00112019,-0.01936168,-0.08731558,-0.05269950,0.00602309,0.363596
 28,-0.00221449,-0.00412771,-0.00477290,-0.00114662,0.00523559,0.008966
 79,-0.02598078,0.00069381,-0.00327152,-0.02819787,-0.05315804,-0.13860
 005,-0.03920213,0.00444005,0.40219027,0.00008366,0.00081700,-0.0031103
 8,-0.01923152,0.01767391,-0.00965183,0.00267184,-0.00007111,-0.0013708
 2,0.00438971,0.00145277,-0.01646315,-0.08937310,-0.01691752,0.02665153
 ,0.44060926,-0.00131386,0.00117624,-0.00121679,0.00234626,-0.00383325,
 0.00447666,0.00244158,0.00303587,-0.00111630,-0.00006024,0.00611494,-0
 .02034852,-0.01362063,-0.08863572,0.03049580,0.01761299,0.60019904,-0.
 00010024,0.00370924,-0.00693780,-0.02495501,0.01631166,0.00040147,0.00
 143722,0.00022090,-0.00203694,-0.00220192,0.00170806,-0.04656806,0.018
 64406,0.02679282,-0.10946735,0.11552889,0.02735087,0.50151678,-0.01003
 372,0.01548849,-0.03313649,-0.06320611,0.00282463,0.00573087,0.0024797
 5,-0.00461142,-0.00215490,-0.00103430,-0.00050436,-0.00423658,-0.03190
 674,0.00026789,0.02296098,-0.13511301,0.03913082,0.00724679,0.53652289
 ,0.00550150,-0.00754250,0.01678424,0.00952245,-0.05412990,0.00262019,-
 0.00361668,0.00693970,-0.02164207,0.00064791,-0.00060190,0.00164558,-0
 .00840463,0.00657298,-0.00337559,0.04528365,-0.09910903,-0.00153273,0.
 04999672,0.41811797,-0.00535724,0.00332242,0.00040129,-0.00261328,0.01
 232232,-0.13391725,-0.00187952,0.00177797,-0.01451646,-0.00087060,0.00
 049299,0.00165517,0.03463910,-0.00755242,-0.01520924,0.00612106,-0.003
 10341,-0.07341252,-0.16135325,-0.08511240,0.49581318,-0.00012610,-0.00
 008736,-0.00033338,-0.01059878,-0.03668145,-0.03805693,-0.00566972,-0.
 00281393,-0.00286336,-0.00100458,0.00509840,0.00202120,-0.00074638,0.0
 1288222,0.02134014,0.00451684,0.02541233,0.00466508,-0.08655867,-0.033
 63995,-0.00060860,0.55488411,0.00082599,-0.00204039,0.00007333,-0.0160
 6012,-0.01581742,-0.02649815,0.00242335,-0.00215969,-0.00132354,-0.001
 30271,-0.00701639,-0.00363482,-0.00209834,-0.00790030,-0.01881161,0.00
 255547,-0.03906234,-0.01044547,-0.02816657,-0.13675088,-0.00128525,-0.
 08349608,0.50303890,0.00280866,-0.00098329,-0.00011062,-0.02308907,-0.
 04106602,-0.04268871,-0.00252177,-0.00040296,-0.00556811,0.00016497,0.
 00195881,0.00194089,-0.00038283,-0.01112847,-0.00495345,-0.00063467,0.
 00292329,0.00246622,0.00158048,-0.00103108,-0.05122848,0.11673567,0.09
 260273,0.46035934,-0.03358613,-0.00624923,0.00054087,-0.08094169,-0.02
 542544,-0.00818443,-0.00151157,-0.01072607,-0.00226469,0.00409331,0.00
 249989,0.00296926,-0.09744083,0.03403280,-0.00051401,0.00425436,-0.002
 04996,0.00062909,-0.01221690,-0.02744842,0.03062535,-0.06351730,0.0175
 2408,0.01700134,0.34566616,0.02254201,0.01380256,-0.00209590,-0.032606
 20,-0.09710651,0.00745960,-0.01334764,-0.02192528,-0.00287025,0.000069
 85,-0.02722419,-0.01729913,0.03288693,-0.11631682,0.01358848,0.0011669
 2,-0.02945878,0.01616110,-0.02907800,-0.02466687,0.03949865,0.01615010
 ,-0.06512057,-0.01580303,0.04015880,0.55006925,-0.00578617,-0.00081252
 ,0.00101732,-0.00015042,0.00394572,-0.05290509,-0.00927015,-0.02280805
 ,-0.00039321,0.00041078,-0.03965408,-0.01408246,-0.00063156,0.01872919
 ,-0.06787607,-0.00671431,0.02836517,-0.00663322,0.03477911,0.03809929,
 -0.04571831,0.01796485,-0.01126953,-0.15664110,-0.08283866,-0.13802403
 ,0.53914502,-0.03553567,0.01273845,0.00796498,-0.01131492,0.01916495,-
 0.04122791,0.00013529,0.00039862,-0.00007027,0.00063462,-0.00050612,0.
 00016531,0.00029552,0.00049419,-0.00041523,-0.00082028,-0.00033766,-0.
 00185834,-0.00475611,0.00339013,0.00184676,0.00031509,0.00023019,-0.00
 018252,0.00206548,-0.00028819,-0.00093668,0.04937758,0.03002129,-0.078
 38620,0.15903075,0.00312687,-0.01023122,0.02262607,0.00099361,-0.00039
 579,0.00199137,-0.00253189,-0.00008225,-0.00106527,-0.00013454,0.00107
 998,0.00138661,0.00009640,0.00016523,0.00083638,0.00248129,-0.00160081
 ,-0.00152444,-0.00047150,-0.00017330,-0.00049150,0.00082945,0.00232238
 ,-0.00194153,-0.03467342,0.08759540,-0.03502900,0.17950019,-0.43708374
 ,0.00034276,-0.00013565,-0.00618888,0.00243259,-0.00017323,0.00340670,
 0.00007497,-0.00075457,-0.00057488,0.00053392,0.00081434,0.00010337,-0
 .00019790,-0.00034872,-0.00082361,-0.00139764,0.00110051,0.00294756,-0
 .00000643,0.00029974,-0.00033376,0.00148984,-0.00193875,0.00082991,0.0
 3271098,-0.17857150,0.43855920,0.00148216,-0.00113056,0.00079019,0.001
 10084,-0.00352405,0.00495877,-0.06622870,0.01911548,-0.06585579,-0.029
 03417,0.00189339,-0.03192254,-0.00385529,0.00616428,0.00186228,-0.0006
 6227,-0.00039877,-0.00037494,0.00019232,0.00138399,0.00103428,0.000425
 13,-0.00019621,0.00051599,0.00099896,0.00031895,0.00007322,0.00028916,
 0.00000596,-0.00044657,0.08869995,-0.00226217,0.00244415,0.00075532,-0
 .00563032,0.00746444,-0.02250966,0.01767342,-0.06817605,0.05517529,0.0
 0403837,0.00512316,0.00058958,-0.00105001,-0.00228378,-0.00122167,0.00
 047775,-0.00031419,0.00037230,0.00095480,-0.00310327,-0.00146177,-0.00
 016817,0.00020322,-0.00090913,-0.00056259,0.00082824,0.00056124,0.0004
 2573,-0.00038458,0.00059241,-0.02037115,0.06565783,0.00086275,0.000737
 54,0.00326160,-0.00692117,0.00875657,-0.02057598,-0.07165436,0.0561336
 1,-0.25737431,-0.00427350,-0.00250678,0.00944936,0.00111651,0.00052695
 ,0.00041607,0.00082137,-0.00015072,0.00066394,0.00081311,-0.00331258,0
 .00078841,-0.00038092,-0.00020188,-0.00096979,-0.00046116,0.00013259,0
 .00011355,0.00083455,-0.00183816,-0.00058359,0.08251205,-0.05971055,0.
 27401055,0.00030944,-0.00136826,0.00013839,0.00560017,0.00617210,-0.00
 383887,-0.07687281,-0.07590836,0.02331263,-0.03227066,-0.02790829,0.00
 530114,-0.00112965,0.00031954,0.00644236,0.00032940,-0.00051004,-0.000
 27497,0.00032915,-0.00034234,-0.00028831,0.00064760,-0.00021896,0.0001
 1206,-0.00129817,0.00120438,0.00065109,0.00022515,-0.00014972,-0.00007
 828,0.00649153,0.00739848,-0.00253261,0.09807227,0.00206805,-0.0002466
 7,-0.00089470,-0.01082015,-0.01896933,0.00709605,-0.07992925,-0.243218
 07,0.06316122,-0.00211985,0.01048467,-0.00251665,0.00098645,-0.0001794
 7,0.00057155,-0.00031977,-0.00063058,0.00013636,0.00109309,0.00084130,
 0.00024451,-0.00058811,0.00015888,0.00010306,0.00160564,-0.00136859,-0
 .00178409,-0.00038674,0.00014300,-0.00008482,-0.00290101,-0.00718334,0
 .00237830,0.09171309,0.25903704,0.00101598,0.00023676,0.00009365,-0.01
 033675,-0.02022445,0.00683788,0.02423725,0.06421180,-0.07146904,0.0055
 1043,-0.00240096,0.00414667,-0.00067030,-0.00129616,-0.00129368,-0.000
 17137,0.00017558,0.00012225,-0.00000394,0.00083798,0.00117122,-0.00056
 965,0.00016174,0.00046669,0.00017159,-0.00310949,-0.00170082,0.0002579
 8,-0.00030023,-0.00042767,0.00842457,0.02828411,-0.00885313,-0.0272016
 9,-0.06726185,0.07195630,-0.00080014,-0.00010099,0.00019186,-0.0002792
 7,0.00144348,-0.00061341,0.00167423,-0.00112491,-0.00111393,-0.0118203
 1,-0.00298789,-0.00421217,-0.31734241,-0.01964126,0.02885747,-0.003652
 64,0.00135785,-0.00008224,0.00008833,-0.00061092,0.00088088,-0.0004404
 7,0.00009662,-0.00013735,-0.00787742,-0.00301345,0.00166524,0.00008816
 ,-0.00013717,0.00007527,-0.00047968,-0.00008898,0.00000494,-0.00038639
 ,-0.00000834,-0.00008462,0.34047569,0.00299948,0.00113454,0.00000706,0
 .00113494,-0.00593216,0.00059712,0.00039513,-0.00195727,-0.00288441,-0
 .02205083,-0.00264983,-0.00349915,-0.01443532,-0.05090103,0.00390164,-
 0.01331106,0.00149041,0.00011200,-0.00108606,-0.00141413,0.00216973,-0
 .00010796,0.00019675,0.00115190,0.02536872,0.00735962,-0.00212632,-0.0
 0025905,-0.00007327,-0.00034590,-0.00066132,0.00009686,0.00005399,-0.0
 0069475,0.00019413,0.00015578,0.02408280,0.05045417,-0.00001324,0.0004
 1684,0.00065698,-0.00069252,-0.00102887,-0.00143478,-0.00129488,-0.003
 31052,-0.00336599,-0.03263571,-0.00478271,-0.00236732,0.03781041,0.004
 20396,-0.05001709,0.02301794,-0.00044335,-0.00027670,0.00238775,0.0035
 5612,-0.00400406,-0.00023371,0.00063844,0.00042093,-0.00070952,0.00098
 695,0.00089420,0.00006838,-0.00016896,-0.00002051,-0.00122300,-0.00000
 445,0.00002597,-0.00099350,0.00005183,-0.00002059,-0.02633199,0.001679
 05,0.05877527,-0.00028748,0.00106497,-0.00233418,-0.00456867,0.0016394
 8,0.00367070,-0.00111534,0.00020203,0.00063587,0.00092455,-0.00055702,
 0.00519603,0.00919359,0.00360613,0.00868540,-0.14004249,-0.02273671,-0
 .12477431,-0.01658491,-0.00071558,-0.02414998,0.00109673,-0.00293727,-
 0.00006632,-0.00030675,-0.00037407,0.00042684,-0.00055350,0.00026716,-
 0.00021362,0.00023397,-0.00000841,-0.00008012,0.00017380,0.00004323,0.
 00005496,0.00063377,0.00066724,-0.00085416,0.15314581,0.00012687,-0.00
 049533,0.00144037,0.00313122,-0.00172117,-0.00175774,-0.00032924,-0.00
 058299,0.00015815,0.00024177,0.00093252,0.00139937,0.00767555,0.000505
 72,0.00664953,-0.02417486,-0.05287699,-0.02759327,0.00986648,-0.001507
 84,0.01323360,0.00258211,0.00165569,0.00134021,-0.00103859,0.00007566,
 0.00033278,0.00041843,-0.00008534,0.00023803,0.00022318,0.00009411,0.0
 0001086,0.00023506,0.00026493,0.00016296,-0.00005869,0.00098329,-0.000
 48711,0.02042377,0.05600982,0.00003525,0.00000463,0.00047849,0.0008831
 6,-0.00121169,0.00044335,0.00277703,0.00003503,0.00048100,-0.00002435,
 0.00192413,-0.00788408,-0.01720730,-0.00704591,-0.01287126,-0.12471947
 ,-0.02606860,-0.20921314,0.00316074,0.00147486,0.00556927,-0.00006661,
 0.00010205,0.00058315,0.00068833,0.00033919,-0.00056487,0.00014351,-0.
 00017761,0.00012920,-0.00035767,-0.00002507,-0.00005564,-0.00014244,-0
 .00019630,0.00021350,0.00051164,-0.00047185,0.00121229,0.13679209,0.02
 991204,0.22354263,0.00017703,-0.00012373,0.00011604,0.00104789,-0.0007
 5384,0.00095612,0.00068933,0.00078074,-0.00053452,0.00019757,0.0014341
 6,-0.00247453,-0.00289620,-0.01271048,-0.00358130,-0.05607913,-0.04160
 439,-0.00734886,0.00863870,0.02600181,0.00352036,-0.00537278,0.0035146
 1,0.00026076,-0.00046177,-0.00035336,0.00181547,0.00001275,-0.00000315
 ,0.00003902,-0.00004241,-0.00029227,0.00006637,-0.00027739,-0.00027315
 ,-0.00044583,-0.00011073,-0.00013816,0.00073183,-0.00307529,-0.0190295
 5,-0.00225839,0.05517870,0.00026856,0.00030033,0.00026144,-0.00062748,
 0.00007037,-0.00108650,0.00040640,-0.00084426,0.00033486,-0.00004038,0
 .00286557,-0.00168169,-0.00130935,-0.01209675,-0.00205251,-0.03950434,
 -0.29928375,-0.03793886,-0.00435739,-0.01155354,-0.00087389,0.00323242
 ,-0.00130278,-0.00001537,-0.00113443,-0.00081924,0.00092130,-0.0000467
 3,-0.00011692,-0.00002899,0.00010506,0.00028301,-0.00002201,0.00031594
 ,0.00059853,0.00015902,-0.00005354,-0.00035789,0.00054394,-0.00071401,
 -0.00288829,-0.00023709,0.04304202,0.32557094,-0.00013314,-0.00016515,
 -0.00003818,0.00058403,0.00065822,0.00039657,-0.00131355,0.00054739,-0
 .00051071,0.00053852,-0.00095889,0.00342813,0.00315688,0.02660720,0.00
 137096,-0.00882730,-0.04133608,-0.05095729,-0.00160448,-0.00501858,-0.
 00220561,0.00202022,-0.00117835,-0.00055329,0.00163832,0.00235849,-0.0
 0407587,0.00005913,0.00007230,0.00003954,0.00009777,-0.00006312,0.0001
 2131,-0.00044008,0.00024116,-0.00054570,0.00016230,0.00008452,-0.00062
 056,-0.00392526,-0.02435641,-0.00285296,0.00908499,0.04139728,0.056025
 57,0.00114423,-0.00103613,0.00190302,0.00799056,0.00345803,-0.00703755
 ,-0.00095959,0.00105638,0.00013136,0.00104317,0.00023643,0.00102506,-0
 .00414882,0.00141288,-0.00077012,-0.00989546,-0.00960748,0.01404496,-0
 .18522243,-0.05714741,0.12347143,-0.00348919,0.00258013,0.00361599,-0.
 00104940,-0.00024138,-0.00014362,0.00010350,-0.00021589,0.00020753,0.0
 0014670,-0.00028061,-0.00014776,0.00001968,-0.00013668,0.00022599,-0.0
 0009219,-0.00053250,0.00117995,-0.00006413,-0.00023274,-0.00042645,0.0
 0085854,0.00044513,-0.00009642,0.19265917,0.00041839,0.00024505,-0.000
 17989,-0.00122160,-0.00333951,0.00097145,0.00042218,0.00050447,-0.0000
 7329,-0.00041332,0.00065290,0.00003429,0.00521317,-0.00229918,0.000380
 70,0.01085675,0.00736958,-0.01412731,-0.05796408,-0.07053771,0.0489445
 5,-0.01366210,-0.00001888,0.01658138,-0.00169066,-0.00549345,0.0033658
 3,-0.00002343,-0.00005970,-0.00016968,-0.00005929,-0.00019491,-0.00010
 031,-0.00021238,0.00004286,0.00025005,0.00033719,0.00064481,-0.0012539
 0,-0.00026694,0.00018656,0.00043526,-0.00104483,0.00040324,0.00012254,
 0.06030344,0.07040046,-0.00079062,-0.00102496,0.00281646,0.02086044,0.
 00496910,-0.00825359,-0.00036673,0.00170130,-0.00009200,0.00006830,-0.
 00001845,0.00064441,-0.00037786,0.00083662,0.00049857,-0.00162626,-0.0
 0099437,0.00092532,0.12257664,0.04904081,-0.16498730,-0.00531531,0.000
 25358,0.00348659,0.00027928,0.00236581,-0.00438687,0.00009054,-0.00014
 411,0.00033680,0.00002968,-0.00047373,-0.00046122,-0.00016304,-0.00062
 229,-0.00007979,-0.00005580,-0.00004715,0.00003199,0.00030787,-0.00027
 844,0.00001400,0.00030645,-0.00011421,0.00009387,-0.13748305,-0.056685
 79,0.16867383,0.00071504,-0.00073194,-0.00052664,-0.00090628,-0.001282
 05,0.00070408,-0.00016707,0.00113591,-0.00040656,0.00030223,-0.0003209
 5,-0.00002304,0.00096284,-0.00035585,-0.00054719,0.00040200,0.00170511
 ,0.00056363,-0.00729904,0.00238265,-0.00673663,-0.19685856,-0.03139906
 ,-0.12443854,0.00956855,0.00114316,0.00598041,0.00002522,-0.00001499,0
 .00004661,0.00011730,-0.00021501,-0.00015630,-0.00006915,0.00013494,0.
 00006488,-0.00000947,-0.00019709,-0.00003402,0.00089958,-0.00006916,0.
 00009031,0.00001608,0.00000062,0.00038698,-0.00044216,-0.00065866,-0.0
 0035241,0.20759135,0.00004278,0.00098581,0.00051067,-0.00054463,-0.005
 39023,-0.00367722,-0.00144059,0.00077508,-0.00161209,0.00033286,0.0000
 6591,0.00045444,-0.00069381,0.00043838,-0.00084717,-0.00242062,0.00189
 566,-0.00065296,-0.01494222,-0.00107042,-0.01649167,-0.03041400,-0.056
 79868,-0.02470938,-0.00063086,-0.00314661,-0.00225696,-0.00006334,-0.0
 0002117,-0.00013925,0.00025561,-0.00036741,-0.00048412,-0.00004596,0.0
 0002912,0.00014412,0.00012329,0.00001996,-0.00005726,0.00079674,-0.000
 40497,0.00067042,0.00016704,0.00026407,0.00047112,-0.00035388,-0.00059
 199,-0.00017703,0.03378387,0.05831560,-0.00017250,0.00026131,0.0006832
 5,0.00099801,-0.00310454,-0.00529312,-0.00173956,-0.00094831,0.0005319
 3,0.00010668,0.00000179,0.00024300,-0.00087612,0.00186096,0.00080088,0
 .00018941,-0.00040134,0.00009419,0.00446250,-0.00032278,0.00190323,-0.
 12436665,-0.02612501,-0.15522253,-0.02077193,-0.00417927,-0.01034619,0
 .00020587,-0.00002368,0.00007300,-0.00000614,0.00002489,-0.00000503,0.
 00022158,-0.00048279,-0.00040437,0.00034030,-0.00041689,-0.00010259,0.
 00018433,-0.00038263,0.00044229,0.00022207,0.00003462,0.00015746,0.000
 18408,0.00013664,0.00016373,0.13897499,0.03389641,0.16541352,-0.000708
 69,-0.00149404,-0.00135034,-0.00037146,-0.00056006,0.00105884,-0.00023
 320,-0.00003231,-0.00011767,-0.00015768,0.00096274,0.00036544,0.000544
 01,-0.00151375,0.00185157,-0.00088269,-0.00262933,-0.00113794,0.010310
 64,-0.01014362,-0.00204414,-0.18415367,0.13852743,0.00690520,-0.006964
 71,0.00847388,0.00141930,-0.00005751,0.00017518,-0.00000695,0.00002561
 ,0.00000719,-0.00000609,0.00008885,0.00010249,0.00000219,-0.00006118,0
 .00012208,-0.00013925,0.00013950,-0.00009605,0.00037979,0.00101134,-0.
 00057046,-0.00014989,0.00056597,0.00096259,0.00042285,-0.01488458,0.01
 579333,0.00208613,0.19543707,-0.00050788,0.00139076,0.00091745,0.00241
 108,-0.00212882,0.00165095,0.00043245,-0.00010442,-0.00003072,-0.00057
 636,0.00024062,-0.00055777,-0.00072992,-0.00030972,0.00150771,-0.00231
 440,-0.00552312,-0.00158051,0.01948007,-0.01710581,-0.00415202,0.13501
 674,-0.17995246,-0.01424580,-0.00154391,0.00055667,0.00123237,-0.00011
 782,0.00031798,0.00002054,-0.00006530,0.00001316,-0.00016074,0.0000080
 0,0.00007570,0.00002839,0.00002915,-0.00000663,-0.00017106,-0.00035381
 ,0.00012800,0.00022406,0.00171343,-0.00074999,-0.00051930,-0.00008292,
 0.00128585,0.00068224,-0.00498589,0.00484131,0.00044451,-0.14780996,0.
 19679337,-0.00082203,0.00104246,-0.00024054,0.00284593,-0.00066143,-0.
 00003063,0.00103528,0.00022549,0.00005138,-0.00033161,-0.00314554,-0.0
 0136306,-0.00086684,0.00052796,-0.00513876,0.00059610,0.00213879,-0.00
 063290,-0.00479153,0.00550648,-0.00035284,0.00551012,-0.01153797,-0.04
 591865,0.02031460,-0.02450921,-0.00111607,-0.00011922,-0.00014041,-0.0
 0024039,-0.00014074,0.00001652,-0.00006383,-0.00017623,0.00000277,0.00
 001569,0.00021576,-0.00029680,0.00010169,0.00042301,-0.00002491,0.0003
 1594,-0.00040673,0.00033378,0.00063067,-0.00020387,-0.00046028,0.00010
 387,-0.01360765,0.01462402,0.00179644,-0.00946144,0.01526511,0.0508544
 8,0.00206179,0.00204947,-0.00088189,0.00262629,-0.01320064,0.01770810,
 -0.00128894,0.00037872,0.00090884,0.00074286,-0.00129537,0.00086827,0.
 00624641,0.01216770,-0.01608198,-0.00150449,0.00486214,0.00034907,-0.0
 0462985,-0.00204126,0.00376233,-0.00334930,-0.00240253,0.00175194,-0.0
 5947417,-0.04481271,0.04128526,-0.00052952,0.00033506,-0.00057708,0.00
 009889,-0.00004606,-0.00041766,0.00001720,-0.00026393,-0.00048167,0.00
 039212,-0.00129628,-0.00004077,0.00015728,0.00010444,-0.00025916,0.000
 48776,0.00054198,-0.00123903,0.00083184,-0.00129642,0.00158902,0.00003
 611,0.00025439,-0.00024306,0.00035238,-0.00000275,-0.00001290,0.056725
 35,-0.00045933,0.00120629,-0.00087227,0.00573828,-0.00536325,0.0069770
 6,-0.00035727,-0.00033270,0.00058783,0.00009400,0.00115362,-0.00160699
 ,-0.00868290,-0.00984212,0.01474284,0.00104009,-0.00271921,0.00015940,
 -0.00087419,-0.00177733,-0.00044948,0.00175630,0.00886063,-0.00587534,
 -0.04351921,-0.18236746,0.12512421,-0.00055820,-0.00001341,0.00012530,
 -0.00015824,-0.00020066,-0.00024255,-0.00000754,-0.00007413,-0.0002151
 5,0.00035575,0.00071767,-0.00036894,-0.00004694,-0.00027338,0.00031244
 ,-0.00032690,-0.00034266,0.00103565,0.00037519,0.00079953,0.00073109,-
 0.00005562,0.00016057,-0.00027389,-0.00027734,0.00023754,0.00109317,0.
 04596406,0.19017046,0.00128905,0.00000555,0.00043908,0.00115485,-0.004
 86571,0.00285511,-0.00044663,0.00019009,0.00035404,0.00059593,0.000505
 37,0.00105340,-0.00046525,-0.00241043,-0.00087554,0.00056117,-0.000397
 97,0.00076937,0.00297985,0.00068176,-0.00469726,0.00254426,0.01817996,
 -0.00553532,0.03939653,0.12693820,-0.17555983,0.00046220,0.00044391,-0
 .00014826,0.00002859,0.00000751,0.00009176,-0.00004925,-0.00014332,-0.
 00022908,-0.00027415,0.00017568,0.00011085,0.00002083,0.00000259,0.000
 01685,-0.00006931,0.00006488,0.00009610,0.00031947,0.00182776,0.000471
 31,0.00001707,0.00033392,-0.00092908,-0.00007758,-0.00055539,0.0012275
 1,-0.04798762,-0.14098438,0.18048900\\0.00002825,-0.00001991,-0.000011
 00,-0.00004611,0.00007003,-0.00000799,-0.00004874,-0.00001463,0.000026
 30,0.00004468,0.00003016,0.00007339,-0.00006781,0.00003308,-0.00015942
 ,-0.00007973,-0.00000328,0.00007064,0.00015999,-0.00004560,0.00004001,
 -0.00005842,-0.00002852,-0.00003268,0.00004823,-0.00005882,0.00006579,
 -0.00002271,0.00000228,0.00001152,-0.00000926,0.00000294,-0.00000347,0
 .00001348,0.00000158,-0.00001150,0.00001455,0.00001604,0.00000695,0.00
 001593,0.00000409,-0.00001964,0.00001769,0.00000008,-0.00001093,-0.000
 03561,0.00000043,0.00000532,0.00001272,0.00000695,0.00000086,0.0000092
 0,-0.00000497,0.00000264,0.00000367,0.00000807,-0.00004677\\\@


 EVANS BOLDLY PUT 50 ATM. OF ETHYLENE IN A CELL WITH 25 ATM. OF OXYGEN.
 THE APPARATUS SUBSEQUENTLY BLEW UP, BUT LUCKILY NOT BEFORE HE
 OBTAINED THE SPECTRA SHOWN IN FIGURE 8.
 A.J.MERER AND R.S.MULLIKEN, CHEM.REV. 69, 645 (1969)
 Job cpu time:       0 days  0 hours 44 minutes 29.2 seconds.
 File lengths (MBytes):  RWF=    152 Int=      0 D2E=      0 Chk=      8 Scr=      1
 Normal termination of Gaussian 09 at Mon Jan 27 19:47:19 2020.
