 Entering Gaussian System, Link 0=/home/puck/opt/gaussian_09/g09
 Input=dsC7O2H10nsd_5751.com
 Output=dsC7O2H10nsd_5751.log
 Initial command:
 /home/puck/opt/gaussian_09/l1.exe "/scratch/puck/g09_6e1a5ca6-d3ef-4f31-a0f5-36dc9152c8fa/Gau-94523.inp" -scrdir="/scratch/puck/g09_6e1a5ca6-d3ef-4f31-a0f5-36dc9152c8fa/"
 Entering Link 1 = /home/puck/opt/gaussian_09/l1.exe PID=     94524.
  
 Copyright (c) 1988,1990,1992,1993,1995,1998,2003,2009,2013,
            Gaussian, Inc.  All Rights Reserved.
  
 This is part of the Gaussian(R) 09 program.  It is based on
 the Gaussian(R) 03 system (copyright 2003, Gaussian, Inc.),
 the Gaussian(R) 98 system (copyright 1998, Gaussian, Inc.),
 the Gaussian(R) 94 system (copyright 1995, Gaussian, Inc.),
 the Gaussian 92(TM) system (copyright 1992, Gaussian, Inc.),
 the Gaussian 90(TM) system (copyright 1990, Gaussian, Inc.),
 the Gaussian 88(TM) system (copyright 1988, Gaussian, Inc.),
 the Gaussian 86(TM) system (copyright 1986, Carnegie Mellon
 University), and the Gaussian 82(TM) system (copyright 1983,
 Carnegie Mellon University). Gaussian is a federally registered
 trademark of Gaussian, Inc.
  
 This software contains proprietary and confidential information,
 including trade secrets, belonging to Gaussian, Inc.
  
 This software is provided under written license and may be
 used, copied, transmitted, or stored only in accord with that
 written license.
  
 The following legend is applicable only to US Government
 contracts under FAR:
  
                    RESTRICTED RIGHTS LEGEND
  
 Use, reproduction and disclosure by the US Government is
 subject to restrictions as set forth in subparagraphs (a)
 and (c) of the Commercial Computer Software - Restricted
 Rights clause in FAR 52.227-19.
  
 Gaussian, Inc.
 340 Quinnipiac St., Bldg. 40, Wallingford CT 06492
  
  
 ---------------------------------------------------------------
 Warning -- This program may not be used in any manner that
 competes with the business of Gaussian, Inc. or will provide
 assistance to any competitor of Gaussian, Inc.  The licensee
 of this program is prohibited from giving any competitor of
 Gaussian, Inc. access to this program.  By using this program,
 the user acknowledges that Gaussian, Inc. is engaged in the
 business of creating and licensing software in the field of
 computational chemistry and represents and warrants to the
 licensee that it is not a competitor of Gaussian, Inc. and that
 it will not use this program in any manner prohibited above.
 ---------------------------------------------------------------
  

 Cite this work as:
 Gaussian 09, Revision D.01,
 M. J. Frisch, G. W. Trucks, H. B. Schlegel, G. E. Scuseria, 
 M. A. Robb, J. R. Cheeseman, G. Scalmani, V. Barone, B. Mennucci, 
 G. A. Petersson, H. Nakatsuji, M. Caricato, X. Li, H. P. Hratchian, 
 A. F. Izmaylov, J. Bloino, G. Zheng, J. L. Sonnenberg, M. Hada, 
 M. Ehara, K. Toyota, R. Fukuda, J. Hasegawa, M. Ishida, T. Nakajima, 
 Y. Honda, O. Kitao, H. Nakai, T. Vreven, J. A. Montgomery, Jr., 
 J. E. Peralta, F. Ogliaro, M. Bearpark, J. J. Heyd, E. Brothers, 
 K. N. Kudin, V. N. Staroverov, T. Keith, R. Kobayashi, J. Normand, 
 K. Raghavachari, A. Rendell, J. C. Burant, S. S. Iyengar, J. Tomasi, 
 M. Cossi, N. Rega, J. M. Millam, M. Klene, J. E. Knox, J. B. Cross, 
 V. Bakken, C. Adamo, J. Jaramillo, R. Gomperts, R. E. Stratmann, 
 O. Yazyev, A. J. Austin, R. Cammi, C. Pomelli, J. W. Ochterski, 
 R. L. Martin, K. Morokuma, V. G. Zakrzewski, G. A. Voth, 
 P. Salvador, J. J. Dannenberg, S. Dapprich, A. D. Daniels, 
 O. Farkas, J. B. Foresman, J. V. Ortiz, J. Cioslowski, 
 and D. J. Fox, Gaussian, Inc., Wallingford CT, 2013.
 
 ******************************************
 Gaussian 09:  ES64L-G09RevD.01 24-Apr-2013
                28-Jan-2020 
 ******************************************
 -----------------------------
 # b3lyp 6-31G(2df,p) opt Freq
 -----------------------------
 1/14=-1,18=20,19=15,26=3,38=1/1,3;
 2/9=110,12=2,17=6,18=5,40=1/2;
 3/5=1,6=6,7=104,11=2,16=1,25=1,30=1,71=1,74=-5/1,2,3;
 4//1;
 5/5=2,38=5/2;
 6/7=2,8=2,9=2,10=2,28=1/1;
 7//1,2,3,16;
 1/14=-1,18=20,19=15,26=3/3(2);
 2/9=110/2;
 99//99;
 2/9=110/2;
 3/5=1,6=6,7=104,11=2,16=1,25=1,30=1,71=1,74=-5/1,2,3;
 4/5=5,16=3,69=1/1;
 5/5=2,38=5/2;
 7//1,2,3,16;
 1/14=-1,18=20,19=15,26=3/3(-5);
 2/9=110/2;
 6/7=2,8=2,9=2,10=2,19=2,28=1/1;
 99/9=1/99;
 -----
 titel
 -----
 Symbolic Z-matrix:
 Charge =  0 Multiplicity = 1
 O                     1.48778   0.64929   0.21359 
 C                     0.3929   -0.1453    0.63024 
 C                    -0.85862   0.69955   0.81129 
 O                    -0.55646   1.7303    1.77813 
 C                    -1.7633    2.01879   2.45416 
 C                    -2.39419   0.94887   3.32412 
 C                    -1.89555  -0.42088   2.87 
 C                    -2.11206   0.03336   1.38469 
 C                    -2.91903   1.25469   1.91311 
 H                     1.54056   1.3779    0.84314 
 H                     0.22326  -0.88959  -0.15564 
 H                     0.62209  -0.6839    1.56169 
 H                    -1.09589   1.17913  -0.15242 
 H                    -1.85579   3.05552   2.75446 
 H                    -2.84366   1.18592   4.282 
 H                    -0.88713  -0.71934   3.17169 
 H                    -2.59817  -1.2119    3.14211 
 H                    -2.60159  -0.67244   0.71498 
 H                    -3.86047   1.64998   1.55608 
 

 GradGradGradGradGradGradGradGradGradGradGradGradGradGradGradGradGradGrad
 Berny optimization.
 Initialization pass.
                           ----------------------------
                           !    Initial Parameters    !
                           ! (Angstroms and Degrees)  !
 --------------------------                            --------------------------
 ! Name  Definition              Value          Derivative Info.                !
 --------------------------------------------------------------------------------
 ! R1    R(1,2)                  1.4155         estimate D2E/DX2                !
 ! R2    R(1,10)                 0.9644         estimate D2E/DX2                !
 ! R3    R(2,3)                  1.5208         estimate D2E/DX2                !
 ! R4    R(2,11)                 1.0956         estimate D2E/DX2                !
 ! R5    R(2,12)                 1.1001         estimate D2E/DX2                !
 ! R6    R(3,4)                  1.4452         estimate D2E/DX2                !
 ! R7    R(3,8)                  1.5309         estimate D2E/DX2                !
 ! R8    R(3,13)                 1.1023         estimate D2E/DX2                !
 ! R9    R(4,5)                  1.4131         estimate D2E/DX2                !
 ! R10   R(5,6)                  1.5164         estimate D2E/DX2                !
 ! R11   R(5,9)                  1.4874         estimate D2E/DX2                !
 ! R12   R(5,14)                 1.0833         estimate D2E/DX2                !
 ! R13   R(6,7)                  1.5268         estimate D2E/DX2                !
 ! R14   R(6,9)                  1.5362         estimate D2E/DX2                !
 ! R15   R(6,15)                 1.0843         estimate D2E/DX2                !
 ! R16   R(7,8)                  1.5682         estimate D2E/DX2                !
 ! R17   R(7,16)                 1.0941         estimate D2E/DX2                !
 ! R18   R(7,17)                 1.0924         estimate D2E/DX2                !
 ! R19   R(8,9)                  1.5563         estimate D2E/DX2                !
 ! R20   R(8,18)                 1.0892         estimate D2E/DX2                !
 ! R21   R(9,19)                 1.0817         estimate D2E/DX2                !
 ! A1    A(2,1,10)             105.9196         estimate D2E/DX2                !
 ! A2    A(1,2,3)              111.0831         estimate D2E/DX2                !
 ! A3    A(1,2,11)             106.8561         estimate D2E/DX2                !
 ! A4    A(1,2,12)             111.278          estimate D2E/DX2                !
 ! A5    A(3,2,11)             109.5955         estimate D2E/DX2                !
 ! A6    A(3,2,12)             110.0375         estimate D2E/DX2                !
 ! A7    A(11,2,12)            107.8778         estimate D2E/DX2                !
 ! A8    A(2,3,4)              107.6866         estimate D2E/DX2                !
 ! A9    A(2,3,8)              118.4649         estimate D2E/DX2                !
 ! A10   A(2,3,13)             108.3458         estimate D2E/DX2                !
 ! A11   A(4,3,8)              103.355          estimate D2E/DX2                !
 ! A12   A(4,3,13)             108.639          estimate D2E/DX2                !
 ! A13   A(8,3,13)             109.9102         estimate D2E/DX2                !
 ! A14   A(3,4,5)              106.685          estimate D2E/DX2                !
 ! A15   A(4,5,6)              119.061          estimate D2E/DX2                !
 ! A16   A(4,5,9)              112.6267         estimate D2E/DX2                !
 ! A17   A(4,5,14)             113.6354         estimate D2E/DX2                !
 ! A18   A(6,5,14)             118.7294         estimate D2E/DX2                !
 ! A19   A(9,5,14)             121.7444         estimate D2E/DX2                !
 ! A20   A(5,6,7)              109.0552         estimate D2E/DX2                !
 ! A21   A(5,6,15)             121.6677         estimate D2E/DX2                !
 ! A22   A(7,6,9)               90.9737         estimate D2E/DX2                !
 ! A23   A(7,6,15)             126.4602         estimate D2E/DX2                !
 ! A24   A(9,6,15)             128.7736         estimate D2E/DX2                !
 ! A25   A(6,7,8)               88.6683         estimate D2E/DX2                !
 ! A26   A(6,7,16)             117.6288         estimate D2E/DX2                !
 ! A27   A(6,7,17)             111.4369         estimate D2E/DX2                !
 ! A28   A(8,7,16)             117.8672         estimate D2E/DX2                !
 ! A29   A(8,7,17)             110.907          estimate D2E/DX2                !
 ! A30   A(16,7,17)            109.0626         estimate D2E/DX2                !
 ! A31   A(3,8,7)              111.5769         estimate D2E/DX2                !
 ! A32   A(3,8,9)              102.1348         estimate D2E/DX2                !
 ! A33   A(3,8,18)             114.8144         estimate D2E/DX2                !
 ! A34   A(7,8,9)               88.6996         estimate D2E/DX2                !
 ! A35   A(7,8,18)             117.1754         estimate D2E/DX2                !
 ! A36   A(9,8,18)             118.964          estimate D2E/DX2                !
 ! A37   A(5,9,8)               97.1089         estimate D2E/DX2                !
 ! A38   A(5,9,19)             127.4898         estimate D2E/DX2                !
 ! A39   A(6,9,8)               88.767          estimate D2E/DX2                !
 ! A40   A(6,9,19)             132.3208         estimate D2E/DX2                !
 ! A41   A(8,9,19)             128.7557         estimate D2E/DX2                !
 ! D1    D(10,1,2,3)            52.1089         estimate D2E/DX2                !
 ! D2    D(10,1,2,11)          171.6062         estimate D2E/DX2                !
 ! D3    D(10,1,2,12)          -70.8626         estimate D2E/DX2                !
 ! D4    D(1,2,3,4)            -57.7428         estimate D2E/DX2                !
 ! D5    D(1,2,3,8)           -174.4011         estimate D2E/DX2                !
 ! D6    D(1,2,3,13)            59.5905         estimate D2E/DX2                !
 ! D7    D(11,2,3,4)          -175.5905         estimate D2E/DX2                !
 ! D8    D(11,2,3,8)            67.7512         estimate D2E/DX2                !
 ! D9    D(11,2,3,13)          -58.2572         estimate D2E/DX2                !
 ! D10   D(12,2,3,4)            65.94           estimate D2E/DX2                !
 ! D11   D(12,2,3,8)           -50.7183         estimate D2E/DX2                !
 ! D12   D(12,2,3,13)         -176.7267         estimate D2E/DX2                !
 ! D13   D(2,3,4,5)           -149.4558         estimate D2E/DX2                !
 ! D14   D(8,3,4,5)            -23.3077         estimate D2E/DX2                !
 ! D15   D(13,3,4,5)            93.4014         estimate D2E/DX2                !
 ! D16   D(2,3,8,7)             65.6518         estimate D2E/DX2                !
 ! D17   D(2,3,8,9)            159.0956         estimate D2E/DX2                !
 ! D18   D(2,3,8,18)           -70.7289         estimate D2E/DX2                !
 ! D19   D(4,3,8,7)            -53.2889         estimate D2E/DX2                !
 ! D20   D(4,3,8,9)             40.1549         estimate D2E/DX2                !
 ! D21   D(4,3,8,18)           170.3303         estimate D2E/DX2                !
 ! D22   D(13,3,8,7)          -169.0969         estimate D2E/DX2                !
 ! D23   D(13,3,8,9)           -75.6531         estimate D2E/DX2                !
 ! D24   D(13,3,8,18)           54.5224         estimate D2E/DX2                !
 ! D25   D(3,4,5,6)             65.6018         estimate D2E/DX2                !
 ! D26   D(3,4,5,9)             -3.3204         estimate D2E/DX2                !
 ! D27   D(3,4,5,14)          -146.8922         estimate D2E/DX2                !
 ! D28   D(4,5,6,7)            -22.5624         estimate D2E/DX2                !
 ! D29   D(4,5,6,15)           139.5686         estimate D2E/DX2                !
 ! D30   D(14,5,6,7)          -168.4211         estimate D2E/DX2                !
 ! D31   D(14,5,6,15)           -6.2901         estimate D2E/DX2                !
 ! D32   D(4,5,9,8)             27.4086         estimate D2E/DX2                !
 ! D33   D(4,5,9,19)          -125.5555         estimate D2E/DX2                !
 ! D34   D(14,5,9,8)           167.6392         estimate D2E/DX2                !
 ! D35   D(14,5,9,19)           14.6751         estimate D2E/DX2                !
 ! D36   D(5,6,7,8)            -43.7418         estimate D2E/DX2                !
 ! D37   D(5,6,7,16)            77.293          estimate D2E/DX2                !
 ! D38   D(5,6,7,17)          -155.7259         estimate D2E/DX2                !
 ! D39   D(9,6,7,8)             12.8972         estimate D2E/DX2                !
 ! D40   D(9,6,7,16)           133.932          estimate D2E/DX2                !
 ! D41   D(9,6,7,17)           -99.087          estimate D2E/DX2                !
 ! D42   D(15,6,7,8)           155.2063         estimate D2E/DX2                !
 ! D43   D(15,6,7,16)          -83.7589         estimate D2E/DX2                !
 ! D44   D(15,6,7,17)           43.2221         estimate D2E/DX2                !
 ! D45   D(7,6,9,8)            -12.9972         estimate D2E/DX2                !
 ! D46   D(7,6,9,19)           132.8196         estimate D2E/DX2                !
 ! D47   D(15,6,9,8)          -153.8934         estimate D2E/DX2                !
 ! D48   D(15,6,9,19)           -8.0766         estimate D2E/DX2                !
 ! D49   D(6,7,8,3)             89.8116         estimate D2E/DX2                !
 ! D50   D(6,7,8,9)            -12.7292         estimate D2E/DX2                !
 ! D51   D(6,7,8,18)          -134.9265         estimate D2E/DX2                !
 ! D52   D(16,7,8,3)           -31.0138         estimate D2E/DX2                !
 ! D53   D(16,7,8,9)          -133.5547         estimate D2E/DX2                !
 ! D54   D(16,7,8,18)          104.248          estimate D2E/DX2                !
 ! D55   D(17,7,8,3)          -157.7023         estimate D2E/DX2                !
 ! D56   D(17,7,8,9)            99.7569         estimate D2E/DX2                !
 ! D57   D(17,7,8,18)          -22.4404         estimate D2E/DX2                !
 ! D58   D(3,8,9,5)            -39.4138         estimate D2E/DX2                !
 ! D59   D(3,8,9,6)            -99.1509         estimate D2E/DX2                !
 ! D60   D(3,8,9,19)           113.0377         estimate D2E/DX2                !
 ! D61   D(7,8,9,5)             72.3864         estimate D2E/DX2                !
 ! D62   D(7,8,9,6)             12.6493         estimate D2E/DX2                !
 ! D63   D(7,8,9,19)          -135.1621         estimate D2E/DX2                !
 ! D64   D(18,8,9,5)          -166.9779         estimate D2E/DX2                !
 ! D65   D(18,8,9,6)           133.285          estimate D2E/DX2                !
 ! D66   D(18,8,9,19)          -14.5264         estimate D2E/DX2                !
 --------------------------------------------------------------------------------
 Trust Radius=3.00D-01 FncErr=1.00D-07 GrdErr=1.00D-06
 Number of steps in this run=    114 maximum allowed number of steps=    114.
 GradGradGradGradGradGradGradGradGradGradGradGradGradGradGradGradGradGrad

                          Input orientation:                          
 ---------------------------------------------------------------------
 Center     Atomic      Atomic             Coordinates (Angstroms)
 Number     Number       Type             X           Y           Z
 ---------------------------------------------------------------------
      1          8           0        1.487780    0.649291    0.213588
      2          6           0        0.392897   -0.145297    0.630237
      3          6           0       -0.858616    0.699553    0.811289
      4          8           0       -0.556455    1.730305    1.778128
      5          6           0       -1.763303    2.018787    2.454164
      6          6           0       -2.394186    0.948866    3.324118
      7          6           0       -1.895553   -0.420881    2.870003
      8          6           0       -2.112058    0.033359    1.384687
      9          6           0       -2.919034    1.254695    1.913115
     10          1           0        1.540555    1.377900    0.843137
     11          1           0        0.223263   -0.889594   -0.155640
     12          1           0        0.622095   -0.683900    1.561692
     13          1           0       -1.095886    1.179128   -0.152424
     14          1           0       -1.855792    3.055525    2.754460
     15          1           0       -2.843664    1.185924    4.282000
     16          1           0       -0.887127   -0.719336    3.171687
     17          1           0       -2.598166   -1.211900    3.142111
     18          1           0       -2.601589   -0.672438    0.714982
     19          1           0       -3.860473    1.649981    1.556080
 ---------------------------------------------------------------------
                    Distance matrix (angstroms):
                    1          2          3          4          5
     1  O    0.000000
     2  C    1.415534   0.000000
     3  C    2.421848   1.520801   0.000000
     4  O    2.792002   2.395162   1.445174   0.000000
     5  C    4.179144   3.557972   2.293006   1.413057   0.000000
     6  C    4.983453   4.027656   2.955409   2.525467   1.516432
     7  C    4.432691   3.213954   2.562989   2.759161   2.478385
     8  C    3.835320   2.622195   1.530920   2.335448   2.281959
     9  C    4.761819   3.817674   2.401567   2.413753   1.487376
    10  H    0.964359   1.919004   2.493429   2.322897   3.731169
    11  H    2.025710   1.095608   2.151930   3.348326   4.383629
    12  H    2.084273   1.100106   2.160915   2.695220   3.713644
    13  H    2.662710   2.140826   1.102286   2.078897   2.818648
    14  H    4.839986   4.451312   3.212612   2.097071   1.083308
    15  H    5.966688   5.057949   4.027755   3.434684   2.280752
    16  H    4.032825   2.902921   2.754186   2.837621   2.963081
    17  H    5.360526   4.048902   3.480290   3.832180   3.406994
    18  H    4.326812   3.041710   2.220268   3.329568   3.312125
    19  H    5.604237   4.708647   3.235610   3.312445   2.310994
                    6          7          8          9         10
     6  C    0.000000
     7  C    1.526781   0.000000
     8  C    2.163132   1.568239   0.000000
     9  C    1.536206   2.184193   1.556312   0.000000
    10  H    4.671351   4.376144   3.929714   4.587807   0.000000
    11  H    4.726488   3.723384   2.945874   4.330329   2.806126
    12  H    3.856166   2.849457   2.832205   4.052313   2.368736
    13  H    3.718192   3.512060   2.169816   2.756090   2.825151
    14  H    2.247752   3.478552   3.327978   2.254182   4.242965
    15  H    1.084328   2.339759   3.202824   2.371082   5.575304
    16  H    2.253300   1.094080   2.293551   3.099911   3.964113
    17  H    2.177991   1.092437   2.208056   2.774433   5.396421
    18  H    3.078836   2.281640   1.089172   2.291317   4.623599
    19  H    2.401566   3.142574   2.387424   1.081680   5.454670
                   11         12         13         14         15
    11  H    0.000000
    12  H    1.774995   0.000000
    13  H    2.453523   3.059498   0.000000
    14  H    5.324952   4.641758   3.542358   0.000000
    15  H    5.779833   4.786210   4.766435   2.608578   0.000000
    16  H    3.511845   2.207055   3.833728   3.919434   2.948025
    17  H    4.351954   3.625822   4.339104   4.348828   2.666304
    18  H    2.963937   3.333044   2.539258   4.314324   4.029359
    19  H    5.104539   5.053755   3.283844   2.725879   2.946165
                   16         17         18         19
    16  H    0.000000
    17  H    1.780771   0.000000
    18  H    2.996161   2.486361   0.000000
    19  H    4.130936   3.507032   2.772339   0.000000
 Stoichiometry    C7H10O2
 Framework group  C1[X(C7H10O2)]
 Deg. of freedom    51
 Full point group                 C1      NOp   1
 Largest Abelian subgroup         C1      NOp   1
 Largest concise Abelian subgroup C1      NOp   1
                         Standard orientation:                         
 ---------------------------------------------------------------------
 Center     Atomic      Atomic             Coordinates (Angstroms)
 Number     Number       Type             X           Y           Z
 ---------------------------------------------------------------------
      1          8           0        2.959043   -0.283307   -0.192018
      2          6           0        1.915184    0.661023   -0.042562
      3          6           0        0.685090    0.022269    0.583294
      4          8           0        0.283656   -1.078679   -0.262455
      5          6           0       -1.119292   -1.194167   -0.139455
      6          6           0       -1.998617   -0.069633   -0.651093
      7          6           0       -1.179960    1.217965   -0.705433
      8          6           0       -0.590893    0.859662    0.703109
      9          6           0       -1.688371   -0.234730    0.844372
     10          1           0        2.572167   -1.033689   -0.658110
     11          1           0        2.293583    1.451445    0.615012
     12          1           0        1.651877    1.120966   -1.006593
     13          1           0        0.966258   -0.376964    1.571520
     14          1           0       -1.479588   -2.212930   -0.216038
     15          1           0       -2.925578   -0.266586   -1.178085
     16          1           0       -0.479364    1.339049   -1.537008
     17          1           0       -1.820400    2.101050   -0.646995
     18          1           0       -0.545264    1.659249    1.441265
     19          1           0       -2.314119   -0.460042    1.697429
 ---------------------------------------------------------------------
 Rotational constants (GHZ):      3.7840285      1.2961200      1.1665215
 Standard basis: 6-31G(2df,p) (6D, 7F)
 There are   329 symmetry adapted cartesian basis functions of A   symmetry.
 There are   302 symmetry adapted basis functions of A   symmetry.
   302 basis functions,   466 primitive gaussians,   329 cartesian basis functions
    34 alpha electrons       34 beta electrons
       nuclear repulsion energy       477.4037786729 Hartrees.
 NAtoms=   19 NActive=   19 NUniq=   19 SFac= 1.00D+00 NAtFMM=   60 NAOKFM=F Big=F
 Integral buffers will be    131072 words long.
 Raffenetti 2 integral format.
 Two-electron integral symmetry is turned on.
 One-electron integrals computed using PRISM.
 NBasis=   302 RedAO= T EigKep=  3.81D-04  NBF=   302
 NBsUse=   302 1.00D-06 EigRej= -1.00D+00 NBFU=   302
 ExpMin= 1.61D-01 ExpMax= 5.48D+03 ExpMxC= 8.25D+02 IAcc=1 IRadAn=         1 AccDes= 0.00D+00
 Harris functional with IExCor=  402 and IRadAn=       1 diagonalized for initial guess.
 HarFok:  IExCor=  402 AccDes= 0.00D+00 IRadAn=         1 IDoV= 1 UseB2=F ITyADJ=14
 ICtDFT=  3500011 ScaDFX=  1.000000  1.000000  1.000000  1.000000
 FoFCou: FMM=F IPFlag=           0 FMFlag=      100000 FMFlg1=           0
         NFxFlg=           0 DoJE=T BraDBF=F KetDBF=T FulRan=T
         wScrn=  0.000000 ICntrl=     500 IOpCl=  0 I1Cent=   200000004 NGrid=           0
         NMat0=    1 NMatS0=      1 NMatT0=    0 NMatD0=    1 NMtDS0=    0 NMtDT0=    0
 Petite list used in FoFCou.
 Requested convergence on RMS density matrix=1.00D-08 within 128 cycles.
 Requested convergence on MAX density matrix=1.00D-06.
 Requested convergence on             energy=1.00D-06.
 No special actions if energy rises.
 Integral accuracy reduced to 1.0D-05 until final iterations.
 Initial convergence to 1.0D-05 achieved.  Increase integral accuracy.
 SCF Done:  E(RB3LYP) =  -423.149303134     A.U. after   13 cycles
            NFock= 13  Conv=0.41D-08     -V/T= 2.0074

 **********************************************************************

            Population analysis using the SCF density.

 **********************************************************************

 Orbital symmetries:
       Occupied  (A) (A) (A) (A) (A) (A) (A) (A) (A) (A) (A) (A)
                 (A) (A) (A) (A) (A) (A) (A) (A) (A) (A) (A) (A)
                 (A) (A) (A) (A) (A) (A) (A) (A) (A) (A)
       Virtual   (A) (A) (A) (A) (A) (A) (A) (A) (A) (A) (A) (A)
                 (A) (A) (A) (A) (A) (A) (A) (A) (A) (A) (A) (A)
                 (A) (A) (A) (A) (A) (A) (A) (A) (A) (A) (A) (A)
                 (A) (A) (A) (A) (A) (A) (A) (A) (A) (A) (A) (A)
                 (A) (A) (A) (A) (A) (A) (A) (A) (A) (A) (A) (A)
                 (A) (A) (A) (A) (A) (A) (A) (A) (A) (A) (A) (A)
                 (A) (A) (A) (A) (A) (A) (A) (A) (A) (A) (A) (A)
                 (A) (A) (A) (A) (A) (A) (A) (A) (A) (A) (A) (A)
                 (A) (A) (A) (A) (A) (A) (A) (A) (A) (A) (A) (A)
                 (A) (A) (A) (A) (A) (A) (A) (A) (A) (A) (A) (A)
                 (A) (A) (A) (A) (A) (A) (A) (A) (A) (A) (A) (A)
                 (A) (A) (A) (A) (A) (A) (A) (A) (A) (A) (A) (A)
                 (A) (A) (A) (A) (A) (A) (A) (A) (A) (A) (A) (A)
                 (A) (A) (A) (A) (A) (A) (A) (A) (A) (A) (A) (A)
                 (A) (A) (A) (A) (A) (A) (A) (A) (A) (A) (A) (A)
                 (A) (A) (A) (A) (A) (A) (A) (A) (A) (A) (A) (A)
                 (A) (A) (A) (A) (A) (A) (A) (A) (A) (A) (A) (A)
                 (A) (A) (A) (A) (A) (A) (A) (A) (A) (A) (A) (A)
                 (A) (A) (A) (A) (A) (A) (A) (A) (A) (A) (A) (A)
                 (A) (A) (A) (A) (A) (A) (A) (A) (A) (A) (A) (A)
                 (A) (A) (A) (A) (A) (A) (A) (A) (A) (A) (A) (A)
                 (A) (A) (A) (A) (A) (A) (A) (A) (A) (A) (A) (A)
                 (A) (A) (A) (A)
 The electronic state is 1-A.
 Alpha  occ. eigenvalues --  -19.14316 -19.12538 -10.23699 -10.22967 -10.22233
 Alpha  occ. eigenvalues --  -10.20074 -10.19569 -10.19444 -10.19019  -1.04781
 Alpha  occ. eigenvalues --   -1.00614  -0.88681  -0.77386  -0.69964  -0.66804
 Alpha  occ. eigenvalues --   -0.60700  -0.57259  -0.53979  -0.52688  -0.50789
 Alpha  occ. eigenvalues --   -0.46807  -0.45709  -0.43008  -0.42000  -0.40385
 Alpha  occ. eigenvalues --   -0.39236  -0.35569  -0.34544  -0.33786  -0.31985
 Alpha  occ. eigenvalues --   -0.31522  -0.26809  -0.25962  -0.23433
 Alpha virt. eigenvalues --    0.08417   0.10230   0.10372   0.10659   0.12380
 Alpha virt. eigenvalues --    0.13119   0.14035   0.15223   0.16276   0.16578
 Alpha virt. eigenvalues --    0.16668   0.18624   0.19610   0.21521   0.24058
 Alpha virt. eigenvalues --    0.24629   0.26160   0.27289   0.28036   0.30021
 Alpha virt. eigenvalues --    0.32774   0.42326   0.43705   0.45196   0.45819
 Alpha virt. eigenvalues --    0.47142   0.49460   0.51152   0.51840   0.52934
 Alpha virt. eigenvalues --    0.54198   0.55233   0.56954   0.58190   0.60156
 Alpha virt. eigenvalues --    0.61091   0.61668   0.64136   0.66112   0.66894
 Alpha virt. eigenvalues --    0.68917   0.70527   0.72583   0.74656   0.75122
 Alpha virt. eigenvalues --    0.76324   0.77296   0.77515   0.81194   0.82419
 Alpha virt. eigenvalues --    0.82762   0.86608   0.87379   0.89722   0.91274
 Alpha virt. eigenvalues --    0.92643   0.94665   0.96591   0.97966   0.99067
 Alpha virt. eigenvalues --    1.02079   1.03494   1.06802   1.08775   1.11211
 Alpha virt. eigenvalues --    1.12434   1.15689   1.17193   1.21828   1.22419
 Alpha virt. eigenvalues --    1.25965   1.28305   1.29069   1.31193   1.31557
 Alpha virt. eigenvalues --    1.35063   1.36544   1.38554   1.41141   1.43169
 Alpha virt. eigenvalues --    1.44393   1.45278   1.45971   1.49289   1.53814
 Alpha virt. eigenvalues --    1.54264   1.54957   1.56973   1.58764   1.59252
 Alpha virt. eigenvalues --    1.59848   1.62291   1.63421   1.65122   1.68934
 Alpha virt. eigenvalues --    1.70599   1.70890   1.73036   1.76082   1.77483
 Alpha virt. eigenvalues --    1.82090   1.84124   1.86339   1.88924   1.94117
 Alpha virt. eigenvalues --    1.96793   2.00997   2.07325   2.11242   2.15432
 Alpha virt. eigenvalues --    2.16049   2.20502   2.28123   2.30968   2.33940
 Alpha virt. eigenvalues --    2.34375   2.36936   2.38903   2.41833   2.44673
 Alpha virt. eigenvalues --    2.48908   2.53707   2.56805   2.58571   2.61070
 Alpha virt. eigenvalues --    2.61442   2.68015   2.70013   2.73232   2.75666
 Alpha virt. eigenvalues --    2.76242   2.78505   2.79115   2.81391   2.82791
 Alpha virt. eigenvalues --    2.86184   2.88206   2.91722   2.92414   2.94716
 Alpha virt. eigenvalues --    2.96315   2.98890   3.01325   3.03360   3.05173
 Alpha virt. eigenvalues --    3.06005   3.07383   3.07998   3.10890   3.13888
 Alpha virt. eigenvalues --    3.15640   3.18208   3.21059   3.21308   3.24873
 Alpha virt. eigenvalues --    3.26968   3.30746   3.33926   3.36587   3.37878
 Alpha virt. eigenvalues --    3.38574   3.39930   3.43614   3.45844   3.51066
 Alpha virt. eigenvalues --    3.53238   3.53610   3.57243   3.60323   3.63594
 Alpha virt. eigenvalues --    3.67892   3.70601   3.71906   3.77412   3.81426
 Alpha virt. eigenvalues --    3.84571   3.90846   3.92998   3.96343   3.99763
 Alpha virt. eigenvalues --    4.03589   4.06959   4.13696   4.16803   4.21578
 Alpha virt. eigenvalues --    4.25988   4.27435   4.28914   4.32099   4.32384
 Alpha virt. eigenvalues --    4.33152   4.35330   4.39190   4.40904   4.43172
 Alpha virt. eigenvalues --    4.43668   4.47011   4.47938   4.49999   4.52314
 Alpha virt. eigenvalues --    4.54228   4.54934   4.56591   4.59002   4.60545
 Alpha virt. eigenvalues --    4.61503   4.62808   4.64800   4.66576   4.69197
 Alpha virt. eigenvalues --    4.71123   4.73782   4.75148   4.77750   4.79586
 Alpha virt. eigenvalues --    4.80675   4.82740   4.85372   4.86279   4.87259
 Alpha virt. eigenvalues --    4.88150   4.91277   4.93375   4.94837   5.00362
 Alpha virt. eigenvalues --    5.03513   5.06778   5.07701   5.12072   5.16431
 Alpha virt. eigenvalues --    5.18438   5.27104   5.31451   5.35878   5.38905
 Alpha virt. eigenvalues --    5.40584   5.44974   5.48404   5.50303   5.51423
 Alpha virt. eigenvalues --    5.54134   5.57880   5.58787   5.68808   5.70840
 Alpha virt. eigenvalues --    5.77737   5.80318   5.84195   5.90178   5.98356
 Alpha virt. eigenvalues --    6.00709   6.08864   6.15104   6.20279   6.25714
 Alpha virt. eigenvalues --    6.49215   6.84807   7.04410   7.24604  10.66445
 Alpha virt. eigenvalues --   11.34304  11.70558  11.94478  12.05455  12.41633
 Alpha virt. eigenvalues --   12.78523  13.16201  13.65061
          Condensed to atoms (all electrons):
               1          2          3          4          5          6
     1  O    7.823157   0.371024  -0.036316  -0.006117   0.000325  -0.000015
     2  C    0.371024   4.778600   0.394939  -0.018658   0.006444   0.000454
     3  C   -0.036316   0.394939   4.769605   0.320594  -0.113932  -0.000896
     4  O   -0.006117  -0.018658   0.320594   7.752427   0.410271  -0.034622
     5  C    0.000325   0.006444  -0.113932   0.410271   4.711595   0.270543
     6  C   -0.000015   0.000454  -0.000896  -0.034622   0.270543   4.979661
     7  C    0.000047  -0.012061   0.000233   0.000363  -0.007285   0.376552
     8  C    0.003391  -0.015217   0.316117  -0.042281  -0.019255  -0.020887
     9  C   -0.000144   0.000800  -0.019673  -0.041960   0.300912   0.296833
    10  H    0.315192  -0.070108  -0.009219   0.017401  -0.000428   0.000040
    11  H   -0.018648   0.345118  -0.021027   0.002840  -0.000083  -0.000057
    12  H   -0.029786   0.342232  -0.029105  -0.003766  -0.000185  -0.000016
    13  H    0.001888  -0.047965   0.347259  -0.035606   0.000782  -0.000792
    14  H    0.000004  -0.000139   0.003281  -0.030375   0.391392  -0.061421
    15  H    0.000000   0.000004   0.000456   0.001186  -0.035318   0.371844
    16  H   -0.000071  -0.000926  -0.007744   0.002707   0.000740  -0.029764
    17  H    0.000000   0.000284   0.001857   0.000277   0.001717  -0.025638
    18  H   -0.000001   0.000896  -0.035871   0.002923   0.007256   0.005446
    19  H    0.000000  -0.000083   0.003001   0.001143  -0.038861  -0.030575
               7          8          9         10         11         12
     1  O    0.000047   0.003391  -0.000144   0.315192  -0.018648  -0.029786
     2  C   -0.012061  -0.015217   0.000800  -0.070108   0.345118   0.342232
     3  C    0.000233   0.316117  -0.019673  -0.009219  -0.021027  -0.029105
     4  O    0.000363  -0.042281  -0.041960   0.017401   0.002840  -0.003766
     5  C   -0.007285  -0.019255   0.300912  -0.000428  -0.000083  -0.000185
     6  C    0.376552  -0.020887   0.296833   0.000040  -0.000057  -0.000016
     7  C    4.953680   0.322208  -0.050956   0.000043   0.000197   0.001912
     8  C    0.322208   4.954149   0.364745   0.000295  -0.001968  -0.003282
     9  C   -0.050956   0.364745   4.993899   0.000129  -0.000177  -0.000073
    10  H    0.000043   0.000295   0.000129   0.447208   0.007165  -0.001733
    11  H    0.000197  -0.001968  -0.000177   0.007165   0.628489  -0.045730
    12  H    0.001912  -0.003282  -0.000073  -0.001733  -0.045730   0.665255
    13  H    0.006090  -0.058473   0.003609   0.000926  -0.001624   0.007965
    14  H    0.004122   0.003071  -0.036490  -0.000004   0.000007   0.000005
    15  H   -0.048050   0.007293  -0.025327   0.000000   0.000000   0.000010
    16  H    0.356877  -0.020080   0.001124  -0.000069   0.000014   0.007299
    17  H    0.365031  -0.020558   0.001430   0.000000  -0.000034  -0.000223
    18  H   -0.038562   0.369620  -0.038677  -0.000012   0.001418  -0.000195
    19  H    0.009193  -0.044435   0.376611   0.000000  -0.000003  -0.000002
              13         14         15         16         17         18
     1  O    0.001888   0.000004   0.000000  -0.000071   0.000000  -0.000001
     2  C   -0.047965  -0.000139   0.000004  -0.000926   0.000284   0.000896
     3  C    0.347259   0.003281   0.000456  -0.007744   0.001857  -0.035871
     4  O   -0.035606  -0.030375   0.001186   0.002707   0.000277   0.002923
     5  C    0.000782   0.391392  -0.035318   0.000740   0.001717   0.007256
     6  C   -0.000792  -0.061421   0.371844  -0.029764  -0.025638   0.005446
     7  C    0.006090   0.004122  -0.048050   0.356877   0.365031  -0.038562
     8  C   -0.058473   0.003071   0.007293  -0.020080  -0.020558   0.369620
     9  C    0.003609  -0.036490  -0.025327   0.001124   0.001430  -0.038677
    10  H    0.000926  -0.000004   0.000000  -0.000069   0.000000  -0.000012
    11  H   -0.001624   0.000007   0.000000   0.000014  -0.000034   0.001418
    12  H    0.007965   0.000005   0.000010   0.007299  -0.000223  -0.000195
    13  H    0.702716   0.000100   0.000048   0.000107  -0.000144  -0.001571
    14  H    0.000100   0.631793  -0.004241   0.000324  -0.000119  -0.000054
    15  H    0.000048  -0.004241   0.652097   0.001347  -0.002619  -0.000371
    16  H    0.000107   0.000324   0.001347   0.625511  -0.042232   0.002974
    17  H   -0.000144  -0.000119  -0.002619  -0.042232   0.621146  -0.006089
    18  H   -0.001571  -0.000054  -0.000371   0.002974  -0.006089   0.656109
    19  H    0.000057  -0.004284  -0.002842  -0.000488   0.000336  -0.003276
              19
     1  O    0.000000
     2  C   -0.000083
     3  C    0.003001
     4  O    0.001143
     5  C   -0.038861
     6  C   -0.030575
     7  C    0.009193
     8  C   -0.044435
     9  C    0.376611
    10  H    0.000000
    11  H   -0.000003
    12  H   -0.000002
    13  H    0.000057
    14  H   -0.004284
    15  H   -0.002842
    16  H   -0.000488
    17  H    0.000336
    18  H   -0.003276
    19  H    0.643413
 Mulliken charges:
               1
     1  O   -0.423929
     2  C   -0.075637
     3  C    0.116442
     4  O   -0.298748
     5  C    0.113370
     6  C   -0.096688
     7  C   -0.239637
     8  C   -0.094454
     9  C   -0.126615
    10  H    0.293172
    11  H    0.104106
    12  H    0.089417
    13  H    0.074629
    14  H    0.103028
    15  H    0.084484
    16  H    0.102350
    17  H    0.105578
    18  H    0.078038
    19  H    0.091096
 Sum of Mulliken charges =   0.00000
 Mulliken charges with hydrogens summed into heavy atoms:
               1
     1  O   -0.130757
     2  C    0.117885
     3  C    0.191071
     4  O   -0.298748
     5  C    0.216397
     6  C   -0.012205
     7  C   -0.031709
     8  C   -0.016416
     9  C   -0.035519
 Electronic spatial extent (au):  <R**2>=           1094.2139
 Charge=              0.0000 electrons
 Dipole moment (field-independent basis, Debye):
    X=             -2.5543    Y=              0.6170    Z=              0.4219  Tot=              2.6614
 Quadrupole moment (field-independent basis, Debye-Ang):
   XX=            -58.7423   YY=            -50.6649   ZZ=            -51.8862
   XY=              1.4510   XZ=             -0.5440   YZ=              0.9557
 Traceless Quadrupole moment (field-independent basis, Debye-Ang):
   XX=             -4.9778   YY=              3.0995   ZZ=              1.8783
   XY=              1.4510   XZ=             -0.5440   YZ=              0.9557
 Octapole moment (field-independent basis, Debye-Ang**2):
  XXX=            -21.3641  YYY=             -8.3493  ZZZ=             -0.0232  XYY=              5.2605
  XXY=             -5.5369  XXZ=             -2.8244  XZZ=              5.1837  YZZ=             -1.3297
  YYZ=             -1.1937  XYZ=              3.0281
 Hexadecapole moment (field-independent basis, Debye-Ang**3):
 XXXX=          -1019.5418 YYYY=           -284.8298 ZZZZ=           -186.5428 XXXY=              0.3163
 XXXZ=             -0.9571 YYYX=             -4.7618 YYYZ=              7.7255 ZZZX=             -8.2646
 ZZZY=              2.1879 XXYY=           -181.6304 XXZZ=           -174.0781 YYZZ=            -79.6780
 XXYZ=              8.9474 YYXZ=             -2.7360 ZZXY=             -2.4809
 N-N= 4.774037786729D+02 E-N=-1.941683488537D+03  KE= 4.200436557238D+02
 Calling FoFJK, ICntrl=      2127 FMM=F ISym2X=0 I1Cent= 0 IOpClX= 0 NMat=1 NMatS=1 NMatT=0.
 ***** Axes restored to original set *****
 -------------------------------------------------------------------
 Center     Atomic                   Forces (Hartrees/Bohr)
 Number     Number              X              Y              Z
 -------------------------------------------------------------------
      1        8           0.000001090    0.000001087    0.000002249
      2        6           0.000011273    0.000002953    0.000007464
      3        6           0.000014884    0.000041777    0.000008702
      4        8          -0.000016935   -0.000012662   -0.000014846
      5        6           0.000008978   -0.000004464    0.000023066
      6        6          -0.000009365   -0.000027022    0.000003807
      7        6           0.000014434    0.000006753   -0.000005804
      8        6          -0.000017385   -0.000020190   -0.000003229
      9        6          -0.000008996    0.000018563   -0.000009179
     10        1          -0.000000195    0.000000478    0.000012068
     11        1           0.000010404    0.000011953   -0.000005388
     12        1          -0.000004173   -0.000004354   -0.000002047
     13        1           0.000001516    0.000008480    0.000004447
     14        1           0.000002478   -0.000006121    0.000015636
     15        1          -0.000007123   -0.000006475   -0.000006016
     16        1          -0.000005891   -0.000012687   -0.000002643
     17        1          -0.000007100   -0.000005837   -0.000015044
     18        1           0.000006347    0.000006531   -0.000009147
     19        1           0.000005760    0.000001238   -0.000004097
 -------------------------------------------------------------------
 Cartesian Forces:  Max     0.000041777 RMS     0.000011548

 GradGradGradGradGradGradGradGradGradGradGradGradGradGradGradGradGradGrad
 Berny optimization.
 FormGI is forming the generalized inverse of G from B-inverse, IUseBI=4.
 Internal  Forces:  Max     0.000018618 RMS     0.000003513
 Search for a local minimum.
 Step number   1 out of a maximum of  114
 All quantities printed in internal units (Hartrees-Bohrs-Radians)
 Mixed Optimization -- En-DIIS/RFO-DIIS
 Second derivative matrix not updated -- first step.
 ITU=  0
     Eigenvalues ---    0.00491   0.00901   0.01285   0.01486   0.01649
     Eigenvalues ---    0.01760   0.02769   0.02917   0.03750   0.03935
     Eigenvalues ---    0.04362   0.04450   0.04808   0.05034   0.05493
     Eigenvalues ---    0.05932   0.05984   0.06495   0.08094   0.08249
     Eigenvalues ---    0.08600   0.10703   0.11535   0.11602   0.13886
     Eigenvalues ---    0.13994   0.14238   0.16000   0.17722   0.19382
     Eigenvalues ---    0.20687   0.22031   0.24568   0.25095   0.26780
     Eigenvalues ---    0.27860   0.30192   0.30290   0.33431   0.33670
     Eigenvalues ---    0.34173   0.34345   0.34532   0.34909   0.35476
     Eigenvalues ---    0.35598   0.35792   0.35866   0.40447   0.43140
     Eigenvalues ---    0.54546
 RFO step:  Lambda=-1.82590964D-08 EMin= 4.90796147D-03
 Linear search not attempted -- first point.
 Iteration  1 RMS(Cart)=  0.00006515 RMS(Int)=  0.00000000
 Iteration  2 RMS(Cart)=  0.00000000 RMS(Int)=  0.00000000
 Variable       Old X    -DE/DX   Delta X   Delta X   Delta X     New X
                                 (Linear)    (Quad)   (Total)
    R1        2.67497  -0.00001   0.00000  -0.00002  -0.00002   2.67495
    R2        1.82237   0.00000   0.00000   0.00000   0.00000   1.82237
    R3        2.87390   0.00001   0.00000   0.00004   0.00004   2.87393
    R4        2.07040   0.00000   0.00000  -0.00001  -0.00001   2.07039
    R5        2.07890   0.00000   0.00000   0.00000   0.00000   2.07890
    R6        2.73098  -0.00002   0.00000  -0.00005  -0.00005   2.73094
    R7        2.89302   0.00001   0.00000   0.00003   0.00003   2.89305
    R8        2.08302   0.00000   0.00000   0.00000   0.00000   2.08302
    R9        2.67029   0.00000   0.00000   0.00000   0.00000   2.67029
   R10        2.86564   0.00000   0.00000  -0.00001  -0.00001   2.86563
   R11        2.81073   0.00000   0.00000   0.00001   0.00001   2.81075
   R12        2.04716   0.00000   0.00000   0.00000   0.00000   2.04715
   R13        2.88520   0.00000   0.00000  -0.00003  -0.00003   2.88517
   R14        2.90301   0.00001   0.00000   0.00002   0.00002   2.90303
   R15        2.04908   0.00000   0.00000  -0.00001  -0.00001   2.04907
   R16        2.96354   0.00000   0.00000   0.00001   0.00001   2.96355
   R17        2.06751   0.00000   0.00000   0.00000   0.00000   2.06752
   R18        2.06441   0.00000   0.00000   0.00000   0.00000   2.06441
   R19        2.94100   0.00001   0.00000   0.00003   0.00003   2.94104
   R20        2.05824   0.00000   0.00000  -0.00001  -0.00001   2.05823
   R21        2.04408   0.00000   0.00000  -0.00001  -0.00001   2.04407
    A1        1.84865  -0.00001   0.00000  -0.00004  -0.00004   1.84861
    A2        1.93877   0.00000   0.00000   0.00001   0.00001   1.93877
    A3        1.86499  -0.00001   0.00000  -0.00007  -0.00007   1.86492
    A4        1.94217   0.00000   0.00000   0.00005   0.00005   1.94222
    A5        1.91280   0.00001   0.00000   0.00002   0.00002   1.91283
    A6        1.92052   0.00000   0.00000   0.00000   0.00000   1.92052
    A7        1.88282   0.00000   0.00000  -0.00001  -0.00001   1.88281
    A8        1.87949   0.00000   0.00000   0.00001   0.00001   1.87950
    A9        2.06760  -0.00001   0.00000  -0.00005  -0.00005   2.06755
   A10        1.89099   0.00000   0.00000   0.00004   0.00004   1.89103
   A11        1.80388   0.00000   0.00000  -0.00001  -0.00001   1.80387
   A12        1.89611   0.00000   0.00000   0.00003   0.00003   1.89614
   A13        1.91829   0.00000   0.00000  -0.00002  -0.00002   1.91828
   A14        1.86200   0.00001   0.00000   0.00005   0.00005   1.86206
   A15        2.07801   0.00000   0.00000   0.00008   0.00008   2.07808
   A16        1.96571   0.00000   0.00000  -0.00008  -0.00008   1.96562
   A17        1.98331   0.00000   0.00000  -0.00001  -0.00001   1.98330
   A18        2.07222   0.00000   0.00000  -0.00002  -0.00002   2.07220
   A19        2.12484   0.00000   0.00000   0.00004   0.00004   2.12488
   A20        1.90337   0.00000   0.00000  -0.00005  -0.00005   1.90332
   A21        2.12350   0.00000   0.00000  -0.00003  -0.00003   2.12347
   A22        1.58779   0.00000   0.00000   0.00006   0.00006   1.58785
   A23        2.20715   0.00000   0.00000   0.00005   0.00005   2.20720
   A24        2.24752   0.00000   0.00000  -0.00003  -0.00003   2.24750
   A25        1.54755   0.00000   0.00000  -0.00001  -0.00001   1.54755
   A26        2.05301   0.00000   0.00000   0.00003   0.00003   2.05304
   A27        1.94494   0.00000   0.00000  -0.00003  -0.00003   1.94491
   A28        2.05717   0.00000   0.00000   0.00006   0.00006   2.05723
   A29        1.93569   0.00000   0.00000  -0.00004  -0.00004   1.93565
   A30        1.90350   0.00000   0.00000  -0.00001  -0.00001   1.90349
   A31        1.94739   0.00000   0.00000  -0.00001  -0.00001   1.94737
   A32        1.78259   0.00000   0.00000  -0.00006  -0.00006   1.78252
   A33        2.00389   0.00000   0.00000  -0.00001  -0.00001   2.00388
   A34        1.54810   0.00000   0.00000   0.00004   0.00004   1.54814
   A35        2.04510   0.00000   0.00000   0.00000   0.00000   2.04510
   A36        2.07631   0.00000   0.00000   0.00005   0.00005   2.07636
   A37        1.69487   0.00000   0.00000   0.00001   0.00001   1.69488
   A38        2.22512   0.00000   0.00000   0.00001   0.00001   2.22512
   A39        1.54928   0.00000   0.00000  -0.00003  -0.00003   1.54925
   A40        2.30943   0.00000   0.00000   0.00003   0.00003   2.30946
   A41        2.24721   0.00000   0.00000  -0.00001  -0.00001   2.24720
    D1        0.90947   0.00000   0.00000  -0.00001  -0.00001   0.90946
    D2        2.99509   0.00000   0.00000  -0.00002  -0.00002   2.99508
    D3       -1.23679   0.00000   0.00000  -0.00005  -0.00005  -1.23683
    D4       -1.00780   0.00000   0.00000  -0.00001  -0.00001  -1.00781
    D5       -3.04387   0.00000   0.00000   0.00003   0.00003  -3.04385
    D6        1.04005   0.00000   0.00000   0.00006   0.00006   1.04011
    D7       -3.06463   0.00000   0.00000   0.00006   0.00006  -3.06458
    D8        1.18248   0.00000   0.00000   0.00009   0.00009   1.18257
    D9       -1.01678   0.00000   0.00000   0.00012   0.00012  -1.01666
   D10        1.15087   0.00000   0.00000   0.00006   0.00006   1.15093
   D11       -0.88520   0.00000   0.00000   0.00009   0.00009  -0.88511
   D12       -3.08446   0.00000   0.00000   0.00012   0.00012  -3.08434
   D13       -2.60850   0.00001   0.00000   0.00010   0.00010  -2.60840
   D14       -0.40680   0.00000   0.00000   0.00004   0.00004  -0.40676
   D15        1.63016   0.00000   0.00000   0.00003   0.00003   1.63019
   D16        1.14584   0.00000   0.00000   0.00001   0.00001   1.14585
   D17        2.77674   0.00000   0.00000   0.00002   0.00002   2.77676
   D18       -1.23445   0.00000   0.00000   0.00003   0.00003  -1.23443
   D19       -0.93007   0.00000   0.00000   0.00003   0.00003  -0.93004
   D20        0.70083   0.00000   0.00000   0.00004   0.00004   0.70088
   D21        2.97282   0.00000   0.00000   0.00005   0.00005   2.97287
   D22       -2.95130   0.00000   0.00000   0.00001   0.00001  -2.95129
   D23       -1.32040   0.00000   0.00000   0.00002   0.00002  -1.32038
   D24        0.95159   0.00000   0.00000   0.00002   0.00002   0.95162
   D25        1.14497   0.00000   0.00000  -0.00015  -0.00015   1.14482
   D26       -0.05795   0.00000   0.00000  -0.00014  -0.00014  -0.05809
   D27       -2.56375   0.00000   0.00000  -0.00007  -0.00007  -2.56383
   D28       -0.39379   0.00001   0.00000   0.00024   0.00024  -0.39355
   D29        2.43593   0.00001   0.00000   0.00015   0.00015   2.43608
   D30       -2.93950   0.00000   0.00000   0.00016   0.00016  -2.93934
   D31       -0.10978   0.00000   0.00000   0.00007   0.00007  -0.10971
   D32        0.47837   0.00001   0.00000   0.00017   0.00017   0.47854
   D33       -2.19136   0.00000   0.00000   0.00016   0.00016  -2.19120
   D34        2.92586   0.00000   0.00000   0.00008   0.00008   2.92593
   D35        0.25613   0.00000   0.00000   0.00007   0.00007   0.25620
   D36       -0.76344   0.00000   0.00000  -0.00016  -0.00016  -0.76360
   D37        1.34902   0.00000   0.00000  -0.00008  -0.00008   1.34894
   D38       -2.71793   0.00000   0.00000  -0.00010  -0.00010  -2.71803
   D39        0.22510   0.00000   0.00000  -0.00012  -0.00012   0.22498
   D40        2.33755   0.00000   0.00000  -0.00004  -0.00004   2.33751
   D41       -1.72939   0.00000   0.00000  -0.00007  -0.00007  -1.72946
   D42        2.70886   0.00000   0.00000  -0.00004  -0.00004   2.70882
   D43       -1.46187   0.00000   0.00000   0.00003   0.00003  -1.46184
   D44        0.75437   0.00000   0.00000   0.00001   0.00001   0.75438
   D45       -0.22684   0.00000   0.00000   0.00012   0.00012  -0.22672
   D46        2.31814   0.00000   0.00000   0.00010   0.00010   2.31824
   D47       -2.68595   0.00000   0.00000   0.00000   0.00000  -2.68595
   D48       -0.14096   0.00000   0.00000  -0.00003  -0.00003  -0.14099
   D49        1.56751   0.00000   0.00000   0.00007   0.00007   1.56757
   D50       -0.22217   0.00000   0.00000   0.00012   0.00012  -0.22205
   D51       -2.35491   0.00000   0.00000   0.00004   0.00004  -2.35487
   D52       -0.54129   0.00000   0.00000   0.00001   0.00001  -0.54128
   D53       -2.33097   0.00000   0.00000   0.00007   0.00007  -2.33090
   D54        1.81947   0.00000   0.00000  -0.00001  -0.00001   1.81946
   D55       -2.75242   0.00000   0.00000   0.00002   0.00002  -2.75240
   D56        1.74109   0.00000   0.00000   0.00008   0.00008   1.74116
   D57       -0.39166   0.00000   0.00000   0.00000   0.00000  -0.39166
   D58       -0.68790   0.00000   0.00000  -0.00013  -0.00013  -0.68803
   D59       -1.73051   0.00000   0.00000  -0.00011  -0.00011  -1.73062
   D60        1.97288   0.00000   0.00000  -0.00011  -0.00011   1.97277
   D61        1.26338   0.00000   0.00000  -0.00014  -0.00014   1.26324
   D62        0.22077   0.00000   0.00000  -0.00012  -0.00012   0.22065
   D63       -2.35902   0.00000   0.00000  -0.00012  -0.00012  -2.35915
   D64       -2.91431   0.00000   0.00000  -0.00010  -0.00010  -2.91441
   D65        2.32626   0.00000   0.00000  -0.00008  -0.00008   2.32618
   D66       -0.25353   0.00000   0.00000  -0.00008  -0.00008  -0.25362
         Item               Value     Threshold  Converged?
 Maximum Force            0.000019     0.000450     YES
 RMS     Force            0.000004     0.000300     YES
 Maximum Displacement     0.000270     0.001800     YES
 RMS     Displacement     0.000065     0.001200     YES
 Predicted change in Energy=-9.129671D-09
 Optimization completed.
    -- Stationary point found.
                           ----------------------------
                           !   Optimized Parameters   !
                           ! (Angstroms and Degrees)  !
 --------------------------                            --------------------------
 ! Name  Definition              Value          Derivative Info.                !
 --------------------------------------------------------------------------------
 ! R1    R(1,2)                  1.4155         -DE/DX =    0.0                 !
 ! R2    R(1,10)                 0.9644         -DE/DX =    0.0                 !
 ! R3    R(2,3)                  1.5208         -DE/DX =    0.0                 !
 ! R4    R(2,11)                 1.0956         -DE/DX =    0.0                 !
 ! R5    R(2,12)                 1.1001         -DE/DX =    0.0                 !
 ! R6    R(3,4)                  1.4452         -DE/DX =    0.0                 !
 ! R7    R(3,8)                  1.5309         -DE/DX =    0.0                 !
 ! R8    R(3,13)                 1.1023         -DE/DX =    0.0                 !
 ! R9    R(4,5)                  1.4131         -DE/DX =    0.0                 !
 ! R10   R(5,6)                  1.5164         -DE/DX =    0.0                 !
 ! R11   R(5,9)                  1.4874         -DE/DX =    0.0                 !
 ! R12   R(5,14)                 1.0833         -DE/DX =    0.0                 !
 ! R13   R(6,7)                  1.5268         -DE/DX =    0.0                 !
 ! R14   R(6,9)                  1.5362         -DE/DX =    0.0                 !
 ! R15   R(6,15)                 1.0843         -DE/DX =    0.0                 !
 ! R16   R(7,8)                  1.5682         -DE/DX =    0.0                 !
 ! R17   R(7,16)                 1.0941         -DE/DX =    0.0                 !
 ! R18   R(7,17)                 1.0924         -DE/DX =    0.0                 !
 ! R19   R(8,9)                  1.5563         -DE/DX =    0.0                 !
 ! R20   R(8,18)                 1.0892         -DE/DX =    0.0                 !
 ! R21   R(9,19)                 1.0817         -DE/DX =    0.0                 !
 ! A1    A(2,1,10)             105.9196         -DE/DX =    0.0                 !
 ! A2    A(1,2,3)              111.0831         -DE/DX =    0.0                 !
 ! A3    A(1,2,11)             106.8561         -DE/DX =    0.0                 !
 ! A4    A(1,2,12)             111.278          -DE/DX =    0.0                 !
 ! A5    A(3,2,11)             109.5955         -DE/DX =    0.0                 !
 ! A6    A(3,2,12)             110.0375         -DE/DX =    0.0                 !
 ! A7    A(11,2,12)            107.8778         -DE/DX =    0.0                 !
 ! A8    A(2,3,4)              107.6866         -DE/DX =    0.0                 !
 ! A9    A(2,3,8)              118.4649         -DE/DX =    0.0                 !
 ! A10   A(2,3,13)             108.3458         -DE/DX =    0.0                 !
 ! A11   A(4,3,8)              103.355          -DE/DX =    0.0                 !
 ! A12   A(4,3,13)             108.639          -DE/DX =    0.0                 !
 ! A13   A(8,3,13)             109.9102         -DE/DX =    0.0                 !
 ! A14   A(3,4,5)              106.685          -DE/DX =    0.0                 !
 ! A15   A(4,5,6)              119.061          -DE/DX =    0.0                 !
 ! A16   A(4,5,9)              112.6267         -DE/DX =    0.0                 !
 ! A17   A(4,5,14)             113.6354         -DE/DX =    0.0                 !
 ! A18   A(6,5,14)             118.7294         -DE/DX =    0.0                 !
 ! A19   A(9,5,14)             121.7444         -DE/DX =    0.0                 !
 ! A20   A(5,6,7)              109.0552         -DE/DX =    0.0                 !
 ! A21   A(5,6,15)             121.6677         -DE/DX =    0.0                 !
 ! A22   A(7,6,9)               90.9737         -DE/DX =    0.0                 !
 ! A23   A(7,6,15)             126.4602         -DE/DX =    0.0                 !
 ! A24   A(9,6,15)             128.7736         -DE/DX =    0.0                 !
 ! A25   A(6,7,8)               88.6683         -DE/DX =    0.0                 !
 ! A26   A(6,7,16)             117.6288         -DE/DX =    0.0                 !
 ! A27   A(6,7,17)             111.4369         -DE/DX =    0.0                 !
 ! A28   A(8,7,16)             117.8672         -DE/DX =    0.0                 !
 ! A29   A(8,7,17)             110.907          -DE/DX =    0.0                 !
 ! A30   A(16,7,17)            109.0626         -DE/DX =    0.0                 !
 ! A31   A(3,8,7)              111.5769         -DE/DX =    0.0                 !
 ! A32   A(3,8,9)              102.1348         -DE/DX =    0.0                 !
 ! A33   A(3,8,18)             114.8144         -DE/DX =    0.0                 !
 ! A34   A(7,8,9)               88.6996         -DE/DX =    0.0                 !
 ! A35   A(7,8,18)             117.1754         -DE/DX =    0.0                 !
 ! A36   A(9,8,18)             118.964          -DE/DX =    0.0                 !
 ! A37   A(5,9,8)               97.1089         -DE/DX =    0.0                 !
 ! A38   A(5,9,19)             127.4898         -DE/DX =    0.0                 !
 ! A39   A(6,9,8)               88.767          -DE/DX =    0.0                 !
 ! A40   A(6,9,19)             132.3208         -DE/DX =    0.0                 !
 ! A41   A(8,9,19)             128.7557         -DE/DX =    0.0                 !
 ! D1    D(10,1,2,3)            52.1089         -DE/DX =    0.0                 !
 ! D2    D(10,1,2,11)          171.6062         -DE/DX =    0.0                 !
 ! D3    D(10,1,2,12)          -70.8626         -DE/DX =    0.0                 !
 ! D4    D(1,2,3,4)            -57.7428         -DE/DX =    0.0                 !
 ! D5    D(1,2,3,8)           -174.4011         -DE/DX =    0.0                 !
 ! D6    D(1,2,3,13)            59.5905         -DE/DX =    0.0                 !
 ! D7    D(11,2,3,4)          -175.5905         -DE/DX =    0.0                 !
 ! D8    D(11,2,3,8)            67.7512         -DE/DX =    0.0                 !
 ! D9    D(11,2,3,13)          -58.2572         -DE/DX =    0.0                 !
 ! D10   D(12,2,3,4)            65.94           -DE/DX =    0.0                 !
 ! D11   D(12,2,3,8)           -50.7183         -DE/DX =    0.0                 !
 ! D12   D(12,2,3,13)         -176.7267         -DE/DX =    0.0                 !
 ! D13   D(2,3,4,5)           -149.4558         -DE/DX =    0.0                 !
 ! D14   D(8,3,4,5)            -23.3077         -DE/DX =    0.0                 !
 ! D15   D(13,3,4,5)            93.4014         -DE/DX =    0.0                 !
 ! D16   D(2,3,8,7)             65.6518         -DE/DX =    0.0                 !
 ! D17   D(2,3,8,9)            159.0956         -DE/DX =    0.0                 !
 ! D18   D(2,3,8,18)           -70.7289         -DE/DX =    0.0                 !
 ! D19   D(4,3,8,7)            -53.2889         -DE/DX =    0.0                 !
 ! D20   D(4,3,8,9)             40.1549         -DE/DX =    0.0                 !
 ! D21   D(4,3,8,18)           170.3303         -DE/DX =    0.0                 !
 ! D22   D(13,3,8,7)          -169.0969         -DE/DX =    0.0                 !
 ! D23   D(13,3,8,9)           -75.6531         -DE/DX =    0.0                 !
 ! D24   D(13,3,8,18)           54.5224         -DE/DX =    0.0                 !
 ! D25   D(3,4,5,6)             65.6018         -DE/DX =    0.0                 !
 ! D26   D(3,4,5,9)             -3.3204         -DE/DX =    0.0                 !
 ! D27   D(3,4,5,14)          -146.8922         -DE/DX =    0.0                 !
 ! D28   D(4,5,6,7)            -22.5624         -DE/DX =    0.0                 !
 ! D29   D(4,5,6,15)           139.5686         -DE/DX =    0.0                 !
 ! D30   D(14,5,6,7)          -168.4211         -DE/DX =    0.0                 !
 ! D31   D(14,5,6,15)           -6.2901         -DE/DX =    0.0                 !
 ! D32   D(4,5,9,8)             27.4086         -DE/DX =    0.0                 !
 ! D33   D(4,5,9,19)          -125.5555         -DE/DX =    0.0                 !
 ! D34   D(14,5,9,8)           167.6392         -DE/DX =    0.0                 !
 ! D35   D(14,5,9,19)           14.6751         -DE/DX =    0.0                 !
 ! D36   D(5,6,7,8)            -43.7418         -DE/DX =    0.0                 !
 ! D37   D(5,6,7,16)            77.293          -DE/DX =    0.0                 !
 ! D38   D(5,6,7,17)          -155.7259         -DE/DX =    0.0                 !
 ! D39   D(9,6,7,8)             12.8972         -DE/DX =    0.0                 !
 ! D40   D(9,6,7,16)           133.932          -DE/DX =    0.0                 !
 ! D41   D(9,6,7,17)           -99.087          -DE/DX =    0.0                 !
 ! D42   D(15,6,7,8)           155.2063         -DE/DX =    0.0                 !
 ! D43   D(15,6,7,16)          -83.7589         -DE/DX =    0.0                 !
 ! D44   D(15,6,7,17)           43.2221         -DE/DX =    0.0                 !
 ! D45   D(7,6,9,8)            -12.9972         -DE/DX =    0.0                 !
 ! D46   D(7,6,9,19)           132.8196         -DE/DX =    0.0                 !
 ! D47   D(15,6,9,8)          -153.8934         -DE/DX =    0.0                 !
 ! D48   D(15,6,9,19)           -8.0766         -DE/DX =    0.0                 !
 ! D49   D(6,7,8,3)             89.8116         -DE/DX =    0.0                 !
 ! D50   D(6,7,8,9)            -12.7292         -DE/DX =    0.0                 !
 ! D51   D(6,7,8,18)          -134.9265         -DE/DX =    0.0                 !
 ! D52   D(16,7,8,3)           -31.0138         -DE/DX =    0.0                 !
 ! D53   D(16,7,8,9)          -133.5547         -DE/DX =    0.0                 !
 ! D54   D(16,7,8,18)          104.248          -DE/DX =    0.0                 !
 ! D55   D(17,7,8,3)          -157.7023         -DE/DX =    0.0                 !
 ! D56   D(17,7,8,9)            99.7569         -DE/DX =    0.0                 !
 ! D57   D(17,7,8,18)          -22.4404         -DE/DX =    0.0                 !
 ! D58   D(3,8,9,5)            -39.4138         -DE/DX =    0.0                 !
 ! D59   D(3,8,9,6)            -99.1509         -DE/DX =    0.0                 !
 ! D60   D(3,8,9,19)           113.0377         -DE/DX =    0.0                 !
 ! D61   D(7,8,9,5)             72.3864         -DE/DX =    0.0                 !
 ! D62   D(7,8,9,6)             12.6493         -DE/DX =    0.0                 !
 ! D63   D(7,8,9,19)          -135.1621         -DE/DX =    0.0                 !
 ! D64   D(18,8,9,5)          -166.9779         -DE/DX =    0.0                 !
 ! D65   D(18,8,9,6)           133.285          -DE/DX =    0.0                 !
 ! D66   D(18,8,9,19)          -14.5264         -DE/DX =    0.0                 !
 --------------------------------------------------------------------------------
 GradGradGradGradGradGradGradGradGradGradGradGradGradGradGradGradGradGrad

                          Input orientation:                          
 ---------------------------------------------------------------------
 Center     Atomic      Atomic             Coordinates (Angstroms)
 Number     Number       Type             X           Y           Z
 ---------------------------------------------------------------------
      1          8           0        1.487780    0.649291    0.213588
      2          6           0        0.392897   -0.145297    0.630237
      3          6           0       -0.858616    0.699553    0.811289
      4          8           0       -0.556455    1.730305    1.778128
      5          6           0       -1.763303    2.018787    2.454164
      6          6           0       -2.394186    0.948866    3.324118
      7          6           0       -1.895553   -0.420881    2.870003
      8          6           0       -2.112058    0.033359    1.384687
      9          6           0       -2.919034    1.254695    1.913115
     10          1           0        1.540555    1.377900    0.843137
     11          1           0        0.223263   -0.889594   -0.155640
     12          1           0        0.622095   -0.683900    1.561692
     13          1           0       -1.095886    1.179128   -0.152424
     14          1           0       -1.855792    3.055525    2.754460
     15          1           0       -2.843664    1.185924    4.282000
     16          1           0       -0.887127   -0.719336    3.171687
     17          1           0       -2.598166   -1.211900    3.142111
     18          1           0       -2.601589   -0.672438    0.714982
     19          1           0       -3.860473    1.649981    1.556080
 ---------------------------------------------------------------------
                    Distance matrix (angstroms):
                    1          2          3          4          5
     1  O    0.000000
     2  C    1.415534   0.000000
     3  C    2.421848   1.520801   0.000000
     4  O    2.792002   2.395162   1.445174   0.000000
     5  C    4.179144   3.557972   2.293006   1.413057   0.000000
     6  C    4.983453   4.027656   2.955409   2.525467   1.516432
     7  C    4.432691   3.213954   2.562989   2.759161   2.478385
     8  C    3.835320   2.622195   1.530920   2.335448   2.281959
     9  C    4.761819   3.817674   2.401567   2.413753   1.487376
    10  H    0.964359   1.919004   2.493429   2.322897   3.731169
    11  H    2.025710   1.095608   2.151930   3.348326   4.383629
    12  H    2.084273   1.100106   2.160915   2.695220   3.713644
    13  H    2.662710   2.140826   1.102286   2.078897   2.818648
    14  H    4.839986   4.451312   3.212612   2.097071   1.083308
    15  H    5.966688   5.057949   4.027755   3.434684   2.280752
    16  H    4.032825   2.902921   2.754186   2.837621   2.963081
    17  H    5.360526   4.048902   3.480290   3.832180   3.406994
    18  H    4.326812   3.041710   2.220268   3.329568   3.312125
    19  H    5.604237   4.708647   3.235610   3.312445   2.310994
                    6          7          8          9         10
     6  C    0.000000
     7  C    1.526781   0.000000
     8  C    2.163132   1.568239   0.000000
     9  C    1.536206   2.184193   1.556312   0.000000
    10  H    4.671351   4.376144   3.929714   4.587807   0.000000
    11  H    4.726488   3.723384   2.945874   4.330329   2.806126
    12  H    3.856166   2.849457   2.832205   4.052313   2.368736
    13  H    3.718192   3.512060   2.169816   2.756090   2.825151
    14  H    2.247752   3.478552   3.327978   2.254182   4.242965
    15  H    1.084328   2.339759   3.202824   2.371082   5.575304
    16  H    2.253300   1.094080   2.293551   3.099911   3.964113
    17  H    2.177991   1.092437   2.208056   2.774433   5.396421
    18  H    3.078836   2.281640   1.089172   2.291317   4.623599
    19  H    2.401566   3.142574   2.387424   1.081680   5.454670
                   11         12         13         14         15
    11  H    0.000000
    12  H    1.774995   0.000000
    13  H    2.453523   3.059498   0.000000
    14  H    5.324952   4.641758   3.542358   0.000000
    15  H    5.779833   4.786210   4.766435   2.608578   0.000000
    16  H    3.511845   2.207055   3.833728   3.919434   2.948025
    17  H    4.351954   3.625822   4.339104   4.348828   2.666304
    18  H    2.963937   3.333044   2.539258   4.314324   4.029359
    19  H    5.104539   5.053755   3.283844   2.725879   2.946165
                   16         17         18         19
    16  H    0.000000
    17  H    1.780771   0.000000
    18  H    2.996161   2.486361   0.000000
    19  H    4.130936   3.507032   2.772339   0.000000
 Stoichiometry    C7H10O2
 Framework group  C1[X(C7H10O2)]
 Deg. of freedom    51
 Full point group                 C1      NOp   1
 Largest Abelian subgroup         C1      NOp   1
 Largest concise Abelian subgroup C1      NOp   1
                         Standard orientation:                         
 ---------------------------------------------------------------------
 Center     Atomic      Atomic             Coordinates (Angstroms)
 Number     Number       Type             X           Y           Z
 ---------------------------------------------------------------------
      1          8           0        2.959043   -0.283307   -0.192018
      2          6           0        1.915184    0.661023   -0.042562
      3          6           0        0.685090    0.022269    0.583294
      4          8           0        0.283656   -1.078679   -0.262455
      5          6           0       -1.119292   -1.194167   -0.139455
      6          6           0       -1.998617   -0.069633   -0.651093
      7          6           0       -1.179960    1.217965   -0.705433
      8          6           0       -0.590893    0.859662    0.703109
      9          6           0       -1.688371   -0.234730    0.844372
     10          1           0        2.572167   -1.033689   -0.658110
     11          1           0        2.293583    1.451445    0.615012
     12          1           0        1.651877    1.120966   -1.006593
     13          1           0        0.966258   -0.376964    1.571520
     14          1           0       -1.479588   -2.212930   -0.216038
     15          1           0       -2.925578   -0.266586   -1.178085
     16          1           0       -0.479364    1.339049   -1.537008
     17          1           0       -1.820400    2.101050   -0.646995
     18          1           0       -0.545264    1.659249    1.441265
     19          1           0       -2.314119   -0.460042    1.697429
 ---------------------------------------------------------------------
 Rotational constants (GHZ):      3.7840285      1.2961200      1.1665215
 1\1\GINC-ALCHEMY-F\FOpt\RB3LYP\6-31G(2df,p)\C7H10O2\PUCK\28-Jan-2020\0
 \\# b3lyp 6-31G(2df,p) opt Freq\\titel\\0,1\O,1.4877802572,0.649291301
 1,0.2135882437\C,0.3928966544,-0.1452967755,0.6302373937\C,-0.85861563
 74,0.6995532539,0.8112890411\O,-0.5564552594,1.7303045251,1.7781280485
 \C,-1.7633031875,2.0187874308,2.4541638381\C,-2.3941855921,0.948865955
 8,3.3241180559\C,-1.8955530197,-0.4208808053,2.8700028892\C,-2.1120578
 188,0.0333593173,1.3846868871\C,-2.9190340369,1.2546945236,1.913114733
 1\H,1.5405553649,1.3779001288,0.8431371186\H,0.2232629709,-0.889593964
 ,-0.155639698\H,0.6220947498,-0.6839002554,1.5616922461\H,-1.095886345
 ,1.1791283844,-0.1524244533\H,-1.8557917855,3.0555246582,2.7544604854\
 H,-2.8436643125,1.1859241594,4.2820004854\H,-0.8871272974,-0.719336464
 8,3.1716870809\H,-2.5981658831,-1.2118999217,3.1421113671\H,-2.6015886
 731,-0.6724375319,0.714981728\H,-3.8604727889,1.6499807002,1.556080469
 5\\Version=ES64L-G09RevD.01\State=1-A\HF=-423.1493031\RMSD=4.115e-09\R
 MSF=1.155e-05\Dipole=-0.9588567,-0.1050746,0.4073218\Quadrupole=-1.860
 9914,2.2998708,-0.4388794,0.0648518,2.6592103,0.8731581\PG=C01 [X(C7H1
 0O2)]\\@


 Children are likely to live up to what you believe of them.
 -- Lady Bird Johnson
 Job cpu time:       0 days  0 hours  8 minutes  4.0 seconds.
 File lengths (MBytes):  RWF=     52 Int=      0 D2E=      0 Chk=      7 Scr=      1
 Normal termination of Gaussian 09 at Tue Jan 28 13:40:59 2020.
 Link1:  Proceeding to internal job step number  2.
 ----------------------------------------------------------------------
 #N Geom=AllCheck Guess=TCheck SCRF=Check GenChk RB3LYP/6-31G(2df,p) Fr
 eq
 ----------------------------------------------------------------------
 1/10=4,29=7,30=1,38=1,40=1/1,3;
 2/12=2,40=1/2;
 3/5=1,6=6,7=104,11=2,14=-4,16=1,25=1,30=1,70=2,71=2,74=-5,116=1,140=1/1,2,3;
 4/5=101/1;
 5/5=2,98=1/2;
 8/6=4,10=90,11=11/1;
 11/6=1,8=1,9=11,15=111,16=1/1,2,10;
 10/6=1/2;
 6/7=2,8=2,9=2,10=2,18=1,28=1/1;
 7/8=1,10=1,25=1/1,2,3,16;
 1/10=4,30=1/3;
 99//99;
 Structure from the checkpoint file:  "/scratch/puck/g09_6e1a5ca6-d3ef-4f31-a0f5-36dc9152c8fa/Gau-94524.chk"
 -----
 titel
 -----
 Charge =  0 Multiplicity = 1
 Redundant internal coordinates found in file.
 O,0,1.4877802572,0.6492913011,0.2135882437
 C,0,0.3928966544,-0.1452967755,0.6302373937
 C,0,-0.8586156374,0.6995532539,0.8112890411
 O,0,-0.5564552594,1.7303045251,1.7781280485
 C,0,-1.7633031875,2.0187874308,2.4541638381
 C,0,-2.3941855921,0.9488659558,3.3241180559
 C,0,-1.8955530197,-0.4208808053,2.8700028892
 C,0,-2.1120578188,0.0333593173,1.3846868871
 C,0,-2.9190340369,1.2546945236,1.9131147331
 H,0,1.5405553649,1.3779001288,0.8431371186
 H,0,0.2232629709,-0.889593964,-0.155639698
 H,0,0.6220947498,-0.6839002554,1.5616922461
 H,0,-1.095886345,1.1791283844,-0.1524244533
 H,0,-1.8557917855,3.0555246582,2.7544604854
 H,0,-2.8436643125,1.1859241594,4.2820004854
 H,0,-0.8871272974,-0.7193364648,3.1716870809
 H,0,-2.5981658831,-1.2118999217,3.1421113671
 H,0,-2.6015886731,-0.6724375319,0.714981728
 H,0,-3.8604727889,1.6499807002,1.5560804695
 Recover connectivity data from disk.

 GradGradGradGradGradGradGradGradGradGradGradGradGradGradGradGradGradGrad
 Berny optimization.
 Initialization pass.
                           ----------------------------
                           !    Initial Parameters    !
                           ! (Angstroms and Degrees)  !
 --------------------------                            --------------------------
 ! Name  Definition              Value          Derivative Info.                !
 --------------------------------------------------------------------------------
 ! R1    R(1,2)                  1.4155         calculate D2E/DX2 analytically  !
 ! R2    R(1,10)                 0.9644         calculate D2E/DX2 analytically  !
 ! R3    R(2,3)                  1.5208         calculate D2E/DX2 analytically  !
 ! R4    R(2,11)                 1.0956         calculate D2E/DX2 analytically  !
 ! R5    R(2,12)                 1.1001         calculate D2E/DX2 analytically  !
 ! R6    R(3,4)                  1.4452         calculate D2E/DX2 analytically  !
 ! R7    R(3,8)                  1.5309         calculate D2E/DX2 analytically  !
 ! R8    R(3,13)                 1.1023         calculate D2E/DX2 analytically  !
 ! R9    R(4,5)                  1.4131         calculate D2E/DX2 analytically  !
 ! R10   R(5,6)                  1.5164         calculate D2E/DX2 analytically  !
 ! R11   R(5,9)                  1.4874         calculate D2E/DX2 analytically  !
 ! R12   R(5,14)                 1.0833         calculate D2E/DX2 analytically  !
 ! R13   R(6,7)                  1.5268         calculate D2E/DX2 analytically  !
 ! R14   R(6,9)                  1.5362         calculate D2E/DX2 analytically  !
 ! R15   R(6,15)                 1.0843         calculate D2E/DX2 analytically  !
 ! R16   R(7,8)                  1.5682         calculate D2E/DX2 analytically  !
 ! R17   R(7,16)                 1.0941         calculate D2E/DX2 analytically  !
 ! R18   R(7,17)                 1.0924         calculate D2E/DX2 analytically  !
 ! R19   R(8,9)                  1.5563         calculate D2E/DX2 analytically  !
 ! R20   R(8,18)                 1.0892         calculate D2E/DX2 analytically  !
 ! R21   R(9,19)                 1.0817         calculate D2E/DX2 analytically  !
 ! A1    A(2,1,10)             105.9196         calculate D2E/DX2 analytically  !
 ! A2    A(1,2,3)              111.0831         calculate D2E/DX2 analytically  !
 ! A3    A(1,2,11)             106.8561         calculate D2E/DX2 analytically  !
 ! A4    A(1,2,12)             111.278          calculate D2E/DX2 analytically  !
 ! A5    A(3,2,11)             109.5955         calculate D2E/DX2 analytically  !
 ! A6    A(3,2,12)             110.0375         calculate D2E/DX2 analytically  !
 ! A7    A(11,2,12)            107.8778         calculate D2E/DX2 analytically  !
 ! A8    A(2,3,4)              107.6866         calculate D2E/DX2 analytically  !
 ! A9    A(2,3,8)              118.4649         calculate D2E/DX2 analytically  !
 ! A10   A(2,3,13)             108.3458         calculate D2E/DX2 analytically  !
 ! A11   A(4,3,8)              103.355          calculate D2E/DX2 analytically  !
 ! A12   A(4,3,13)             108.639          calculate D2E/DX2 analytically  !
 ! A13   A(8,3,13)             109.9102         calculate D2E/DX2 analytically  !
 ! A14   A(3,4,5)              106.685          calculate D2E/DX2 analytically  !
 ! A15   A(4,5,6)              119.061          calculate D2E/DX2 analytically  !
 ! A16   A(4,5,9)              112.6267         calculate D2E/DX2 analytically  !
 ! A17   A(4,5,14)             113.6354         calculate D2E/DX2 analytically  !
 ! A18   A(6,5,14)             118.7294         calculate D2E/DX2 analytically  !
 ! A19   A(9,5,14)             121.7444         calculate D2E/DX2 analytically  !
 ! A20   A(5,6,7)              109.0552         calculate D2E/DX2 analytically  !
 ! A21   A(5,6,15)             121.6677         calculate D2E/DX2 analytically  !
 ! A22   A(7,6,9)               90.9737         calculate D2E/DX2 analytically  !
 ! A23   A(7,6,15)             126.4602         calculate D2E/DX2 analytically  !
 ! A24   A(9,6,15)             128.7736         calculate D2E/DX2 analytically  !
 ! A25   A(6,7,8)               88.6683         calculate D2E/DX2 analytically  !
 ! A26   A(6,7,16)             117.6288         calculate D2E/DX2 analytically  !
 ! A27   A(6,7,17)             111.4369         calculate D2E/DX2 analytically  !
 ! A28   A(8,7,16)             117.8672         calculate D2E/DX2 analytically  !
 ! A29   A(8,7,17)             110.907          calculate D2E/DX2 analytically  !
 ! A30   A(16,7,17)            109.0626         calculate D2E/DX2 analytically  !
 ! A31   A(3,8,7)              111.5769         calculate D2E/DX2 analytically  !
 ! A32   A(3,8,9)              102.1348         calculate D2E/DX2 analytically  !
 ! A33   A(3,8,18)             114.8144         calculate D2E/DX2 analytically  !
 ! A34   A(7,8,9)               88.6996         calculate D2E/DX2 analytically  !
 ! A35   A(7,8,18)             117.1754         calculate D2E/DX2 analytically  !
 ! A36   A(9,8,18)             118.964          calculate D2E/DX2 analytically  !
 ! A37   A(5,9,8)               97.1089         calculate D2E/DX2 analytically  !
 ! A38   A(5,9,19)             127.4898         calculate D2E/DX2 analytically  !
 ! A39   A(6,9,8)               88.767          calculate D2E/DX2 analytically  !
 ! A40   A(6,9,19)             132.3208         calculate D2E/DX2 analytically  !
 ! A41   A(8,9,19)             128.7557         calculate D2E/DX2 analytically  !
 ! D1    D(10,1,2,3)            52.1089         calculate D2E/DX2 analytically  !
 ! D2    D(10,1,2,11)          171.6062         calculate D2E/DX2 analytically  !
 ! D3    D(10,1,2,12)          -70.8626         calculate D2E/DX2 analytically  !
 ! D4    D(1,2,3,4)            -57.7428         calculate D2E/DX2 analytically  !
 ! D5    D(1,2,3,8)           -174.4011         calculate D2E/DX2 analytically  !
 ! D6    D(1,2,3,13)            59.5905         calculate D2E/DX2 analytically  !
 ! D7    D(11,2,3,4)          -175.5905         calculate D2E/DX2 analytically  !
 ! D8    D(11,2,3,8)            67.7512         calculate D2E/DX2 analytically  !
 ! D9    D(11,2,3,13)          -58.2572         calculate D2E/DX2 analytically  !
 ! D10   D(12,2,3,4)            65.94           calculate D2E/DX2 analytically  !
 ! D11   D(12,2,3,8)           -50.7183         calculate D2E/DX2 analytically  !
[...]
 .02378401,-0.09287426,-0.01326656,-0.00682780,0.35395141,-0.00020047,0
 .00177079,0.00079851,-0.00363723,-0.02564534,-0.02396042,-0.03607368,-
 0.09954837,-0.03884201,0.02600310,0.22013752,0.00002912,-0.00199174,0.
 00033266,0.00003733,-0.01570750,-0.01202237,-0.03037090,-0.04451068,-0
 .11020154,-0.06669244,0.13342204,0.24919002,0.00026392,-0.00098569,-0.
 00018573,-0.00201708,-0.00184880,-0.00062922,0.00071793,0.02951579,0.0
 2037799,-0.17475032,0.02560005,0.06565169,0.44096054,-0.00117606,0.000
 85547,0.00066540,-0.00274089,-0.00497467,-0.00542947,0.02409522,-0.023
 60446,-0.02288012,-0.00133355,-0.07343053,-0.02154433,0.04634437,0.701
 76389,-0.00132947,0.00132435,0.00093983,-0.00054287,-0.00195590,-0.001
 51657,0.02075167,-0.02479142,-0.02844978,0.03918798,-0.02714138,-0.089
 59980,-0.07154048,0.13306722,0.33389973,-0.00085241,0.00007107,0.00043
 099,-0.00050399,-0.00083178,-0.00045001,-0.00248654,-0.00140678,-0.000
 01478,-0.01593945,-0.01377245,0.02714244,-0.05627360,-0.01353281,0.036
 54555,0.29686316,-0.00001183,-0.00017762,0.00000340,0.00054123,0.00053
 111,-0.00096593,0.00210864,-0.00174664,-0.00136687,-0.00789529,0.00593
 776,-0.00815748,-0.04193010,-0.13425249,0.04590756,-0.07166153,0.43986
 233,0.00024981,-0.00023434,0.00015877,0.00015089,0.00055211,-0.0000700
 4,0.00235378,0.00123840,0.00094174,0.01554451,0.00184302,-0.01555841,0
 .06659181,0.06143789,-0.09084122,-0.16276389,0.01899873,0.65126842,-0.
 00023723,0.00101995,-0.00072977,0.00138615,-0.00117488,0.00125271,0.00
 748065,-0.01152904,0.02617921,0.00189427,0.00351744,-0.00193691,0.0086
 3434,-0.02440137,-0.00766544,-0.08193320,0.03289571,0.02518312,0.60599
 744,0.00005612,-0.00028998,-0.00003082,0.00061949,0.00107218,-0.000577
 45,0.00156059,-0.00691608,0.01443599,0.00305027,0.00157475,-0.00302346
 ,0.00754146,-0.02769251,0.00300692,0.03767588,-0.16879360,-0.02793937,
 0.01552324,0.53738355,-0.00020033,0.00074038,-0.00017640,0.00027922,-0
 .00191803,0.00147635,0.00410598,0.01108322,-0.01558068,0.00055414,-0.0
 0088444,0.00034769,-0.00293946,0.00540737,0.00363483,0.03148246,-0.039
 73627,-0.06302827,0.02341386,-0.07865235,0.37589089,-0.00180123,0.0019
 0959,0.00049757,-0.01966812,-0.01103741,0.00800246,-0.13056775,-0.0369
 2099,0.02501946,-0.01937705,-0.02255996,-0.00546110,0.00848491,-0.0139
 8325,-0.00539278,0.00061708,0.01561751,0.01243142,-0.07501138,-0.01200
 643,-0.02372379,0.42978123,0.00874532,-0.00061399,-0.00137656,0.008202
 68,0.01612704,-0.00366648,-0.02808348,-0.08852658,0.02022900,-0.019546
 14,-0.03254818,-0.00742826,-0.00571165,-0.03347042,-0.02746828,0.00710
 699,-0.00858595,-0.02467564,-0.01089309,-0.06419860,0.03077136,0.10572
 445,0.51021919,-0.00035543,-0.00096975,0.00104014,0.00418909,0.0008768
 5,-0.00149717,0.03236284,0.02683098,-0.09512811,-0.01880110,-0.0250665
 5,-0.00170647,-0.00489405,-0.01116970,-0.00133735,0.00741202,-0.026363
 95,-0.06476509,-0.01204288,0.01932674,-0.13600809,0.04610812,0.1281845
 2,0.52476021,-0.00228074,0.00069029,0.00098914,-0.00086304,-0.00523060
 ,0.00089911,-0.03119285,0.01183783,0.00566871,-0.04468770,0.00035605,-
 0.00084213,-0.15932767,-0.06063022,-0.02855785,-0.05412516,0.03238625,
 -0.06092449,-0.02071271,0.02185828,-0.01492417,-0.09310063,0.03222924,
 0.00436115,0.64549046,-0.00106959,0.00010013,0.00003022,-0.00120279,-0
 .00159996,-0.00080817,0.00961177,0.00578145,-0.00474450,-0.00277287,-0
 .00437071,0.00322645,-0.05810145,-0.09950159,-0.02770557,0.01415563,-0
 .02156409,0.01687434,0.04757040,-0.03373590,0.01999856,0.03576219,-0.1
 1527133,-0.02805350,-0.12740116,0.36939026,0.00148937,-0.00014484,-0.0
 0040387,0.00028884,0.00283352,-0.00027349,0.02276018,-0.01303549,-0.00
 414743,0.01174057,0.00079571,0.00711918,-0.07827286,-0.06272648,-0.050
 10334,-0.02347824,0.04855880,-0.16192933,-0.02431055,0.02138302,-0.020
 08773,0.01217889,-0.03711039,-0.05622166,0.16712978,0.01200283,0.37481
 928,-0.02928489,-0.00772873,0.01825726,-0.00911936,-0.03258266,-0.0230
 2642,-0.00162958,-0.00335225,-0.00321226,0.00208953,-0.00018756,-0.001
 61874,-0.00182991,0.00141011,0.00209605,0.00042701,-0.00000822,-0.0002
 8205,0.00021424,-0.00014945,0.00009954,0.00017064,-0.00030174,0.000266
 67,0.00073134,-0.00000254,-0.00022775,0.04199733,-0.03971240,-0.289323
 34,-0.22503656,-0.00623675,-0.02435990,-0.01812758,0.00068596,0.003090
 75,-0.00040754,0.00036801,-0.00031470,0.00046435,0.00045855,-0.0000931
 9,-0.00007773,0.00002396,0.00000905,0.00006308,-0.00021669,0.00012423,
 -0.00007833,0.00003373,-0.00087668,-0.00026000,0.00034484,-0.00000663,
 -0.00014337,0.04559565,0.31263624,-0.01214711,-0.25731990,-0.23669413,
 0.00485935,0.01321005,0.00651778,0.00123611,0.00060755,0.00157321,-0.0
 0052524,0.00030881,-0.00007911,0.00040477,-0.00007445,-0.00110306,0.00
 011749,0.00003193,-0.00004504,0.00019926,0.00001926,0.00004272,-0.0002
 1192,-0.00052945,-0.00024366,-0.00023507,0.00010549,-0.00005234,0.0050
 0000,0.24139747,0.22949739,-0.00996291,-0.02850113,-0.01855770,-0.0536
 5151,-0.01508703,-0.02271850,0.00794601,0.01505049,0.01946919,-0.00580
 026,0.00447739,0.00256152,0.00143049,0.00172406,-0.00002860,0.00005105
 ,0.00005956,0.00000870,-0.00025631,0.00007732,-0.00013355,0.00093242,-
 0.00066318,-0.00007028,0.00011327,0.00001983,-0.00019038,-0.00499908,-
 0.00270898,0.00135711,0.06370378,-0.01056486,-0.02001510,-0.01253506,-
 0.01968006,-0.15949743,-0.11974492,-0.00353400,-0.01102478,-0.01475874
 ,0.00401940,-0.00089012,-0.00111405,-0.00087050,-0.00081973,0.00023811
 ,-0.00000073,-0.00005959,0.00002081,0.00010883,-0.00012789,0.00017954,
 -0.00032898,0.00029048,0.00013513,0.00026013,-0.00031054,-0.00004948,-
 0.00378375,-0.00089018,0.00110893,0.03147725,0.18143690,0.00181239,0.0
 0874135,0.01169543,-0.02730938,-0.12851264,-0.19219047,-0.00248980,-0.
 00009256,-0.00363313,0.00145375,-0.00086078,0.00071296,-0.00058815,-0.
 00021232,0.00064140,-0.00001289,0.00000558,-0.00000484,-0.00016211,0.0
 0031036,-0.00038309,-0.00030989,-0.00035825,-0.00012973,0.00033060,-0.
 00002486,-0.00005068,0.00228320,0.00286809,0.00094019,0.02619620,0.135
 91801,0.20010114,-0.00235032,-0.02308083,0.02946516,-0.06302890,0.0292
 6163,-0.05307781,-0.00806277,0.01343777,-0.02641635,0.00169054,-0.0016
 7114,0.00116881,0.00030091,-0.00020245,-0.00036179,0.00013150,-0.00011
 127,0.00026186,-0.00144714,0.00024000,0.00023373,0.00128332,-0.0000476
 2,-0.00100238,0.00054849,-0.00018188,-0.00007203,0.00079788,0.00118799
 ,0.00078294,0.00054605,0.00264575,-0.00268683,0.07420922,-0.00940085,-
 0.01469273,0.02097758,0.03005855,-0.10197690,0.08832064,0.00819518,-0.
 00859505,0.01790888,-0.00127840,0.00201793,0.00006562,-0.00001902,0.00
 007792,0.00027722,0.00003349,0.00004321,-0.00015029,0.00033091,-0.0000
 8997,0.00047036,-0.00033838,-0.00057215,0.00022724,-0.00009045,0.00028
 730,-0.00034114,0.00033236,0.00042220,0.00132135,-0.00501149,0.0111688
 5,-0.01762552,-0.02461819,0.11255264,0.00915166,0.01172552,-0.00469039
 ,-0.05338628,0.09166922,-0.22450714,0.00009044,-0.00296511,0.00057038,
 -0.00016779,0.00062094,0.00213821,0.00045262,0.00012187,-0.00044398,-0
 .00003549,0.00018969,-0.00001567,0.00059905,-0.00021693,-0.00116886,-0
 .00021516,0.00059166,-0.00027330,-0.00028755,-0.00001772,0.00043278,0.
 00067269,-0.00083098,0.00013995,-0.00755716,0.01028658,-0.01878708,0.0
 4835070,-0.11039677,0.24548661,0.00345902,-0.00158678,0.00089931,-0.00
 726753,0.01703776,-0.02380946,-0.06272464,0.02513630,-0.03924553,0.002
 30848,-0.00317946,-0.01077545,-0.00165475,0.00100722,0.00033554,0.0007
 7673,-0.00071696,-0.00118579,-0.00455775,-0.00252518,0.00089587,0.0050
 6935,-0.01308354,0.02493352,0.00136831,0.00015492,-0.00126379,-0.00030
 700,0.00000775,-0.00051060,0.00089813,-0.00046587,0.00041351,-0.004504
 74,0.00271099,0.00065683,0.06605148,-0.00142944,0.00205119,-0.00180411
 ,0.00514697,-0.01108671,0.01936654,0.02544038,-0.09972922,0.09960669,-
 0.00582171,0.00366377,-0.03335033,-0.00535904,0.00112136,0.00043032,0.
 00088726,-0.00023044,-0.00043953,-0.00271828,-0.00128756,-0.00090387,0
 .00467819,-0.00712104,0.01469844,0.00052750,0.00176242,0.00018081,0.00
 023075,-0.00006283,-0.00001600,-0.00065859,0.00029308,-0.00005331,0.00
 374180,-0.00155979,-0.00048183,-0.02509598,0.11110688,-0.00066895,-0.0
 0120767,0.00086514,0.00260683,0.00022418,0.00212901,-0.04170319,0.0983
 0374,-0.22002247,-0.00757346,-0.00977757,-0.02935865,-0.00422412,0.000
 89795,0.00042392,0.00000379,-0.00046221,0.00037078,0.00157241,0.001546
 40,0.00141007,-0.00075105,0.00766449,-0.00953184,0.00046055,-0.0006151
 3,0.00143303,0.00014164,0.00005357,-0.00040095,-0.00081378,0.00063347,
 0.00076095,0.00138314,-0.00024843,0.00106739,0.04809571,-0.09756450,0.
 25170235,0.00008325,-0.00000344,-0.00004926,0.00082083,0.00127689,0.00
 139203,-0.00544034,-0.00009535,-0.00258428,-0.00646508,0.02797319,0.01
 578146,-0.04722285,0.01565582,0.00834927,0.00051371,-0.00016473,-0.001
 90528,-0.00055069,0.00025128,-0.00135446,-0.00390318,-0.00299424,0.000
 21706,0.00635841,-0.02105280,-0.00350780,0.00025390,0.00000761,-0.0001
 0330,-0.00057623,0.00033593,0.00019275,0.00001519,-0.00004760,-0.00004
 525,0.00019266,0.00011526,0.00023491,0.05302296,0.00020340,0.00007704,
 -0.00003526,-0.00025187,-0.00016476,-0.00019112,0.00055072,0.00072461,
 0.00197451,0.00329381,-0.00037302,-0.00329141,0.01767514,-0.31786300,-
 0.07916904,0.00090084,-0.01288464,-0.00677871,-0.00263821,-0.00069059,
 0.00067435,-0.00035780,0.00052517,0.00067015,0.00133874,-0.00295334,0.
 00238395,-0.00010555,-0.00004051,-0.00001388,0.00008013,-0.00001429,-0
 .00001704,-0.00002768,0.00003441,-0.00001829,0.00001994,0.00005112,-0.
 00006426,-0.02137632,0.33259481,0.00015541,0.00005799,0.00000649,-0.00
 054838,-0.00066497,-0.00110899,0.00284001,-0.00145745,0.00055337,0.002
 22567,-0.01489934,-0.00708113,0.01094709,-0.07487320,-0.05842357,-0.00
 482011,0.02327858,0.00770815,0.00467222,0.00309152,-0.00207163,-0.0015
 4879,-0.00193887,-0.00174597,0.00317828,-0.01722995,-0.00422212,-0.000
 15288,-0.00002864,0.00007330,0.00039472,-0.00018742,-0.00004256,0.0000
 2157,0.00001369,0.00008257,-0.00015290,-0.00016765,-0.00035179,-0.0168
 3764,0.08417561,0.06474293,0.00018962,0.00002182,-0.00000568,0.0001490
 4,0.00035511,0.00010754,0.00004819,-0.00230202,-0.00146183,-0.00324922
 ,-0.00100244,0.00519627,-0.00461416,0.01045613,0.00823416,-0.09211773,
 0.03199046,0.11232514,-0.00288458,-0.00431683,0.00369984,0.00256353,0.
 00184343,-0.00236009,0.01095443,-0.00661747,-0.00953676,0.00016541,-0.
 00003518,-0.00003449,-0.00007682,0.00004213,0.00003047,0.00007899,-0.0
 0006346,0.00002995,-0.00006194,0.00004989,0.00040199,0.00047525,0.0004
 4523,-0.00127380,0.08745644,0.00014870,0.00020243,-0.00007013,-0.00008
 018,-0.00010751,0.00027980,-0.00137596,-0.00127845,-0.00130576,-0.0015
 4498,0.00043448,0.00412728,-0.00456581,0.00579577,0.01637055,0.0326077
 8,-0.06353437,-0.05461673,0.00657869,0.00367930,-0.01945955,0.00100350
 ,-0.00458081,-0.00340542,-0.00247337,-0.00510398,0.00249740,0.00013314
 ,-0.00006988,-0.00003710,-0.00007256,0.00008125,0.00001986,-0.00009604
 ,0.00007922,-0.00010495,0.00041514,0.00029421,0.00006337,-0.00060046,0
 .00105606,-0.00155771,-0.03058821,0.06039782,0.00040131,0.00005920,-0.
 00002027,-0.00020612,0.00028196,0.00003061,-0.00010384,-0.00142838,-0.
 00042927,-0.00029692,-0.00022264,0.00147024,-0.00144673,-0.00024359,-0
 .00705572,0.10761593,-0.05379558,-0.27080434,-0.00197277,0.00030201,-0
 .00046932,0.00186077,-0.00040405,-0.00305455,0.01155814,-0.00228231,-0
 .00677259,-0.00007007,-0.00002030,-0.00001889,-0.00002096,0.00001661,-
 0.00000635,0.00006703,-0.00005277,0.00000024,-0.00012699,0.00016483,0.
 00002102,0.00036498,0.00029620,0.00040110,-0.11754035,0.05858297,0.284
 45711,-0.00000964,-0.00059049,0.00026868,-0.00075883,0.00064439,0.0002
 8186,-0.00074251,-0.00006907,-0.00024718,0.00140816,-0.00034168,-0.000
 39473,-0.00029493,-0.00010064,0.00111524,-0.00462733,0.00284942,-0.002
 34415,-0.27078160,0.05925146,-0.06514546,0.00062162,-0.00004388,0.0004
 2195,-0.00058551,0.00119232,0.00077305,-0.00015972,0.00010061,0.000022
 40,0.00011639,-0.00004176,0.00012866,-0.00056819,-0.00046439,0.0015825
 0,0.00017441,0.00004540,-0.00015072,0.00006678,0.00014018,-0.00010269,
 -0.00063649,0.00044930,-0.00025276,0.29483172,-0.00003931,0.00021026,-
 0.00018709,0.00007099,-0.00046288,0.00030933,0.00056049,0.00032715,0.0
 0084426,-0.00168331,0.00068076,0.00003014,0.00120878,0.00248203,-0.000
 82604,0.02265253,-0.00465985,0.00820784,0.05857537,-0.06486120,0.01576
 288,0.00400271,-0.00351371,0.00083909,0.00505886,-0.00458814,0.0020442
 1,0.00002685,-0.00009236,0.00009047,-0.00002420,0.00002842,-0.00020764
 ,-0.00026127,0.00068389,-0.00014268,-0.00000423,0.00008170,-0.00015301
 ,0.00009831,0.00021401,-0.00014857,0.00058657,-0.00064411,0.00007051,-
 0.06911893,0.06901060,-0.00003076,-0.00066360,0.00057973,-0.00004537,0
 .00123782,-0.00145675,-0.00111025,-0.00107102,0.00160839,0.00061292,-0
 .00002522,0.00070504,-0.00116523,0.00185996,-0.00057600,0.01039941,0.0
 0083936,0.00325698,-0.06371318,0.01574207,-0.07217020,-0.02324092,0.00
 205820,-0.00170825,-0.00124201,0.00158595,-0.00018084,-0.00004584,0.00
 017619,-0.00003919,0.00000161,-0.00008619,0.00023938,0.00167420,-0.000
 53463,-0.00029763,-0.00004063,-0.00021648,0.00015085,0.00035335,0.0001
 1548,-0.00010721,0.00068277,-0.00058653,0.00005534,0.07047779,-0.02098
 866,0.06865672,-0.00023372,-0.00025223,0.00025467,0.00000236,0.0003074
 9,-0.00032089,-0.00035861,0.00047354,-0.00043520,0.00077760,-0.0004701
 3,0.00012050,-0.00092938,0.00280987,0.00142721,0.00723976,0.00940530,-
 0.00450136,-0.16424354,-0.12569879,0.04196398,0.00090800,0.00279066,-0
 .00174244,0.00077191,-0.00158642,0.00091916,0.00001882,0.00009993,-0.0
 0005333,0.00001966,-0.00005795,0.00023988,0.00036476,-0.00033141,0.000
 13228,0.00011815,-0.00003166,-0.00012698,0.00013954,0.00042699,-0.0006
 4155,0.00049343,-0.00074862,0.00007030,-0.01824100,-0.02134766,0.00743
 721,0.17214808,-0.00002979,0.00013539,-0.00004567,0.00016242,-0.000136
 47,0.00009222,0.00067767,-0.00021960,-0.00047660,0.00000453,0.00165755
 ,-0.00021240,0.00316599,-0.00447627,-0.00528518,-0.01767582,-0.0240571
 2,0.00918320,-0.12491277,-0.18218950,0.04894995,-0.00053535,-0.0018848
 7,0.00074836,-0.00022607,0.00291336,-0.00086027,0.00009973,-0.00003963
 ,-0.00001098,-0.00004323,0.00005803,-0.00002916,-0.00013293,0.00009115
 ,-0.00002774,-0.00010699,0.00002925,0.00011762,-0.00001020,-0.00074187
 ,0.00182907,-0.00002634,0.00132612,-0.00045917,0.00542175,0.00671800,-
 0.00219318,0.13420289,0.19985377,0.00035323,-0.00012275,0.00009230,-0.
 00068773,0.00050250,-0.00003343,-0.00322399,0.00171093,-0.00554695,-0.
 00049944,0.00009140,0.00055535,0.00119916,-0.00366356,-0.00125970,-0.0
 0967716,-0.01213907,0.00559017,0.04100290,0.04909471,-0.05752836,0.020
 32715,0.02398026,-0.00887050,0.00043340,-0.00075153,-0.00291260,-0.000
 06590,-0.00001116,-0.00007271,0.00004724,-0.00002845,-0.00002417,0.000
 13533,-0.00012913,0.00017989,0.00166484,0.00089243,-0.00076045,-0.0001
 8065,-0.00057346,0.00089272,-0.00037666,0.00077572,0.00034807,-0.00594
 186,-0.00664656,0.00248110,-0.04496603,-0.05194691,0.06446120,-0.00007
 561,0.00033954,0.00036945,0.00054996,-0.00045194,-0.00058317,-0.006124
 65,-0.01268100,-0.01907678,-0.00415800,-0.00595511,-0.00017101,-0.0044
 4177,0.00325244,0.00256428,0.00006591,-0.00007922,0.00015083,-0.002846
 17,-0.00315097,0.00125332,-0.10504269,-0.08174708,-0.07658494,0.012295
 25,0.01055026,0.01000138,0.00030258,-0.00005219,-0.00009249,-0.0003933
 8,0.00039692,0.00044579,-0.00004470,0.00002824,-0.00001481,0.00084197,
 0.00021965,0.00074447,0.00098476,-0.00001702,0.00053573,0.00022473,0.0
 0015207,0.00063144,-0.00022276,0.00006732,-0.00079167,0.00107119,-0.00
 005716,0.00050827,0.10659265,-0.00020990,0.00017969,0.00015193,-0.0000
 1726,-0.00037687,-0.00001031,-0.00069414,-0.00550894,-0.00767751,-0.00
 106329,-0.00227257,-0.00107502,0.00032158,-0.00341107,-0.00039505,0.00
 009793,0.00023931,0.00137969,0.00742664,0.01008439,0.00643899,-0.08174
 372,-0.16422310,-0.10777849,-0.01395317,-0.01015696,-0.00853038,0.0002
 2909,-0.00003981,-0.00006189,-0.00011801,0.00023829,0.00011799,0.00000
 638,0.00003296,0.00003818,0.00031218,0.00012520,0.00042775,-0.00079808
 ,0.00002278,-0.00080348,-0.00061088,0.00046915,-0.00020410,0.00037970,
 -0.00001362,0.00137393,0.00003194,0.00114813,-0.00122724,0.09017806,0.
 17242954,-0.00011450,0.00004988,0.00001988,-0.00029935,-0.00024439,-0.
 00009503,0.00342371,0.00736358,0.00872354,0.00250115,0.00346724,0.0021
 3772,0.00273438,0.00092949,-0.00093986,-0.00062126,0.00175271,-0.00527
 563,-0.00926542,-0.01646030,-0.01249762,-0.07615986,-0.11096181,-0.148
 51149,-0.00268954,-0.00129967,-0.00225017,-0.00002156,0.00006272,0.000
 00255,0.00006343,-0.00001578,0.00014371,0.00006073,-0.00007613,0.00001
 763,-0.00093057,-0.00046038,0.00020945,-0.00002011,0.00014239,0.000079
 23,0.00020257,-0.00143188,-0.00022292,-0.00000899,-0.00042105,-0.00193
 964,-0.00001295,0.00042703,0.00198001,0.08105788,0.11737331,0.15773571
 ,-0.00030022,0.00004921,0.00013114,0.00009841,-0.00031379,0.00015627,-
 0.00100114,-0.00010142,-0.00088137,-0.00308896,0.00112410,0.00057426,-
 0.00743664,0.01134601,-0.00518769,0.00217348,-0.00527492,-0.00134486,-
 0.00014481,0.00014227,0.00043930,-0.00196007,-0.00352712,-0.00241883,-
 0.27175587,0.10097164,-0.08642107,0.00016085,0.00004759,-0.00006590,-0
 .00004075,0.00004210,0.00003185,0.00003987,-0.00002608,-0.00000923,-0.
 00018035,0.00003165,0.00036681,0.00123113,-0.00030066,0.00110803,0.000
 84187,0.00065789,-0.00053238,0.00040942,-0.00042988,-0.00021340,-0.000
 06700,0.00002166,-0.00005212,0.00042073,0.00022496,0.00010026,0.280600
 06,0.00047142,0.00016814,-0.00005145,-0.00008157,0.00048147,0.00007844
 ,-0.00035491,-0.00340077,-0.00001431,-0.00513392,0.00151822,0.00007078
 ,-0.01243964,0.01149349,-0.00580667,0.00266853,-0.00607637,-0.00496448
 ,0.00493716,-0.00304502,0.00115589,0.01108040,-0.00117449,0.01052987,0
 .10311701,-0.08107173,0.03026159,0.00014479,-0.00007283,-0.00013766,-0
 .00007761,0.00005434,0.00001283,-0.00009002,-0.00000510,-0.00004068,-0
 .00003718,0.00049740,0.00016024,0.00142893,0.00042601,0.00151080,-0.00
 022795,0.00150332,-0.00066140,0.00029631,-0.00160096,0.00137656,-0.000
 02373,-0.00018544,0.00019187,-0.00099280,0.00103349,-0.00019692,-0.104
 68523,0.07945682,0.00062354,-0.00012984,-0.00011969,0.00003887,0.00093
 501,-0.00033717,0.00105791,-0.00207543,0.00021931,0.00256153,0.0003326
 7,0.00089842,-0.00247350,-0.00156993,-0.00788976,-0.01927625,0.0034210
 3,0.00304285,-0.00227573,-0.00135833,-0.00163232,0.01058942,0.00243855
 ,0.00493287,-0.08530604,0.02970908,-0.07419609,-0.00009360,-0.00006328
 ,-0.00003800,-0.00000882,-0.00001709,0.00001695,0.00001198,-0.00002778
 ,0.00006838,0.00014657,0.00011794,-0.00011781,-0.00029778,-0.00028018,
 0.00061509,0.00167898,-0.00014122,0.00207049,-0.00048359,0.00152257,0.
 00074219,0.00023554,0.00019982,0.00042806,-0.00094795,0.00046171,0.000
 68294,0.09421893,-0.03347531,0.07061328\\-0.00000107,-0.00000113,-0.00
 000227,-0.00001135,-0.00000298,-0.00000747,-0.00001486,-0.00004177,-0.
 00000873,0.00001692,0.00001265,0.00001484,-0.00000899,0.00000446,-0.00
 002307,0.00000937,0.00002701,-0.00000385,-0.00001446,-0.00000674,0.000
 00579,0.00001738,0.00002020,0.00000325,0.00000901,-0.00001856,0.000009
 20,0.00000020,-0.00000044,-0.00001204,-0.00001039,-0.00001193,0.000005
 41,0.00000419,0.00000436,0.00000204,-0.00000151,-0.00000849,-0.0000044
 2,-0.00000248,0.00000612,-0.00001563,0.00000712,0.00000648,0.00000603,
 0.00000590,0.00001269,0.00000265,0.00000711,0.00000584,0.00001504,-0.0
 0000634,-0.00000652,0.00000915,-0.00000574,-0.00000125,0.00000410\\\@


 MEMORIES ARE LIKE AN ENGLISH GRAMMER LESSON -
 PRESENT TENSE, AND PAST PERFECT.
 Job cpu time:       0 days  0 hours 49 minutes 12.3 seconds.
 File lengths (MBytes):  RWF=    152 Int=      0 D2E=      0 Chk=      8 Scr=      1
 Normal termination of Gaussian 09 at Tue Jan 28 15:04:35 2020.
