 Entering Gaussian System, Link 0=/home/puck/opt/gaussian_09/g09
 Input=dsC7O2H10nsd_3092.com
 Output=dsC7O2H10nsd_3092.log
 Initial command:
 /home/puck/opt/gaussian_09/l1.exe "/scratch/puck/g09_b336807b-e2d1-4138-90e1-588ae2ff6ac7/Gau-179044.inp" -scrdir="/scratch/puck/g09_b336807b-e2d1-4138-90e1-588ae2ff6ac7/"
 Entering Link 1 = /home/puck/opt/gaussian_09/l1.exe PID=    179065.
  
 Copyright (c) 1988,1990,1992,1993,1995,1998,2003,2009,2013,
            Gaussian, Inc.  All Rights Reserved.
  
 This is part of the Gaussian(R) 09 program.  It is based on
 the Gaussian(R) 03 system (copyright 2003, Gaussian, Inc.),
 the Gaussian(R) 98 system (copyright 1998, Gaussian, Inc.),
 the Gaussian(R) 94 system (copyright 1995, Gaussian, Inc.),
 the Gaussian 92(TM) system (copyright 1992, Gaussian, Inc.),
 the Gaussian 90(TM) system (copyright 1990, Gaussian, Inc.),
 the Gaussian 88(TM) system (copyright 1988, Gaussian, Inc.),
 the Gaussian 86(TM) system (copyright 1986, Carnegie Mellon
 University), and the Gaussian 82(TM) system (copyright 1983,
 Carnegie Mellon University). Gaussian is a federally registered
 trademark of Gaussian, Inc.
  
 This software contains proprietary and confidential information,
 including trade secrets, belonging to Gaussian, Inc.
  
 This software is provided under written license and may be
 used, copied, transmitted, or stored only in accord with that
 written license.
  
 The following legend is applicable only to US Government
 contracts under FAR:
  
                    RESTRICTED RIGHTS LEGEND
  
 Use, reproduction and disclosure by the US Government is
 subject to restrictions as set forth in subparagraphs (a)
 and (c) of the Commercial Computer Software - Restricted
 Rights clause in FAR 52.227-19.
  
 Gaussian, Inc.
 340 Quinnipiac St., Bldg. 40, Wallingford CT 06492
  
  
 ---------------------------------------------------------------
 Warning -- This program may not be used in any manner that
 competes with the business of Gaussian, Inc. or will provide
 assistance to any competitor of Gaussian, Inc.  The licensee
 of this program is prohibited from giving any competitor of
 Gaussian, Inc. access to this program.  By using this program,
 the user acknowledges that Gaussian, Inc. is engaged in the
 business of creating and licensing software in the field of
 computational chemistry and represents and warrants to the
 licensee that it is not a competitor of Gaussian, Inc. and that
 it will not use this program in any manner prohibited above.
 ---------------------------------------------------------------
  

 Cite this work as:
 Gaussian 09, Revision D.01,
 M. J. Frisch, G. W. Trucks, H. B. Schlegel, G. E. Scuseria, 
 M. A. Robb, J. R. Cheeseman, G. Scalmani, V. Barone, B. Mennucci, 
 G. A. Petersson, H. Nakatsuji, M. Caricato, X. Li, H. P. Hratchian, 
 A. F. Izmaylov, J. Bloino, G. Zheng, J. L. Sonnenberg, M. Hada, 
 M. Ehara, K. Toyota, R. Fukuda, J. Hasegawa, M. Ishida, T. Nakajima, 
 Y. Honda, O. Kitao, H. Nakai, T. Vreven, J. A. Montgomery, Jr., 
 J. E. Peralta, F. Ogliaro, M. Bearpark, J. J. Heyd, E. Brothers, 
 K. N. Kudin, V. N. Staroverov, T. Keith, R. Kobayashi, J. Normand, 
 K. Raghavachari, A. Rendell, J. C. Burant, S. S. Iyengar, J. Tomasi, 
 M. Cossi, N. Rega, J. M. Millam, M. Klene, J. E. Knox, J. B. Cross, 
 V. Bakken, C. Adamo, J. Jaramillo, R. Gomperts, R. E. Stratmann, 
 O. Yazyev, A. J. Austin, R. Cammi, C. Pomelli, J. W. Ochterski, 
 R. L. Martin, K. Morokuma, V. G. Zakrzewski, G. A. Voth, 
 P. Salvador, J. J. Dannenberg, S. Dapprich, A. D. Daniels, 
 O. Farkas, J. B. Foresman, J. V. Ortiz, J. Cioslowski, 
 and D. J. Fox, Gaussian, Inc., Wallingford CT, 2013.
 
 ******************************************
 Gaussian 09:  ES64L-G09RevD.01 24-Apr-2013
                27-Jan-2020 
 ******************************************
 -----------------------------
 # b3lyp 6-31G(2df,p) opt Freq
 -----------------------------
 1/14=-1,18=20,19=15,26=3,38=1/1,3;
 2/9=110,12=2,17=6,18=5,40=1/2;
 3/5=1,6=6,7=104,11=2,16=1,25=1,30=1,71=1,74=-5/1,2,3;
 4//1;
 5/5=2,38=5/2;
 6/7=2,8=2,9=2,10=2,28=1/1;
 7//1,2,3,16;
 1/14=-1,18=20,19=15,26=3/3(2);
 2/9=110/2;
 99//99;
 2/9=110/2;
 3/5=1,6=6,7=104,11=2,16=1,25=1,30=1,71=1,74=-5/1,2,3;
 4/5=5,16=3,69=1/1;
 5/5=2,38=5/2;
 7//1,2,3,16;
 1/14=-1,18=20,19=15,26=3/3(-5);
 2/9=110/2;
 6/7=2,8=2,9=2,10=2,19=2,28=1/1;
 99/9=1/99;
 -----
 titel
 -----
 Symbolic Z-matrix:
 Charge =  0 Multiplicity = 1
 C                     0.03668  -0.16951   0.08183 
 C                     1.45377   0.35251   0.34594 
 C                     2.12728  -0.71391   1.20344 
 O                     2.43023  -1.80114   0.781 
 C                     1.68264   1.85982   0.72322 
 C                     1.38747   2.22587  -0.76001 
 C                     2.30235   0.9681   -0.83111 
 C                     3.16008   1.68072   0.24223 
 O                     4.03951   0.85771   0.96422 
 H                    -0.49579  -0.32358   1.02788 
 H                    -0.56982   0.49944  -0.53003 
 H                     0.09858  -1.13951  -0.41922 
 H                     2.21216  -0.47107   2.28732 
 H                     1.33306   2.38405   1.61536 
 H                     0.36387   2.12549  -1.11165 
 H                     1.82825   3.15911  -1.12023 
 H                     2.66217   0.4487   -1.71883 
 H                     3.65822   2.59999  -0.08957 
 H                     4.3387    1.33533   1.74511 
 

 GradGradGradGradGradGradGradGradGradGradGradGradGradGradGradGradGradGrad
 Berny optimization.
 Initialization pass.
                           ----------------------------
                           !    Initial Parameters    !
                           ! (Angstroms and Degrees)  !
 --------------------------                            --------------------------
 ! Name  Definition              Value          Derivative Info.                !
 --------------------------------------------------------------------------------
 ! R1    R(1,2)                  1.5331         estimate D2E/DX2                !
 ! R2    R(1,10)                 1.0965         estimate D2E/DX2                !
 ! R3    R(1,11)                 1.0907         estimate D2E/DX2                !
 ! R4    R(1,12)                 1.0935         estimate D2E/DX2                !
 ! R5    R(2,3)                  1.5252         estimate D2E/DX2                !
 ! R6    R(2,5)                  1.5706         estimate D2E/DX2                !
 ! R7    R(2,7)                  1.5762         estimate D2E/DX2                !
 ! R8    R(3,4)                  1.2051         estimate D2E/DX2                !
 ! R9    R(3,13)                 1.114          estimate D2E/DX2                !
 ! R10   R(5,6)                  1.556          estimate D2E/DX2                !
 ! R11   R(5,8)                  1.564          estimate D2E/DX2                !
 ! R12   R(5,14)                 1.0922         estimate D2E/DX2                !
 ! R13   R(6,7)                  1.5569         estimate D2E/DX2                !
 ! R14   R(6,15)                 1.087          estimate D2E/DX2                !
 ! R15   R(6,16)                 1.0932         estimate D2E/DX2                !
 ! R16   R(7,8)                  1.5478         estimate D2E/DX2                !
 ! R17   R(7,17)                 1.0896         estimate D2E/DX2                !
 ! R18   R(8,9)                  1.4043         estimate D2E/DX2                !
 ! R19   R(8,18)                 1.0969         estimate D2E/DX2                !
 ! R20   R(9,19)                 0.963          estimate D2E/DX2                !
 ! A1    A(2,1,10)             110.3695         estimate D2E/DX2                !
 ! A2    A(2,1,11)             113.6895         estimate D2E/DX2                !
 ! A3    A(2,1,12)             109.1862         estimate D2E/DX2                !
 ! A4    A(10,1,11)            107.4669         estimate D2E/DX2                !
 ! A5    A(10,1,12)            107.3485         estimate D2E/DX2                !
 ! A6    A(11,1,12)            108.5709         estimate D2E/DX2                !
 ! A7    A(1,2,3)              105.4831         estimate D2E/DX2                !
 ! A8    A(1,2,5)              120.1892         estimate D2E/DX2                !
 ! A9    A(1,2,7)              120.1297         estimate D2E/DX2                !
 ! A10   A(3,2,5)              118.1408         estimate D2E/DX2                !
 ! A11   A(3,2,7)              117.0772         estimate D2E/DX2                !
 ! A12   A(5,2,7)               74.1041         estimate D2E/DX2                !
 ! A13   A(2,3,4)              123.0067         estimate D2E/DX2                !
 ! A14   A(2,3,13)             115.357          estimate D2E/DX2                !
 ! A15   A(4,3,13)             121.2371         estimate D2E/DX2                !
 ! A16   A(2,5,6)               88.2321         estimate D2E/DX2                !
 ! A17   A(2,5,8)               87.3567         estimate D2E/DX2                !
 ! A18   A(2,5,14)             127.6043         estimate D2E/DX2                !
 ! A19   A(6,5,8)               85.0081         estimate D2E/DX2                !
 ! A20   A(6,5,14)             127.2282         estimate D2E/DX2                !
 ! A21   A(8,5,14)             127.4811         estimate D2E/DX2                !
 ! A22   A(5,6,7)               75.0491         estimate D2E/DX2                !
 ! A23   A(5,6,15)             117.7292         estimate D2E/DX2                !
 ! A24   A(5,6,16)             116.0057         estimate D2E/DX2                !
 ! A25   A(7,6,15)             117.645          estimate D2E/DX2                !
 ! A26   A(7,6,16)             115.9566         estimate D2E/DX2                !
 ! A27   A(15,6,16)            110.6067         estimate D2E/DX2                !
 ! A28   A(2,7,6)               87.9978         estimate D2E/DX2                !
 ! A29   A(2,7,8)               87.7251         estimate D2E/DX2                !
 ! A30   A(2,7,17)             126.8691         estimate D2E/DX2                !
 ! A31   A(6,7,8)               85.5279         estimate D2E/DX2                !
 ! A32   A(6,7,17)             128.0485         estimate D2E/DX2                !
 ! A33   A(8,7,17)             126.9732         estimate D2E/DX2                !
 ! A34   A(5,8,7)               75.0782         estimate D2E/DX2                !
 ! A35   A(5,8,9)              120.0377         estimate D2E/DX2                !
 ! A36   A(5,8,18)             115.2157         estimate D2E/DX2                !
 ! A37   A(7,8,9)              115.706          estimate D2E/DX2                !
 ! A38   A(7,8,18)             115.3242         estimate D2E/DX2                !
 ! A39   A(9,8,18)             111.2394         estimate D2E/DX2                !
 ! A40   A(8,9,19)             108.7109         estimate D2E/DX2                !
 ! D1    D(10,1,2,3)            59.2575         estimate D2E/DX2                !
 ! D2    D(10,1,2,5)           -77.4068         estimate D2E/DX2                !
 ! D3    D(10,1,2,7)          -165.7606         estimate D2E/DX2                !
 ! D4    D(11,1,2,3)          -179.9092         estimate D2E/DX2                !
 ! D5    D(11,1,2,5)            43.4265         estimate D2E/DX2                !
 ! D6    D(11,1,2,7)           -44.9273         estimate D2E/DX2                !
 ! D7    D(12,1,2,3)           -58.516          estimate D2E/DX2                !
 ! D8    D(12,1,2,5)           164.8197         estimate D2E/DX2                !
 ! D9    D(12,1,2,7)            76.466          estimate D2E/DX2                !
 ! D10   D(1,2,3,4)             69.6811         estimate D2E/DX2                !
 ! D11   D(1,2,3,13)          -103.1379         estimate D2E/DX2                !
 ! D12   D(5,2,3,4)           -152.5956         estimate D2E/DX2                !
 ! D13   D(5,2,3,13)            34.5854         estimate D2E/DX2                !
 ! D14   D(7,2,3,4)            -66.9202         estimate D2E/DX2                !
 ! D15   D(7,2,3,13)           120.2608         estimate D2E/DX2                !
 ! D16   D(1,2,5,6)            -73.599          estimate D2E/DX2                !
 ! D17   D(1,2,5,8)           -158.6814         estimate D2E/DX2                !
 ! D18   D(1,2,5,14)            64.1523         estimate D2E/DX2                !
 ! D19   D(3,2,5,6)            154.9935         estimate D2E/DX2                !
 ! D20   D(3,2,5,8)             69.9112         estimate D2E/DX2                !
 ! D21   D(3,2,5,14)           -67.2552         estimate D2E/DX2                !
 ! D22   D(7,2,5,6)             42.386          estimate D2E/DX2                !
 ! D23   D(7,2,5,8)            -42.6963         estimate D2E/DX2                !
 ! D24   D(7,2,5,14)          -179.8627         estimate D2E/DX2                !
 ! D25   D(1,2,7,6)             73.6945         estimate D2E/DX2                !
 ! D26   D(1,2,7,8)            159.296          estimate D2E/DX2                !
 ! D27   D(1,2,7,17)           -64.4349         estimate D2E/DX2                !
 ! D28   D(3,2,7,6)           -156.2633         estimate D2E/DX2                !
 ! D29   D(3,2,7,8)            -70.6618         estimate D2E/DX2                !
 ! D30   D(3,2,7,17)            65.6073         estimate D2E/DX2                !
 ! D31   D(5,2,7,6)            -42.3614         estimate D2E/DX2                !
 ! D32   D(5,2,7,8)             43.24           estimate D2E/DX2                !
 ! D33   D(5,2,7,17)           179.5091         estimate D2E/DX2                !
 ! D34   D(2,5,6,7)            -42.7951         estimate D2E/DX2                !
 ! D35   D(2,5,6,15)            70.9201         estimate D2E/DX2                !
 ! D36   D(2,5,6,16)          -154.7447         estimate D2E/DX2                !
 ! D37   D(8,5,6,7)             44.7049         estimate D2E/DX2                !
 ! D38   D(8,5,6,15)           158.42           estimate D2E/DX2                !
 ! D39   D(8,5,6,16)           -67.2447         estimate D2E/DX2                !
 ! D40   D(14,5,6,7)           179.1935         estimate D2E/DX2                !
 ! D41   D(14,5,6,15)          -67.0913         estimate D2E/DX2                !
 ! D42   D(14,5,6,16)           67.2439         estimate D2E/DX2                !
 ! D43   D(2,5,8,7)             43.4209         estimate D2E/DX2                !
 ! D44   D(2,5,8,9)            -67.9523         estimate D2E/DX2                !
 ! D45   D(2,5,8,18)           154.7548         estimate D2E/DX2                !
 ! D46   D(6,5,8,7)            -45.0337         estimate D2E/DX2                !
 ! D47   D(6,5,8,9)           -156.4069         estimate D2E/DX2                !
 ! D48   D(6,5,8,18)            66.3002         estimate D2E/DX2                !
 ! D49   D(14,5,8,7)          -179.3252         estimate D2E/DX2                !
 ! D50   D(14,5,8,9)            69.3017         estimate D2E/DX2                !
 ! D51   D(14,5,8,18)          -67.9912         estimate D2E/DX2                !
 ! D52   D(5,6,7,2)             42.6125         estimate D2E/DX2                !
 ! D53   D(5,6,7,8)            -45.261          estimate D2E/DX2                !
 ! D54   D(5,6,7,17)           179.9202         estimate D2E/DX2                !
 ! D55   D(15,6,7,2)           -71.2031         estimate D2E/DX2                !
 ! D56   D(15,6,7,8)          -159.0767         estimate D2E/DX2                !
 ! D57   D(15,6,7,17)           66.1046         estimate D2E/DX2                !
 ! D58   D(16,6,7,2)           154.6214         estimate D2E/DX2                !
 ! D59   D(16,6,7,8)            66.7478         estimate D2E/DX2                !
 ! D60   D(16,6,7,17)          -68.0709         estimate D2E/DX2                !
 ! D61   D(2,7,8,5)            -43.2121         estimate D2E/DX2                !
 ! D62   D(2,7,8,9)             73.3171         estimate D2E/DX2                !
 ! D63   D(2,7,8,18)          -154.4145         estimate D2E/DX2                !
 ! D64   D(6,7,8,5)             44.9561         estimate D2E/DX2                !
 ! D65   D(6,7,8,9)            161.4853         estimate D2E/DX2                !
 ! D66   D(6,7,8,18)           -66.2463         estimate D2E/DX2                !
 ! D67   D(17,7,8,5)          -179.4063         estimate D2E/DX2                !
 ! D68   D(17,7,8,9)           -62.8771         estimate D2E/DX2                !
 ! D69   D(17,7,8,18)           69.3913         estimate D2E/DX2                !
 ! D70   D(5,8,9,19)           -77.8007         estimate D2E/DX2                !
 ! D71   D(7,8,9,19)          -164.8335         estimate D2E/DX2                !
 ! D72   D(18,8,9,19)           61.026          estimate D2E/DX2                !
 --------------------------------------------------------------------------------
 Trust Radius=3.00D-01 FncErr=1.00D-07 GrdErr=1.00D-06
 Number of steps in this run=    114 maximum allowed number of steps=    114.
 GradGradGradGradGradGradGradGradGradGradGradGradGradGradGradGradGradGrad

                          Input orientation:                          
 ---------------------------------------------------------------------
 Center     Atomic      Atomic             Coordinates (Angstroms)
 Number     Number       Type             X           Y           Z
 ---------------------------------------------------------------------
      1          6           0        0.036675   -0.169509    0.081831
      2          6           0        1.453775    0.352507    0.345940
      3          6           0        2.127281   -0.713914    1.203443
      4          8           0        2.430227   -1.801145    0.781002
      5          6           0        1.682644    1.859820    0.723216
      6          6           0        1.387474    2.225867   -0.760013
      7          6           0        2.302347    0.968104   -0.831107
      8          6           0        3.160076    1.680719    0.242229
      9          8           0        4.039506    0.857709    0.964219
     10          1           0       -0.495788   -0.323581    1.027883
     11          1           0       -0.569824    0.499442   -0.530026
     12          1           0        0.098583   -1.139515   -0.419217
     13          1           0        2.212159   -0.471073    2.287321
     14          1           0        1.333055    2.384055    1.615362
     15          1           0        0.363866    2.125493   -1.111649
     16          1           0        1.828255    3.159109   -1.120230
     17          1           0        2.662167    0.448704   -1.718826
     18          1           0        3.658220    2.599987   -0.089573
     19          1           0        4.338696    1.335325    1.745111
 ---------------------------------------------------------------------
                    Distance matrix (angstroms):
                    1          2          3          4          5
     1  C    0.000000
     2  C    1.533110   0.000000
     3  C    2.434137   1.525181   0.000000
     4  O    2.979960   2.404361   1.205115   0.000000
     5  C    2.690495   1.570577   2.655641   3.736962   0.000000
     6  C    2.875967   2.176467   3.611757   4.436089   1.555983
     7  C    2.694603   1.576221   2.645605   3.206865   1.896077
     8  C    3.633828   2.164802   2.779365   3.598101   1.564044
     9  O    4.225688   2.706198   2.486731   3.113334   2.572375
    10  H    1.096481   2.173232   2.657757   3.287204   3.099295
    11  H    1.090736   2.209945   3.428049   4.001474   2.914594
    12  H    1.093523   2.155954   2.632446   2.704596   3.579163
    13  H    3.112533   2.241069   1.113988   2.021298   2.856549
    14  H    3.248539   2.398581   3.224575   4.406340   1.092226
    15  H    2.607389   2.540855   4.065897   4.823946   2.275189
    16  H    3.966661   3.188558   4.526498   5.346135   2.260010
    17  H    3.243110   2.394312   3.190210   3.371165   2.985680
    18  H    4.562354   3.178116   3.872675   4.651433   2.260835
    19  H    4.851640   3.353563   3.063192   3.795946   2.893783
                    6          7          8          9         10
     6  C    0.000000
     7  C    1.556925   0.000000
     8  C    2.108031   1.547763   0.000000
     9  O    3.446463   2.500621   1.404284   0.000000
    10  H    3.639084   3.599145   4.242619   4.687045   0.000000
    11  H    2.620011   2.925689   3.987976   4.858709   1.763499
    12  H    3.619831   3.077057   4.214732   4.629651   1.764404
    13  H    4.152088   3.435688   3.116273   2.618292   2.990137
    14  H    2.381258   2.988252   2.391272   3.174680   3.319803
    15  H    1.086967   2.275074   3.138407   4.407589   3.363712
    16  H    1.093153   2.260278   2.411571   3.811955   4.705814
    17  H    2.387986   1.089630   2.368863   3.043531   4.255998
    18  H    2.397028   2.247512   1.096947   2.071568   5.201129
    19  H    3.972207   3.304311   1.940901   0.963029   5.161262
                   11         12         13         14         15
    11  H    0.000000
    12  H    1.773478   0.000000
    13  H    4.076613   3.498481   0.000000
    14  H    3.431531   4.251937   3.062043   0.000000
    15  H    1.963187   3.348150   4.659543   2.905644   0.000000
    16  H    3.629456   4.686293   4.993696   2.886069   1.792448
    17  H    3.444066   3.283807   4.134938   4.077859   2.909033
    18  H    4.741587   5.173350   4.143926   2.891335   3.481746
    19  H    5.474351   5.365418   2.842398   3.185992   4.958298
                   16         17         18         19
    16  H    0.000000
    17  H    2.898279   0.000000
    18  H    2.173394   2.876562   0.000000
    19  H    4.223586   3.949140   2.329911   0.000000
 Stoichiometry    C7H10O2
 Framework group  C1[X(C7H10O2)]
 Deg. of freedom    51
 Full point group                 C1      NOp   1
 Largest Abelian subgroup         C1      NOp   1
 Largest concise Abelian subgroup C1      NOp   1
                         Standard orientation:                         
 ---------------------------------------------------------------------
 Center     Atomic      Atomic             Coordinates (Angstroms)
 Number     Number       Type             X           Y           Z
 ---------------------------------------------------------------------
      1          6           0       -0.989696    1.929457    0.170126
      2          6           0       -0.335292    0.543475    0.135006
      3          6           0       -1.472836   -0.449451    0.350109
      4          8           0       -2.330450   -0.653313   -0.471621
      5          6           0        1.020437    0.290935    0.886626
      6          6           0        1.735787    1.103582   -0.230944
      7          6           0        0.719684    0.194735   -0.982973
      8          6           0        1.232736   -0.936345   -0.059389
      9          8           0        0.397671   -2.060151    0.048969
     10          1           0       -1.490840    2.090635    1.131972
     11          1           0       -0.285871    2.750182    0.026090
     12          1           0       -1.754467    1.985642   -0.609464
     13          1           0       -1.535172   -0.889557    1.371573
     14          1           0        1.205803    0.341196    1.961834
     15          1           0        1.569915    2.177413   -0.260440
     16          1           0        2.792514    0.873013   -0.389530
     17          1           0        0.539339    0.133658   -2.055838
     18          1           0        2.277783   -1.231311   -0.214838
     19          1           0        0.678314   -2.581490    0.808488
 ---------------------------------------------------------------------
 Rotational constants (GHZ):      2.2767260      1.8900973      1.2337831
 Standard basis: 6-31G(2df,p) (6D, 7F)
 There are   329 symmetry adapted cartesian basis functions of A   symmetry.
 There are   302 symmetry adapted basis functions of A   symmetry.
   302 basis functions,   466 primitive gaussians,   329 cartesian basis functions
    34 alpha electrons       34 beta electrons
       nuclear repulsion energy       472.3227250004 Hartrees.
 NAtoms=   19 NActive=   19 NUniq=   19 SFac= 1.00D+00 NAtFMM=   60 NAOKFM=F Big=F
 Integral buffers will be    131072 words long.
 Raffenetti 2 integral format.
 Two-electron integral symmetry is turned on.
 One-electron integrals computed using PRISM.
 NBasis=   302 RedAO= T EigKep=  2.72D-04  NBF=   302
 NBsUse=   302 1.00D-06 EigRej= -1.00D+00 NBFU=   302
 ExpMin= 1.61D-01 ExpMax= 5.48D+03 ExpMxC= 8.25D+02 IAcc=1 IRadAn=         1 AccDes= 0.00D+00
 Harris functional with IExCor=  402 and IRadAn=       1 diagonalized for initial guess.
 HarFok:  IExCor=  402 AccDes= 0.00D+00 IRadAn=         1 IDoV= 1 UseB2=F ITyADJ=14
 ICtDFT=  3500011 ScaDFX=  1.000000  1.000000  1.000000  1.000000
 FoFCou: FMM=F IPFlag=           0 FMFlag=      100000 FMFlg1=           0
         NFxFlg=           0 DoJE=T BraDBF=F KetDBF=T FulRan=T
         wScrn=  0.000000 ICntrl=     500 IOpCl=  0 I1Cent=   200000004 NGrid=           0
         NMat0=    1 NMatS0=      1 NMatT0=    0 NMatD0=    1 NMtDS0=    0 NMtDT0=    0
 Petite list used in FoFCou.
 Requested convergence on RMS density matrix=1.00D-08 within 128 cycles.
 Requested convergence on MAX density matrix=1.00D-06.
 Requested convergence on             energy=1.00D-06.
 No special actions if energy rises.
 Integral accuracy reduced to 1.0D-05 until final iterations.
 Initial convergence to 1.0D-05 achieved.  Increase integral accuracy.
 SCF Done:  E(RB3LYP) =  -423.132227508     A.U. after   14 cycles
            NFock= 14  Conv=0.48D-08     -V/T= 2.0074

 **********************************************************************

            Population analysis using the SCF density.

 **********************************************************************

 Orbital symmetries:
       Occupied  (A) (A) (A) (A) (A) (A) (A) (A) (A) (A) (A) (A)
                 (A) (A) (A) (A) (A) (A) (A) (A) (A) (A) (A) (A)
                 (A) (A) (A) (A) (A) (A) (A) (A) (A) (A)
       Virtual   (A) (A) (A) (A) (A) (A) (A) (A) (A) (A) (A) (A)
                 (A) (A) (A) (A) (A) (A) (A) (A) (A) (A) (A) (A)
                 (A) (A) (A) (A) (A) (A) (A) (A) (A) (A) (A) (A)
                 (A) (A) (A) (A) (A) (A) (A) (A) (A) (A) (A) (A)
                 (A) (A) (A) (A) (A) (A) (A) (A) (A) (A) (A) (A)
                 (A) (A) (A) (A) (A) (A) (A) (A) (A) (A) (A) (A)
                 (A) (A) (A) (A) (A) (A) (A) (A) (A) (A) (A) (A)
                 (A) (A) (A) (A) (A) (A) (A) (A) (A) (A) (A) (A)
                 (A) (A) (A) (A) (A) (A) (A) (A) (A) (A) (A) (A)
                 (A) (A) (A) (A) (A) (A) (A) (A) (A) (A) (A) (A)
                 (A) (A) (A) (A) (A) (A) (A) (A) (A) (A) (A) (A)
                 (A) (A) (A) (A) (A) (A) (A) (A) (A) (A) (A) (A)
                 (A) (A) (A) (A) (A) (A) (A) (A) (A) (A) (A) (A)
                 (A) (A) (A) (A) (A) (A) (A) (A) (A) (A) (A) (A)
                 (A) (A) (A) (A) (A) (A) (A) (A) (A) (A) (A) (A)
                 (A) (A) (A) (A) (A) (A) (A) (A) (A) (A) (A) (A)
                 (A) (A) (A) (A) (A) (A) (A) (A) (A) (A) (A) (A)
                 (A) (A) (A) (A) (A) (A) (A) (A) (A) (A) (A) (A)
                 (A) (A) (A) (A) (A) (A) (A) (A) (A) (A) (A) (A)
                 (A) (A) (A) (A) (A) (A) (A) (A) (A) (A) (A) (A)
                 (A) (A) (A) (A) (A) (A) (A) (A) (A) (A) (A) (A)
                 (A) (A) (A) (A) (A) (A) (A) (A) (A) (A) (A) (A)
                 (A) (A) (A) (A)
 The electronic state is 1-A.
 Alpha  occ. eigenvalues --  -19.15634 -19.11854 -10.25538 -10.24741 -10.20790
 Alpha  occ. eigenvalues --  -10.20743 -10.20724 -10.19724 -10.18071  -1.04349
 Alpha  occ. eigenvalues --   -1.02673  -0.91586  -0.75328  -0.67546  -0.64582
 Alpha  occ. eigenvalues --   -0.63490  -0.58832  -0.53432  -0.50865  -0.50614
 Alpha  occ. eigenvalues --   -0.47010  -0.43420  -0.42980  -0.40751  -0.40356
 Alpha  occ. eigenvalues --   -0.38044  -0.35911  -0.35061  -0.34477  -0.33067
 Alpha  occ. eigenvalues --   -0.30937  -0.30466  -0.27709  -0.23132
 Alpha virt. eigenvalues --   -0.00021   0.07095   0.10251   0.11300   0.12200
 Alpha virt. eigenvalues --    0.13024   0.13867   0.14317   0.15313   0.15969
 Alpha virt. eigenvalues --    0.17367   0.17588   0.18994   0.19844   0.22363
 Alpha virt. eigenvalues --    0.23344   0.23855   0.27867   0.29514   0.31692
 Alpha virt. eigenvalues --    0.31926   0.43010   0.43695   0.45232   0.46922
 Alpha virt. eigenvalues --    0.49032   0.49794   0.50791   0.52236   0.53648
 Alpha virt. eigenvalues --    0.54557   0.57636   0.59349   0.59844   0.61526
 Alpha virt. eigenvalues --    0.62550   0.65668   0.65978   0.68217   0.69937
 Alpha virt. eigenvalues --    0.70688   0.71583   0.72326   0.73579   0.74357
 Alpha virt. eigenvalues --    0.75521   0.77359   0.78486   0.79165   0.79851
 Alpha virt. eigenvalues --    0.82711   0.84655   0.85629   0.87294   0.88376
 Alpha virt. eigenvalues --    0.89153   0.91069   0.92612   0.95119   0.98354
 Alpha virt. eigenvalues --    1.00442   1.01633   1.03128   1.06125   1.07669
 Alpha virt. eigenvalues --    1.08505   1.12038   1.16147   1.20636   1.22521
 Alpha virt. eigenvalues --    1.23966   1.25808   1.27965   1.29936   1.30594
 Alpha virt. eigenvalues --    1.34886   1.36715   1.38895   1.39646   1.39865
 Alpha virt. eigenvalues --    1.42235   1.42984   1.45023   1.45414   1.50055
 Alpha virt. eigenvalues --    1.50690   1.52580   1.56286   1.58245   1.59488
 Alpha virt. eigenvalues --    1.60300   1.61037   1.62684   1.63812   1.66476
 Alpha virt. eigenvalues --    1.67734   1.71548   1.73121   1.73575   1.78503
 Alpha virt. eigenvalues --    1.83575   1.85386   1.88384   1.92245   1.98053
 Alpha virt. eigenvalues --    1.98479   2.01585   2.03564   2.07350   2.09635
 Alpha virt. eigenvalues --    2.13660   2.18407   2.20059   2.28200   2.32621
 Alpha virt. eigenvalues --    2.35915   2.38152   2.39173   2.40911   2.45608
 Alpha virt. eigenvalues --    2.48270   2.50075   2.51192   2.54152   2.54991
 Alpha virt. eigenvalues --    2.59986   2.61621   2.64941   2.67142   2.70521
 Alpha virt. eigenvalues --    2.75784   2.76200   2.80603   2.81336   2.83586
 Alpha virt. eigenvalues --    2.87564   2.88923   2.91474   2.92476   2.93745
 Alpha virt. eigenvalues --    2.95984   2.96998   3.00063   3.01686   3.02694
 Alpha virt. eigenvalues --    3.04203   3.08980   3.10057   3.12659   3.14408
 Alpha virt. eigenvalues --    3.15561   3.18217   3.22251   3.22893   3.25101
 Alpha virt. eigenvalues --    3.27872   3.29718   3.31913   3.33353   3.36678
 Alpha virt. eigenvalues --    3.37825   3.38938   3.42564   3.47779   3.50318
 Alpha virt. eigenvalues --    3.55492   3.57656   3.59692   3.64606   3.65859
 Alpha virt. eigenvalues --    3.67834   3.73168   3.78732   3.82168   3.84720
 Alpha virt. eigenvalues --    3.87496   3.89715   3.90156   3.91026   3.94882
 Alpha virt. eigenvalues --    4.00364   4.01523   4.01829   4.04673   4.08047
 Alpha virt. eigenvalues --    4.16052   4.18554   4.19886   4.21647   4.25817
 Alpha virt. eigenvalues --    4.29344   4.29649   4.33803   4.36193   4.37951
 Alpha virt. eigenvalues --    4.39567   4.43501   4.45111   4.46650   4.49980
 Alpha virt. eigenvalues --    4.52679   4.54454   4.55867   4.56909   4.59118
 Alpha virt. eigenvalues --    4.59881   4.61387   4.63080   4.65532   4.67749
 Alpha virt. eigenvalues --    4.68952   4.72844   4.74064   4.74459   4.76872
 Alpha virt. eigenvalues --    4.80289   4.81670   4.82517   4.83171   4.85304
 Alpha virt. eigenvalues --    4.86989   4.90538   4.93303   4.94184   4.95234
 Alpha virt. eigenvalues --    5.02355   5.04147   5.08575   5.11446   5.13218
 Alpha virt. eigenvalues --    5.16949   5.19221   5.22827   5.25137   5.28359
 Alpha virt. eigenvalues --    5.35497   5.39214   5.41165   5.47231   5.47795
 Alpha virt. eigenvalues --    5.52942   5.53196   5.56112   5.58247   5.65056
 Alpha virt. eigenvalues --    5.68205   5.74616   5.77509   5.88705   6.01186
 Alpha virt. eigenvalues --    6.03909   6.08780   6.13391   6.24510   6.31083
 Alpha virt. eigenvalues --    6.48165   6.92566   7.16064   7.51840  10.85627
 Alpha virt. eigenvalues --   11.48142  11.72782  11.92806  12.15768  12.33578
 Alpha virt. eigenvalues --   12.95589  13.10789  13.71980
          Condensed to atoms (all electrons):
               1          2          3          4          5          6
     1  C    5.126119   0.379924  -0.035474  -0.007618  -0.040992  -0.007765
     2  C    0.379924   4.899419   0.248498  -0.064468   0.235428   0.001188
     3  C   -0.035474   0.248498   4.584945   0.753874  -0.015025   0.005512
     4  O   -0.007618  -0.064468   0.753874   7.649209   0.003083  -0.000019
     5  C   -0.040992   0.235428  -0.015025   0.003083   5.241382   0.287861
     6  C   -0.007765   0.001188   0.005512  -0.000019   0.287861   5.029937
     7  C   -0.032285   0.300814  -0.026482   0.001860  -0.064439   0.292023
     8  C    0.003665  -0.000015  -0.003032  -0.000494   0.283043  -0.010711
     9  O    0.000352  -0.010113   0.027546  -0.005127  -0.044827   0.002223
    10  H    0.361869  -0.022311  -0.000281  -0.000072  -0.002606  -0.000239
    11  H    0.366812  -0.016123   0.003603   0.000166  -0.006346   0.001624
    12  H    0.360814  -0.023154   0.003457   0.006860   0.005235  -0.000279
    13  H    0.004130  -0.127507   0.337445  -0.057456   0.009507  -0.000332
    14  H    0.000643  -0.036687  -0.000845  -0.000014   0.350522  -0.038358
    15  H    0.001768  -0.014609   0.000175  -0.000006  -0.016339   0.370432
    16  H    0.000199   0.003230  -0.000195   0.000001  -0.021136   0.362509
    17  H   -0.000098  -0.034294  -0.000531   0.000975   0.015695  -0.037012
    18  H   -0.000510   0.005699   0.001024  -0.000040  -0.057616  -0.004641
    19  H    0.000023  -0.000778  -0.000756   0.000181  -0.001157  -0.000741
               7          8          9         10         11         12
     1  C   -0.032285   0.003665   0.000352   0.361869   0.366812   0.360814
     2  C    0.300814  -0.000015  -0.010113  -0.022311  -0.016123  -0.023154
     3  C   -0.026482  -0.003032   0.027546  -0.000281   0.003603   0.003457
     4  O    0.001860  -0.000494  -0.005127  -0.000072   0.000166   0.006860
     5  C   -0.064439   0.283043  -0.044827  -0.002606  -0.006346   0.005235
     6  C    0.292023  -0.010711   0.002223  -0.000239   0.001624  -0.000279
     7  C    5.032273   0.315149  -0.022203   0.004923  -0.006597  -0.002232
     8  C    0.315149   4.651207   0.394238  -0.000187   0.000418  -0.000091
     9  O   -0.022203   0.394238   7.803146  -0.000003  -0.000002   0.000002
    10  H    0.004923  -0.000187  -0.000003   0.597961  -0.033313  -0.029358
    11  H   -0.006597   0.000418  -0.000002  -0.033313   0.597992  -0.030169
    12  H   -0.002232  -0.000091   0.000002  -0.029358  -0.030169   0.561361
    13  H    0.007439  -0.003319   0.000464   0.002432  -0.000337   0.001063
    14  H    0.016389  -0.035971   0.000160   0.001230  -0.000185  -0.000090
    15  H   -0.017872   0.004229  -0.000086  -0.000111   0.004657  -0.000118
    16  H   -0.019322  -0.014541   0.000143   0.000002  -0.000284   0.000005
    17  H    0.360390  -0.032942  -0.000171  -0.000094  -0.000149   0.001117
    18  H   -0.046586   0.365868  -0.034095   0.000008  -0.000003   0.000009
    19  H    0.008138  -0.058150   0.309088   0.000000   0.000000   0.000001
              13         14         15         16         17         18
     1  C    0.004130   0.000643   0.001768   0.000199  -0.000098  -0.000510
     2  C   -0.127507  -0.036687  -0.014609   0.003230  -0.034294   0.005699
     3  C    0.337445  -0.000845   0.000175  -0.000195  -0.000531   0.001024
     4  O   -0.057456  -0.000014  -0.000006   0.000001   0.000975  -0.000040
     5  C    0.009507   0.350522  -0.016339  -0.021136   0.015695  -0.057616
     6  C   -0.000332  -0.038358   0.370432   0.362509  -0.037012  -0.004641
     7  C    0.007439   0.016389  -0.017872  -0.019322   0.360390  -0.046586
     8  C   -0.003319  -0.035971   0.004229  -0.014541  -0.032942   0.365868
     9  O    0.000464   0.000160  -0.000086   0.000143  -0.000171  -0.034095
    10  H    0.002432   0.001230  -0.000111   0.000002  -0.000094   0.000008
    11  H   -0.000337  -0.000185   0.004657  -0.000284  -0.000149  -0.000003
    12  H    0.001063  -0.000090  -0.000118   0.000005   0.001117   0.000009
    13  H    0.766063   0.002633   0.000000   0.000022  -0.000067  -0.000058
    14  H    0.002633   0.669845   0.000574   0.000772  -0.000822  -0.000255
    15  H    0.000000   0.000574   0.602462  -0.043110   0.000721  -0.000557
    16  H    0.000022   0.000772  -0.043110   0.624425   0.000591   0.009785
    17  H   -0.000067  -0.000822   0.000721   0.000591   0.639019  -0.000349
    18  H   -0.000058  -0.000255  -0.000557   0.009785  -0.000349   0.692195
    19  H    0.001833   0.001315   0.000013   0.000001  -0.000145  -0.003554
              19
     1  C    0.000023
     2  C   -0.000778
     3  C   -0.000756
     4  O    0.000181
     5  C   -0.001157
     6  C   -0.000741
     7  C    0.008138
     8  C   -0.058150
     9  O    0.309088
    10  H    0.000000
    11  H    0.000000
    12  H    0.000001
    13  H    0.001833
    14  H    0.001315
    15  H    0.000013
    16  H    0.000001
    17  H   -0.000145
    18  H   -0.003554
    19  H    0.455315
 Mulliken charges:
               1
     1  C   -0.481576
     2  C    0.275858
     3  C    0.116542
     4  O   -0.280896
     5  C   -0.161273
     6  C   -0.253212
     7  C   -0.101381
     8  C    0.141638
     9  O   -0.420736
    10  H    0.120150
    11  H    0.118237
    12  H    0.145566
    13  H    0.056045
    14  H    0.069143
    15  H    0.107777
    16  H    0.096901
    17  H    0.088165
    18  H    0.073676
    19  H    0.289375
 Sum of Mulliken charges =   0.00000
 Mulliken charges with hydrogens summed into heavy atoms:
               1
     1  C   -0.097624
     2  C    0.275858
     3  C    0.172587
     4  O   -0.280896
     5  C   -0.092129
     6  C   -0.048534
     7  C   -0.013215
     8  C    0.215313
     9  O   -0.131361
 Electronic spatial extent (au):  <R**2>=           1044.1412
 Charge=              0.0000 electrons
 Dipole moment (field-independent basis, Debye):
    X=              3.2513    Y=              0.7063    Z=              2.1193  Tot=              3.9448
 Quadrupole moment (field-independent basis, Debye-Ang):
   XX=            -58.4246   YY=            -50.9037   ZZ=            -51.4957
   XY=             -4.4925   XZ=             -2.1661   YZ=             -4.1865
 Traceless Quadrupole moment (field-independent basis, Debye-Ang):
   XX=             -4.8166   YY=              2.7043   ZZ=              2.1123
   XY=             -4.4925   XZ=             -2.1661   YZ=             -4.1865
 Octapole moment (field-independent basis, Debye-Ang**2):
  XXX=             14.5815  YYY=            -18.8036  ZZZ=             -0.2875  XYY=              3.9868
  XXY=             -0.1686  XXZ=              5.7647  XZZ=             -1.6199  YZZ=             -7.0771
  YYZ=              9.1450  XYZ=             -0.7108
 Hexadecapole moment (field-independent basis, Debye-Ang**3):
 XXXX=           -670.6818 YYYY=           -489.8049 ZZZZ=           -164.4666 XXXY=            -21.6507
 XXXZ=            -10.2186 YYYX=             -9.3027 YYYZ=            -28.8944 ZZZX=              5.6381
 ZZZY=             -2.8344 XXYY=           -190.8507 XXZZ=           -135.6450 YYZZ=           -110.0341
 XXYZ=             -6.1800 YYXZ=              7.0477 ZZXY=             -3.8954
 N-N= 4.723227250004D+02 E-N=-1.931375964323D+03  KE= 4.200205472598D+02
 Calling FoFJK, ICntrl=      2127 FMM=F ISym2X=0 I1Cent= 0 IOpClX= 0 NMat=1 NMatS=1 NMatT=0.
 ***** Axes restored to original set *****
 -------------------------------------------------------------------
 Center     Atomic                   Forces (Hartrees/Bohr)
 Number     Number              X              Y              Z
 -------------------------------------------------------------------
      1        6          -0.000018924   -0.000008813    0.000005329
      2        6          -0.000017691   -0.000000032   -0.000002393
      3        6           0.000026257   -0.000018968   -0.000019736
      4        8          -0.000002450    0.000006843   -0.000003376
      5        6           0.000000858    0.000001676    0.000024933
      6        6          -0.000006931    0.000008445    0.000003077
      7        6           0.000019608    0.000007984   -0.000014725
      8        6          -0.000006344   -0.000001889    0.000012061
      9        8          -0.000001397    0.000007038   -0.000018106
     10        1           0.000007744    0.000003650    0.000001248
     11        1           0.000003687   -0.000000374   -0.000001026
     12        1           0.000004803    0.000004378   -0.000000607
     13        1           0.000002476   -0.000004289    0.000000051
     14        1           0.000007515   -0.000011084    0.000001051
     15        1          -0.000002575   -0.000001914    0.000012234
     16        1          -0.000000265    0.000002538    0.000012092
     17        1          -0.000010070    0.000008820   -0.000001093
     18        1          -0.000002165    0.000003693   -0.000002022
     19        1          -0.000004136   -0.000007700   -0.000008993
 -------------------------------------------------------------------
 Cartesian Forces:  Max     0.000026257 RMS     0.000009628

 GradGradGradGradGradGradGradGradGradGradGradGradGradGradGradGradGradGrad
 Berny optimization.
 FormGI is forming the generalized inverse of G from B-inverse, IUseBI=4.
 Internal  Forces:  Max     0.000017809 RMS     0.000003882
 Search for a local minimum.
 Step number   1 out of a maximum of  114
 All quantities printed in internal units (Hartrees-Bohrs-Radians)
 Mixed Optimization -- En-DIIS/RFO-DIIS
 Second derivative matrix not updated -- first step.
 ITU=  0
     Eigenvalues ---    0.00328   0.00433   0.00482   0.01635   0.02171
     Eigenvalues ---    0.02205   0.02272   0.02364   0.02644   0.03039
     Eigenvalues ---    0.03173   0.03200   0.03325   0.04043   0.04503
     Eigenvalues ---    0.05233   0.05558   0.05714   0.06082   0.06554
     Eigenvalues ---    0.07517   0.08338   0.09180   0.09639   0.16000
     Eigenvalues ---    0.16000   0.16000   0.16000   0.16000   0.16268
     Eigenvalues ---    0.18904   0.19788   0.20003   0.21810   0.22022
     Eigenvalues ---    0.23208   0.26736   0.29138   0.29873   0.32181
     Eigenvalues ---    0.34022   0.34074   0.34409   0.34451   0.34557
     Eigenvalues ---    0.34728   0.34855   0.35166   0.44918   0.54827
     Eigenvalues ---    1.02294
 RFO step:  Lambda=-4.85816671D-08 EMin= 3.27971310D-03
 Linear search not attempted -- first point.
 Iteration  1 RMS(Cart)=  0.00029303 RMS(Int)=  0.00000012
 Iteration  2 RMS(Cart)=  0.00000012 RMS(Int)=  0.00000003
 Variable       Old X    -DE/DX   Delta X   Delta X   Delta X     New X
                                 (Linear)    (Quad)   (Total)
    R1        2.89716   0.00000   0.00000   0.00001   0.00001   2.89717
    R2        2.07205   0.00000   0.00000  -0.00001  -0.00001   2.07204
    R3        2.06119   0.00000   0.00000   0.00000   0.00000   2.06119
    R4        2.06646   0.00000   0.00000  -0.00001  -0.00001   2.06645
    R5        2.88217   0.00001   0.00000   0.00003   0.00003   2.88220
    R6        2.96796   0.00000   0.00000  -0.00001  -0.00001   2.96795
    R7        2.97863   0.00001   0.00000   0.00005   0.00005   2.97868
    R8        2.27734  -0.00001   0.00000  -0.00001  -0.00001   2.27733
    R9        2.10513   0.00001   0.00000   0.00002   0.00002   2.10515
   R10        2.94038   0.00000   0.00000   0.00001   0.00001   2.94039
   R11        2.95561   0.00000   0.00000  -0.00002  -0.00002   2.95560
   R12        2.06401  -0.00001   0.00000  -0.00003  -0.00003   2.06398
   R13        2.94216   0.00000   0.00000   0.00000   0.00000   2.94216
   R14        2.05407   0.00000   0.00000  -0.00001  -0.00001   2.05406
   R15        2.06576   0.00000   0.00000   0.00000   0.00000   2.06576
   R16        2.92485  -0.00001   0.00000  -0.00003  -0.00003   2.92482
   R17        2.05910   0.00000   0.00000  -0.00001  -0.00001   2.05909
   R18        2.65371  -0.00002   0.00000  -0.00004  -0.00004   2.65367
   R19        2.07293   0.00000   0.00000   0.00001   0.00001   2.07294
   R20        1.81986  -0.00001   0.00000  -0.00001  -0.00001   1.81985
    A1        1.92631  -0.00001   0.00000  -0.00003  -0.00003   1.92628
    A2        1.98426   0.00000   0.00000  -0.00003  -0.00003   1.98423
    A3        1.90566  -0.00001   0.00000  -0.00004  -0.00004   1.90562
    A4        1.87565   0.00001   0.00000   0.00004   0.00004   1.87569
    A5        1.87359   0.00001   0.00000   0.00006   0.00006   1.87365
    A6        1.89492   0.00000   0.00000   0.00000   0.00000   1.89492
    A7        1.84103   0.00000   0.00000   0.00003   0.00003   1.84106
    A8        2.09770   0.00000   0.00000   0.00001   0.00001   2.09771
    A9        2.09666   0.00000   0.00000   0.00000   0.00000   2.09666
   A10        2.06195  -0.00001   0.00000  -0.00008  -0.00008   2.06187
   A11        2.04338   0.00000   0.00000   0.00002   0.00002   2.04340
   A12        1.29336   0.00000   0.00000   0.00001   0.00001   1.29337
   A13        2.14687   0.00001   0.00000   0.00001   0.00001   2.14688
   A14        2.01336  -0.00001   0.00000  -0.00009  -0.00009   2.01327
   A15        2.11599   0.00000   0.00000  -0.00004  -0.00004   2.11595
   A16        1.53994   0.00000   0.00000  -0.00001  -0.00001   1.53993
   A17        1.52466   0.00000   0.00000   0.00001   0.00001   1.52467
   A18        2.22712   0.00000   0.00000   0.00000   0.00000   2.22712
   A19        1.48367   0.00000   0.00000  -0.00003  -0.00003   1.48364
   A20        2.22055   0.00000   0.00000   0.00002   0.00002   2.22058
   A21        2.22497   0.00000   0.00000  -0.00001  -0.00001   2.22496
   A22        1.30985   0.00000   0.00000   0.00002   0.00002   1.30987
   A23        2.05476   0.00000   0.00000  -0.00001  -0.00001   2.05475
   A24        2.02468   0.00000   0.00000  -0.00002  -0.00002   2.02466
   A25        2.05329   0.00000   0.00000  -0.00003  -0.00003   2.05326
   A26        2.02382   0.00000   0.00000  -0.00003  -0.00003   2.02380
   A27        1.93045   0.00001   0.00000   0.00005   0.00005   1.93050
   A28        1.53585   0.00000   0.00000  -0.00003  -0.00003   1.53582
   A29        1.53109   0.00000   0.00000   0.00000   0.00000   1.53109
   A30        2.21428   0.00000   0.00000  -0.00001  -0.00001   2.21428
   A31        1.49274   0.00000   0.00000  -0.00002  -0.00002   1.49272
   A32        2.23487   0.00000   0.00000   0.00000   0.00000   2.23487
   A33        2.21610   0.00000   0.00000   0.00004   0.00004   2.21614
   A34        1.31036   0.00001   0.00000   0.00003   0.00003   1.31039
   A35        2.09505   0.00000   0.00000   0.00002   0.00002   2.09508
   A36        2.01089   0.00000   0.00000   0.00000   0.00000   2.01090
   A37        2.01945  -0.00001   0.00000  -0.00007  -0.00007   2.01938
   A38        2.01279   0.00000   0.00000  -0.00001  -0.00001   2.01278
   A39        1.94149   0.00000   0.00000   0.00002   0.00002   1.94151
   A40        1.89736   0.00000   0.00000  -0.00003  -0.00003   1.89733
    D1        1.03424   0.00000   0.00000   0.00093   0.00093   1.03517
    D2       -1.35100   0.00001   0.00000   0.00100   0.00100  -1.35000
    D3       -2.89307   0.00000   0.00000   0.00098   0.00098  -2.89208
    D4       -3.14001   0.00000   0.00000   0.00094   0.00094  -3.13907
    D5        0.75794   0.00001   0.00000   0.00101   0.00101   0.75895
    D6       -0.78413   0.00000   0.00000   0.00100   0.00100  -0.78313
    D7       -1.02130   0.00000   0.00000   0.00089   0.00089  -1.02040
    D8        2.87665   0.00000   0.00000   0.00097   0.00097   2.87761
    D9        1.33458   0.00000   0.00000   0.00095   0.00095   1.33553
   D10        1.21616   0.00000   0.00000  -0.00061  -0.00061   1.21555
   D11       -1.80010   0.00000   0.00000   0.00047   0.00047  -1.79962
   D12       -2.66330   0.00000   0.00000  -0.00064  -0.00064  -2.66394
   D13        0.60363   0.00000   0.00000   0.00044   0.00044   0.60407
   D14       -1.16798   0.00000   0.00000  -0.00066  -0.00066  -1.16864
   D15        2.09895   0.00000   0.00000   0.00043   0.00043   2.09937
   D16       -1.28455   0.00000   0.00000   0.00000   0.00000  -1.28455
   D17       -2.76951   0.00000   0.00000   0.00003   0.00003  -2.76948
   D18        1.11967   0.00000   0.00000   0.00003   0.00003   1.11970
   D19        2.70515   0.00000   0.00000   0.00003   0.00003   2.70518
   D20        1.22018   0.00000   0.00000   0.00006   0.00006   1.22024
   D21       -1.17382   0.00000   0.00000   0.00006   0.00006  -1.17377
   D22        0.73978   0.00000   0.00000   0.00000   0.00000   0.73978
   D23       -0.74519   0.00000   0.00000   0.00003   0.00003  -0.74516
   D24       -3.13920   0.00000   0.00000   0.00003   0.00003  -3.13917
   D25        1.28621   0.00000   0.00000   0.00001   0.00001   1.28622
   D26        2.78024   0.00000   0.00000  -0.00001  -0.00001   2.78023
   D27       -1.12460   0.00000   0.00000   0.00004   0.00004  -1.12456
   D28       -2.72731   0.00001   0.00000   0.00008   0.00008  -2.72723
   D29       -1.23328   0.00000   0.00000   0.00006   0.00006  -1.23322
   D30        1.14506   0.00000   0.00000   0.00011   0.00011   1.14517
   D31       -0.73935   0.00000   0.00000   0.00000   0.00000  -0.73935
   D32        0.75468   0.00000   0.00000  -0.00003  -0.00003   0.75465
   D33        3.13303   0.00000   0.00000   0.00002   0.00002   3.13305
   D34       -0.74692   0.00000   0.00000  -0.00002  -0.00002  -0.74693
   D35        1.23779   0.00000   0.00000  -0.00004  -0.00004   1.23775
   D36       -2.70080   0.00000   0.00000   0.00001   0.00001  -2.70080
   D37        0.78025   0.00000   0.00000   0.00000   0.00000   0.78024
   D38        2.76495   0.00000   0.00000  -0.00003  -0.00003   2.76492
   D39       -1.17364   0.00000   0.00000   0.00002   0.00002  -1.17362
   D40        3.12752   0.00000   0.00000  -0.00003  -0.00003   3.12749
   D41       -1.17096   0.00000   0.00000  -0.00005  -0.00005  -1.17102
   D42        1.17363   0.00000   0.00000  -0.00001  -0.00001   1.17362
   D43        0.75784   0.00000   0.00000  -0.00001  -0.00001   0.75782
   D44       -1.18599   0.00000   0.00000   0.00005   0.00005  -1.18594
   D45        2.70098   0.00000   0.00000  -0.00001  -0.00001   2.70097
   D46       -0.78599   0.00000   0.00000   0.00000   0.00000  -0.78599
   D47       -2.72982   0.00000   0.00000   0.00006   0.00006  -2.72976
   D48        1.15716   0.00000   0.00000   0.00000   0.00000   1.15715
   D49       -3.12981   0.00000   0.00000   0.00000   0.00000  -3.12982
   D50        1.20954   0.00000   0.00000   0.00006   0.00006   1.20960
   D51       -1.18667   0.00000   0.00000   0.00000   0.00000  -1.18667
   D52        0.74373   0.00000   0.00000   0.00000   0.00000   0.74373
   D53       -0.78995   0.00000   0.00000   0.00000   0.00000  -0.78996
   D54        3.14020   0.00000   0.00000  -0.00004  -0.00004   3.14016
   D55       -1.24273   0.00000   0.00000   0.00000   0.00000  -1.24272
   D56       -2.77641   0.00000   0.00000   0.00000   0.00000  -2.77641
   D57        1.15374   0.00000   0.00000  -0.00003  -0.00003   1.15371
   D58        2.69865   0.00000   0.00000  -0.00001  -0.00001   2.69864
   D59        1.16497   0.00000   0.00000  -0.00001  -0.00001   1.16496
   D60       -1.18806   0.00000   0.00000  -0.00005  -0.00005  -1.18811
   D61       -0.75419   0.00000   0.00000   0.00003   0.00003  -0.75416
   D62        1.27962   0.00000   0.00000   0.00007   0.00007   1.27970
   D63       -2.69504   0.00000   0.00000   0.00002   0.00002  -2.69503
   D64        0.78463   0.00000   0.00000   0.00001   0.00001   0.78464
   D65        2.81845   0.00000   0.00000   0.00005   0.00005   2.81850
   D66       -1.15622   0.00000   0.00000  -0.00001  -0.00001  -1.15623
   D67       -3.13123   0.00000   0.00000   0.00001   0.00001  -3.13122
   D68       -1.09741   0.00000   0.00000   0.00006   0.00006  -1.09735
   D69        1.21111   0.00000   0.00000   0.00000   0.00000   1.21111
   D70       -1.35788   0.00000   0.00000   0.00018   0.00018  -1.35770
   D71       -2.87689   0.00000   0.00000   0.00017   0.00017  -2.87672
   D72        1.06511   0.00001   0.00000   0.00024   0.00024   1.06534
         Item               Value     Threshold  Converged?
 Maximum Force            0.000018     0.000450     YES
 RMS     Force            0.000004     0.000300     YES
 Maximum Displacement     0.001538     0.001800     YES
 RMS     Displacement     0.000293     0.001200     YES
 Predicted change in Energy=-2.428764D-08
 Optimization completed.
    -- Stationary point found.
                           ----------------------------
                           !   Optimized Parameters   !
                           ! (Angstroms and Degrees)  !
 --------------------------                            --------------------------
 ! Name  Definition              Value          Derivative Info.                !
 --------------------------------------------------------------------------------
 ! R1    R(1,2)                  1.5331         -DE/DX =    0.0                 !
 ! R2    R(1,10)                 1.0965         -DE/DX =    0.0                 !
 ! R3    R(1,11)                 1.0907         -DE/DX =    0.0                 !
 ! R4    R(1,12)                 1.0935         -DE/DX =    0.0                 !
 ! R5    R(2,3)                  1.5252         -DE/DX =    0.0                 !
 ! R6    R(2,5)                  1.5706         -DE/DX =    0.0                 !
 ! R7    R(2,7)                  1.5762         -DE/DX =    0.0                 !
 ! R8    R(3,4)                  1.2051         -DE/DX =    0.0                 !
 ! R9    R(3,13)                 1.114          -DE/DX =    0.0                 !
 ! R10   R(5,6)                  1.556          -DE/DX =    0.0                 !
 ! R11   R(5,8)                  1.564          -DE/DX =    0.0                 !
 ! R12   R(5,14)                 1.0922         -DE/DX =    0.0                 !
 ! R13   R(6,7)                  1.5569         -DE/DX =    0.0                 !
 ! R14   R(6,15)                 1.087          -DE/DX =    0.0                 !
 ! R15   R(6,16)                 1.0932         -DE/DX =    0.0                 !
 ! R16   R(7,8)                  1.5478         -DE/DX =    0.0                 !
 ! R17   R(7,17)                 1.0896         -DE/DX =    0.0                 !
 ! R18   R(8,9)                  1.4043         -DE/DX =    0.0                 !
 ! R19   R(8,18)                 1.0969         -DE/DX =    0.0                 !
 ! R20   R(9,19)                 0.963          -DE/DX =    0.0                 !
 ! A1    A(2,1,10)             110.3695         -DE/DX =    0.0                 !
 ! A2    A(2,1,11)             113.6895         -DE/DX =    0.0                 !
 ! A3    A(2,1,12)             109.1862         -DE/DX =    0.0                 !
 ! A4    A(10,1,11)            107.4669         -DE/DX =    0.0                 !
 ! A5    A(10,1,12)            107.3485         -DE/DX =    0.0                 !
 ! A6    A(11,1,12)            108.5709         -DE/DX =    0.0                 !
 ! A7    A(1,2,3)              105.4831         -DE/DX =    0.0                 !
 ! A8    A(1,2,5)              120.1892         -DE/DX =    0.0                 !
 ! A9    A(1,2,7)              120.1297         -DE/DX =    0.0                 !
 ! A10   A(3,2,5)              118.1408         -DE/DX =    0.0                 !
 ! A11   A(3,2,7)              117.0772         -DE/DX =    0.0                 !
 ! A12   A(5,2,7)               74.1041         -DE/DX =    0.0                 !
 ! A13   A(2,3,4)              123.0067         -DE/DX =    0.0                 !
 ! A14   A(2,3,13)             115.357          -DE/DX =    0.0                 !
 ! A15   A(4,3,13)             121.2371         -DE/DX =    0.0                 !
 ! A16   A(2,5,6)               88.2321         -DE/DX =    0.0                 !
 ! A17   A(2,5,8)               87.3567         -DE/DX =    0.0                 !
 ! A18   A(2,5,14)             127.6043         -DE/DX =    0.0                 !
 ! A19   A(6,5,8)               85.0081         -DE/DX =    0.0                 !
 ! A20   A(6,5,14)             127.2282         -DE/DX =    0.0                 !
 ! A21   A(8,5,14)             127.4811         -DE/DX =    0.0                 !
 ! A22   A(5,6,7)               75.0491         -DE/DX =    0.0                 !
 ! A23   A(5,6,15)             117.7292         -DE/DX =    0.0                 !
 ! A24   A(5,6,16)             116.0057         -DE/DX =    0.0                 !
 ! A25   A(7,6,15)             117.645          -DE/DX =    0.0                 !
 ! A26   A(7,6,16)             115.9566         -DE/DX =    0.0                 !
 ! A27   A(15,6,16)            110.6067         -DE/DX =    0.0                 !
 ! A28   A(2,7,6)               87.9978         -DE/DX =    0.0                 !
 ! A29   A(2,7,8)               87.7251         -DE/DX =    0.0                 !
 ! A30   A(2,7,17)             126.8691         -DE/DX =    0.0                 !
 ! A31   A(6,7,8)               85.5279         -DE/DX =    0.0                 !
 ! A32   A(6,7,17)             128.0485         -DE/DX =    0.0                 !
 ! A33   A(8,7,17)             126.9732         -DE/DX =    0.0                 !
 ! A34   A(5,8,7)               75.0782         -DE/DX =    0.0                 !
 ! A35   A(5,8,9)              120.0377         -DE/DX =    0.0                 !
 ! A36   A(5,8,18)             115.2157         -DE/DX =    0.0                 !
 ! A37   A(7,8,9)              115.706          -DE/DX =    0.0                 !
 ! A38   A(7,8,18)             115.3242         -DE/DX =    0.0                 !
 ! A39   A(9,8,18)             111.2394         -DE/DX =    0.0                 !
 ! A40   A(8,9,19)             108.7109         -DE/DX =    0.0                 !
 ! D1    D(10,1,2,3)            59.2575         -DE/DX =    0.0                 !
 ! D2    D(10,1,2,5)           -77.4068         -DE/DX =    0.0                 !
 ! D3    D(10,1,2,7)          -165.7606         -DE/DX =    0.0                 !
 ! D4    D(11,1,2,3)          -179.9092         -DE/DX =    0.0                 !
 ! D5    D(11,1,2,5)            43.4265         -DE/DX =    0.0                 !
 ! D6    D(11,1,2,7)           -44.9273         -DE/DX =    0.0                 !
 ! D7    D(12,1,2,3)           -58.516          -DE/DX =    0.0                 !
 ! D8    D(12,1,2,5)           164.8197         -DE/DX =    0.0                 !
 ! D9    D(12,1,2,7)            76.466          -DE/DX =    0.0                 !
 ! D10   D(1,2,3,4)             69.6811         -DE/DX =    0.0                 !
 ! D11   D(1,2,3,13)          -103.1379         -DE/DX =    0.0                 !
 ! D12   D(5,2,3,4)           -152.5956         -DE/DX =    0.0                 !
 ! D13   D(5,2,3,13)            34.5854         -DE/DX =    0.0                 !
 ! D14   D(7,2,3,4)            -66.9202         -DE/DX =    0.0                 !
 ! D15   D(7,2,3,13)           120.2608         -DE/DX =    0.0                 !
 ! D16   D(1,2,5,6)            -73.599          -DE/DX =    0.0                 !
 ! D17   D(1,2,5,8)           -158.6814         -DE/DX =    0.0                 !
 ! D18   D(1,2,5,14)            64.1523         -DE/DX =    0.0                 !
 ! D19   D(3,2,5,6)            154.9935         -DE/DX =    0.0                 !
 ! D20   D(3,2,5,8)             69.9112         -DE/DX =    0.0                 !
 ! D21   D(3,2,5,14)           -67.2552         -DE/DX =    0.0                 !
 ! D22   D(7,2,5,6)             42.386          -DE/DX =    0.0                 !
 ! D23   D(7,2,5,8)            -42.6963         -DE/DX =    0.0                 !
 ! D24   D(7,2,5,14)          -179.8627         -DE/DX =    0.0                 !
 ! D25   D(1,2,7,6)             73.6945         -DE/DX =    0.0                 !
 ! D26   D(1,2,7,8)            159.296          -DE/DX =    0.0                 !
 ! D27   D(1,2,7,17)           -64.4349         -DE/DX =    0.0                 !
 ! D28   D(3,2,7,6)           -156.2633         -DE/DX =    0.0                 !
 ! D29   D(3,2,7,8)            -70.6618         -DE/DX =    0.0                 !
 ! D30   D(3,2,7,17)            65.6073         -DE/DX =    0.0                 !
 ! D31   D(5,2,7,6)            -42.3614         -DE/DX =    0.0                 !
 ! D32   D(5,2,7,8)             43.24           -DE/DX =    0.0                 !
 ! D33   D(5,2,7,17)           179.5091         -DE/DX =    0.0                 !
 ! D34   D(2,5,6,7)            -42.7951         -DE/DX =    0.0                 !
 ! D35   D(2,5,6,15)            70.9201         -DE/DX =    0.0                 !
 ! D36   D(2,5,6,16)          -154.7447         -DE/DX =    0.0                 !
 ! D37   D(8,5,6,7)             44.7049         -DE/DX =    0.0                 !
 ! D38   D(8,5,6,15)           158.42           -DE/DX =    0.0                 !
 ! D39   D(8,5,6,16)           -67.2447         -DE/DX =    0.0                 !
 ! D40   D(14,5,6,7)           179.1935         -DE/DX =    0.0                 !
 ! D41   D(14,5,6,15)          -67.0913         -DE/DX =    0.0                 !
 ! D42   D(14,5,6,16)           67.2439         -DE/DX =    0.0                 !
 ! D43   D(2,5,8,7)             43.4209         -DE/DX =    0.0                 !
 ! D44   D(2,5,8,9)            -67.9523         -DE/DX =    0.0                 !
 ! D45   D(2,5,8,18)           154.7548         -DE/DX =    0.0                 !
 ! D46   D(6,5,8,7)            -45.0337         -DE/DX =    0.0                 !
 ! D47   D(6,5,8,9)           -156.4069         -DE/DX =    0.0                 !
 ! D48   D(6,5,8,18)            66.3002         -DE/DX =    0.0                 !
 ! D49   D(14,5,8,7)          -179.3252         -DE/DX =    0.0                 !
 ! D50   D(14,5,8,9)            69.3017         -DE/DX =    0.0                 !
 ! D51   D(14,5,8,18)          -67.9912         -DE/DX =    0.0                 !
 ! D52   D(5,6,7,2)             42.6125         -DE/DX =    0.0                 !
 ! D53   D(5,6,7,8)            -45.261          -DE/DX =    0.0                 !
 ! D54   D(5,6,7,17)           179.9202         -DE/DX =    0.0                 !
 ! D55   D(15,6,7,2)           -71.2031         -DE/DX =    0.0                 !
 ! D56   D(15,6,7,8)          -159.0767         -DE/DX =    0.0                 !
 ! D57   D(15,6,7,17)           66.1046         -DE/DX =    0.0                 !
 ! D58   D(16,6,7,2)           154.6214         -DE/DX =    0.0                 !
 ! D59   D(16,6,7,8)            66.7478         -DE/DX =    0.0                 !
 ! D60   D(16,6,7,17)          -68.0709         -DE/DX =    0.0                 !
 ! D61   D(2,7,8,5)            -43.2121         -DE/DX =    0.0                 !
 ! D62   D(2,7,8,9)             73.3171         -DE/DX =    0.0                 !
 ! D63   D(2,7,8,18)          -154.4145         -DE/DX =    0.0                 !
 ! D64   D(6,7,8,5)             44.9561         -DE/DX =    0.0                 !
 ! D65   D(6,7,8,9)            161.4853         -DE/DX =    0.0                 !
 ! D66   D(6,7,8,18)           -66.2463         -DE/DX =    0.0                 !
 ! D67   D(17,7,8,5)          -179.4063         -DE/DX =    0.0                 !
 ! D68   D(17,7,8,9)           -62.8771         -DE/DX =    0.0                 !
 ! D69   D(17,7,8,18)           69.3913         -DE/DX =    0.0                 !
 ! D70   D(5,8,9,19)           -77.8007         -DE/DX =    0.0                 !
 ! D71   D(7,8,9,19)          -164.8335         -DE/DX =    0.0                 !
 ! D72   D(18,8,9,19)           61.026          -DE/DX =    0.0                 !
 --------------------------------------------------------------------------------
 GradGradGradGradGradGradGradGradGradGradGradGradGradGradGradGradGradGrad

                          Input orientation:                          
 ---------------------------------------------------------------------
 Center     Atomic      Atomic             Coordinates (Angstroms)
 Number     Number       Type             X           Y           Z
 ---------------------------------------------------------------------
      1          6           0        0.036675   -0.169509    0.081831
      2          6           0        1.453775    0.352507    0.345940
      3          6           0        2.127281   -0.713914    1.203443
      4          8           0        2.430227   -1.801145    0.781002
      5          6           0        1.682644    1.859820    0.723216
      6          6           0        1.387474    2.225867   -0.760013
      7          6           0        2.302347    0.968104   -0.831107
      8          6           0        3.160076    1.680719    0.242229
      9          8           0        4.039506    0.857709    0.964219
     10          1           0       -0.495788   -0.323581    1.027883
     11          1           0       -0.569824    0.499442   -0.530026
     12          1           0        0.098583   -1.139515   -0.419217
     13          1           0        2.212159   -0.471073    2.287321
     14          1           0        1.333055    2.384055    1.615362
     15          1           0        0.363866    2.125493   -1.111649
     16          1           0        1.828255    3.159109   -1.120230
     17          1           0        2.662167    0.448704   -1.718826
     18          1           0        3.658220    2.599987   -0.089573
     19          1           0        4.338696    1.335325    1.745111
 ---------------------------------------------------------------------
                    Distance matrix (angstroms):
                    1          2          3          4          5
     1  C    0.000000
     2  C    1.533110   0.000000
     3  C    2.434137   1.525181   0.000000
     4  O    2.979960   2.404361   1.205115   0.000000
     5  C    2.690495   1.570577   2.655641   3.736962   0.000000
     6  C    2.875967   2.176467   3.611757   4.436089   1.555983
     7  C    2.694603   1.576221   2.645605   3.206865   1.896077
     8  C    3.633828   2.164802   2.779365   3.598101   1.564044
     9  O    4.225688   2.706198   2.486731   3.113334   2.572375
    10  H    1.096481   2.173232   2.657757   3.287204   3.099295
    11  H    1.090736   2.209945   3.428049   4.001474   2.914594
    12  H    1.093523   2.155954   2.632446   2.704596   3.579163
    13  H    3.112533   2.241069   1.113988   2.021298   2.856549
    14  H    3.248539   2.398581   3.224575   4.406340   1.092226
    15  H    2.607389   2.540855   4.065897   4.823946   2.275189
    16  H    3.966661   3.188558   4.526498   5.346135   2.260010
    17  H    3.243110   2.394312   3.190210   3.371165   2.985680
    18  H    4.562354   3.178116   3.872675   4.651433   2.260835
    19  H    4.851640   3.353563   3.063192   3.795946   2.893783
                    6          7          8          9         10
     6  C    0.000000
     7  C    1.556925   0.000000
     8  C    2.108031   1.547763   0.000000
     9  O    3.446463   2.500621   1.404284   0.000000
    10  H    3.639084   3.599145   4.242619   4.687045   0.000000
    11  H    2.620011   2.925689   3.987976   4.858709   1.763499
    12  H    3.619831   3.077057   4.214732   4.629651   1.764404
    13  H    4.152088   3.435688   3.116273   2.618292   2.990137
    14  H    2.381258   2.988252   2.391272   3.174680   3.319803
    15  H    1.086967   2.275074   3.138407   4.407589   3.363712
    16  H    1.093153   2.260278   2.411571   3.811955   4.705814
    17  H    2.387986   1.089630   2.368863   3.043531   4.255998
    18  H    2.397028   2.247512   1.096947   2.071568   5.201129
    19  H    3.972207   3.304311   1.940901   0.963029   5.161262
                   11         12         13         14         15
    11  H    0.000000
    12  H    1.773478   0.000000
    13  H    4.076613   3.498481   0.000000
    14  H    3.431531   4.251937   3.062043   0.000000
    15  H    1.963187   3.348150   4.659543   2.905644   0.000000
    16  H    3.629456   4.686293   4.993696   2.886069   1.792448
    17  H    3.444066   3.283807   4.134938   4.077859   2.909033
    18  H    4.741587   5.173350   4.143926   2.891335   3.481746
    19  H    5.474351   5.365418   2.842398   3.185992   4.958298
                   16         17         18         19
    16  H    0.000000
    17  H    2.898279   0.000000
    18  H    2.173394   2.876562   0.000000
    19  H    4.223586   3.949140   2.329911   0.000000
 Stoichiometry    C7H10O2
 Framework group  C1[X(C7H10O2)]
 Deg. of freedom    51
 Full point group                 C1      NOp   1
 Largest Abelian subgroup         C1      NOp   1
 Largest concise Abelian subgroup C1      NOp   1
                         Standard orientation:                         
 ---------------------------------------------------------------------
 Center     Atomic      Atomic             Coordinates (Angstroms)
 Number     Number       Type             X           Y           Z
 ---------------------------------------------------------------------
      1          6           0       -0.989696    1.929457    0.170126
      2          6           0       -0.335292    0.543475    0.135006
      3          6           0       -1.472836   -0.449451    0.350109
      4          8           0       -2.330450   -0.653313   -0.471621
      5          6           0        1.020437    0.290935    0.886626
      6          6           0        1.735787    1.103582   -0.230944
      7          6           0        0.719684    0.194735   -0.982973
      8          6           0        1.232736   -0.936345   -0.059389
      9          8           0        0.397671   -2.060151    0.048969
     10          1           0       -1.490840    2.090635    1.131972
     11          1           0       -0.285871    2.750182    0.026090
     12          1           0       -1.754467    1.985642   -0.609464
     13          1           0       -1.535172   -0.889557    1.371573
     14          1           0        1.205803    0.341196    1.961834
     15          1           0        1.569915    2.177413   -0.260440
     16          1           0        2.792514    0.873013   -0.389530
     17          1           0        0.539339    0.133658   -2.055838
     18          1           0        2.277783   -1.231311   -0.214838
     19          1           0        0.678314   -2.581490    0.808488
 ---------------------------------------------------------------------
 Rotational constants (GHZ):      2.2767260      1.8900973      1.2337831
 1\1\GINC-ALCHEMY-CO\FOpt\RB3LYP\6-31G(2df,p)\C7H10O2\PUCK\27-Jan-2020\
 0\\# b3lyp 6-31G(2df,p) opt Freq\\titel\\0,1\C,0.0366754505,-0.1695090
 627,0.0818306155\C,1.4537746878,0.3525070631,0.3459401901\C,2.12728089
 25,-0.7139143055,1.203443069\O,2.4302266361,-1.801144607,0.7810016993\
 C,1.6826435922,1.8598203873,0.7232158026\C,1.3874742327,2.2258672869,-
 0.7600132433\C,2.3023465062,0.9681039908,-0.8311066876\C,3.1600762586,
 1.680719424,0.2422285417\O,4.0395063612,0.8577087303,0.9642192462\H,-0
 .4957880776,-0.3235806242,1.0278827362\H,-0.5698238954,0.4994415141,-0
 .5300262263\H,0.0985832233,-1.1395146376,-0.4192165694\H,2.2121593744,
 -0.4710725188,2.2873212281\H,1.3330554694,2.3840547818,1.6153615882\H,
 0.3638657812,2.1254925658,-1.1116490214\H,1.8282546994,3.1591085951,-1
 .1202301303\H,2.6621674434,0.4487036752,-1.7188263679\H,3.6582200017,2
 .5999873957,-0.0895730266\H,4.3386963326,1.3353253159,1.745111026\\Ver
 sion=ES64L-G09RevD.01\State=1-A\HF=-423.1322275\RMSD=4.773e-09\RMSF=9.
 628e-06\Dipole=-0.3058586,1.4939273,0.2886258\Quadrupole=1.2131462,-4.
 51561,3.3024638,3.4673031,1.5861826,1.4768806\PG=C01 [X(C7H10O2)]\\@


 THE PROGRESS OF RIVERS TO THE SEA IS NOT AS RAPID
 AS THAT OF MAN TO ERROR.
                                              -- VOLTAIRE
 Job cpu time:       0 days  0 hours  7 minutes 47.9 seconds.
 File lengths (MBytes):  RWF=     52 Int=      0 D2E=      0 Chk=      7 Scr=      1
 Normal termination of Gaussian 09 at Mon Jan 27 23:04:24 2020.
 Link1:  Proceeding to internal job step number  2.
 ----------------------------------------------------------------------
 #N Geom=AllCheck Guess=TCheck SCRF=Check GenChk RB3LYP/6-31G(2df,p) Fr
 eq
 ----------------------------------------------------------------------
 1/10=4,29=7,30=1,38=1,40=1/1,3;
 2/12=2,40=1/2;
 3/5=1,6=6,7=104,11=2,14=-4,16=1,25=1,30=1,70=2,71=2,74=-5,116=1,140=1/1,2,3;
 4/5=101/1;
 5/5=2,98=1/2;
 8/6=4,10=90,11=11/1;
 11/6=1,8=1,9=11,15=111,16=1/1,2,10;
 10/6=1/2;
 6/7=2,8=2,9=2,10=2,18=1,28=1/1;
 7/8=1,10=1,25=1/1,2,3,16;
 1/10=4,30=1/3;
 99//99;
 Structure from the checkpoint file:  "/scratch/puck/g09_b336807b-e2d1-4138-90e1-588ae2ff6ac7/Gau-179065.chk"
 -----
 titel
 -----
 Charge =  0 Multiplicity = 1
 Redundant internal coordinates found in file.
 C,0,0.0366754505,-0.1695090627,0.0818306155
 C,0,1.4537746878,0.3525070631,0.3459401901
 C,0,2.1272808925,-0.7139143055,1.203443069
 O,0,2.4302266361,-1.801144607,0.7810016993
 C,0,1.6826435922,1.8598203873,0.7232158026
 C,0,1.3874742327,2.2258672869,-0.7600132433
 C,0,2.3023465062,0.9681039908,-0.8311066876
 C,0,3.1600762586,1.680719424,0.2422285417
 O,0,4.0395063612,0.8577087303,0.9642192462
 H,0,-0.4957880776,-0.3235806242,1.0278827362
 H,0,-0.5698238954,0.4994415141,-0.5300262263
 H,0,0.0985832233,-1.1395146376,-0.4192165694
 H,0,2.2121593744,-0.4710725188,2.2873212281
 H,0,1.3330554694,2.3840547818,1.6153615882
 H,0,0.3638657812,2.1254925658,-1.1116490214
 H,0,1.8282546994,3.1591085951,-1.1202301303
 H,0,2.6621674434,0.4487036752,-1.7188263679
 H,0,3.6582200017,2.5999873957,-0.0895730266
 H,0,4.3386963326,1.3353253159,1.745111026
 Recover connectivity data from disk.

 GradGradGradGradGradGradGradGradGradGradGradGradGradGradGradGradGradGrad
 Berny optimization.
 Initialization pass.
                           ----------------------------
                           !    Initial Parameters    !
                           ! (Angstroms and Degrees)  !
 --------------------------                            --------------------------
 ! Name  Definition              Value          Derivative Info.                !
 --------------------------------------------------------------------------------
 ! R1    R(1,2)                  1.5331         calculate D2E/DX2 analytically  !
 ! R2    R(1,10)                 1.0965         calculate D2E/DX2 analytically  !
 ! R3    R(1,11)                 1.0907         calculate D2E/DX2 analytically  !
 ! R4    R(1,12)                 1.0935         calculate D2E/DX2 analytically  !
 ! R5    R(2,3)                  1.5252         calculate D2E/DX2 analytically  !
 ! R6    R(2,5)                  1.5706         calculate D2E/DX2 analytically  !
 ! R7    R(2,7)                  1.5762         calculate D2E/DX2 analytically  !
 ! R8    R(3,4)                  1.2051         calculate D2E/DX2 analytically  !
 ! R9    R(3,13)                 1.114          calculate D2E/DX2 analytically  !
 ! R10   R(5,6)                  1.556          calculate D2E/DX2 analytically  !
 ! R11   R(5,8)                  1.564          calculate D2E/DX2 analytically  !
 ! R12   R(5,14)                 1.0922         calculate D2E/DX2 analytically  !
 ! R13   R(6,7)                  1.5569         calculate D2E/DX2 analytically  !
 ! R14   R(6,15)                 1.087          calculate D2E/DX2 analytically  !
 ! R15   R(6,16)                 1.0932         calculate D2E/DX2 analytically  !
 ! R16   R(7,8)                  1.5478         calculate D2E/DX2 analytically  !
 ! R17   R(7,17)                 1.0896         calculate D2E/DX2 analytically  !
 ! R18   R(8,9)                  1.4043         calculate D2E/DX2 analytically  !
 ! R19   R(8,18)                 1.0969         calculate D2E/DX2 analytically  !
 ! R20   R(9,19)                 0.963          calculate D2E/DX2 analytically  !
 ! A1    A(2,1,10)             110.3695         calculate D2E/DX2 analytically  !
 ! A2    A(2,1,11)             113.6895         calculate D2E/DX2 analytically  !
 ! A3    A(2,1,12)             109.1862         calculate D2E/DX2 analytically  !
 ! A4    A(10,1,11)            107.4669         calculate D2E/DX2 analytically  !
 ! A5    A(10,1,12)            107.3485         calculate D2E/DX2 analytically  !
 ! A6    A(11,1,12)            108.5709         calculate D2E/DX2 analytically  !
 ! A7    A(1,2,3)              105.4831         calculate D2E/DX2 analytically  !
 ! A8    A(1,2,5)              120.1892         calculate D2E/DX2 analytically  !
 ! A9    A(1,2,7)              120.1297         calculate D2E/DX2 analytically  !
 ! A10   A(3,2,5)              118.1408         calculate D2E/DX2 analytically  !
 ! A11   A(3,2,7)              117.0772         calculate D2E/DX2 analytically  !
 ! A12   A(5,2,7)               74.1041         calculate D2E/DX2 analytically  !
 ! A13   A(2,3,4)              123.0067         calculate D2E/DX2 analytically  !
 ! A14   A(2,3,13)             115.357          calculate D2E/DX2 analytically  !
 ! A15   A(4,3,13)             121.2371         calculate D2E/DX2 analytically  !
 ! A16   A(2,5,6)               88.2321         calculate D2E/DX2 analytically  !
 ! A17   A(2,5,8)               87.3567         calculate D2E/DX2 analytically  !
 ! A18   A(2,5,14)             127.6043         calculate D2E/DX2 analytically  !
 ! A19   A(6,5,8)               85.0081         calculate D2E/DX2 analytically  !
 ! A20   A(6,5,14)             127.2282         calculate D2E/DX2 analytically  !
 ! A21   A(8,5,14)             127.4811         calculate D2E/DX2 analytically  !
 ! A22   A(5,6,7)               75.0491         calculate D2E/DX2 analytically  !
 ! A23   A(5,6,15)             117.7292         calculate D2E/DX2 analytically  !
 ! A24   A(5,6,16)             116.0057         calculate D2E/DX2 analytically  !
 ! A25   A(7,6,15)             117.645          calculate D2E/DX2 analytically  !
 ! A26   A(7,6,16)             115.9566         calculate D2E/DX2 analytically  !
 ! A27   A(15,6,16)            110.6067         calculate D2E/DX2 analytically  !
 ! A28   A(2,7,6)               87.9978         calculate D2E/DX2 analytically  !
 ! A29   A(2,7,8)               87.7251         calculate D2E/DX2 analytically  !
 ! A30   A(2,7,17)             126.8691         calculate D2E/DX2 analytically  !
 ! A31   A(6,7,8)               85.5279         calculate D2E/DX2 analytically  !
 ! A32   A(6,7,17)             128.0485         calculate D2E/DX2 analytically  !
 ! A33   A(8,7,17)             126.9732         calculate D2E/DX2 analytically  !
 ! A34   A(5,8,7)               75.0782         calculate D2E/DX2 analytically  !
 ! A35   A(5,8,9)              120.0377         calculate D2E/DX2 analytically  !
 ! A36   A(5,8,18)             115.2157         calculate D2E/DX2 analytically  !
 ! A37   A(7,8,9)              115.706          calculate D2E/DX2 analytically  !
 ! A38   A(7,8,18)             115.3242         calculate D2E/DX2 analytically  !
 ! A39   A(9,8,18)             111.2394         calculate D2E/DX2 analytically  !
 ! A40   A(8,9,19)             108.7109         calculate D2E/DX2 analytically  !
 ! D1    D(10,1,2,3)            59.2575         calculate D2E/DX2 analytically  !
[...]
 4,0.00458874,-0.11153054,0.16657812,0.05596040,0.08783010,-0.00407664,
 -0.00548964,-0.00043317,0.02206152,-0.04341891,-0.00482374,0.16945088,
 -0.64353614,-0.21955638,-0.19917053,0.71287145,-0.00167381,-0.00016490
 ,-0.00082665,-0.00232061,0.01061008,0.02372210,0.05554958,-0.21967104,
 -0.19015262,-0.06054213,0.25277046,0.17514216,-0.00037428,-0.02491386,
 -0.01055954,-0.05857608,-0.00562139,-0.00510759,0.00003704,0.00790658,
 0.00841880,-0.00129937,0.00332409,-0.00259765,0.35299658,-0.00361897,-
 0.00589730,-0.00365647,-0.00769452,-0.12669255,-0.01971542,0.00324329,
 -0.01601278,-0.00946829,-0.00053564,-0.00095674,0.00381857,-0.05760983
 ,0.40354200,0.00146929,-0.00142178,-0.00202069,-0.00423675,-0.02138600
 ,-0.06113599,0.00369812,0.01626400,0.00986838,-0.00354201,0.00316507,-
 0.00158323,-0.10869514,0.14364227,0.59158848,0.00047761,-0.00115440,0.
 00170788,0.01065416,-0.01720282,0.01167889,-0.00374693,-0.00173119,0.0
 0064912,0.00114119,-0.00118532,0.00003545,-0.06315970,-0.00149135,-0.0
 1984379,0.60621889,-0.00099131,-0.00109978,-0.00094615,0.01998603,-0.0
 5562750,0.04561710,-0.00496171,-0.00555788,-0.00021814,0.00209270,-0.0
 0127928,0.00054945,-0.00009802,-0.05718395,0.02356073,0.07071815,0.519
 61068,0.00170432,-0.00124426,-0.00088334,-0.01051184,0.03011801,-0.013
 82754,0.00187586,0.00073446,-0.00193606,-0.00044776,0.00015255,0.00052
 368,-0.01387612,0.01683291,-0.14191038,0.09733567,-0.12073102,0.367404
 36,-0.01317875,-0.00469484,0.02008988,-0.07407176,-0.00889674,0.024863
 08,0.00987484,-0.00252384,-0.00910852,-0.00102965,0.00141534,0.0015564
 8,-0.00132389,0.02313260,0.04292113,-0.09447877,0.04256915,-0.00055588
 ,0.36167643,-0.00831633,-0.00328448,0.00754348,-0.01198636,-0.05839824
 ,0.01618780,-0.00909115,-0.00676778,0.02024861,0.00166865,0.00252168,-
 0.00269092,0.02156521,-0.02056022,-0.05637060,0.04156694,-0.11743617,-
 0.00453756,-0.06652260,0.42229915,-0.00229185,-0.00204136,0.00892853,0
 .03034158,0.01982258,-0.09830863,0.00115106,0.00397907,-0.01696891,0.0
 0161310,-0.00337219,0.00214312,0.04462092,-0.06287197,-0.09016095,0.00
 419740,-0.00959893,-0.05273415,-0.09605082,0.16851556,0.58912213,-0.00
 154277,-0.00211867,0.00187000,-0.04902651,-0.02796977,-0.00920200,0.00
 874163,0.00079476,0.00635457,-0.00290630,0.00148892,-0.00227658,-0.119
 45100,0.00294445,0.03897346,-0.05134177,0.00508567,-0.02872878,-0.0745
 5631,-0.03283682,-0.03839892,0.51965319,-0.00161466,-0.00847513,0.0031
 3120,-0.06242089,-0.02346224,-0.00356224,-0.00710348,-0.00504537,-0.00
 187292,0.00143854,-0.00091074,0.00079667,-0.00135863,-0.05629448,-0.00
 325297,0.04076049,0.00038546,0.02396440,-0.02481093,-0.08949355,-0.036
 19295,0.09147534,0.55604639,0.00139882,0.00265139,-0.00317410,0.013559
 54,0.00992138,0.01091494,0.00842652,0.00318686,0.00116756,-0.00123886,
 -0.00093297,-0.00123619,0.03259916,0.00254741,-0.07109060,-0.04675873,
 0.00886211,-0.01049199,-0.02848501,-0.04530676,-0.10418163,0.05618896,
 -0.08908577,0.40307494,0.00063488,0.00086428,-0.00062096,0.00121171,0.
 00290697,0.00267339,-0.00377334,0.00168874,0.00055971,0.00122213,-0.00
 379765,-0.00099931,-0.01636634,0.01782339,-0.02234170,-0.01265535,-0.0
 0159834,-0.00272173,-0.01236932,0.01053350,-0.00773908,-0.12708755,0.0
 6892468,-0.04905696,0.22415218,0.00044704,0.00191858,-0.00062955,-0.00
 244835,-0.00041610,-0.00232453,0.00400799,-0.00231497,0.00484966,-0.00
 415788,-0.00132889,-0.00184547,0.00833073,-0.00611651,0.00801984,0.001
 72745,0.00061966,-0.00060037,-0.00521967,0.01083466,-0.00187220,0.0451
 6992,-0.15339964,0.02316028,-0.02376916,0.33027643,-0.00012543,-0.0002
 7100,0.00038113,0.00047618,0.00014649,-0.00086632,0.00036156,0.0019615
 4,-0.01010316,-0.00052315,-0.00145058,0.00322947,-0.00390123,-0.004704
 34,0.00681624,-0.00573111,-0.00144511,-0.00185904,-0.01889815,0.019845
 54,-0.01048982,-0.06227805,0.05853011,-0.11957206,0.21916127,0.1322488
 4,0.46890181,-0.10415544,-0.01619232,0.10582694,-0.01598239,-0.0036855
 2,0.02741897,-0.00045314,-0.00121215,0.00185554,0.00015516,0.00052841,
 -0.00054636,0.00117935,0.00022815,-0.00015605,-0.00040993,0.00113405,-
 0.00022473,-0.00351511,-0.00030827,-0.00345927,-0.00041753,-0.00112791
 ,0.00138277,0.00010547,0.00027153,-0.00035545,0.11657509,-0.01595534,-
 0.05029187,0.03099218,-0.00558692,-0.00309083,0.01021892,0.00031080,0.
 00016645,-0.00016404,0.00007990,-0.00007062,0.00016094,0.00054541,0.00
 092088,0.00079126,-0.00019920,-0.00003987,0.00045625,-0.00171768,-0.00
 044433,-0.00089566,-0.00041661,-0.00030297,0.00047463,0.00000273,0.000
 04592,-0.00010006,0.02009056,0.05100914,0.10552719,0.03030128,-0.24216
 961,-0.00235018,-0.00061428,0.00753568,-0.00021708,0.00133733,0.000316
 30,0.00010203,-0.00094916,0.00007545,0.00052027,0.00032771,0.00046450,
 -0.00012308,0.00017784,-0.00013332,-0.00199229,-0.00050404,0.00038571,
 -0.00022743,0.00002466,0.00026619,0.00012789,-0.00000693,0.00005997,-0
 .11669535,-0.03390059,0.26210458,-0.12563558,0.09126132,-0.08232918,-0
 .01750043,0.02028949,-0.01726968,-0.00389922,-0.00472172,0.00121458,0.
 00021836,0.00136168,-0.00016397,0.00144699,0.00027393,-0.00027872,-0.0
 0093494,-0.00034772,-0.00037255,0.00108390,0.00116275,0.00030112,0.000
 02513,0.00111770,-0.00058240,0.00006038,-0.00069640,0.00036453,0.00876
 025,-0.01029520,0.00840534,0.13675339,0.09251930,-0.14969380,0.0932979
 7,-0.00749833,0.00842750,-0.00871605,-0.00076957,-0.00292540,0.0003995
 3,0.00022742,0.00199662,0.00076778,0.00085510,-0.00014333,-0.00032223,
 -0.00225747,-0.00200277,0.00056943,0.00073314,-0.00012984,0.00118732,0
 .00025178,0.00050662,-0.00011561,-0.00001119,-0.00011153,0.00003548,0.
 00158674,-0.00277684,0.00108225,-0.09802761,0.16504471,-0.08332926,0.0
 9361371,-0.13107319,-0.00362240,0.00173470,-0.00395245,-0.00045118,-0.
 00114030,0.00127583,0.00027137,0.00045443,0.00027254,-0.00017667,0.000
 94530,-0.00032260,0.00069621,0.00126364,0.00005611,0.00036412,-0.00007
 319,0.00000835,-0.00015173,0.00022736,-0.00021396,-0.00003690,-0.00026
 874,0.00013310,-0.01553588,0.01812590,-0.01571935,0.09055260,-0.106205
 65,0.13934384,-0.04607555,0.01840477,0.00878525,0.00033226,-0.02862483
 ,-0.01581367,0.00076324,-0.00358027,-0.00130975,0.00044667,0.00139967,
 0.00119777,-0.00523996,0.00012660,-0.00113018,-0.00005530,0.00040203,-
 0.00096294,0.00156201,0.00053844,0.00035123,0.00014124,-0.00170149,-0.
 00000843,-0.00006165,0.00047176,-0.00004292,-0.00141525,0.01410653,0.0
 0617155,-0.00161311,0.01418214,0.00908912,0.05200882,0.01663678,-0.255
 87622,-0.10899528,-0.00165737,-0.01140774,-0.00555954,0.00087453,-0.00
 118498,0.00064171,0.00063427,0.00101298,0.00112282,-0.00143933,0.00128
 612,0.00032234,0.00003880,-0.00019633,-0.00033600,0.00041904,0.0002492
 9,-0.00011513,0.00008237,-0.00074924,0.00008934,-0.00014399,0.00021434
 ,-0.00018727,0.00000960,0.00493535,0.00312960,0.00101276,-0.01601026,-
 0.00930601,-0.01565123,0.27771185,0.00754564,-0.10724782,-0.10276721,-
 0.00053259,-0.00398826,-0.00344519,0.00017025,-0.00323861,-0.00124006,
 0.00080307,0.00165908,0.00063321,-0.00051456,0.00121235,0.00019618,-0.
 00007406,0.00063238,-0.00033491,-0.00062792,0.00032475,0.00104693,0.00
 016780,-0.00033732,0.00029712,0.00003320,0.00019661,-0.00002929,0.0016
 3251,-0.02539970,-0.01339846,-0.00068306,0.01734806,0.00940776,-0.0079
 3548,0.11913843,0.10889719,0.00137907,-0.00156398,0.00222901,0.0162525
 6,0.00403637,-0.01533253,-0.06064700,-0.00007948,-0.02688405,0.0191665
 8,0.00770921,0.01175127,-0.00001667,-0.00031144,-0.00008520,0.00078649
 ,0.00073451,-0.00056341,-0.00294530,0.00072451,-0.00098284,-0.00145950
 ,-0.00030123,-0.00101084,-0.00293333,-0.00299072,0.00292780,-0.0003327
 5,-0.00027702,0.00022296,0.00029966,0.00053158,0.00046623,-0.00012903,
 0.00010224,-0.00023196,0.03053398,0.00029302,-0.00124030,0.00112924,0.
 00559955,0.00612715,0.01709726,-0.00209682,-0.05864769,-0.02218132,0.0
 0533745,-0.01847036,-0.04740053,-0.00061742,0.00150645,-0.00148396,-0.
 00023429,0.00048221,0.00035592,0.00094029,-0.00148580,0.00212270,-0.00
 000951,-0.00014172,0.00062262,-0.00085540,-0.00017098,0.00114268,0.000
 15158,0.00003354,-0.00018315,0.00061641,0.00020909,0.00000716,0.000215
 81,0.00001650,0.00009032,-0.00916180,0.07233436,-0.00006843,0.00261641
 ,-0.00206446,-0.00259626,-0.00717769,-0.01352183,-0.02607886,-0.017566
 56,-0.24966270,0.00452613,-0.03058745,-0.01249923,0.00020001,0.0000012
 6,-0.00007339,0.00054757,0.00098900,-0.00024269,-0.00188946,0.00089112
 ,0.00005091,-0.00165450,0.00084767,-0.00183705,0.00029447,-0.00122941,
 0.00332704,-0.00060555,-0.00007897,0.00021054,-0.00124827,-0.00033155,
 -0.00012599,0.00039754,-0.00012307,0.00023752,0.02689922,0.04911145,0.
 27643769,0.00079797,0.00043449,-0.00046402,0.00073784,-0.00047452,-0.0
 0590295,-0.00044643,0.00041508,0.00003793,0.00021383,-0.00029356,-0.00
 001153,-0.07969682,0.04001397,0.06956058,0.00203933,-0.00612399,-0.004
 45532,-0.00290188,0.00114347,0.00228811,0.00662265,0.00874191,0.016845
 27,-0.00066171,0.00095216,-0.00161010,0.00001196,0.00006616,0.00025647
 ,-0.00004241,-0.00002958,-0.00004710,-0.00024722,-0.00010060,0.0000934
 6,-0.00002002,-0.00001164,0.00008306,0.07055035,0.00088448,0.00053677,
 0.00008479,0.01018812,0.00107015,-0.01423942,-0.00081936,0.00147592,-0
 .00322649,0.00039294,-0.00095406,0.00114433,0.03967486,-0.11411977,-0.
 10407898,-0.00541888,0.00529749,0.00545831,0.00096472,-0.00407203,-0.0
 0290932,-0.00098200,-0.00115241,0.00258067,0.00032960,-0.00007892,0.00
 015313,-0.00054711,-0.00011078,0.00021572,-0.00033491,-0.00003061,-0.0
 0010537,-0.00041297,-0.00015708,0.00000904,0.00027872,-0.00025309,0.00
 105402,-0.04532520,0.10960172,-0.00035887,-0.00026759,0.00004596,-0.00
 061165,0.00261442,0.00011080,-0.00008826,-0.00028189,0.00022945,-0.000
 12129,0.00031350,0.00001806,0.06856124,-0.10211172,-0.22556555,0.00852
 003,-0.01151938,-0.00468158,0.00275080,-0.00376068,-0.00777743,-0.0033
 7002,0.00147479,-0.00129813,0.00093611,-0.00032932,0.00097609,-0.00016
 979,-0.00023919,-0.00000794,0.00012456,-0.00003092,-0.00010200,-0.0000
 1263,0.00003988,-0.00001204,0.00023583,-0.00020185,0.00026590,-0.07791
 145,0.11594519,0.23768296,-0.00085184,-0.00194072,0.00086712,-0.000940
 35,-0.00063395,0.00061831,-0.00008103,-0.00032188,0.00003562,0.0001251
 1,0.00025489,0.00003425,0.00088468,0.00181811,0.00164445,-0.29374505,-
 0.02897066,-0.08359228,-0.01098090,-0.00360371,-0.00710068,-0.00278650
 ,0.00354422,-0.00098131,-0.00008418,-0.00093170,-0.00102775,0.00032386
 ,-0.00019286,0.00024623,0.00009467,-0.00259868,0.00156129,0.00019563,-
 0.00008337,0.00016635,-0.00005948,-0.00000792,-0.00003457,0.00019776,0
 .00012680,-0.00030061,0.31815525,-0.00008451,-0.00212014,0.00117960,0.
 00170461,0.00137744,-0.00125686,0.00018946,0.00004439,0.00003461,-0.00
 019889,0.00009915,-0.00002146,0.00173143,-0.00222674,-0.00040520,-0.03
 233365,-0.05042644,-0.00838939,0.01889922,0.00445068,0.01080620,0.0008
 8135,-0.00494020,0.00021918,0.00165106,0.00133459,0.00172777,-0.000166
 21,0.00031476,-0.00023913,-0.00224210,-0.00247329,0.00115156,-0.000019
 27,0.00012692,-0.00012514,0.00003228,0.00007060,-0.00011669,-0.0004068
 8,0.00010482,-0.00012516,0.03374059,0.05581688,-0.00036025,0.00039153,
 -0.00044187,-0.00047230,-0.00233043,-0.00108928,-0.00017840,-0.0001500
 7,-0.00017281,0.00006985,0.00015792,0.00011575,-0.02706707,-0.00070653
 ,-0.00391286,-0.08216748,-0.00720644,-0.07113187,0.00896092,0.00235868
 ,0.00153439,0.00051088,0.00123033,-0.00561805,-0.00255666,0.00105006,0
 .00122138,0.00004693,-0.00010698,0.00004944,0.00117758,0.00111685,0.00
 082370,0.00026172,-0.00027351,0.00030438,0.00000708,-0.00001533,0.0001
 5345,0.00010068,-0.00024695,0.00010364,0.09150632,0.00402910,0.0739724
 1,-0.00036160,-0.00041093,-0.00000086,-0.00258856,0.00268805,-0.001800
 90,0.00098481,0.00036938,-0.00084565,-0.00009789,0.00007245,0.00013919
 ,-0.00083443,0.00173201,0.00003742,-0.09702798,-0.09565844,0.03408781,
 0.00649460,0.01112909,-0.00733741,0.00040011,0.00524264,-0.00176360,0.
 00032157,-0.00047915,0.00048937,0.00016482,-0.00022676,0.00014227,0.00
 083734,0.00009478,0.00034425,0.00005921,-0.00016788,0.00018611,-0.0002
 4238,0.00009154,-0.00021154,0.00008467,-0.00031816,0.00028751,-0.01041
 943,-0.02432558,0.00970960,0.10232141,0.00063211,0.00050818,0.00015458
 ,0.00287092,-0.00568470,0.00316617,-0.00236738,0.00075342,0.00017819,0
 .00056390,-0.00068627,-0.00017085,0.00199463,-0.00115492,-0.00144069,-
 0.09376578,-0.23505634,0.07152850,-0.00968197,-0.01416232,0.01031098,-
 0.00217158,-0.00128855,-0.00134224,0.00035775,0.00120839,-0.00056783,-
 0.00009581,0.00000717,0.00000463,-0.00002804,0.00011594,-0.00014287,0.
 00003123,0.00000713,0.00002989,0.00045423,-0.00014773,0.00054055,0.000
 22526,0.00029664,0.00021426,-0.00063378,-0.00202397,0.00095584,0.10037
 524,0.25645585,-0.00065592,-0.00022776,0.00021544,-0.00189648,0.002512
 46,-0.00469668,0.00105888,0.00116358,0.00203489,-0.00071608,0.00095169
 ,-0.00038668,0.00901902,0.02437518,-0.00414939,0.03318777,0.07087191,-
 0.07256438,-0.00466079,-0.00698949,0.00126952,0.00251861,0.00124626,-0
 .00226609,-0.00031711,-0.00078912,0.00055378,-0.00002122,-0.00008905,0
 .00004518,0.00038651,-0.00008832,0.00010008,0.00011547,-0.00001190,0.0
 0012337,0.00005915,-0.00037998,-0.00016609,0.00020249,-0.00016185,0.00
 002340,-0.00382901,-0.00848430,0.00346557,-0.03328316,-0.08351469,0.07
 602973,0.00049543,0.00056336,0.00004160,-0.00187271,0.00811498,0.00476
 851,-0.00061481,0.00099871,-0.00066816,0.00019095,-0.00073386,-0.00019
 004,-0.00238016,0.00084577,0.00189247,-0.00160579,-0.00037485,0.010586
 12,-0.08199045,0.04269540,0.07351998,0.01091014,-0.00634737,-0.0106615
 9,0.00040567,0.00082380,0.00068203,-0.00022229,-0.00018649,-0.00012371
 ,-0.00011348,0.00004669,0.00002458,-0.00011947,-0.00029222,-0.00011663
 ,0.00018019,-0.00009138,0.00019044,0.00276090,0.00073569,0.00102826,-0
 .00010016,-0.00017303,0.00027707,0.00023988,0.00012121,-0.00025233,0.0
 7361798,0.00092117,0.00066299,-0.00012749,-0.00155507,0.00787078,0.009
 22023,-0.00071618,0.00219040,-0.00034875,-0.00004320,-0.00065720,-0.00
 046968,0.00093181,-0.00399590,-0.00361290,-0.00131307,-0.00146790,-0.0
 1355983,0.04151824,-0.11304522,-0.10521119,0.00726599,-0.00428946,-0.0
 0188447,-0.00112478,0.00112408,-0.00022043,-0.00027383,-0.00018025,-0.
 00008954,-0.00024511,-0.00009279,-0.00015273,-0.00004042,-0.00009053,-
 0.00029161,0.00047557,-0.00024352,0.00033127,0.00080680,0.00233864,-0.
 00141955,0.00019952,0.00025251,0.00020410,-0.00022603,-0.00007606,-0.0
 0026826,-0.04701262,0.10968273,-0.00034822,0.00023528,0.00025641,-0.00
 150354,-0.00885272,-0.00587676,0.00087067,-0.00243631,-0.00001651,-0.0
 0052385,0.00124748,0.00076569,0.00191408,-0.00273741,-0.00713054,-0.00
 180295,0.00286221,0.00611702,0.07240025,-0.10541670,-0.23215699,0.0092
 6664,-0.00201360,-0.00494567,-0.00070310,0.00084815,0.00002022,0.00018
 118,0.00003554,0.00003145,0.00020047,0.00001428,0.00005514,0.00045416,
 0.00023486,0.00007736,-0.00018329,0.00024438,-0.00011485,0.00114186,-0
 .00167345,0.00034337,0.00010455,-0.00027704,0.00015426,0.00019881,-0.0
 0017357,0.00017483,-0.08141304,0.11788580,0.24207196,0.00044610,-0.002
 20624,0.00054729,-0.00793541,-0.00189131,-0.00080116,-0.00170815,0.000
 45236,-0.00135482,0.00058386,-0.00024913,0.00031170,-0.00865670,-0.018
 85607,0.00064670,-0.00134005,-0.00348966,0.00248905,-0.00540443,-0.003
 85568,0.00539106,-0.10292220,-0.10090894,0.03500733,0.00594610,0.02760
 858,-0.01384102,-0.00033664,-0.00012790,0.00002794,0.00013658,0.000167
 12,-0.00000755,-0.00061030,-0.00032806,-0.00010519,0.00023829,-0.00004
 109,0.00033047,0.00000969,0.00030267,0.00018236,0.00039504,0.00053855,
 -0.00009222,-0.00037203,0.00114074,-0.00103459,0.00026754,0.00023676,-
 0.00033977,0.12005502,0.00006410,0.00047583,0.00125828,-0.00158426,-0.
 00193971,-0.00121868,0.00084368,0.00120256,0.00010014,-0.00008590,-0.0
 0057155,-0.00021817,0.00423962,0.00404055,-0.00210519,0.00271933,0.000
 82105,-0.00097220,-0.00792135,-0.00897421,0.00669618,-0.10172161,-0.21
 779025,0.05734712,0.00244020,-0.02149422,0.01547200,-0.00037091,-0.000
 13234,-0.00010773,-0.00014197,0.00010280,-0.00014205,0.00017910,0.0001
 1692,-0.00000627,-0.00019526,-0.00004957,-0.00002767,-0.00025438,0.000
 22849,-0.00000836,-0.00000278,0.00046032,-0.00039827,0.00004418,0.0009
 7420,-0.00022674,0.00010320,-0.00001319,-0.00015010,0.10139862,0.24285
 388,-0.00103192,0.00030673,0.00201375,-0.00082543,-0.00214397,-0.00234
 855,-0.00119550,-0.00005257,-0.00040364,0.00023880,0.00026681,0.000216
 25,0.00740426,0.01191315,-0.00249262,-0.00131203,-0.00332311,-0.001166
 22,-0.01204134,-0.01461272,0.00802596,0.03740523,0.05900271,-0.0694225
 2,-0.00100248,0.02257220,-0.00863273,-0.00059689,-0.00029613,-0.000095
 24,0.00013278,-0.00003421,0.00002080,0.00036051,0.00015944,0.00000803,
 0.00021197,-0.00002016,0.00017415,0.00014296,0.00020138,-0.00016398,0.
 00016883,-0.00011242,0.00014210,-0.00035160,0.00014524,0.00031083,0.00
 036643,0.00003451,0.00026005,-0.02849705,-0.07478952,0.07303503,-0.000
 09412,0.00011686,0.00008728,-0.00013153,-0.00024385,-0.00080146,0.0006
 8146,-0.00040617,-0.00223920,-0.00048637,0.00043964,0.00074631,0.00083
 075,-0.00206445,-0.00053406,-0.00081611,-0.00010758,-0.00106548,-0.001
 94526,0.00379295,-0.00041467,-0.01299616,-0.01354999,-0.02486063,-0.05
 806733,-0.04911793,-0.11612839,-0.00003549,-0.00002010,-0.00002102,0.0
 0002252,-0.00000338,-0.00001108,0.00005776,0.00005367,0.00002308,-0.00
 005137,-0.00011836,0.00091855,-0.00001045,0.00027999,0.00031788,-0.000
 32306,0.00058158,0.00026576,0.00003589,-0.00002288,0.00011879,-0.00004
 934,0.00019443,0.00008509,0.00120767,0.00024639,0.00042248,0.07217053,
 -0.00000586,-0.00001784,0.00000295,-0.00044821,-0.00013884,-0.00006673
 ,0.00153417,-0.00014895,-0.00277967,-0.00074854,-0.00017147,0.00091189
 ,0.00055902,0.00005919,0.00011498,0.00075625,0.00015767,0.00019990,0.0
 0139787,-0.00210129,0.00164031,0.01278603,0.01079749,0.02700482,-0.076
 22238,-0.16214490,-0.22231697,-0.00002057,0.00000749,-0.00000648,-0.00
 001525,-0.00001282,0.00001315,-0.00002760,-0.00000503,-0.00000617,-0.0
 0019830,0.00007087,0.00085630,0.00022106,-0.00002190,-0.00030642,0.000
 23788,-0.00024226,-0.00005989,-0.00002644,-0.00004607,0.00011039,0.000
 16301,0.00002991,0.00012292,0.00010867,-0.00031155,0.00078263,0.059949
 18,0.15424030,-0.00001710,-0.00008631,0.00007226,0.00128820,0.00025443
 ,-0.00036180,-0.00193679,-0.00182734,0.00162169,0.00022733,0.00096662,
 -0.00017286,-0.00076219,0.00035604,0.00261504,-0.00074274,-0.00039810,
 -0.00020369,0.00040351,0.00434712,0.00026295,-0.00696812,-0.01415837,-
 0.02037270,-0.13569005,-0.18305001,-0.33406781,0.00002173,0.00001475,-
 0.00002106,0.00006775,0.00002558,0.00001229,0.00003167,0.00002928,-0.0
 0000190,0.00026363,-0.00005745,-0.00054892,-0.00035039,-0.00020476,-0.
 00019096,-0.00008709,0.00040476,0.00032630,-0.00002762,0.00012392,-0.0
 0011730,0.00004803,-0.00001948,-0.00008644,0.00113948,-0.00050278,0.00
 051857,0.14309077,0.19378209,0.35071635\\0.00001891,0.00000879,-0.0000
 0532,0.00001765,0.,0.00000237,-0.00002629,0.00001917,0.00001985,0.0000
 0250,-0.00000707,0.00000328,-0.00000082,-0.00000165,-0.00002487,0.0000
 0695,-0.00000840,-0.00000315,-0.00001955,-0.00000799,0.00001471,0.0000
 0637,0.00000194,-0.00001211,0.00000139,-0.00000704,0.00001809,-0.00000
 775,-0.00000365,-0.00000123,-0.00000369,0.00000039,0.00000101,-0.00000
 480,-0.00000439,0.00000060,-0.00000247,0.00000429,-0.00000004,-0.00000
 753,0.00001109,-0.00000104,0.00000254,0.00000191,-0.00001223,0.0000002
 6,-0.00000255,-0.00001208,0.00001006,-0.00000882,0.00000110,0.00000214
 ,-0.00000373,0.00000204,0.00000415,0.00000770,0.00000901\\\@


 Until you make peace with who you are,
 you'll never be content with what you have.
                           -- Doris Mortman
 Job cpu time:       0 days  0 hours 48 minutes  9.4 seconds.
 File lengths (MBytes):  RWF=    152 Int=      0 D2E=      0 Chk=      8 Scr=      1
 Normal termination of Gaussian 09 at Mon Jan 27 23:52:32 2020.
