 Entering Gaussian System, Link 0=/home/puck/opt/gaussian_09/g09
 Input=dsC7O2H10nsd_4912.com
 Output=dsC7O2H10nsd_4912.log
 Initial command:
 /home/puck/opt/gaussian_09/l1.exe "/scratch/puck/g09_a3c425be-0d45-437c-bd50-55ed85eb2cd7/Gau-16417.inp" -scrdir="/scratch/puck/g09_a3c425be-0d45-437c-bd50-55ed85eb2cd7/"
 Entering Link 1 = /home/puck/opt/gaussian_09/l1.exe PID=     16419.
  
 Copyright (c) 1988,1990,1992,1993,1995,1998,2003,2009,2013,
            Gaussian, Inc.  All Rights Reserved.
  
 This is part of the Gaussian(R) 09 program.  It is based on
 the Gaussian(R) 03 system (copyright 2003, Gaussian, Inc.),
 the Gaussian(R) 98 system (copyright 1998, Gaussian, Inc.),
 the Gaussian(R) 94 system (copyright 1995, Gaussian, Inc.),
 the Gaussian 92(TM) system (copyright 1992, Gaussian, Inc.),
 the Gaussian 90(TM) system (copyright 1990, Gaussian, Inc.),
 the Gaussian 88(TM) system (copyright 1988, Gaussian, Inc.),
 the Gaussian 86(TM) system (copyright 1986, Carnegie Mellon
 University), and the Gaussian 82(TM) system (copyright 1983,
 Carnegie Mellon University). Gaussian is a federally registered
 trademark of Gaussian, Inc.
  
 This software contains proprietary and confidential information,
 including trade secrets, belonging to Gaussian, Inc.
  
 This software is provided under written license and may be
 used, copied, transmitted, or stored only in accord with that
 written license.
  
 The following legend is applicable only to US Government
 contracts under FAR:
  
                    RESTRICTED RIGHTS LEGEND
  
 Use, reproduction and disclosure by the US Government is
 subject to restrictions as set forth in subparagraphs (a)
 and (c) of the Commercial Computer Software - Restricted
 Rights clause in FAR 52.227-19.
  
 Gaussian, Inc.
 340 Quinnipiac St., Bldg. 40, Wallingford CT 06492
  
  
 ---------------------------------------------------------------
 Warning -- This program may not be used in any manner that
 competes with the business of Gaussian, Inc. or will provide
 assistance to any competitor of Gaussian, Inc.  The licensee
 of this program is prohibited from giving any competitor of
 Gaussian, Inc. access to this program.  By using this program,
 the user acknowledges that Gaussian, Inc. is engaged in the
 business of creating and licensing software in the field of
 computational chemistry and represents and warrants to the
 licensee that it is not a competitor of Gaussian, Inc. and that
 it will not use this program in any manner prohibited above.
 ---------------------------------------------------------------
  

 Cite this work as:
 Gaussian 09, Revision D.01,
 M. J. Frisch, G. W. Trucks, H. B. Schlegel, G. E. Scuseria, 
 M. A. Robb, J. R. Cheeseman, G. Scalmani, V. Barone, B. Mennucci, 
 G. A. Petersson, H. Nakatsuji, M. Caricato, X. Li, H. P. Hratchian, 
 A. F. Izmaylov, J. Bloino, G. Zheng, J. L. Sonnenberg, M. Hada, 
 M. Ehara, K. Toyota, R. Fukuda, J. Hasegawa, M. Ishida, T. Nakajima, 
 Y. Honda, O. Kitao, H. Nakai, T. Vreven, J. A. Montgomery, Jr., 
 J. E. Peralta, F. Ogliaro, M. Bearpark, J. J. Heyd, E. Brothers, 
 K. N. Kudin, V. N. Staroverov, T. Keith, R. Kobayashi, J. Normand, 
 K. Raghavachari, A. Rendell, J. C. Burant, S. S. Iyengar, J. Tomasi, 
 M. Cossi, N. Rega, J. M. Millam, M. Klene, J. E. Knox, J. B. Cross, 
 V. Bakken, C. Adamo, J. Jaramillo, R. Gomperts, R. E. Stratmann, 
 O. Yazyev, A. J. Austin, R. Cammi, C. Pomelli, J. W. Ochterski, 
 R. L. Martin, K. Morokuma, V. G. Zakrzewski, G. A. Voth, 
 P. Salvador, J. J. Dannenberg, S. Dapprich, A. D. Daniels, 
 O. Farkas, J. B. Foresman, J. V. Ortiz, J. Cioslowski, 
 and D. J. Fox, Gaussian, Inc., Wallingford CT, 2013.
 
 ******************************************
 Gaussian 09:  ES64L-G09RevD.01 24-Apr-2013
                28-Jan-2020 
 ******************************************
 -----------------------------
 # b3lyp 6-31G(2df,p) opt Freq
 -----------------------------
 1/14=-1,18=20,19=15,26=3,38=1/1,3;
 2/9=110,12=2,17=6,18=5,40=1/2;
 3/5=1,6=6,7=104,11=2,16=1,25=1,30=1,71=1,74=-5/1,2,3;
 4//1;
 5/5=2,38=5/2;
 6/7=2,8=2,9=2,10=2,28=1/1;
 7//1,2,3,16;
 1/14=-1,18=20,19=15,26=3/3(2);
 2/9=110/2;
 99//99;
 2/9=110/2;
 3/5=1,6=6,7=104,11=2,16=1,25=1,30=1,71=1,74=-5/1,2,3;
 4/5=5,16=3,69=1/1;
 5/5=2,38=5/2;
 7//1,2,3,16;
 1/14=-1,18=20,19=15,26=3/3(-5);
 2/9=110/2;
 6/7=2,8=2,9=2,10=2,19=2,28=1/1;
 99/9=1/99;
 -----
 titel
 -----
 Symbolic Z-matrix:
 Charge =  0 Multiplicity = 1
 C                     1.53677   0.00304   0.08674 
 C                     0.08151   0.00717   0.05008 
 C                    -1.1228    0.00659   0.0101 
 C                    -2.55998   0.02184  -0.04813 
 C                    -3.18131   0.56022  -1.34027 
 O                    -3.07121  -0.3527   -2.41132 
 C                    -3.34501   0.24217   1.25037 
 C                    -3.30585  -1.11734   0.61678 
 O                    -4.41699  -1.60218  -0.08722 
 H                     1.92616   0.79029   0.74227 
 H                     1.92458  -0.95446   0.45241 
 H                     1.95586   0.16741  -0.9122 
 H                    -4.22926   0.82852  -1.1496 
 H                    -2.65104   1.46688  -1.64544 
 H                    -3.59376  -1.1229   -2.15824 
 H                    -2.78478   0.40264   2.16382 
 H                    -4.2656    0.80997   1.16268 
 H                    -2.70045  -1.88426   1.09567 
 H                    -5.11922  -1.80238   0.54016 
 

 GradGradGradGradGradGradGradGradGradGradGradGradGradGradGradGradGradGrad
 Berny optimization.
 Initialization pass.
                           ----------------------------
                           !    Initial Parameters    !
                           ! (Angstroms and Degrees)  !
 --------------------------                            --------------------------
 ! Name  Definition              Value          Derivative Info.                !
 --------------------------------------------------------------------------------
 ! R1    R(1,2)                  1.4557         estimate D2E/DX2                !
 ! R2    R(1,10)                 1.0959         estimate D2E/DX2                !
 ! R3    R(1,11)                 1.0959         estimate D2E/DX2                !
 ! R4    R(1,12)                 1.0957         estimate D2E/DX2                !
 ! R5    R(2,3)                  1.205          estimate D2E/DX2                !
 ! R6    R(3,4)                  1.4384         estimate D2E/DX2                !
 ! R7    R(4,5)                  1.5315         estimate D2E/DX2                !
 ! R8    R(4,7)                  1.5333         estimate D2E/DX2                !
 ! R9    R(4,8)                  1.5153         estimate D2E/DX2                !
 ! R10   R(5,6)                  1.4116         estimate D2E/DX2                !
 ! R11   R(5,13)                 1.0984         estimate D2E/DX2                !
 ! R12   R(5,14)                 1.0938         estimate D2E/DX2                !
 ! R13   R(6,15)                 0.9645         estimate D2E/DX2                !
 ! R14   R(7,8)                  1.5004         estimate D2E/DX2                !
 ! R15   R(7,16)                 1.0835         estimate D2E/DX2                !
 ! R16   R(7,17)                 1.0852         estimate D2E/DX2                !
 ! R17   R(8,9)                  1.4019         estimate D2E/DX2                !
 ! R18   R(8,18)                 1.0881         estimate D2E/DX2                !
 ! R19   R(9,19)                 0.9627         estimate D2E/DX2                !
 ! A1    A(2,1,10)             111.6053         estimate D2E/DX2                !
 ! A2    A(2,1,11)             111.3861         estimate D2E/DX2                !
 ! A3    A(2,1,12)             111.0372         estimate D2E/DX2                !
 ! A4    A(10,1,11)            107.5966         estimate D2E/DX2                !
 ! A5    A(10,1,12)            107.5577         estimate D2E/DX2                !
 ! A6    A(11,1,12)            107.4538         estimate D2E/DX2                !
 ! A7    A(3,4,5)              116.3099         estimate D2E/DX2                !
 ! A8    A(3,4,7)              118.6061         estimate D2E/DX2                !
 ! A9    A(3,4,8)              117.7787         estimate D2E/DX2                !
 ! A10   A(5,4,7)              117.1475         estimate D2E/DX2                !
 ! A11   A(5,4,8)              115.7724         estimate D2E/DX2                !
 ! A12   A(4,5,6)              112.4054         estimate D2E/DX2                !
 ! A13   A(4,5,13)             109.0546         estimate D2E/DX2                !
 ! A14   A(4,5,14)             109.2754         estimate D2E/DX2                !
 ! A15   A(6,5,13)             111.3511         estimate D2E/DX2                !
 ! A16   A(6,5,14)             106.6529         estimate D2E/DX2                !
 ! A17   A(13,5,14)            107.9681         estimate D2E/DX2                !
 ! A18   A(5,6,15)             105.9668         estimate D2E/DX2                !
 ! A19   A(4,7,16)             118.068          estimate D2E/DX2                !
 ! A20   A(4,7,17)             116.1748         estimate D2E/DX2                !
 ! A21   A(8,7,16)             118.47           estimate D2E/DX2                !
 ! A22   A(8,7,17)             117.524          estimate D2E/DX2                !
 ! A23   A(16,7,17)            115.4209         estimate D2E/DX2                !
 ! A24   A(4,8,9)              115.4539         estimate D2E/DX2                !
 ! A25   A(4,8,18)             116.6875         estimate D2E/DX2                !
 ! A26   A(7,8,9)              120.314          estimate D2E/DX2                !
 ! A27   A(7,8,18)             117.859          estimate D2E/DX2                !
 ! A28   A(9,8,18)             114.7229         estimate D2E/DX2                !
 ! A29   A(8,9,19)             108.8332         estimate D2E/DX2                !
 ! A30   L(1,2,3,18,-1)        180.0705         estimate D2E/DX2                !
 ! A31   L(2,3,4,18,-1)        180.7604         estimate D2E/DX2                !
 ! A32   L(1,2,3,18,-2)        180.7846         estimate D2E/DX2                !
 ! A33   L(2,3,4,18,-2)        180.0384         estimate D2E/DX2                !
 ! D1    D(10,1,4,5)           106.3056         estimate D2E/DX2                !
 ! D2    D(10,1,4,7)           -41.5461         estimate D2E/DX2                !
 ! D3    D(10,1,4,8)          -109.7575         estimate D2E/DX2                !
 ! D4    D(11,1,4,5)          -133.0982         estimate D2E/DX2                !
 ! D5    D(11,1,4,7)            79.05           estimate D2E/DX2                !
 ! D6    D(11,1,4,8)            10.8386         estimate D2E/DX2                !
 ! D7    D(12,1,4,5)           -13.5192         estimate D2E/DX2                !
 ! D8    D(12,1,4,7)          -161.3709         estimate D2E/DX2                !
 ! D9    D(12,1,4,8)           130.4177         estimate D2E/DX2                !
 ! D10   D(3,4,5,6)             74.3898         estimate D2E/DX2                !
 ! D11   D(3,4,5,13)          -161.6208         estimate D2E/DX2                !
 ! D12   D(3,4,5,14)           -43.8108         estimate D2E/DX2                !
 ! D13   D(7,4,5,6)           -136.9853         estimate D2E/DX2                !
 ! D14   D(7,4,5,13)           -12.996          estimate D2E/DX2                !
 ! D15   D(7,4,5,14)           104.814          estimate D2E/DX2                !
 ! D16   D(8,4,5,6)            -70.304          estimate D2E/DX2                !
 ! D17   D(8,4,5,13)            53.6853         estimate D2E/DX2                !
 ! D18   D(8,4,5,14)           171.4954         estimate D2E/DX2                !
 ! D19   D(3,4,7,16)             1.4473         estimate D2E/DX2                !
 ! D20   D(3,4,7,17)           144.9764         estimate D2E/DX2                !
 ! D21   D(5,4,7,16)          -146.4392         estimate D2E/DX2                !
 ! D22   D(5,4,7,17)            -2.9101         estimate D2E/DX2                !
 ! D23   D(3,4,8,9)           -139.588          estimate D2E/DX2                !
 ! D24   D(3,4,8,18)            -0.3272         estimate D2E/DX2                !
 ! D25   D(5,4,8,9)              4.5695         estimate D2E/DX2                !
 ! D26   D(5,4,8,18)           143.8303         estimate D2E/DX2                !
 ! D27   D(4,5,6,15)            64.1792         estimate D2E/DX2                !
 ! D28   D(13,5,6,15)          -58.5258         estimate D2E/DX2                !
 ! D29   D(14,5,6,15)         -176.084          estimate D2E/DX2                !
 ! D30   D(16,7,8,9)           148.0309         estimate D2E/DX2                !
 ! D31   D(16,7,8,18)           -0.9526         estimate D2E/DX2                !
 ! D32   D(17,7,8,9)             1.5998         estimate D2E/DX2                !
 ! D33   D(17,7,8,18)         -147.3836         estimate D2E/DX2                !
 ! D34   D(4,8,9,19)          -140.8351         estimate D2E/DX2                !
 ! D35   D(7,8,9,19)           -70.7974         estimate D2E/DX2                !
 ! D36   D(18,8,9,19)           79.101          estimate D2E/DX2                !
 --------------------------------------------------------------------------------
 Trust Radius=3.00D-01 FncErr=1.00D-07 GrdErr=1.00D-06
 Number of steps in this run=     98 maximum allowed number of steps=    114.
 GradGradGradGradGradGradGradGradGradGradGradGradGradGradGradGradGradGrad

                          Input orientation:                          
 ---------------------------------------------------------------------
 Center     Atomic      Atomic             Coordinates (Angstroms)
 Number     Number       Type             X           Y           Z
 ---------------------------------------------------------------------
      1          6           0        1.536775    0.003040    0.086740
      2          6           0        0.081508    0.007169    0.050078
      3          6           0       -1.122798    0.006585    0.010105
      4          6           0       -2.559979    0.021835   -0.048130
      5          6           0       -3.181309    0.560219   -1.340269
      6          8           0       -3.071208   -0.352699   -2.411317
      7          6           0       -3.345006    0.242174    1.250367
      8          6           0       -3.305846   -1.117341    0.616778
      9          8           0       -4.416986   -1.602182   -0.087216
     10          1           0        1.926164    0.790290    0.742268
     11          1           0        1.924583   -0.954463    0.452406
     12          1           0        1.955857    0.167411   -0.912201
     13          1           0       -4.229258    0.828520   -1.149602
     14          1           0       -2.651036    1.466879   -1.645440
     15          1           0       -3.593756   -1.122899   -2.158237
     16          1           0       -2.784779    0.402645    2.163821
     17          1           0       -4.265599    0.809970    1.162681
     18          1           0       -2.700454   -1.884257    1.095668
     19          1           0       -5.119225   -1.802381    0.540162
 ---------------------------------------------------------------------
                    Distance matrix (angstroms):
                    1          2          3          4          5
     1  C    0.000000
     2  C    1.455735   0.000000
     3  C    2.660679   1.204969   0.000000
     4  C    4.099016   2.643352   1.438441   0.000000
     5  C    4.960557   3.589555   2.523389   1.531513   0.000000
     6  O    5.253602   4.015916   3.128685   2.446688   1.411624
     7  C    5.024241   3.638257   2.555770   1.533268   2.615215
     8  C    4.998717   3.613840   2.529222   1.515303   2.580649
     9  O    6.168814   4.779677   3.667326   2.467273   2.788013
    10  H    1.095949   2.120180   3.232093   4.619602   5.520523
    11  H    1.095865   2.117435   3.225799   4.616816   5.619438
    12  H    1.095687   2.113018   3.217861   4.600063   5.169915
    13  H    5.954586   4.549347   3.416225   2.156497   1.098425
    14  H    4.762460   3.531619   2.684920   2.155885   1.093779
    15  H    5.712268   4.434103   3.476072   2.613745   1.916264
    16  H    4.811422   3.583282   2.749098   2.255722   3.529974
    17  H    5.956201   4.558477   3.442537   2.235255   2.739128
    18  H    4.746993   3.522792   2.691233   2.227374   3.484319
    19  H    6.911401   5.528316   4.418682   3.197436   3.587954
                    6          7          8          9         10
     6  O    0.000000
     7  C    3.719781   0.000000
     8  C    3.131947   1.500417   0.000000
     9  O    2.962055   2.517920   1.401895   0.000000
    10  H    6.018741   5.323892   5.570345   6.829899   0.000000
    11  H    5.789728   5.462348   5.235546   6.397362   1.768668
    12  H    5.271550   5.725507   5.627956   6.665222   1.768086
    13  H    2.080453   2.624035   2.785528   2.659364   6.439710
    14  H    2.018409   3.219813   3.496370   3.868563   5.206696
    15  H    0.964527   3.680202   2.789916   2.279594   6.522479
    16  H    4.645909   1.083514   2.230518   3.427915   4.935997
    17  H    3.943581   1.085161   2.221186   2.720963   6.206051
    18  H    3.844746   2.227350   1.088116   2.103631   5.355716
    19  H    3.873910   2.798652   1.939972   0.962716   7.510013
                   11         12         13         14         15
    11  H    0.000000
    12  H    1.766843   0.000000
    13  H    6.604183   6.224876   0.000000
    14  H    5.585709   4.842491   1.773173   0.000000
    15  H    6.107037   5.832299   2.286754   2.803324   0.000000
    16  H    5.191221   5.656048   3.639597   3.957392   4.654236
    17  H    6.475807   6.589730   2.312644   3.305131   3.900750
    18  H    4.761226   5.470111   3.838964   4.329692   3.459126
    19  H    7.095203   7.486403   3.250998   4.642938   3.173344
                   16         17         18         19
    16  H    0.000000
    17  H    1.833309   0.000000
    18  H    2.525467   3.116574   0.000000
    19  H    3.598339   2.817905   2.483091   0.000000
 Stoichiometry    C7H10O2
 Framework group  C1[X(C7H10O2)]
 Deg. of freedom    51
 Full point group                 C1      NOp   1
 Largest Abelian subgroup         C1      NOp   1
 Largest concise Abelian subgroup C1      NOp   1
                         Standard orientation:                         
 ---------------------------------------------------------------------
 Center     Atomic      Atomic             Coordinates (Angstroms)
 Number     Number       Type             X           Y           Z
 ---------------------------------------------------------------------
      1          6           0        3.765369   -0.038075   -0.313667
      2          6           0        2.331173   -0.090280   -0.069696
      3          6           0        1.142825   -0.124709    0.126755
      4          6           0       -0.273758   -0.152671    0.374997
      5          6           0       -0.915658    1.172982    0.794688
      6          8           0       -1.045065    2.073612   -0.284573
      7          6           0       -0.896261   -1.438571    0.931649
      8          6           0       -1.126353   -1.049916   -0.499175
      9          8           0       -2.357665   -0.510241   -0.896582
     10          1           0        4.329603   -0.521633    0.491886
     11          1           0        4.029796   -0.540311   -1.251087
     12          1           0        4.114576    0.997949   -0.386043
     13          1           0       -1.887713    0.968193    1.263418
     14          1           0       -0.279512    1.663036    1.537330
     15          1           0       -1.656925    1.658964   -0.904257
     16          1           0       -0.238955   -2.274211    1.140593
     17          1           0       -1.720980   -1.309902    1.625087
     18          1           0       -0.608059   -1.616985   -1.269759
     19          1           0       -3.024019   -1.204613   -0.871228
 ---------------------------------------------------------------------
 Rotational constants (GHZ):      2.5462199      0.9795335      0.8260675
 Standard basis: 6-31G(2df,p) (6D, 7F)
 There are   329 symmetry adapted cartesian basis functions of A   symmetry.
 There are   302 symmetry adapted basis functions of A   symmetry.
   302 basis functions,   466 primitive gaussians,   329 cartesian basis functions
    34 alpha electrons       34 beta electrons
       nuclear repulsion energy       433.4982498744 Hartrees.
 NAtoms=   19 NActive=   19 NUniq=   19 SFac= 1.00D+00 NAtFMM=   60 NAOKFM=F Big=F
 Integral buffers will be    131072 words long.
 Raffenetti 2 integral format.
 Two-electron integral symmetry is turned on.
 One-electron integrals computed using PRISM.
 NBasis=   302 RedAO= T EigKep=  4.99D-05  NBF=   302
 NBsUse=   302 1.00D-06 EigRej= -1.00D+00 NBFU=   302
 ExpMin= 1.61D-01 ExpMax= 5.48D+03 ExpMxC= 8.25D+02 IAcc=1 IRadAn=         1 AccDes= 0.00D+00
 Harris functional with IExCor=  402 and IRadAn=       1 diagonalized for initial guess.
 HarFok:  IExCor=  402 AccDes= 0.00D+00 IRadAn=         1 IDoV= 1 UseB2=F ITyADJ=14
 ICtDFT=  3500011 ScaDFX=  1.000000  1.000000  1.000000  1.000000
 FoFCou: FMM=F IPFlag=           0 FMFlag=      100000 FMFlg1=           0
         NFxFlg=           0 DoJE=T BraDBF=F KetDBF=T FulRan=T
         wScrn=  0.000000 ICntrl=     500 IOpCl=  0 I1Cent=   200000004 NGrid=           0
         NMat0=    1 NMatS0=      1 NMatT0=    0 NMatD0=    1 NMtDS0=    0 NMtDT0=    0
 Petite list used in FoFCou.
 Requested convergence on RMS density matrix=1.00D-08 within 128 cycles.
 Requested convergence on MAX density matrix=1.00D-06.
 Requested convergence on             energy=1.00D-06.
 No special actions if energy rises.
 Integral accuracy reduced to 1.0D-05 until final iterations.
 Initial convergence to 1.0D-05 achieved.  Increase integral accuracy.
 SCF Done:  E(RB3LYP) =  -423.135100484     A.U. after   14 cycles
            NFock= 14  Conv=0.34D-08     -V/T= 2.0074

 **********************************************************************

            Population analysis using the SCF density.

 **********************************************************************

 Orbital symmetries:
       Occupied  (A) (A) (A) (A) (A) (A) (A) (A) (A) (A) (A) (A)
                 (A) (A) (A) (A) (A) (A) (A) (A) (A) (A) (A) (A)
                 (A) (A) (A) (A) (A) (A) (A) (A) (A) (A)
       Virtual   (A) (A) (A) (A) (A) (A) (A) (A) (A) (A) (A) (A)
                 (A) (A) (A) (A) (A) (A) (A) (A) (A) (A) (A) (A)
                 (A) (A) (A) (A) (A) (A) (A) (A) (A) (A) (A) (A)
                 (A) (A) (A) (A) (A) (A) (A) (A) (A) (A) (A) (A)
                 (A) (A) (A) (A) (A) (A) (A) (A) (A) (A) (A) (A)
                 (A) (A) (A) (A) (A) (A) (A) (A) (A) (A) (A) (A)
                 (A) (A) (A) (A) (A) (A) (A) (A) (A) (A) (A) (A)
                 (A) (A) (A) (A) (A) (A) (A) (A) (A) (A) (A) (A)
                 (A) (A) (A) (A) (A) (A) (A) (A) (A) (A) (A) (A)
                 (A) (A) (A) (A) (A) (A) (A) (A) (A) (A) (A) (A)
                 (A) (A) (A) (A) (A) (A) (A) (A) (A) (A) (A) (A)
                 (A) (A) (A) (A) (A) (A) (A) (A) (A) (A) (A) (A)
                 (A) (A) (A) (A) (A) (A) (A) (A) (A) (A) (A) (A)
                 (A) (A) (A) (A) (A) (A) (A) (A) (A) (A) (A) (A)
                 (A) (A) (A) (A) (A) (A) (A) (A) (A) (A) (A) (A)
                 (A) (A) (A) (A) (A) (A) (A) (A) (A) (A) (A) (A)
                 (A) (A) (A) (A) (A) (A) (A) (A) (A) (A) (A) (A)
                 (A) (A) (A) (A) (A) (A) (A) (A) (A) (A) (A) (A)
                 (A) (A) (A) (A) (A) (A) (A) (A) (A) (A) (A) (A)
                 (A) (A) (A) (A) (A) (A) (A) (A) (A) (A) (A) (A)
                 (A) (A) (A) (A) (A) (A) (A) (A) (A) (A) (A) (A)
                 (A) (A) (A) (A) (A) (A) (A) (A) (A) (A) (A) (A)
                 (A) (A) (A) (A)
 The electronic state is 1-A.
 Alpha  occ. eigenvalues --  -19.16038 -19.11932 -10.24565 -10.22267 -10.21286
 Alpha  occ. eigenvalues --  -10.19872 -10.19513 -10.16746 -10.16241  -1.04425
 Alpha  occ. eigenvalues --   -1.00304  -0.86557  -0.76698  -0.70689  -0.67928
 Alpha  occ. eigenvalues --   -0.62051  -0.59305  -0.54231  -0.51000  -0.47539
 Alpha  occ. eigenvalues --   -0.45270  -0.44772  -0.42599  -0.42036  -0.41947
 Alpha  occ. eigenvalues --   -0.40245  -0.39019  -0.35912  -0.32345  -0.30715
 Alpha  occ. eigenvalues --   -0.28254  -0.26454  -0.23744  -0.22977
 Alpha virt. eigenvalues --    0.05226   0.05644   0.07394   0.11093   0.11372
 Alpha virt. eigenvalues --    0.11733   0.12467   0.14904   0.16422   0.17325
 Alpha virt. eigenvalues --    0.17906   0.19636   0.19985   0.21077   0.22952
 Alpha virt. eigenvalues --    0.23300   0.26412   0.28966   0.29981   0.33445
 Alpha virt. eigenvalues --    0.36706   0.41976   0.45478   0.45959   0.47419
 Alpha virt. eigenvalues --    0.49066   0.49680   0.51952   0.52613   0.53551
 Alpha virt. eigenvalues --    0.54262   0.56217   0.60416   0.60678   0.62820
 Alpha virt. eigenvalues --    0.64678   0.66036   0.67040   0.68460   0.69796
 Alpha virt. eigenvalues --    0.70491   0.71081   0.71784   0.73903   0.74475
 Alpha virt. eigenvalues --    0.76191   0.76284   0.78460   0.79077   0.79302
 Alpha virt. eigenvalues --    0.82296   0.83516   0.84036   0.85951   0.86532
 Alpha virt. eigenvalues --    0.89881   0.90882   0.91745   0.92516   0.94507
 Alpha virt. eigenvalues --    0.96323   0.99105   1.03209   1.05344   1.06248
 Alpha virt. eigenvalues --    1.07325   1.09846   1.10938   1.12513   1.16037
 Alpha virt. eigenvalues --    1.17980   1.19549   1.21446   1.24607   1.26900
 Alpha virt. eigenvalues --    1.30347   1.32493   1.35566   1.36937   1.38198
 Alpha virt. eigenvalues --    1.41087   1.42803   1.45168   1.45445   1.47383
 Alpha virt. eigenvalues --    1.48714   1.51978   1.52226   1.55413   1.57084
 Alpha virt. eigenvalues --    1.59171   1.60634   1.62158   1.65199   1.65892
 Alpha virt. eigenvalues --    1.70506   1.75383   1.77743   1.79105   1.79516
 Alpha virt. eigenvalues --    1.79927   1.84647   1.86771   1.92491   1.94262
 Alpha virt. eigenvalues --    1.97978   1.99874   2.02946   2.06214   2.14137
 Alpha virt. eigenvalues --    2.19547   2.25694   2.28975   2.30096   2.31490
 Alpha virt. eigenvalues --    2.33109   2.38063   2.40485   2.42775   2.46899
 Alpha virt. eigenvalues --    2.51135   2.52022   2.53519   2.58057   2.59993
 Alpha virt. eigenvalues --    2.63771   2.64769   2.65995   2.66097   2.68197
 Alpha virt. eigenvalues --    2.68979   2.70824   2.75143   2.76721   2.80363
 Alpha virt. eigenvalues --    2.82635   2.86011   2.86906   2.87996   2.90103
 Alpha virt. eigenvalues --    2.91798   2.93089   2.94410   2.94897   2.98974
 Alpha virt. eigenvalues --    3.00481   3.01457   3.03287   3.06439   3.07697
 Alpha virt. eigenvalues --    3.08726   3.10896   3.13097   3.16370   3.17124
 Alpha virt. eigenvalues --    3.20375   3.20925   3.21642   3.25805   3.32085
 Alpha virt. eigenvalues --    3.34197   3.36292   3.37248   3.37872   3.42808
 Alpha virt. eigenvalues --    3.45604   3.48372   3.49894   3.51832   3.55421
 Alpha virt. eigenvalues --    3.57570   3.60956   3.63625   3.66477   3.66886
 Alpha virt. eigenvalues --    3.68723   3.75085   3.75863   3.80491   3.87366
 Alpha virt. eigenvalues --    3.88111   3.92974   3.93241   3.95275   3.96847
 Alpha virt. eigenvalues --    4.01715   4.07281   4.13733   4.17435   4.18629
 Alpha virt. eigenvalues --    4.21345   4.24507   4.25090   4.27755   4.30264
 Alpha virt. eigenvalues --    4.32242   4.34737   4.36535   4.37635   4.40579
 Alpha virt. eigenvalues --    4.41921   4.42167   4.43506   4.44827   4.48377
 Alpha virt. eigenvalues --    4.49593   4.54923   4.55585   4.56902   4.59416
 Alpha virt. eigenvalues --    4.59908   4.62814   4.65892   4.69778   4.72533
 Alpha virt. eigenvalues --    4.72920   4.74793   4.76764   4.77047   4.79667
 Alpha virt. eigenvalues --    4.81724   4.83421   4.86124   4.92608   4.93436
 Alpha virt. eigenvalues --    4.97520   5.01317   5.03930   5.08503   5.18570
 Alpha virt. eigenvalues --    5.19759   5.21030   5.27159   5.28212   5.36208
 Alpha virt. eigenvalues --    5.41539   5.43563   5.45684   5.46715   5.49645
 Alpha virt. eigenvalues --    5.50726   5.54526   5.58775   5.62042   5.67287
 Alpha virt. eigenvalues --    5.70427   5.77924   5.89271   5.99383   6.00372
 Alpha virt. eigenvalues --    6.02528   6.06746   6.11130   6.13791   6.21492
 Alpha virt. eigenvalues --    6.57861   7.09625   7.22126   7.38592   9.85337
 Alpha virt. eigenvalues --   10.68769  11.30752  11.61056  11.95281  12.06037
 Alpha virt. eigenvalues --   12.70527  13.27804  13.46062
          Condensed to atoms (all electrons):
               1          2          3          4          5          6
     1  C    4.996307   0.453576  -0.058169  -0.003513  -0.000010   0.000000
     2  C    0.453576   4.676202   0.860233  -0.039660  -0.007623  -0.000158
     3  C   -0.058169   0.860233   4.953351   0.383826  -0.047693   0.007566
     4  C   -0.003513  -0.039660   0.383826   4.876024   0.388254  -0.062600
     5  C   -0.000010  -0.007623  -0.047693   0.388254   4.840858   0.370105
     6  O    0.000000  -0.000158   0.007566  -0.062600   0.370105   7.836519
     7  C    0.000038   0.000503  -0.006745   0.249969  -0.023110   0.003430
     8  C    0.000020  -0.005262  -0.064878   0.298877  -0.033616   0.002274
     9  O    0.000000  -0.000013  -0.000832  -0.050106   0.009508  -0.005140
    10  H    0.373358  -0.024062  -0.002701   0.000003   0.000001   0.000000
    11  H    0.370431  -0.023136  -0.000240   0.000098  -0.000003   0.000000
    12  H    0.370144  -0.021929   0.000250   0.000091   0.000009   0.000000
    13  H    0.000001   0.000410   0.011571  -0.031541   0.337373  -0.027603
    14  H   -0.000048  -0.002309  -0.017022  -0.011739   0.351408  -0.018769
    15  H    0.000000  -0.000033  -0.000875  -0.003132  -0.067551   0.317083
    16  H   -0.000032   0.000165  -0.007523  -0.001982   0.002081  -0.000051
    17  H    0.000000   0.000018   0.003396  -0.018983  -0.008390   0.000070
    18  H    0.000002   0.002284  -0.002727  -0.056059   0.004252   0.000020
    19  H    0.000000  -0.000015  -0.000411   0.006634   0.000017   0.000083
               7          8          9         10         11         12
     1  C    0.000038   0.000020   0.000000   0.373358   0.370431   0.370144
     2  C    0.000503  -0.005262  -0.000013  -0.024062  -0.023136  -0.021929
     3  C   -0.006745  -0.064878  -0.000832  -0.002701  -0.000240   0.000250
     4  C    0.249969   0.298877  -0.050106   0.000003   0.000098   0.000091
     5  C   -0.023110  -0.033616   0.009508   0.000001  -0.000003   0.000009
     6  O    0.003430   0.002274  -0.005140   0.000000   0.000000   0.000000
     7  C    5.253626   0.255842  -0.015888   0.000021  -0.000006  -0.000004
     8  C    0.255842   4.786040   0.374053  -0.000006   0.000019  -0.000001
     9  O   -0.015888   0.374053   7.825209   0.000000   0.000000   0.000000
    10  H    0.000021  -0.000006   0.000000   0.574695  -0.033199  -0.032183
    11  H   -0.000006   0.000019   0.000000  -0.033199   0.571873  -0.031244
    12  H   -0.000004  -0.000001   0.000000  -0.032183  -0.031244   0.563692
    13  H   -0.004175  -0.007698   0.003993   0.000000   0.000000   0.000000
    14  H    0.001458   0.005827   0.000315  -0.000002   0.000001  -0.000002
    15  H    0.000386   0.000361   0.018387   0.000000   0.000000   0.000000
    16  H    0.353053  -0.009513   0.001730  -0.000006   0.000002   0.000001
    17  H    0.356150  -0.007882  -0.003626   0.000000   0.000000   0.000000
    18  H   -0.049962   0.390921  -0.036171   0.000002  -0.000011   0.000000
    19  H   -0.004522  -0.057067   0.308133   0.000000   0.000000   0.000000
              13         14         15         16         17         18
     1  C    0.000001  -0.000048   0.000000  -0.000032   0.000000   0.000002
     2  C    0.000410  -0.002309  -0.000033   0.000165   0.000018   0.002284
     3  C    0.011571  -0.017022  -0.000875  -0.007523   0.003396  -0.002727
     4  C   -0.031541  -0.011739  -0.003132  -0.001982  -0.018983  -0.056059
     5  C    0.337373   0.351408  -0.067551   0.002081  -0.008390   0.004252
     6  O   -0.027603  -0.018769   0.317083  -0.000051   0.000070   0.000020
     7  C   -0.004175   0.001458   0.000386   0.353053   0.356150  -0.049962
     8  C   -0.007698   0.005827   0.000361  -0.009513  -0.007882   0.390921
     9  O    0.003993   0.000315   0.018387   0.001730  -0.003626  -0.036171
    10  H    0.000000  -0.000002   0.000000  -0.000006   0.000000   0.000002
    11  H    0.000000   0.000001   0.000000   0.000002   0.000000  -0.000011
    12  H    0.000000  -0.000002   0.000000   0.000001   0.000000   0.000000
    13  H    0.675368  -0.043318  -0.004865  -0.000146   0.006986  -0.000085
    14  H   -0.043318   0.614612   0.006558  -0.000057   0.000614  -0.000053
    15  H   -0.004865   0.006558   0.439274  -0.000016   0.000031   0.000080
    16  H   -0.000146  -0.000057  -0.000016   0.576630  -0.034933  -0.003965
    17  H    0.006986   0.000614   0.000031  -0.034933   0.584204   0.002803
    18  H   -0.000085  -0.000053   0.000080  -0.003965   0.002803   0.645840
    19  H   -0.000205   0.000018  -0.000501   0.000267   0.001915  -0.001197
              19
     1  C    0.000000
     2  C   -0.000015
     3  C   -0.000411
     4  C    0.006634
     5  C    0.000017
     6  O    0.000083
     7  C   -0.004522
     8  C   -0.057067
     9  O    0.308133
    10  H    0.000000
    11  H    0.000000
    12  H    0.000000
    13  H   -0.000205
    14  H    0.000018
    15  H   -0.000501
    16  H    0.000267
    17  H    0.001915
    18  H   -0.001197
    19  H    0.451970
 Mulliken charges:
               1
     1  C   -0.502105
     2  C    0.130810
     3  C   -0.010376
     4  C    0.075540
     5  C   -0.115871
     6  O   -0.422827
     7  C   -0.370065
     8  C    0.071688
     9  O   -0.429552
    10  H    0.144082
    11  H    0.145416
    12  H    0.151177
    13  H    0.083932
    14  H    0.112509
    15  H    0.294815
    16  H    0.124296
    17  H    0.117628
    18  H    0.104024
    19  H    0.294881
 Sum of Mulliken charges =   0.00000
 Mulliken charges with hydrogens summed into heavy atoms:
               1
     1  C   -0.061431
     2  C    0.130810
     3  C   -0.010376
     4  C    0.075540
     5  C    0.080570
     6  O   -0.128013
     7  C   -0.128141
     8  C    0.175712
     9  O   -0.134672
 Electronic spatial extent (au):  <R**2>=           1477.3425
 Charge=              0.0000 electrons
 Dipole moment (field-independent basis, Debye):
    X=             -0.6529    Y=             -2.8983    Z=              0.2103  Tot=              2.9783
 Quadrupole moment (field-independent basis, Debye-Ang):
   XX=            -41.5068   YY=            -55.4407   ZZ=            -52.0977
   XY=              4.5139   XZ=             -0.4682   YZ=              1.4968
 Traceless Quadrupole moment (field-independent basis, Debye-Ang):
   XX=              8.1750   YY=             -5.7590   ZZ=             -2.4160
   XY=              4.5139   XZ=             -0.4682   YZ=              1.4968
 Octapole moment (field-independent basis, Debye-Ang**2):
  XXX=             -8.2966  YYY=            -11.4791  ZZZ=             -6.6152  XYY=             -7.2144
  XXY=             -8.5345  XXZ=             -8.7117  XZZ=             -7.9475  YZZ=              2.4784
  YYZ=             -2.4821  XYZ=             -1.1085
 Hexadecapole moment (field-independent basis, Debye-Ang**3):
 XXXX=          -1085.9104 YYYY=           -449.5028 ZZZZ=           -196.2325 XXXY=             37.5981
 XXXZ=             17.7654 YYYX=             19.1545 YYYZ=              4.5195 ZZZX=              7.7878
 ZZZY=              0.3569 XXYY=           -261.5649 XXZZ=           -236.6808 YYZZ=            -92.1329
 XXYZ=              4.7404 YYXZ=             13.2267 ZZXY=             -2.8476
 N-N= 4.334982498744D+02 E-N=-1.854098073743D+03  KE= 4.200148595209D+02
 Calling FoFJK, ICntrl=      2127 FMM=F ISym2X=0 I1Cent= 0 IOpClX= 0 NMat=1 NMatS=1 NMatT=0.
 ***** Axes restored to original set *****
 -------------------------------------------------------------------
 Center     Atomic                   Forces (Hartrees/Bohr)
 Number     Number              X              Y              Z
 -------------------------------------------------------------------
      1        6           0.000001430    0.000000014    0.000004309
      2        6          -0.000004098   -0.000004623   -0.000003091
      3        6          -0.000000026   -0.000000508   -0.000012891
      4        6           0.000004501    0.000019904    0.000004006
      5        6          -0.000002962    0.000030220    0.000011766
      6        8           0.000027304    0.000013588    0.000011809
      7        6          -0.000027390   -0.000016566    0.000016521
      8        6           0.000005438    0.000073640   -0.000023420
      9        8           0.000035264    0.000018348    0.000019298
     10        1           0.000002602    0.000001306    0.000001262
     11        1           0.000004525   -0.000002140   -0.000005031
     12        1          -0.000000317    0.000004213   -0.000002580
     13        1          -0.000007180   -0.000031516   -0.000007258
     14        1          -0.000002744    0.000007429    0.000007566
     15        1          -0.000005125   -0.000032948   -0.000024798
     16        1           0.000014396   -0.000009834   -0.000004721
     17        1          -0.000015608   -0.000027392    0.000007029
     18        1          -0.000015825   -0.000010336    0.000012686
     19        1          -0.000014184   -0.000032799   -0.000012463
 -------------------------------------------------------------------
 Cartesian Forces:  Max     0.000073640 RMS     0.000017966

 GradGradGradGradGradGradGradGradGradGradGradGradGradGradGradGradGradGrad
 Berny optimization.
 FormGI is forming the generalized inverse of G from B-inverse, IUseBI=4.
 Internal  Forces:  Max     0.000060491 RMS     0.000017995
 Search for a local minimum.
 Step number   1 out of a maximum of   98
 All quantities printed in internal units (Hartrees-Bohrs-Radians)
 Mixed Optimization -- En-DIIS/RFO-DIIS
 Second derivative matrix not updated -- first step.
 ITU=  0
     Eigenvalues ---    0.00230   0.00349   0.00925   0.01259   0.01538
     Eigenvalues ---    0.01667   0.01931   0.02093   0.02936   0.03082
     Eigenvalues ---    0.03305   0.03822   0.04107   0.04263   0.04852
     Eigenvalues ---    0.05900   0.06471   0.07144   0.10548   0.10730
     Eigenvalues ---    0.11635   0.12598   0.13972   0.16000   0.16000
     Eigenvalues ---    0.16000   0.16000   0.16000   0.17176   0.18300
     Eigenvalues ---    0.19838   0.22064   0.23713   0.26238   0.29284
     Eigenvalues ---    0.30866   0.33857   0.34134   0.34144   0.34164
     Eigenvalues ---    0.34380   0.35031   0.35378   0.35573   0.37503
     Eigenvalues ---    0.39800   0.43747   0.45308   0.54511   0.54893
     Eigenvalues ---    1.02365
 RFO step:  Lambda=-1.81474484D-06 EMin= 2.30000000D-03
 Linear search not attempted -- first point.
 Iteration  1 RMS(Cart)=  0.00535607 RMS(Int)=  0.00001221
 Iteration  2 RMS(Cart)=  0.00002220 RMS(Int)=  0.00000113
 Iteration  3 RMS(Cart)=  0.00000000 RMS(Int)=  0.00000113
 Variable       Old X    -DE/DX   Delta X   Delta X   Delta X     New X
                                 (Linear)    (Quad)   (Total)
    R1        2.75094   0.00001   0.00000   0.00002   0.00002   2.75096
    R2        2.07104   0.00000   0.00000   0.00000   0.00000   2.07104
    R3        2.07088   0.00001   0.00000   0.00002   0.00002   2.07090
    R4        2.07055   0.00000   0.00000   0.00001   0.00001   2.07056
    R5        2.27706   0.00001   0.00000   0.00001   0.00001   2.27707
    R6        2.71826   0.00001   0.00000   0.00001   0.00001   2.71827
    R7        2.89414  -0.00001   0.00000  -0.00003  -0.00003   2.89411
    R8        2.89746   0.00003   0.00000   0.00018   0.00018   2.89764
    R9        2.86351  -0.00002   0.00000  -0.00010  -0.00010   2.86341
   R10        2.66758   0.00002   0.00000   0.00006   0.00006   2.66764
   R11        2.07572   0.00000   0.00000  -0.00001  -0.00001   2.07571
   R12        2.06694   0.00000   0.00000   0.00001   0.00001   2.06695
   R13        1.82269   0.00003   0.00000   0.00005   0.00005   1.82274
   R14        2.83538  -0.00004   0.00000  -0.00015  -0.00015   2.83523
   R15        2.04754   0.00000   0.00000   0.00001   0.00001   2.04755
   R16        2.05066   0.00000   0.00000   0.00000   0.00000   2.05066
   R17        2.64920  -0.00002   0.00000  -0.00004  -0.00004   2.64916
   R18        2.05624   0.00000   0.00000   0.00001   0.00001   2.05625
   R19        1.81927   0.00001   0.00000   0.00002   0.00002   1.81929
    A1        1.94788   0.00001   0.00000   0.00007   0.00007   1.94795
    A2        1.94405   0.00000   0.00000   0.00001   0.00001   1.94406
    A3        1.93797   0.00000   0.00000  -0.00005  -0.00005   1.93792
    A4        1.87792  -0.00001   0.00000   0.00002   0.00002   1.87793
    A5        1.87724  -0.00001   0.00000  -0.00001  -0.00001   1.87722
    A6        1.87542   0.00001   0.00000  -0.00004  -0.00004   1.87539
    A7        2.02999  -0.00003   0.00000  -0.00013  -0.00013   2.02986
    A8        2.07007   0.00002   0.00000   0.00050   0.00050   2.07057
    A9        2.05563   0.00000   0.00000  -0.00041  -0.00040   2.05522
   A10        2.04461   0.00001   0.00000   0.00028   0.00027   2.04488
   A11        2.02061   0.00002   0.00000  -0.00019  -0.00019   2.02042
   A12        1.96184  -0.00002   0.00000  -0.00012  -0.00012   1.96173
   A13        1.90336   0.00001   0.00000   0.00010   0.00010   1.90346
   A14        1.90722   0.00000   0.00000  -0.00003  -0.00003   1.90718
   A15        1.94344   0.00001   0.00000   0.00005   0.00005   1.94349
   A16        1.86144   0.00000   0.00000  -0.00013  -0.00013   1.86131
   A17        1.88440   0.00001   0.00000   0.00014   0.00014   1.88454
   A18        1.84947   0.00006   0.00000   0.00038   0.00038   1.84985
   A19        2.06068  -0.00001   0.00000  -0.00011  -0.00011   2.06057
   A20        2.02763   0.00001   0.00000   0.00023   0.00023   2.02787
   A21        2.06769  -0.00001   0.00000  -0.00001  -0.00001   2.06768
   A22        2.05118   0.00000   0.00000  -0.00023  -0.00023   2.05095
   A23        2.01447   0.00001   0.00000   0.00009   0.00009   2.01457
   A24        2.01505   0.00000   0.00000  -0.00006  -0.00006   2.01499
   A25        2.03658   0.00000   0.00000   0.00014   0.00014   2.03672
   A26        2.09988   0.00000   0.00000   0.00014   0.00014   2.10001
   A27        2.05703   0.00000   0.00000  -0.00011  -0.00011   2.05692
   A28        2.00229  -0.00001   0.00000  -0.00011  -0.00011   2.00219
   A29        1.89950   0.00004   0.00000   0.00027   0.00027   1.89977
   A30        3.14282  -0.00001   0.00000  -0.00049  -0.00049   3.14233
   A31        3.15486  -0.00003   0.00000  -0.00337  -0.00337   3.15149
   A32        3.15529   0.00002   0.00000   0.00076   0.00076   3.15604
   A33        3.14226   0.00006   0.00000   0.00555   0.00555   3.14781
    D1        1.85538   0.00003   0.00000   0.00382   0.00382   1.85920
    D2       -0.72512  -0.00002   0.00000  -0.00119  -0.00119  -0.72631
    D3       -1.91563  -0.00001   0.00000  -0.00096  -0.00095  -1.91658
    D4       -2.32300   0.00004   0.00000   0.00423   0.00423  -2.31877
    D5        1.37968  -0.00001   0.00000  -0.00078  -0.00078   1.37890
    D6        0.18917   0.00000   0.00000  -0.00054  -0.00054   0.18863
    D7       -0.23595   0.00002   0.00000   0.00263   0.00263  -0.23332
    D8       -2.81645  -0.00002   0.00000  -0.00238  -0.00238  -2.81884
    D9        2.27622  -0.00002   0.00000  -0.00215  -0.00214   2.27408
   D10        1.29835  -0.00003   0.00000  -0.00565  -0.00564   1.29270
   D11       -2.82082  -0.00003   0.00000  -0.00560  -0.00559  -2.82641
   D12       -0.76464  -0.00001   0.00000  -0.00539  -0.00539  -0.77003
   D13       -2.39084  -0.00001   0.00000  -0.00432  -0.00432  -2.39516
   D14       -0.22682  -0.00001   0.00000  -0.00427  -0.00427  -0.23109
   D15        1.82935   0.00000   0.00000  -0.00406  -0.00406   1.82529
   D16       -1.22704  -0.00002   0.00000  -0.00439  -0.00439  -1.23143
   D17        0.93699  -0.00002   0.00000  -0.00434  -0.00434   0.93264
   D18        2.99316  -0.00001   0.00000  -0.00414  -0.00414   2.98902
   D19        0.02526   0.00000   0.00000   0.00078   0.00077   0.02604
   D20        2.53032   0.00002   0.00000   0.00115   0.00115   2.53147
   D21       -2.55585   0.00000   0.00000  -0.00038  -0.00038  -2.55623
   D22       -0.05079   0.00002   0.00000   0.00000   0.00000  -0.05079
   D23       -2.43627   0.00003   0.00000   0.00099   0.00099  -2.43528
   D24       -0.00571   0.00001   0.00000   0.00091   0.00092  -0.00480
   D25        0.07975   0.00001   0.00000  -0.00018  -0.00018   0.07958
   D26        2.51031  -0.00001   0.00000  -0.00025  -0.00025   2.51006
   D27        1.12014   0.00001   0.00000   0.00014   0.00014   1.12028
   D28       -1.02147   0.00000   0.00000   0.00006   0.00006  -1.02141
   D29       -3.07325  -0.00001   0.00000  -0.00006  -0.00006  -3.07330
   D30        2.58363   0.00000   0.00000   0.00022   0.00022   2.58384
   D31       -0.01663   0.00002   0.00000   0.00041   0.00041  -0.01622
   D32        0.02792   0.00000   0.00000   0.00044   0.00044   0.02837
   D33       -2.57233   0.00002   0.00000   0.00064   0.00064  -2.57169
   D34       -2.45804  -0.00003   0.00000  -0.00070  -0.00070  -2.45873
   D35       -1.23565   0.00000   0.00000  -0.00053  -0.00053  -1.23618
   D36        1.38057  -0.00001   0.00000  -0.00072  -0.00072   1.37985
         Item               Value     Threshold  Converged?
 Maximum Force            0.000060     0.000450     YES
 RMS     Force            0.000018     0.000300     YES
 Maximum Displacement     0.022824     0.001800     NO 
 RMS     Displacement     0.005361     0.001200     NO 
 Predicted change in Energy=-9.077123D-07
 GradGradGradGradGradGradGradGradGradGradGradGradGradGradGradGradGradGrad

                          Input orientation:                          
 ---------------------------------------------------------------------
 Center     Atomic      Atomic             Coordinates (Angstroms)
 Number     Number       Type             X           Y           Z
 ---------------------------------------------------------------------
      1          6           0        1.535745   -0.000341    0.084665
      2          6           0        0.080428    0.009545    0.050652
      3          6           0       -1.123940    0.012936    0.012633
      4          6           0       -2.561121    0.025399   -0.046396
      5          6           0       -3.182585    0.561175   -1.339537
      6          8           0       -3.063550   -0.349866   -2.411267
      7          6           0       -3.348003    0.243992    1.251387
      8          6           0       -3.304586   -1.115480    0.618168
      9          8           0       -4.413602   -1.603583   -0.086875
     10          1           0        1.929490    0.784880    0.740021
     11          1           0        1.920455   -0.959654    0.448884
     12          1           0        1.953612    0.163094   -0.914944
     13          1           0       -4.232775    0.822401   -1.151421
     14          1           0       -2.657320    1.471530   -1.642375
     15          1           0       -3.581678   -1.123917   -2.160767
     16          1           0       -2.788965    0.406196    2.165268
     17          1           0       -4.270257    0.808957    1.162876
     18          1           0       -2.697755   -1.880656    1.098028
     19          1           0       -5.115946   -1.806097    0.539661
 ---------------------------------------------------------------------
                    Distance matrix (angstroms):
                    1          2          3          4          5
     1  C    0.000000
     2  C    1.455748   0.000000
     3  C    2.660692   1.204972   0.000000
     4  C    4.099043   2.643379   1.438448   0.000000
     5  C    4.960472   3.589453   2.523282   1.531498   0.000000
     6  O    5.244554   4.009340   3.125541   2.446604   1.411654
     7  C    5.027119   3.640174   2.556238   1.533364   2.615503
     8  C    4.995694   3.611934   2.528876   1.515252   2.580439
     9  O    6.163971   4.776756   3.666731   2.467166   2.787605
    10  H    1.095946   2.120238   3.232402   4.621781   5.523398
    11  H    1.095873   2.117459   3.225613   4.615209   5.617151
    12  H    1.095693   2.113001   3.217805   4.599582   5.169068
    13  H    5.956562   4.550761   3.416886   2.156552   1.098420
    14  H    4.767689   3.535393   2.686597   2.155852   1.093783
    15  H    5.700210   4.425621   3.472259   2.614006   1.916566
    16  H    4.816357   3.586411   2.749690   2.255742   3.530242
    17  H    5.960467   4.561202   3.443258   2.235497   2.739799
    18  H    4.741836   3.519681   2.690849   2.227425   3.484153
    19  H    6.907443   5.526118   4.418456   3.197650   3.587930
                    6          7          8          9         10
     6  O    0.000000
     7  C    3.721372   0.000000
     8  C    3.133965   1.500338   0.000000
     9  O    2.966015   2.517931   1.401873   0.000000
    10  H    6.012380   5.329727   5.569719   6.828128   0.000000
    11  H    5.778633   5.463462   5.230104   6.389207   1.768683
    12  H    5.260610   5.727709   5.624396   6.659449   1.768081
    13  H    2.080507   2.625045   2.783588   2.655439   6.446121
    14  H    2.018341   3.218345   3.495944   3.867871   5.214032
    15  H    0.964552   3.683554   2.792728   2.285433   6.513912
    16  H    4.646686   1.083518   2.230443   3.427945   4.943536
    17  H    3.946329   1.085161   2.220965   2.720804   6.214198
    18  H    3.846073   2.227211   1.088119   2.103544   5.352070
    19  H    3.878261   2.799114   1.940140   0.962728   7.509426
                   11         12         13         14         15
    11  H    0.000000
    12  H    1.766830   0.000000
    13  H    6.602948   6.225912   0.000000
    14  H    5.589279   4.847871   1.773263   0.000000
    15  H    6.091857   5.817895   2.287107   2.803482   0.000000
    16  H    5.195205   5.660286   3.641186   3.956059   4.656631
    17  H    6.477861   6.593256   2.314639   3.303029   3.905988
    18  H    4.753682   5.464814   3.837033   4.329964   3.460306
    19  H    7.087711   7.481459   3.247884   4.642085   3.179883
                   16         17         18         19
    16  H    0.000000
    17  H    1.833366   0.000000
    18  H    2.525274   3.116246   0.000000
    19  H    3.598844   2.818172   2.482938   0.000000
 Stoichiometry    C7H10O2
 Framework group  C1[X(C7H10O2)]
 Deg. of freedom    51
 Full point group                 C1      NOp   1
 Largest Abelian subgroup         C1      NOp   1
 Largest concise Abelian subgroup C1      NOp   1
                         Standard orientation:                         
 ---------------------------------------------------------------------
 Center     Atomic      Atomic             Coordinates (Angstroms)
 Number     Number       Type             X           Y           Z
 ---------------------------------------------------------------------
      1          6           0        3.762998   -0.040140   -0.315880
      2          6           0        2.329678   -0.092624   -0.066802
      3          6           0        1.141902   -0.127184    0.133079
      4          6           0       -0.275368   -0.153538    0.377583
      5          6           0       -0.916790    1.173049    0.794995
      6          8           0       -1.035573    2.075993   -0.283594
      7          6           0       -0.901702   -1.438841    0.931573
      8          6           0       -1.126271   -1.049192   -0.499774
      9          8           0       -2.355290   -0.507417   -0.901322
     10          1           0        4.330187   -0.524683    0.486998
     11          1           0        4.024036   -0.541163   -1.254909
     12          1           0        4.111917    0.995989   -0.388231
     13          1           0       -1.892877    0.970127    1.256082
     14          1           0       -0.284751    1.660047    1.543140
     15          1           0       -1.643951    1.664482   -0.908812
     16          1           0       -0.246248   -2.275473    1.142381
     17          1           0       -1.728867   -1.309518    1.621970
     18          1           0       -0.606310   -1.616897   -1.268769
     19          1           0       -3.022912   -1.200695   -0.879170
 ---------------------------------------------------------------------
 Rotational constants (GHZ):      2.5418239      0.9805117      0.8268746
 Standard basis: 6-31G(2df,p) (6D, 7F)
 There are   329 symmetry adapted cartesian basis functions of A   symmetry.
 There are   302 symmetry adapted basis functions of A   symmetry.
   302 basis functions,   466 primitive gaussians,   329 cartesian basis functions
    34 alpha electrons       34 beta electrons
       nuclear repulsion energy       433.5098002614 Hartrees.
 NAtoms=   19 NActive=   19 NUniq=   19 SFac= 1.00D+00 NAtFMM=   60 NAOKFM=F Big=F
 Integral buffers will be    131072 words long.
 Raffenetti 2 integral format.
 Two-electron integral symmetry is turned on.
 One-electron integrals computed using PRISM.
 NBasis=   302 RedAO= T EigKep=  5.00D-05  NBF=   302
 NBsUse=   302 1.00D-06 EigRej= -1.00D+00 NBFU=   302
 Initial guess from the checkpoint file:  "/scratch/puck/g09_a3c425be-0d45-437c-bd50-55ed85eb2cd7/Gau-16419.chk"
 B after Tr=     0.000000    0.000000    0.000000
         Rot=    1.000000   -0.000341    0.000388    0.000630 Ang=  -0.09 deg.
 ExpMin= 1.61D-01 ExpMax= 5.48D+03 ExpMxC= 8.25D+02 IAcc=1 IRadAn=         1 AccDes= 0.00D+00
 Harris functional with IExCor=  402 and IRadAn=       1 diagonalized for initial guess.
 HarFok:  IExCor=  402 AccDes= 0.00D+00 IRadAn=         1 IDoV= 1 UseB2=F ITyADJ=14
 ICtDFT=  3500011 ScaDFX=  1.000000  1.000000  1.000000  1.000000
 FoFCou: FMM=F IPFlag=           0 FMFlag=      100000 FMFlg1=           0
         NFxFlg=           0 DoJE=T BraDBF=F KetDBF=T FulRan=T
         wScrn=  0.000000 ICntrl=     500 IOpCl=  0 I1Cent=   200000004 NGrid=           0
         NMat0=    1 NMatS0=      1 NMatT0=    0 NMatD0=    1 NMtDS0=    0 NMtDT0=    0
 Petite list used in FoFCou.
 Requested convergence on RMS density matrix=1.00D-08 within 128 cycles.
 Requested convergence on MAX density matrix=1.00D-06.
 Requested convergence on             energy=1.00D-06.
 No special actions if energy rises.
 Integral accuracy reduced to 1.0D-05 until final iterations.
 Initial convergence to 1.0D-05 achieved.  Increase integral accuracy.
 SCF Done:  E(RB3LYP) =  -423.135100693     A.U. after    9 cycles
            NFock=  9  Conv=0.43D-08     -V/T= 2.0074
 Calling FoFJK, ICntrl=      2127 FMM=F ISym2X=0 I1Cent= 0 IOpClX= 0 NMat=1 NMatS=1 NMatT=0.
 ***** Axes restored to original set *****
 -------------------------------------------------------------------
 Center     Atomic                   Forces (Hartrees/Bohr)
 Number     Number              X              Y              Z
 -------------------------------------------------------------------
      1        6          -0.000000984    0.000079140    0.000028699
      2        6          -0.000007576    0.000016020    0.000016911
      3        6           0.000008118   -0.000226924   -0.000105659
      4        6          -0.000030951    0.000119556    0.000031297
      5        6           0.000025335    0.000072206    0.000047936
      6        8          -0.000005217   -0.000021865    0.000036689
      7        6          -0.000041011    0.000025713   -0.000047746
      8        6          -0.000016745   -0.000056241    0.000018810
      9        8           0.000037560    0.000022959   -0.000006436
     10        1           0.000016763    0.000000924    0.000001502
     11        1          -0.000013161    0.000001890   -0.000002130
     12        1          -0.000006916    0.000007862   -0.000000019
     13        1           0.000019447   -0.000029125    0.000004401
     14        1          -0.000002506    0.000010363   -0.000004102
     15        1          -0.000004947    0.000010932   -0.000015263
     16        1           0.000009004   -0.000005205   -0.000008700
     17        1          -0.000004949   -0.000002219    0.000000073
     18        1           0.000003103   -0.000007774   -0.000000648
     19        1           0.000015633   -0.000018211    0.000004386
 -------------------------------------------------------------------
 Cartesian Forces:  Max     0.000226924 RMS     0.000043981

 GradGradGradGradGradGradGradGradGradGradGradGradGradGradGradGradGradGrad
 Berny optimization.
 Using GEDIIS/GDIIS optimizer.
 FormGI is forming the generalized inverse of G from B-inverse, IUseBI=4.
 Internal  Forces:  Max     0.000153841 RMS     0.000032615
 Search for a local minimum.
 Step number   2 out of a maximum of   98
 All quantities printed in internal units (Hartrees-Bohrs-Radians)
 Mixed Optimization -- En-DIIS/RFO-DIIS
 Swapping is turned off.
 Update second derivatives using D2CorX and points    1    2
 DE= -2.09D-07 DEPred=-9.08D-07 R= 2.30D-01
 Trust test= 2.30D-01 RLast= 1.74D-02 DXMaxT set to 3.00D-01
 ITU=  0  0
     Eigenvalues ---    0.00229   0.00264   0.01225   0.01417   0.01546
     Eigenvalues ---    0.01663   0.02055   0.02917   0.03062   0.03299
     Eigenvalues ---    0.03512   0.03819   0.04168   0.04265   0.04946
     Eigenvalues ---    0.05878   0.06638   0.07466   0.10521   0.10715
     Eigenvalues ---    0.11635   0.12597   0.13974   0.15792   0.16000
     Eigenvalues ---    0.16000   0.16000   0.16108   0.17149   0.18346
     Eigenvalues ---    0.19959   0.22048   0.23619   0.26258   0.29357
     Eigenvalues ---    0.30858   0.33872   0.34135   0.34144   0.34163
     Eigenvalues ---    0.34380   0.35031   0.35379   0.35574   0.37503
     Eigenvalues ---    0.39800   0.43742   0.45314   0.54502   0.54890
     Eigenvalues ---    1.02369
 En-DIIS/RFO-DIIS IScMMF=        0 using points:     2    1
 RFO step:  Lambda=-3.95671616D-07.
 DidBck=T Rises=F RFO-DIIS coefs:    0.45898    0.54102
 Iteration  1 RMS(Cart)=  0.00263418 RMS(Int)=  0.00000297
 Iteration  2 RMS(Cart)=  0.00000960 RMS(Int)=  0.00000068
 Iteration  3 RMS(Cart)=  0.00000000 RMS(Int)=  0.00000068
 Variable       Old X    -DE/DX   Delta X   Delta X   Delta X     New X
                                 (Linear)    (Quad)   (Total)
    R1        2.75096   0.00000  -0.00001   0.00002   0.00001   2.75097
    R2        2.07104   0.00000   0.00000   0.00000   0.00000   2.07104
    R3        2.07090   0.00000  -0.00001   0.00001   0.00000   2.07090
    R4        2.07056   0.00000  -0.00001   0.00001   0.00000   2.07056
    R5        2.27707  -0.00001   0.00000   0.00000   0.00000   2.27706
    R6        2.71827   0.00000  -0.00001   0.00001   0.00000   2.71827
    R7        2.89411  -0.00006   0.00002  -0.00012  -0.00010   2.89401
    R8        2.89764  -0.00002  -0.00010   0.00012   0.00002   2.89766
    R9        2.86341   0.00002   0.00005  -0.00008  -0.00002   2.86339
   R10        2.66764  -0.00001  -0.00003   0.00005   0.00002   2.66766
   R11        2.07571  -0.00003   0.00001  -0.00004  -0.00004   2.07567
   R12        2.06695   0.00001   0.00000   0.00002   0.00001   2.06696
   R13        1.82274  -0.00001  -0.00003   0.00004   0.00001   1.82275
   R14        2.83523   0.00001   0.00008  -0.00011  -0.00003   2.83520
   R15        2.04755   0.00000   0.00000   0.00000   0.00000   2.04755
   R16        2.05066   0.00000   0.00000   0.00001   0.00001   2.05066
   R17        2.64916  -0.00005   0.00002  -0.00009  -0.00006   2.64909
   R18        2.05625   0.00000   0.00000   0.00001   0.00001   2.05626
   R19        1.81929   0.00000  -0.00001   0.00002   0.00001   1.81930
    A1        1.94795   0.00004  -0.00004   0.00020   0.00016   1.94811
    A2        1.94406  -0.00004   0.00000  -0.00009  -0.00009   1.94397
    A3        1.93792  -0.00001   0.00003  -0.00008  -0.00006   1.93786
    A4        1.87793   0.00000  -0.00001   0.00002   0.00001   1.87794
    A5        1.87722   0.00002   0.00001   0.00002   0.00003   1.87725
    A6        1.87539  -0.00001   0.00002  -0.00007  -0.00005   1.87534
    A7        2.02986   0.00000   0.00007  -0.00015  -0.00008   2.02979
    A8        2.07057   0.00003  -0.00027   0.00069   0.00042   2.07099
    A9        2.05522  -0.00003   0.00022  -0.00058  -0.00036   2.05486
   A10        2.04488  -0.00001  -0.00015   0.00016   0.00001   2.04490
   A11        2.02042   0.00001   0.00010  -0.00009   0.00001   2.02043
   A12        1.96173  -0.00003   0.00006  -0.00019  -0.00012   1.96160
   A13        1.90346   0.00000  -0.00005   0.00003  -0.00002   1.90344
   A14        1.90718   0.00002   0.00002   0.00006   0.00008   1.90726
   A15        1.94349   0.00000  -0.00003  -0.00003  -0.00006   1.94343
   A16        1.86131   0.00001   0.00007  -0.00005   0.00002   1.86133
   A17        1.88454   0.00000  -0.00008   0.00020   0.00012   1.88466
   A18        1.84985   0.00001  -0.00020   0.00040   0.00019   1.85004
   A19        2.06057  -0.00002   0.00006  -0.00017  -0.00011   2.06046
   A20        2.02787   0.00000  -0.00013   0.00022   0.00009   2.02796
   A21        2.06768  -0.00003   0.00001   0.00000   0.00000   2.06768
   A22        2.05095   0.00002   0.00012  -0.00019  -0.00007   2.05088
   A23        2.01457   0.00001  -0.00005   0.00010   0.00005   2.01462
   A24        2.01499   0.00000   0.00003  -0.00009  -0.00006   2.01494
   A25        2.03672   0.00000  -0.00008   0.00012   0.00004   2.03676
   A26        2.10001  -0.00001  -0.00007   0.00018   0.00011   2.10012
   A27        2.05692   0.00002   0.00006  -0.00008  -0.00002   2.05690
   A28        2.00219  -0.00001   0.00006  -0.00012  -0.00006   2.00213
   A29        1.89977  -0.00002  -0.00015   0.00021   0.00006   1.89983
   A30        3.14233   0.00005   0.00027   0.00039   0.00065   3.14298
   A31        3.15149   0.00014   0.00182   0.00254   0.00436   3.15585
   A32        3.15604  -0.00003  -0.00041   0.00022  -0.00019   3.15585
   A33        3.14781  -0.00015  -0.00300  -0.00055  -0.00356   3.14426
    D1        1.85920  -0.00007  -0.00207   0.00008  -0.00199   1.85722
    D2       -0.72631   0.00004   0.00065   0.00032   0.00097  -0.72534
    D3       -1.91658   0.00001   0.00052  -0.00047   0.00004  -1.91654
    D4       -2.31877  -0.00006  -0.00229   0.00065  -0.00164  -2.32041
    D5        1.37890   0.00004   0.00042   0.00089   0.00131   1.38022
    D6        0.18863   0.00002   0.00029   0.00010   0.00038   0.18902
    D7       -0.23332  -0.00005  -0.00142   0.00074  -0.00068  -0.23401
    D8       -2.81884   0.00005   0.00129   0.00099   0.00228  -2.81656
    D9        2.27408   0.00003   0.00116   0.00019   0.00135   2.27542
   D10        1.29270  -0.00002   0.00305  -0.00517  -0.00211   1.29059
   D11       -2.82641  -0.00004   0.00303  -0.00531  -0.00229  -2.82870
   D12       -0.77003  -0.00003   0.00291  -0.00503  -0.00211  -0.77214
   D13       -2.39516   0.00003   0.00234  -0.00367  -0.00133  -2.39649
   D14       -0.23109   0.00001   0.00231  -0.00382  -0.00151  -0.23260
   D15        1.82529   0.00002   0.00220  -0.00353  -0.00133   1.82396
   D16       -1.23143   0.00003   0.00238  -0.00371  -0.00134  -1.23277
   D17        0.93264   0.00001   0.00235  -0.00386  -0.00151   0.93113
   D18        2.98902   0.00002   0.00224  -0.00357  -0.00134   2.98769
   D19        0.02604   0.00003  -0.00042   0.00110   0.00069   0.02672
   D20        2.53147   0.00003  -0.00062   0.00139   0.00077   2.53224
   D21       -2.55623   0.00000   0.00020  -0.00016   0.00005  -2.55618
   D22       -0.05079  -0.00001   0.00000   0.00013   0.00013  -0.05066
   D23       -2.43528   0.00004  -0.00054   0.00136   0.00083  -2.43445
   D24       -0.00480   0.00003  -0.00050   0.00120   0.00070  -0.00409
   D25        0.07958   0.00000   0.00010   0.00005   0.00015   0.07972
   D26        2.51006  -0.00001   0.00014  -0.00011   0.00002   2.51008
   D27        1.12028   0.00000  -0.00007   0.00028   0.00021   1.12048
   D28       -1.02141   0.00002  -0.00003   0.00040   0.00037  -1.02104
   D29       -3.07330   0.00001   0.00003   0.00021   0.00024  -3.07306
   D30        2.58384   0.00000  -0.00012   0.00035   0.00024   2.58408
   D31       -0.01622  -0.00001  -0.00022   0.00042   0.00020  -0.01602
   D32        0.02837   0.00000  -0.00024   0.00049   0.00025   0.02861
   D33       -2.57169  -0.00001  -0.00034   0.00055   0.00021  -2.57149
   D34       -2.45873   0.00000   0.00038  -0.00097  -0.00059  -2.45932
   D35       -1.23618  -0.00002   0.00029  -0.00085  -0.00056  -1.23674
   D36        1.37985   0.00000   0.00039  -0.00090  -0.00051   1.37934
         Item               Value     Threshold  Converged?
 Maximum Force            0.000154     0.000450     YES
 RMS     Force            0.000033     0.000300     YES
 Maximum Displacement     0.011072     0.001800     NO 
 RMS     Displacement     0.002636     0.001200     NO 
 Predicted change in Energy=-9.639468D-07
 GradGradGradGradGradGradGradGradGradGradGradGradGradGradGradGradGradGrad

                          Input orientation:                          
 ---------------------------------------------------------------------
 Center     Atomic      Atomic             Coordinates (Angstroms)
 Number     Number       Type             X           Y           Z
 ---------------------------------------------------------------------
      1          6           0        1.536016    0.001509    0.084167
      2          6           0        0.080664    0.006765    0.050491
      3          6           0       -1.123709    0.007077    0.012523
      4          6           0       -2.560871    0.023399   -0.046067
      5          6           0       -3.181158    0.560462   -1.339174
      6          8           0       -3.062362   -0.350211   -2.411252
      7          6           0       -3.347336    0.243586    1.251713
      8          6           0       -3.306701   -1.115939    0.618463
      9          8           0       -4.416558   -1.601801   -0.086738
     10          1           0        1.927582    0.788098    0.739190
     11          1           0        1.923762   -0.956539    0.448501
     12          1           0        1.953071    0.165909   -0.915626
     13          1           0       -4.231224    0.822395   -1.151465
     14          1           0       -2.654929    1.470503   -1.641309
     15          1           0       -3.581449   -1.123911   -2.161625
     16          1           0       -2.787885    0.404649    2.165543
     17          1           0       -4.268503    0.810338    1.163274
     18          1           0       -2.701498   -1.882384    1.098363
     19          1           0       -5.119266   -1.803390    0.539693
 ---------------------------------------------------------------------
                    Distance matrix (angstroms):
                    1          2          3          4          5
     1  C    0.000000
     2  C    1.455752   0.000000
     3  C    2.660695   1.204971   0.000000
     4  C    4.099015   2.643351   1.438449   0.000000
     5  C    4.958837   3.588486   2.523177   1.531444   0.000000
     6  O    5.243654   4.008269   3.124215   2.446463   1.411662
     7  C    5.026817   3.640082   2.556569   1.533376   2.615477
     8  C    4.998607   3.613488   2.528593   1.515240   2.580392
     9  O    6.167086   4.778213   3.666224   2.467084   2.787506
    10  H    1.095948   2.120352   3.232400   4.620346   5.520022
    11  H    1.095875   2.117399   3.225788   4.617013   5.617588
    12  H    1.095695   2.112964   3.217648   4.599142   5.166757
    13  H    5.954973   4.549981   3.417055   2.156474   1.098399
    14  H    4.764371   3.533862   2.687268   2.155865   1.093790
    15  H    5.700755   4.425263   3.470813   2.614094   1.916709
    16  H    4.815680   3.586130   2.750099   2.255683   3.530153
    17  H    5.959121   4.560622   3.443718   2.235573   2.739891
    18  H    4.747017   3.522406   2.690452   2.227444   3.484130
    19  H    6.910713   5.527681   4.418165   3.197759   3.588064
                    6          7          8          9         10
     6  O    0.000000
     7  C    3.721709   0.000000
     8  C    3.134520   1.500321   0.000000
     9  O    2.967101   2.517963   1.401839   0.000000
    10  H    6.010040   5.327657   5.571144   6.829486   0.000000
    11  H    5.779901   5.465338   5.235651   6.395506   1.768692
    12  H    5.259073   5.726927   5.626879   6.662134   1.768102
    13  H    2.080458   2.625175   2.782899   2.654189   6.442565
    14  H    2.018369   3.217814   3.495863   3.867697   5.208825
    15  H    0.964560   3.684526   2.793642   2.287125   6.513058
    16  H    4.646741   1.083518   2.230429   3.428000   4.941371
    17  H    3.947010   1.085164   2.220907   2.720821   6.210621
    18  H    3.846450   2.227189   1.088124   2.103479   5.356198
    19  H    3.879518   2.799432   1.940151   0.962732   7.510904
                   11         12         13         14         15
    11  H    0.000000
    12  H    1.766803   0.000000
    13  H    6.603662   6.223511   0.000000
    14  H    5.587687   4.843784   1.773329   0.000000
    15  H    6.094926   5.817823   2.287080   2.803596   0.000000
    16  H    5.196218   5.659263   3.641467   3.955483   4.657319
    17  H    6.478959   6.591290   2.315070   3.302291   3.907469
    18  H    4.761569   5.469613   3.836355   4.330107   3.460797
    19  H    7.094345   7.484253   3.247057   4.641993   3.181775
                   16         17         18         19
    16  H    0.000000
    17  H    1.833400   0.000000
    18  H    2.525244   3.116164   0.000000
    19  H    3.599189   2.818550   2.482732   0.000000
 Stoichiometry    C7H10O2
 Framework group  C1[X(C7H10O2)]
 Deg. of freedom    51
 Full point group                 C1      NOp   1
 Largest Abelian subgroup         C1      NOp   1
 Largest concise Abelian subgroup C1      NOp   1
                         Standard orientation:                         
 ---------------------------------------------------------------------
 Center     Atomic      Atomic             Coordinates (Angstroms)
 Number     Number       Type             X           Y           Z
 ---------------------------------------------------------------------
      1          6           0        3.763690   -0.040762   -0.313670
      2          6           0        2.329619   -0.093826   -0.069054
      3          6           0        1.141347   -0.128507    0.127828
      4          6           0       -0.275275   -0.154078    0.376145
      5          6           0       -0.914712    1.172867    0.795262
      6          8           0       -1.033284    2.076781   -0.282547
      7          6           0       -0.901553   -1.439052    0.930995
      8          6           0       -1.128693   -1.048749   -0.499751
      9          8           0       -2.357950   -0.505710   -0.898737
     10          1           0        4.328693   -0.525527    0.490616
     11          1           0        4.027683   -0.541166   -1.252204
     12          1           0        4.112430    0.995536   -0.384473
     13          1           0       -1.890696    0.970710    1.256854
     14          1           0       -0.281480    1.658518    1.543285
     15          1           0       -1.642821    1.666720   -0.907600
     16          1           0       -0.246268   -2.276216    1.140207
     17          1           0       -1.727300   -1.309372    1.623023
     18          1           0       -0.610796   -1.616682   -1.269978
     19          1           0       -3.026121   -1.198445   -0.875974
 ---------------------------------------------------------------------
 Rotational constants (GHZ):      2.5433365      0.9803857      0.8265562
 Standard basis: 6-31G(2df,p) (6D, 7F)
 There are   329 symmetry adapted cartesian basis functions of A   symmetry.
 There are   302 symmetry adapted basis functions of A   symmetry.
   302 basis functions,   466 primitive gaussians,   329 cartesian basis functions
    34 alpha electrons       34 beta electrons
       nuclear repulsion energy       433.5045216459 Hartrees.
 NAtoms=   19 NActive=   19 NUniq=   19 SFac= 1.00D+00 NAtFMM=   60 NAOKFM=F Big=F
 Integral buffers will be    131072 words long.
 Raffenetti 2 integral format.
 Two-electron integral symmetry is turned on.
 One-electron integrals computed using PRISM.
 NBasis=   302 RedAO= T EigKep=  4.99D-05  NBF=   302
 NBsUse=   302 1.00D-06 EigRej= -1.00D+00 NBFU=   302
 Initial guess from the checkpoint file:  "/scratch/puck/g09_a3c425be-0d45-437c-bd50-55ed85eb2cd7/Gau-16419.chk"
 B after Tr=     0.000000    0.000000    0.000000
         Rot=    1.000000   -0.000215   -0.000143    0.000273 Ang=  -0.04 deg.
 Requested convergence on RMS density matrix=1.00D-08 within 128 cycles.
 Requested convergence on MAX density matrix=1.00D-06.
 Requested convergence on             energy=1.00D-06.
 No special actions if energy rises.
 SCF Done:  E(RB3LYP) =  -423.135101344     A.U. after    7 cycles
            NFock=  7  Conv=0.70D-08     -V/T= 2.0074
 Calling FoFJK, ICntrl=      2127 FMM=F ISym2X=0 I1Cent= 0 IOpClX= 0 NMat=1 NMatS=1 NMatT=0.
 ***** Axes restored to original set *****
 -------------------------------------------------------------------
 Center     Atomic                   Forces (Hartrees/Bohr)
 Number     Number              X              Y              Z
 -------------------------------------------------------------------
      1        6          -0.000002586   -0.000035231    0.000018977
      2        6          -0.000000558    0.000015941    0.000002392
      3        6           0.000008016    0.000132935   -0.000047362
      4        6          -0.000032693   -0.000108575    0.000008159
      5        6           0.000034018    0.000038713    0.000040080
      6        8          -0.000008633   -0.000024710    0.000015528
      7        6           0.000015174    0.000017843   -0.000032528
      8        6          -0.000056879   -0.000069023   -0.000003970
      9        8          -0.000002612    0.000013424    0.000000235
     10        1          -0.000010372    0.000001864    0.000002622
     11        1           0.000012271    0.000005430    0.000000095
     12        1          -0.000007627    0.000010037    0.000000829
     13        1           0.000019393   -0.000016685    0.000012810
     14        1          -0.000001482    0.000004434   -0.000004295
     15        1          -0.000002132    0.000029282   -0.000002621
     16        1          -0.000002523   -0.000005230    0.000000956
     17        1           0.000011718    0.000011045   -0.000012897
     18        1           0.000010132   -0.000000575   -0.000002169
     19        1           0.000017374   -0.000020919    0.000003159
 -------------------------------------------------------------------
 Cartesian Forces:  Max     0.000132935 RMS     0.000030571

 GradGradGradGradGradGradGradGradGradGradGradGradGradGradGradGradGradGrad
 Berny optimization.
 Using GEDIIS/GDIIS optimizer.
 FormGI is forming the generalized inverse of G from B-inverse, IUseBI=4.
 Internal  Forces:  Max     0.000124432 RMS     0.000023014
 Search for a local minimum.
 Step number   3 out of a maximum of   98
 All quantities printed in internal units (Hartrees-Bohrs-Radians)
 Mixed Optimization -- En-DIIS/RFO-DIIS
 Swapping is turned off.
 Update second derivatives using D2CorX and points    1    2    3
 DE= -6.51D-07 DEPred=-9.64D-07 R= 6.76D-01
 Trust test= 6.76D-01 RLast= 8.89D-03 DXMaxT set to 3.00D-01
 ITU=  0  0  0
     Eigenvalues ---    0.00224   0.00268   0.01322   0.01511   0.01601
     Eigenvalues ---    0.01874   0.02083   0.02973   0.03073   0.03304
     Eigenvalues ---    0.03807   0.04108   0.04252   0.04497   0.04957
     Eigenvalues ---    0.05849   0.06617   0.08284   0.10493   0.10909
     Eigenvalues ---    0.11639   0.12815   0.13979   0.15795   0.16000
     Eigenvalues ---    0.16000   0.16084   0.16176   0.17114   0.18416
     Eigenvalues ---    0.20026   0.21990   0.23672   0.26646   0.29420
     Eigenvalues ---    0.30954   0.33871   0.34137   0.34145   0.34164
     Eigenvalues ---    0.34378   0.35030   0.35379   0.35574   0.37509
     Eigenvalues ---    0.39801   0.43761   0.45215   0.54553   0.54890
     Eigenvalues ---    1.02372
 En-DIIS/RFO-DIIS IScMMF=        0 using points:     3    2    1
 RFO step:  Lambda=-1.51937201D-07.
 DidBck=T Rises=F RFO-DIIS coefs:    0.50070    0.25071    0.24859
 Iteration  1 RMS(Cart)=  0.00206050 RMS(Int)=  0.00000125
 Iteration  2 RMS(Cart)=  0.00000334 RMS(Int)=  0.00000035
 Iteration  3 RMS(Cart)=  0.00000000 RMS(Int)=  0.00000035
 Variable       Old X    -DE/DX   Delta X   Delta X   Delta X     New X
                                 (Linear)    (Quad)   (Total)
    R1        2.75097  -0.00001  -0.00001   0.00000  -0.00001   2.75096
    R2        2.07104   0.00000   0.00000  -0.00001  -0.00001   2.07104
    R3        2.07090   0.00000  -0.00001   0.00001   0.00000   2.07091
    R4        2.07056   0.00000   0.00000   0.00000   0.00000   2.07056
    R5        2.27706  -0.00001   0.00000   0.00000   0.00000   2.27706
    R6        2.71827   0.00000   0.00000   0.00000   0.00000   2.71827
    R7        2.89401  -0.00006   0.00006  -0.00018  -0.00012   2.89389
    R8        2.89766  -0.00005  -0.00006  -0.00006  -0.00012   2.89754
    R9        2.86339   0.00004   0.00004   0.00003   0.00007   2.86346
   R10        2.66766  -0.00001  -0.00002   0.00001  -0.00001   2.66764
   R11        2.07567  -0.00002   0.00002  -0.00006  -0.00004   2.07563
   R12        2.06696   0.00000  -0.00001   0.00002   0.00001   2.06697
   R13        1.82275  -0.00002  -0.00002   0.00000  -0.00001   1.82274
   R14        2.83520   0.00003   0.00005   0.00002   0.00007   2.83527
   R15        2.04755   0.00000   0.00000   0.00000   0.00000   2.04755
   R16        2.05066   0.00000   0.00000   0.00000   0.00000   2.05066
   R17        2.64909  -0.00001   0.00004  -0.00008  -0.00003   2.64906
   R18        2.05626   0.00000  -0.00001   0.00001   0.00001   2.05626
   R19        1.81930   0.00000  -0.00001   0.00001   0.00000   1.81930
    A1        1.94811  -0.00002  -0.00010   0.00009  -0.00001   1.94810
    A2        1.94397   0.00003   0.00004   0.00001   0.00006   1.94403
    A3        1.93786  -0.00002   0.00004  -0.00010  -0.00006   1.93780
    A4        1.87794   0.00001  -0.00001   0.00003   0.00002   1.87796
    A5        1.87725  -0.00001  -0.00001   0.00000  -0.00001   1.87724
    A6        1.87534   0.00001   0.00003  -0.00003   0.00001   1.87534
    A7        2.02979  -0.00002   0.00007  -0.00014  -0.00007   2.02972
    A8        2.07099   0.00001  -0.00034   0.00031  -0.00003   2.07096
    A9        2.05486   0.00003   0.00028  -0.00013   0.00015   2.05502
   A10        2.04490  -0.00002  -0.00007  -0.00013  -0.00020   2.04470
   A11        2.02043   0.00000   0.00004   0.00016   0.00020   2.02063
   A12        1.96160  -0.00001   0.00009  -0.00014  -0.00005   1.96155
   A13        1.90344  -0.00002  -0.00001  -0.00009  -0.00010   1.90334
   A14        1.90726   0.00001  -0.00003   0.00012   0.00009   1.90735
   A15        1.94343   0.00000   0.00002  -0.00010  -0.00008   1.94335
[...]
 0.00638599,-0.00065619,-0.00270878,0.00221183,0.00083228,0.00641888,-0
 .05646727,0.00126015,0.01526757,0.29728950,-0.00060641,0.00039492,0.00
 710551,0.00299020,0.00004832,0.00184040,-0.01823380,0.00278983,-0.0616
 8382,-0.00800833,-0.09633807,0.45682935,-0.00037389,-0.00033707,0.0015
 8983,0.00065528,-0.00027005,0.00010565,-0.02267156,0.01376887,-0.02839
 589,-0.09887376,0.01619967,-0.03606298,0.58871034,0.00010225,-0.000168
 63,0.00002579,-0.00110680,0.00022004,0.00006746,0.00466951,-0.00156159
 ,0.00149044,0.01716502,-0.08667186,0.04003443,0.04302852,0.56579830,-0
 .00078352,-0.00004470,-0.00038598,0.00599929,0.00063746,-0.00102183,-0
 .01399706,-0.00027724,0.00212048,-0.03109326,0.04014346,-0.11965148,-0
 .04974767,-0.02783418,0.43331052,0.00011344,-0.00002963,-0.00011807,0.
 00078589,0.00001514,-0.00033840,0.00035334,-0.00067817,0.00124917,0.00
 740348,-0.00750179,-0.01033395,-0.07842780,-0.01208327,0.01358914,0.21
 979119,0.00014865,0.00002083,0.00012051,-0.00093125,0.00015381,0.00030
 595,0.00098439,0.00097194,-0.00064179,-0.00375139,0.00531176,-0.007318
 13,0.01133002,-0.15089061,-0.08960964,0.20921613,0.50560629,0.00039970
 ,-0.00005858,-0.00000741,-0.00152281,0.00010125,0.00031871,0.00363870,
 0.00009518,0.00058181,0.00268468,-0.02323267,-0.04579665,0.03516679,-0
 .05455313,-0.15879522,-0.11234162,0.02416310,0.29206012,-0.00030142,-0
 .00132938,-0.00088757,0.00310546,-0.00035246,-0.00003165,-0.02355467,0
 .01596568,0.02488273,-0.08597439,0.00710894,0.03635253,0.00422280,-0.0
 0994000,0.00044498,-0.00119773,-0.00098775,-0.00748696,0.53994668,-0.0
 0033139,0.00055467,0.00026712,0.00142678,0.00056731,-0.00031181,-0.005
 49837,-0.00221103,0.00122256,0.03718857,-0.02162068,-0.03487695,-0.004
 14406,0.00300773,0.00818683,0.00023399,0.00104354,0.00007023,-0.153013
 16,0.39524900,0.00047749,-0.00028572,-0.00013861,-0.00435011,-0.000564
 75,-0.00041633,0.01075774,0.00552919,0.00052250,0.05157588,0.00947638,
 -0.14344842,0.00673695,-0.01853392,-0.02231166,-0.00135696,0.00281877,
 -0.00613054,0.13109497,0.12355223,0.53446703,-0.00076865,0.00141225,-0
 .00022183,0.00363063,0.00009557,0.00023005,-0.02582724,-0.02675613,0.0
 0440378,-0.07838335,-0.03590457,0.02576904,0.00962303,0.01143768,0.009
 59380,-0.00210852,-0.00352464,-0.00199517,-0.05958687,0.01104358,-0.02
 729632,0.49848848,-0.00048076,0.00003486,-0.00014046,0.00373588,-0.000
 62578,0.00027666,-0.00565085,0.00355639,0.00156471,-0.06250847,-0.1179
 5358,0.08979583,-0.00160522,-0.01705962,0.00674014,-0.00115028,-0.0002
 0118,-0.00518316,0.04055515,-0.19121108,-0.08693136,-0.02160322,0.6172
 8021,0.00056529,0.00035179,-0.00029447,-0.00406869,0.00069604,0.001066
 29,0.00994203,-0.00396256,-0.00593244,0.00359428,0.04263762,-0.0753557
 0,0.00939381,0.03218647,-0.01037075,0.00165692,-0.00211709,0.00542373,
 -0.00860280,-0.05075503,-0.05974032,0.13056335,-0.06448564,0.36845157,
 0.00050216,0.00055433,-0.00018933,-0.00101681,-0.00004345,0.00045201,0
 .00122234,-0.00545749,-0.00012129,-0.02654024,-0.01228944,-0.00877273,
 -0.00191599,0.00346914,-0.00351307,0.00058251,0.00059729,0.00385328,0.
 00297875,-0.00563401,-0.00301532,-0.18972970,-0.05141387,-0.09300945,0
 .51081654,0.00027988,0.00008063,-0.00000520,-0.00067894,0.00020772,0.0
 0016995,0.00097508,-0.00169578,-0.00096550,-0.01350870,-0.00797164,-0.
 00640279,0.00004781,-0.00179284,-0.00079571,-0.00041270,0.00135879,0.0
 0265686,-0.02402008,-0.00845773,-0.01786336,-0.04607168,-0.08190271,-0
 .03441119,0.16224680,0.11188933,0.00003423,-0.00035315,0.00007459,0.00
 030768,-0.00000666,-0.00016080,0.00185440,0.00390209,0.00104308,0.0157
 3571,-0.00015923,0.01535934,-0.00224370,-0.00227354,-0.00365688,0.0019
 9351,0.00265908,0.00000748,-0.02528866,-0.00607282,-0.01717138,-0.0488
 0968,-0.01718002,-0.13080006,-0.13032859,-0.01802965,0.39720099,-0.073
 34324,-0.06428298,-0.05363291,-0.02116026,-0.02423758,-0.02061429,0.00
 120244,0.00023753,0.00012483,-0.00060822,0.00077892,0.00166018,0.00012
 209,-0.00017555,0.00032441,-0.00008805,-0.00001996,-0.00025362,-0.0005
 1121,0.00060553,-0.00042677,0.00054909,0.00016318,-0.00050724,-0.00028
 355,-0.00015104,-0.00000688,0.08641218,-0.06263424,-0.18036226,-0.1132
 8980,-0.00370370,0.00301513,0.00329819,0.00213055,0.00025685,-0.000404
 33,-0.00035791,-0.00015134,0.00003672,0.00002473,0.00002744,0.00005319
 ,-0.00001775,-0.00000788,-0.00002887,0.00017036,0.00005289,-0.00013528
 ,0.00001611,-0.00003608,-0.00017076,-0.00010914,-0.00002956,0.00004246
 ,0.07089275,0.19395564,-0.05229811,-0.11326534,-0.13869560,-0.00335077
 ,0.00271709,0.00093254,0.00155301,-0.00062876,0.00043693,-0.00011873,0
 .00002274,0.00011037,-0.00002245,-0.00010713,0.00002436,-0.00003469,0.
 00003035,-0.00003249,-0.00008989,0.00005085,-0.00005059,0.00012536,0.0
 0008941,0.00003357,-0.00001267,-0.00002581,-0.00004338,0.05945036,0.12
 480223,0.14816961,-0.07277582,0.07768225,-0.02962766,-0.02060607,0.029
 90674,-0.01179396,0.00083083,-0.00022113,0.00048329,-0.00028664,-0.001
 84307,0.00051249,0.00008545,0.00014045,0.00054142,-0.00001997,-0.00015
 899,-0.00022508,0.00013671,0.00009555,-0.00001252,-0.00014786,0.000342
 90,-0.00062034,-0.00046793,-0.00024073,0.00017224,0.00375594,-0.009164
 90,0.00469876,0.08551285,0.07573262,-0.24658475,0.07677791,0.00459034,
 0.00438097,-0.00191333,-0.00247761,-0.00015209,0.00028523,0.00033666,0
 .00011228,-0.00002696,-0.00007058,-0.00002569,-0.00008593,0.00002375,0
 .00002097,0.00004065,0.00003977,-0.00008236,0.00001133,-0.00013998,-0.
 00010806,0.00015004,0.00007275,0.00004392,-0.00000801,0.00704698,-0.02
 040377,0.00850409,-0.08573199,0.26697239,-0.02896600,0.07670986,-0.073
 13596,-0.00176361,-0.00133648,-0.00080515,0.00061499,0.00020249,0.0008
 3398,0.00011367,0.00012823,-0.00015682,-0.00011827,0.00008029,0.000105
 25,0.00001893,-0.00007820,-0.00004578,-0.00000049,-0.00010010,0.000038
 84,0.00005165,0.00005971,0.00013313,-0.00001933,-0.00001237,-0.0000361
 3,0.00735031,-0.01787967,0.00673463,0.03293295,-0.08461011,0.07610654,
 -0.07829179,-0.01469323,0.08862282,-0.02143661,-0.00532726,0.03109782,
 0.00033008,0.00004071,-0.00057328,0.00023222,0.00054662,-0.00166017,-0
 .00057053,-0.00013829,0.00081070,0.00007864,-0.00018823,-0.00036880,-0
 .00002053,0.00004834,-0.00009836,0.00023721,0.00022019,0.00004107,-0.0
 0020829,-0.00014776,-0.00009036,0.00416304,0.00273828,-0.00990340,0.00
 412158,0.00059805,-0.01019885,0.09148447,-0.01441581,-0.04985574,0.036
 30665,-0.00048756,-0.00100069,-0.00109668,0.00029440,0.00076075,0.0003
 2720,0.00003606,0.00010609,-0.00016105,-0.00008967,0.00015989,0.000093
 13,0.00004224,-0.00009826,-0.00003549,0.00016228,-0.00011380,-0.000021
 53,-0.00007186,-0.00005604,0.00005152,-0.00005176,-0.00000019,0.000014
 79,0.00925228,0.00368320,-0.02218268,-0.01084090,-0.00414838,0.0267965
 6,0.01617316,0.05055195,0.08667250,0.03637264,-0.26503659,0.00401660,-
 0.00110103,0.00560645,-0.00249095,0.00013216,-0.00025177,0.00024321,0.
 00000704,-0.00017847,-0.00009799,0.00005915,-0.00007145,0.00002678,0.0
 0000028,0.00004963,-0.00001604,-0.00001467,0.00003337,-0.00004452,-0.0
 0002823,-0.00000446,0.00005206,0.00003005,0.00002544,0.00622201,0.0036
 4790,-0.01760701,0.00291650,0.00090767,-0.00967395,-0.09747848,-0.0400
 2320,0.28714498,0.00006594,0.00001490,0.00025898,0.00039907,0.00006385
 ,-0.00023344,-0.00138779,0.00162201,-0.00269567,-0.01388931,0.00168045
 ,0.00123969,-0.28018051,0.04768522,0.03220643,0.00450693,0.00634813,0.
 00645248,-0.00009831,-0.00037833,0.00134714,-0.00174690,-0.00015746,0.
 00027349,0.00094436,-0.00235641,0.00116908,-0.00004919,-0.00001237,-0.
 00002167,-0.00008647,-0.00000162,-0.00004693,-0.00014236,-0.00003516,-
 0.00000855,0.30219038,-0.00000854,0.00005978,-0.00017140,0.00033438,0.
 00015513,-0.00009363,0.00014341,-0.00044734,0.00170077,0.01379810,-0.0
 0196881,0.00142247,0.04233054,-0.06086740,-0.00245306,0.02353898,-0.01
 259550,-0.01724245,0.00015312,0.00073571,-0.00075074,0.00170548,0.0002
 9926,-0.00060584,-0.00132362,-0.00010607,0.00000706,0.00000981,-0.0000
 0635,0.00001874,-0.00000585,0.00000031,0.00000867,0.00008859,-0.000014
 48,0.00000622,-0.05684793,0.06572065,0.00008063,-0.00005870,0.00036494
 ,-0.00057042,-0.00009250,-0.00002413,-0.00160171,0.00251160,-0.0037662
 5,-0.02556971,0.00596942,-0.00094099,0.03362022,-0.00457516,-0.0512289
 7,0.02727989,-0.01954775,-0.01540898,-0.00247334,0.00014501,0.00056403
 ,-0.00105907,-0.00033231,0.00035619,0.00074973,0.00073957,0.00015096,-
 0.00003723,-0.00000305,-0.00001023,-0.00008617,-0.00000043,-0.00005321
 ,-0.00024979,-0.00004269,-0.00000872,-0.04109899,0.01438686,0.07008222
 ,-0.00007189,-0.00005732,-0.00004272,-0.00009514,-0.00011054,0.0000984
 0,0.00146513,0.00067351,0.00010802,0.00581758,0.01290099,-0.00730131,-
 0.11730533,-0.10830971,0.04033436,0.00445414,0.00274281,-0.00238796,-0
 .00028150,0.00046269,0.00089877,-0.00238799,0.00096704,-0.00319654,0.0
 0058968,-0.00101135,0.00119245,0.00001269,0.00000820,0.00000676,0.0000
 5940,-0.00000166,0.00001021,0.00002715,0.00001531,-0.00001145,-0.01376
 130,-0.02444421,0.00985507,0.11925516,0.00002029,0.00001793,0.00006946
 ,0.00061349,0.00016584,-0.00020980,-0.00114465,0.00070492,-0.00060697,
 -0.00540422,-0.00895319,0.00632819,-0.10131712,-0.21865319,0.06196036,
 -0.01276111,-0.02776596,-0.00274111,-0.00006800,-0.00047915,0.00094791
 ,0.00121666,0.00056302,0.00098555,-0.00002943,0.00037616,-0.00021249,0
 .00001689,-0.00000254,0.00000194,-0.00002427,-0.00000359,-0.00002259,0
 .00000862,-0.00003235,0.00000362,0.00295719,0.00737101,-0.00123164,0.1
 1472192,0.24836353,-0.00001198,-0.00002672,-0.00007429,-0.00079312,-0.
 00027155,0.00022762,0.00189899,-0.00060798,0.00087324,0.01231176,0.023
 91224,-0.00993485,0.04263601,0.07052132,-0.07149130,-0.01527302,-0.031
 43262,0.00382090,0.00041488,-0.00081380,0.00102956,-0.00397350,0.00181
 109,-0.00297062,-0.00032696,-0.00020629,0.00060968,-0.00003071,0.00000
 702,-0.00001069,0.00002592,0.00000536,0.00001091,0.00002821,0.00002534
 ,0.00000294,0.00119755,0.00381771,0.00033411,-0.03956735,-0.06192181,0
 .08298897,-0.00006943,0.00001568,-0.00000366,-0.00001371,0.00008593,-0
 .00002903,-0.00047782,-0.00009036,0.00002271,-0.00065748,-0.00143755,0
 .00197021,0.00097369,0.00460082,0.00042460,-0.15819197,-0.22305519,0.0
 7310608,0.00011093,0.00029477,0.00019922,0.00332178,0.00143381,-0.0009
 6225,-0.00208570,-0.00038540,-0.00083219,0.00004573,0.00001631,0.00001
 704,0.00001253,-0.00001289,-0.00001344,0.00002665,-0.00001931,-0.00000
 737,0.00115632,0.00153455,0.00025317,0.00123330,0.00140083,0.00051731,
 0.15586047,-0.00006102,0.00003387,-0.00003991,0.00014990,-0.00005002,0
 .00003708,-0.00017192,-0.00023628,0.00017047,-0.00047961,0.00228706,0.
 00057123,-0.01827340,-0.03165877,0.00439924,-0.19822500,-0.32359304,0.
 07516516,0.00055605,0.00003473,0.00067016,0.00073615,0.00107834,-0.000
 72476,-0.00088132,-0.00150349,0.00102566,0.00004054,-0.00000274,0.0000
 0818,0.00004826,-0.00000640,0.00002170,0.00005234,0.00001106,-0.000007
 03,-0.00025972,0.00143227,0.00221450,0.00145975,-0.00175468,-0.0050503
 2,0.21561312,0.35460334,-0.00011190,-0.00001711,0.00003433,0.00023079,
 0.00001681,-0.00006792,-0.00048408,0.00033149,-0.00002366,-0.00085166,
 -0.00169713,0.00051554,-0.01904944,-0.03552433,0.00257157,0.09457499,0
 .11934185,-0.07440482,0.00024534,0.00015524,0.00070694,-0.00319284,-0.
 00064212,-0.00321860,-0.00023715,0.00004673,-0.00007984,0.00008484,0.0
 0001237,0.00001223,0.00006983,-0.00001528,0.00000847,0.00007147,0.0000
 0455,-0.00001628,0.00097675,-0.00016846,0.00005266,0.00065505,-0.00405
 715,-0.00388778,-0.07452808,-0.07861325,0.07565467,-0.00003584,0.00013
 107,-0.00003049,-0.00051199,-0.00002808,-0.00020002,0.00288988,-0.0012
 8766,-0.00042233,0.00900586,0.00151227,0.01694988,-0.00214309,0.003323
 09,0.00016253,0.00086032,-0.00007345,0.00207049,-0.12816665,-0.0177656
 1,-0.13588608,-0.00535338,0.00430387,-0.00131108,-0.00002029,-0.003186
 22,-0.00163979,0.00000784,-0.00001395,0.00003940,-0.00004248,0.0000030
 3,0.00000527,0.00005150,-0.00002024,-0.00000506,0.00043623,-0.00017842
 ,0.00016650,0.00010662,-0.00015800,-0.00001853,-0.00031530,-0.00020372
 ,0.00005453,0.13063965,-0.00002548,-0.00004945,0.00011921,0.00013822,-
 0.00011170,-0.00007682,0.00114396,0.00061806,-0.00156216,0.00740676,-0
 .00337790,0.00545375,-0.00075987,0.00079145,0.00138817,-0.00004316,0.0
 0044161,0.00119275,-0.01554835,-0.04805383,-0.03796209,-0.01636696,0.0
 0149156,-0.02172924,-0.00011453,-0.00518657,-0.00615954,0.00000861,0.0
 0000838,0.00000156,0.00007312,-0.00001386,-0.00000704,-0.00000715,-0.0
 0000475,-0.00000214,-0.00043350,0.00020544,-0.00008046,-0.00006700,-0.
 00014019,0.00009556,-0.00018390,-0.00029801,0.00027843,0.01824122,0.04
 840948,0.00000507,-0.00013266,0.00000009,0.00089469,0.00009683,0.00029
 438,-0.00243137,0.00143126,0.00235052,-0.01212760,-0.00271992,-0.01647
 872,0.00192220,-0.00410587,0.00008548,-0.00053284,0.00018856,-0.002387
 85,-0.13255602,-0.03762382,-0.25016716,0.00285284,-0.00099650,-0.00248
 955,0.00103897,0.00177680,0.00169049,0.00002498,0.00002890,-0.00003192
 ,0.00003685,-0.00000398,-0.00003064,-0.00005734,0.00000694,-0.00000263
 ,-0.00001817,-0.00000235,0.00009720,-0.00000042,0.00019023,-0.00011979
 ,0.00030336,0.00029054,0.00012026,0.13927543,0.04234355,0.26550543,0.0
 0010204,-0.00026583,-0.00013508,0.00004113,-0.00000562,0.00015880,-0.0
 0113105,0.00186827,0.00241301,-0.01322935,0.00851768,-0.00169413,-0.00
 031075,-0.00081666,-0.00331987,0.00044669,0.00000508,-0.00044213,-0.25
 180708,0.13276030,-0.02790518,0.00650034,-0.00676055,0.00207278,0.0014
 5238,0.00153481,0.00102030,-0.00020448,0.00001612,-0.00004470,-0.00003
 990,0.00001739,0.00000360,-0.00008027,0.00004339,0.00001468,0.00120008
 ,-0.00050847,0.00044392,0.00024545,0.00006053,0.00014220,-0.00005107,0
 .00009755,-0.00002520,-0.00863282,0.00679002,0.00162545,0.26540733,0.0
 0005172,-0.00017049,-0.00007755,-0.00032293,0.00008274,-0.00006366,-0.
 00125627,0.00070387,0.00238508,-0.00967049,0.00275265,-0.00337293,0.00
 124741,0.00012684,-0.00029970,-0.00019915,-0.00023295,-0.00040869,0.13
 145047,-0.11694711,0.00854566,0.02848939,-0.01532321,0.00451738,-0.001
 82891,0.00508998,0.00369866,-0.00011489,0.00001785,-0.00004105,-0.0000
 0222,-0.00000373,-0.00000738,-0.00005527,0.00002754,0.00000810,-0.0000
 8091,0.00028111,-0.00027708,-0.00039825,0.00013837,-0.00018111,0.00027
 487,0.00001112,-0.00001597,-0.00595277,0.00328377,-0.00002223,-0.14174
 629,0.12379638,-0.00010656,0.00029094,0.00020888,0.00065565,0.00013640
 ,0.00003965,-0.00022002,-0.00255549,-0.00227943,0.01863176,-0.01406746
 ,0.00070213,0.00254917,0.00070860,0.00056733,-0.00058154,0.00100213,0.
 00095775,-0.03045566,0.01040160,-0.04620255,0.00337586,-0.00070029,-0.
 00473298,-0.00016685,-0.00051764,0.00062266,0.00024080,0.00000224,0.00
 002246,0.00003563,-0.00002858,-0.00002326,0.00003078,-0.00004006,-0.00
 000768,-0.00072137,0.00012999,-0.00070370,-0.00002131,0.00013494,-0.00
 052932,0.00009059,-0.00027371,0.00016176,-0.01941237,0.01461536,0.0011
 4648,0.02615311,-0.00980835,0.04949300,-0.00002695,-0.00007949,0.00003
 556,-0.00044526,0.00022563,-0.00019430,0.00243044,0.00037105,0.0008094
 4,0.00860528,-0.01250705,0.00977005,-0.00190093,-0.00358882,-0.0015370
 7,0.00020931,0.00069243,-0.00001513,-0.00300187,0.00442382,-0.00360031
 ,-0.12547873,0.10998795,-0.06679241,-0.02421367,0.00923362,-0.01919055
 ,-0.00000868,0.00001268,-0.00002151,0.00002831,-0.00002579,0.00000360,
 -0.00001748,0.00001949,0.00000121,0.00027891,-0.00023203,0.00015360,0.
 00063454,-0.00019905,0.00099117,-0.00045403,-0.00001501,0.00043763,0.0
 0095716,-0.00096713,-0.00016045,0.00028357,0.00087011,0.00035494,0.142
 35977,0.00001506,-0.00014007,-0.00009167,-0.00086472,0.00022832,-0.000
 20550,0.00097192,0.00111081,0.00064743,0.00653107,-0.01002514,0.003088
 40,-0.00070394,-0.00180584,-0.00216624,0.00002317,0.00071661,0.0003527
 0,0.00844897,-0.01315743,0.00890771,0.10747209,-0.19370130,0.08759607,
 -0.01206429,0.01376274,-0.01001574,-0.00007514,0.00000113,-0.00000784,
 -0.00003248,0.00000832,0.00002773,0.00001598,0.00002642,0.00000453,-0.
 00000771,-0.00006891,0.00017405,0.00034140,0.00002032,0.00040068,-0.00
 019508,-0.00005403,0.00024707,0.00078842,0.00133307,-0.00072460,-0.001
 74501,-0.00252114,0.00084803,-0.10926737,0.20359355,0.00002113,0.00015
 722,-0.00004025,0.00059271,-0.00044307,0.00009893,-0.00258268,-0.00204
 453,0.00099339,-0.01018154,0.01516834,-0.00870950,0.00181201,0.0032215
 8,0.00106790,0.00018344,-0.00059366,0.00011408,0.01425941,-0.01467869,
 0.00823552,-0.06657328,0.08476826,-0.09181203,-0.01703625,0.00540191,-
 0.00852390,0.00002069,-0.00000933,0.00000165,-0.00001778,0.00000635,-0
 .00000512,-0.00002257,-0.00001206,0.00000052,-0.00018534,-0.00007384,0
 .00000377,-0.00055184,0.00028679,-0.00099367,-0.00030520,0.00011727,0.
 00022275,0.00052520,0.00212408,0.00033899,-0.00100322,-0.00449133,0.00
 026906,0.08024200,-0.08900907,0.09954505,-0.00003358,0.00010119,-0.000
 07720,0.00025388,-0.00005662,0.00007303,-0.00102905,-0.00113335,-0.000
 21492,-0.00226832,0.00288683,-0.00454049,0.00028146,0.00053741,-0.0004
 4015,0.00044816,0.00062591,-0.00033294,0.00400090,-0.00181897,0.000859
 77,-0.03083137,-0.01037930,0.02096779,-0.27260654,-0.08214699,0.204950
 79,-0.00001414,-0.00001214,0.00002790,-0.00007047,0.00000078,0.0000217
 4,0.00001532,-0.00000634,-0.00000515,0.00016391,-0.00008787,0.00014366
 ,0.00000230,0.00008944,-0.00016882,-0.00042491,-0.00018294,0.00107914,
 0.00026679,0.00071514,-0.00009562,-0.00019225,-0.00075562,-0.00043257,
 -0.00023970,0.00034765,0.00080311,0.30227761,-0.00001635,0.00012898,-0
 .00002869,-0.00007542,0.00005071,0.00004021,-0.00015265,-0.00129290,-0
 .00044417,-0.00456677,-0.00129571,-0.00146722,-0.00040657,0.00102435,-
 0.00003558,0.00000862,-0.00026078,-0.00035370,0.00064841,0.00108862,0.
 00258940,-0.01318593,-0.00612500,0.00978962,-0.07569906,-0.02416269,0.
 04912105,0.00000412,-0.00001600,0.00001143,-0.00002272,-0.00000649,0.0
 0001870,0.00002633,-0.00000222,-0.00000307,0.00019937,-0.00018582,0.00
 010076,0.00010642,0.00006377,-0.00008412,0.00010900,-0.00033434,0.0003
 1626,0.00056515,0.00065343,-0.00002166,0.00013730,-0.00111360,-0.00027
 867,0.00104496,0.00067259,0.00010379,0.09127579,0.03111312,0.00002162,
 0.00008972,-0.00000214,-0.00023152,0.00003113,0.00003293,0.00004644,-0
 .00096695,0.00009348,-0.00323953,-0.00068724,-0.00012723,0.00020574,-0
 .00088825,-0.00086737,0.00033835,0.00070829,-0.00032447,0.00019422,0.0
 0119602,0.00017976,-0.02379952,-0.00848570,0.01225753,0.25060296,0.068
 41363,-0.25631232,0.00000623,-0.00001013,0.00000356,-0.00004238,0.0000
 0398,-0.00000575,-0.00000147,-0.00001126,-0.00000430,-0.00009147,0.000
 06327,0.00013909,-0.00007820,0.00009456,0.00011438,-0.00022307,0.00001
 779,0.00163772,-0.00032349,-0.00003293,0.00007894,0.00052167,-0.000087
 84,0.00028776,-0.00128749,-0.00007375,-0.00080714,-0.22261909,-0.05937
 434,0.24362557\\0.00000013,-0.00000114,0.00000070,-0.00000021,-0.00000
 470,-0.00000231,-0.00000314,-0.00000605,-0.00000031,-0.00001161,0.0000
 1306,-0.00001365,0.00001104,0.00001695,-0.00000538,-0.00000558,0.00000
 322,0.00002374,-0.00000867,-0.00000491,-0.00001364,0.00001007,0.000003
 83,0.00001761,0.00000556,-0.00001821,0.00001142,0.00000229,-0.00000359
 ,-0.00000453,-0.00000098,-0.00000541,0.00000092,0.00000009,-0.00000868
 ,-0.00000254,0.00000581,-0.00000712,-0.00000018,0.00000480,0.00000222,
 -0.00000303,-0.00000158,-0.00000824,-0.00000062,0.00000668,0.00000894,
 -0.00000610,0.00000006,0.00000769,-0.00000212,-0.00000665,-0.00000530,
 -0.00000179,-0.00000813,0.00001744,0.00000182\\\@


 NOTHING PUZZLES ME MORE THAN TIME AND SPACE; AND YET NOTHING TROUBLES ME LESS
                                                          -- CHARLES LAMB (1810)
 Job cpu time:       0 days  0 hours 36 minutes 38.1 seconds.
 File lengths (MBytes):  RWF=    152 Int=      0 D2E=      0 Chk=      8 Scr=      1
 Normal termination of Gaussian 09 at Tue Jan 28 09:55:02 2020.
