 Entering Gaussian System, Link 0=/home/puck/opt/gaussian_09/g09
 Input=dsC7O2H10nsd_1194.com
 Output=dsC7O2H10nsd_1194.log
 Initial command:
 /home/puck/opt/gaussian_09/l1.exe "/scratch/puck/g09_20a96e8b-c61c-4838-959e-f1c9b3e108e4/Gau-64265.inp" -scrdir="/scratch/puck/g09_20a96e8b-c61c-4838-959e-f1c9b3e108e4/"
 Entering Link 1 = /home/puck/opt/gaussian_09/l1.exe PID=     64279.
  
 Copyright (c) 1988,1990,1992,1993,1995,1998,2003,2009,2013,
            Gaussian, Inc.  All Rights Reserved.
  
 This is part of the Gaussian(R) 09 program.  It is based on
 the Gaussian(R) 03 system (copyright 2003, Gaussian, Inc.),
 the Gaussian(R) 98 system (copyright 1998, Gaussian, Inc.),
 the Gaussian(R) 94 system (copyright 1995, Gaussian, Inc.),
 the Gaussian 92(TM) system (copyright 1992, Gaussian, Inc.),
 the Gaussian 90(TM) system (copyright 1990, Gaussian, Inc.),
 the Gaussian 88(TM) system (copyright 1988, Gaussian, Inc.),
 the Gaussian 86(TM) system (copyright 1986, Carnegie Mellon
 University), and the Gaussian 82(TM) system (copyright 1983,
 Carnegie Mellon University). Gaussian is a federally registered
 trademark of Gaussian, Inc.
  
 This software contains proprietary and confidential information,
 including trade secrets, belonging to Gaussian, Inc.
  
 This software is provided under written license and may be
 used, copied, transmitted, or stored only in accord with that
 written license.
  
 The following legend is applicable only to US Government
 contracts under FAR:
  
                    RESTRICTED RIGHTS LEGEND
  
 Use, reproduction and disclosure by the US Government is
 subject to restrictions as set forth in subparagraphs (a)
 and (c) of the Commercial Computer Software - Restricted
 Rights clause in FAR 52.227-19.
  
 Gaussian, Inc.
 340 Quinnipiac St., Bldg. 40, Wallingford CT 06492
  
  
 ---------------------------------------------------------------
 Warning -- This program may not be used in any manner that
 competes with the business of Gaussian, Inc. or will provide
 assistance to any competitor of Gaussian, Inc.  The licensee
 of this program is prohibited from giving any competitor of
 Gaussian, Inc. access to this program.  By using this program,
 the user acknowledges that Gaussian, Inc. is engaged in the
 business of creating and licensing software in the field of
 computational chemistry and represents and warrants to the
 licensee that it is not a competitor of Gaussian, Inc. and that
 it will not use this program in any manner prohibited above.
 ---------------------------------------------------------------
  

 Cite this work as:
 Gaussian 09, Revision D.01,
 M. J. Frisch, G. W. Trucks, H. B. Schlegel, G. E. Scuseria, 
 M. A. Robb, J. R. Cheeseman, G. Scalmani, V. Barone, B. Mennucci, 
 G. A. Petersson, H. Nakatsuji, M. Caricato, X. Li, H. P. Hratchian, 
 A. F. Izmaylov, J. Bloino, G. Zheng, J. L. Sonnenberg, M. Hada, 
 M. Ehara, K. Toyota, R. Fukuda, J. Hasegawa, M. Ishida, T. Nakajima, 
 Y. Honda, O. Kitao, H. Nakai, T. Vreven, J. A. Montgomery, Jr., 
 J. E. Peralta, F. Ogliaro, M. Bearpark, J. J. Heyd, E. Brothers, 
 K. N. Kudin, V. N. Staroverov, T. Keith, R. Kobayashi, J. Normand, 
 K. Raghavachari, A. Rendell, J. C. Burant, S. S. Iyengar, J. Tomasi, 
 M. Cossi, N. Rega, J. M. Millam, M. Klene, J. E. Knox, J. B. Cross, 
 V. Bakken, C. Adamo, J. Jaramillo, R. Gomperts, R. E. Stratmann, 
 O. Yazyev, A. J. Austin, R. Cammi, C. Pomelli, J. W. Ochterski, 
 R. L. Martin, K. Morokuma, V. G. Zakrzewski, G. A. Voth, 
 P. Salvador, J. J. Dannenberg, S. Dapprich, A. D. Daniels, 
 O. Farkas, J. B. Foresman, J. V. Ortiz, J. Cioslowski, 
 and D. J. Fox, Gaussian, Inc., Wallingford CT, 2013.
 
 ******************************************
 Gaussian 09:  ES64L-G09RevD.01 24-Apr-2013
                27-Jan-2020 
 ******************************************
 -----------------------------
 # b3lyp 6-31G(2df,p) opt Freq
 -----------------------------
 1/14=-1,18=20,19=15,26=3,38=1/1,3;
 2/9=110,12=2,17=6,18=5,40=1/2;
 3/5=1,6=6,7=104,11=2,16=1,25=1,30=1,71=1,74=-5/1,2,3;
 4//1;
 5/5=2,38=5/2;
 6/7=2,8=2,9=2,10=2,28=1/1;
 7//1,2,3,16;
 1/14=-1,18=20,19=15,26=3/3(2);
 2/9=110/2;
 99//99;
 2/9=110/2;
 3/5=1,6=6,7=104,11=2,16=1,25=1,30=1,71=1,74=-5/1,2,3;
 4/5=5,16=3,69=1/1;
 5/5=2,38=5/2;
 7//1,2,3,16;
 1/14=-1,18=20,19=15,26=3/3(-5);
 2/9=110/2;
 6/7=2,8=2,9=2,10=2,19=2,28=1/1;
 99/9=1/99;
 -----
 titel
 -----
 Symbolic Z-matrix:
 Charge =  0 Multiplicity = 1
 C                     5.31568   1.47096  -0.2511 
 C                     4.38033   1.07792  -1.37348 
 C                     5.05058   0.8782   -2.71691 
 O                     3.13188   1.80234  -1.43683 
 C                     3.08987   0.4099   -1.13144 
 C                     2.58178   0.00371   0.24765 
 O                     3.11209  -1.26959   0.61375 
 C                     1.11787   0.01585   0.28532 
 C                    -0.08352  -0.0243    0.2783 
 H                     6.01735   0.65872  -0.03542 
 H                     5.89843   2.3512   -0.54293 
 H                     4.77853   1.71741   0.66566 
 H                     5.79785   0.07933  -2.66203 
 H                     4.31799   0.61941  -3.48516 
 H                     5.56253   1.79561  -3.02714 
 H                     2.68783  -0.21647  -1.93217 
 H                     2.96338   0.71023   0.98996 
 H                     2.57378  -1.94363   0.1847 
 H                    -1.1456   -0.0399    0.28848 
 

 GradGradGradGradGradGradGradGradGradGradGradGradGradGradGradGradGradGrad
 Berny optimization.
 Initialization pass.
                           ----------------------------
                           !    Initial Parameters    !
                           ! (Angstroms and Degrees)  !
 --------------------------                            --------------------------
 ! Name  Definition              Value          Derivative Info.                !
 --------------------------------------------------------------------------------
 ! R1    R(1,2)                  1.513          estimate D2E/DX2                !
 ! R2    R(1,10)                 1.0948         estimate D2E/DX2                !
 ! R3    R(1,11)                 1.0953         estimate D2E/DX2                !
 ! R4    R(1,12)                 1.0907         estimate D2E/DX2                !
 ! R5    R(2,3)                  1.5146         estimate D2E/DX2                !
 ! R6    R(2,4)                  1.4448         estimate D2E/DX2                !
 ! R7    R(2,5)                  1.4731         estimate D2E/DX2                !
 ! R8    R(3,13)                 1.0953         estimate D2E/DX2                !
 ! R9    R(3,14)                 1.0926         estimate D2E/DX2                !
 ! R10   R(3,15)                 1.0954         estimate D2E/DX2                !
 ! R11   R(4,5)                  1.4262         estimate D2E/DX2                !
 ! R12   R(5,6)                  1.5248         estimate D2E/DX2                !
 ! R13   R(5,16)                 1.0932         estimate D2E/DX2                !
 ! R14   R(6,7)                  1.4271         estimate D2E/DX2                !
 ! R15   R(6,8)                  1.4644         estimate D2E/DX2                !
 ! R16   R(6,17)                 1.0935         estimate D2E/DX2                !
 ! R17   R(7,18)                 0.9634         estimate D2E/DX2                !
 ! R18   R(8,9)                  1.2021         estimate D2E/DX2                !
 ! R19   R(9,19)                 1.0622         estimate D2E/DX2                !
 ! A1    A(2,1,10)             110.465          estimate D2E/DX2                !
 ! A2    A(2,1,11)             109.8797         estimate D2E/DX2                !
 ! A3    A(2,1,12)             112.1943         estimate D2E/DX2                !
 ! A4    A(10,1,11)            107.9236         estimate D2E/DX2                !
 ! A5    A(10,1,12)            108.5228         estimate D2E/DX2                !
 ! A6    A(11,1,12)            107.7209         estimate D2E/DX2                !
 ! A7    A(1,2,3)              114.7517         estimate D2E/DX2                !
 ! A8    A(1,2,4)              115.8793         estimate D2E/DX2                !
 ! A9    A(1,2,5)              122.5117         estimate D2E/DX2                !
 ! A10   A(3,2,4)              114.1811         estimate D2E/DX2                !
 ! A11   A(3,2,5)              118.2681         estimate D2E/DX2                !
 ! A12   A(2,3,13)             110.7115         estimate D2E/DX2                !
 ! A13   A(2,3,14)             110.9886         estimate D2E/DX2                !
 ! A14   A(2,3,15)             110.3393         estimate D2E/DX2                !
 ! A15   A(13,3,14)            108.6584         estimate D2E/DX2                !
 ! A16   A(13,3,15)            107.8291         estimate D2E/DX2                !
 ! A17   A(14,3,15)            108.2152         estimate D2E/DX2                !
 ! A18   A(2,5,6)              124.1456         estimate D2E/DX2                !
 ! A19   A(2,5,16)             117.4919         estimate D2E/DX2                !
 ! A20   A(4,5,6)              117.6179         estimate D2E/DX2                !
 ! A21   A(4,5,16)             114.4187         estimate D2E/DX2                !
 ! A22   A(6,5,16)             112.7857         estimate D2E/DX2                !
 ! A23   A(5,6,7)              110.2354         estimate D2E/DX2                !
 ! A24   A(5,6,8)              110.7415         estimate D2E/DX2                !
 ! A25   A(5,6,17)             108.9996         estimate D2E/DX2                !
 ! A26   A(7,6,8)              111.8555         estimate D2E/DX2                !
 ! A27   A(7,6,17)             105.8217         estimate D2E/DX2                !
 ! A28   A(8,6,17)             109.0273         estimate D2E/DX2                !
 ! A29   A(6,7,18)             107.5994         estimate D2E/DX2                !
 ! A30   L(6,8,9,16,-1)        177.932          estimate D2E/DX2                !
 ! A31   L(8,9,19,14,-1)       180.7224         estimate D2E/DX2                !
 ! A32   L(6,8,9,16,-2)        177.3325         estimate D2E/DX2                !
 ! A33   L(8,9,19,14,-2)       181.8231         estimate D2E/DX2                !
 ! D1    D(10,1,2,3)           -65.4799         estimate D2E/DX2                !
 ! D2    D(10,1,2,4)           158.0511         estimate D2E/DX2                !
 ! D3    D(10,1,2,5)            90.3417         estimate D2E/DX2                !
 ! D4    D(11,1,2,3)            53.4827         estimate D2E/DX2                !
 ! D5    D(11,1,2,4)           -82.9862         estimate D2E/DX2                !
 ! D6    D(11,1,2,5)          -150.6957         estimate D2E/DX2                !
 ! D7    D(12,1,2,3)           173.2904         estimate D2E/DX2                !
 ! D8    D(12,1,2,4)            36.8215         estimate D2E/DX2                !
 ! D9    D(12,1,2,5)           -30.888          estimate D2E/DX2                !
 ! D10   D(1,2,3,13)            60.556          estimate D2E/DX2                !
 ! D11   D(1,2,3,14)          -178.6877         estimate D2E/DX2                !
 ! D12   D(1,2,3,15)           -58.7357         estimate D2E/DX2                !
 ! D13   D(4,2,3,13)          -162.2314         estimate D2E/DX2                !
 ! D14   D(4,2,3,14)           -41.4751         estimate D2E/DX2                !
 ! D15   D(4,2,3,15)            78.4768         estimate D2E/DX2                !
 ! D16   D(5,2,3,13)           -96.355          estimate D2E/DX2                !
 ! D17   D(5,2,3,14)            24.4013         estimate D2E/DX2                !
 ! D18   D(5,2,3,15)           144.3532         estimate D2E/DX2                !
 ! D19   D(1,2,5,6)             -2.1442         estimate D2E/DX2                !
 ! D20   D(1,2,5,16)          -153.842          estimate D2E/DX2                !
 ! D21   D(3,2,5,6)            152.8748         estimate D2E/DX2                !
 ! D22   D(3,2,5,16)             1.1771         estimate D2E/DX2                !
 ! D23   D(2,5,6,7)            -84.6124         estimate D2E/DX2                !
 ! D24   D(2,5,6,8)            151.0651         estimate D2E/DX2                !
 ! D25   D(2,5,6,17)            31.1251         estimate D2E/DX2                !
 ! D26   D(4,5,6,7)           -155.2158         estimate D2E/DX2                !
 ! D27   D(4,5,6,8)             80.4617         estimate D2E/DX2                !
 ! D28   D(4,5,6,17)           -39.4783         estimate D2E/DX2                !
 ! D29   D(16,5,6,7)            68.2464         estimate D2E/DX2                !
 ! D30   D(16,5,6,8)           -56.0761         estimate D2E/DX2                !
 ! D31   D(16,5,6,17)         -176.016          estimate D2E/DX2                !
 ! D32   D(5,6,7,18)           -81.3305         estimate D2E/DX2                !
 ! D33   D(8,6,7,18)            42.3482         estimate D2E/DX2                !
 ! D34   D(17,6,7,18)          160.9527         estimate D2E/DX2                !
 --------------------------------------------------------------------------------
 Trust Radius=3.00D-01 FncErr=1.00D-07 GrdErr=1.00D-06
 Number of steps in this run=     96 maximum allowed number of steps=    114.
 GradGradGradGradGradGradGradGradGradGradGradGradGradGradGradGradGradGrad

                          Input orientation:                          
 ---------------------------------------------------------------------
 Center     Atomic      Atomic             Coordinates (Angstroms)
 Number     Number       Type             X           Y           Z
 ---------------------------------------------------------------------
      1          6           0        5.315684    1.470958   -0.251096
      2          6           0        4.380330    1.077921   -1.373482
      3          6           0        5.050578    0.878201   -2.716915
      4          8           0        3.131882    1.802340   -1.436825
      5          6           0        3.089869    0.409896   -1.131440
      6          6           0        2.581776    0.003710    0.247651
      7          8           0        3.112087   -1.269588    0.613755
      8          6           0        1.117867    0.015847    0.285318
      9          6           0       -0.083517   -0.024299    0.278303
     10          1           0        6.017348    0.658719   -0.035417
     11          1           0        5.898427    2.351196   -0.542928
     12          1           0        4.778528    1.717413    0.665663
     13          1           0        5.797852    0.079331   -2.662034
     14          1           0        4.317986    0.619409   -3.485158
     15          1           0        5.562526    1.795614   -3.027141
     16          1           0        2.687830   -0.216471   -1.932174
     17          1           0        2.963376    0.710227    0.989961
     18          1           0        2.573784   -1.943631    0.184698
     19          1           0       -1.145597   -0.039897    0.288481
 ---------------------------------------------------------------------
                    Distance matrix (angstroms):
                    1          2          3          4          5
     1  C    0.000000
     2  C    1.512982   0.000000
     3  C    2.549883   1.514574   0.000000
     4  O    2.506942   1.444790   2.484765   0.000000
     5  C    2.618227   1.473137   2.564648   1.426158   0.000000
     6  C    3.142582   2.648924   3.955802   2.524905   1.524807
     7  O    3.621381   3.326912   4.411814   3.693509   2.422161
     8  C    4.475127   3.810942   5.022278   3.195871   2.459933
     9  C    5.627382   4.885613   6.012052   4.076403   3.499468
    10  H    1.094797   2.155452   2.858889   3.405543   3.135811
    11  H    1.095250   2.148410   2.759489   2.958727   3.464533
    12  H    1.090745   2.173849   3.495729   2.671911   2.791191
    13  H    2.825196   2.160305   1.095273   3.402542   3.128125
    14  H    3.489942   2.161781   1.092640   2.646097   2.663110
    15  H    2.805844   2.155751   1.095435   2.904682   3.409975
    16  H    3.546697   2.202759   2.719688   2.125595   1.093228
    17  H    2.766278   2.780076   4.257412   2.666533   2.146286
    18  H    4.400836   3.849845   4.745167   4.119843   2.745478
    19  H    6.657476   5.877713   6.947510   4.966624   4.489728
                    6          7          8          9         10
     6  C    0.000000
     7  O    1.427077   0.000000
     8  C    1.464443   2.395230   0.000000
     9  C    2.665616   3.446035   1.202075   0.000000
    10  H    3.508892   3.546877   4.951875   6.146990   0.000000
    11  H    4.139551   4.712927   5.384571   6.488532   1.770928
    12  H    2.817309   3.420803   4.054679   5.179101   1.773985
    13  H    4.337641   4.445639   5.531110   6.576231   2.698701
    14  H    4.162616   4.671572   4.982121   5.826767   3.845788
    15  H    4.777034   5.353152   5.821937   6.790865   3.232616
    16  H    2.193483   2.787616   2.726908   3.550141   3.930565
    17  H    1.093531   2.020721   2.093941   3.213960   3.221925
    18  H    1.948375   0.963428   2.443229   3.279305   4.321899
    19  H    3.727852   4.443627   2.264153   1.062244   7.204218
                   11         12         13         14         15
    11  H    0.000000
    12  H    1.765375   0.000000
    13  H    3.108391   3.846544   0.000000
    14  H    3.762126   4.318220   1.777420   0.000000
    15  H    2.567647   3.775919   1.770398   1.772602   0.000000
    16  H    4.339453   3.854826   3.208182   2.401637   3.675775
    17  H    3.695545   2.101040   4.665764   4.676527   4.906196
    18  H    5.479802   4.300636   4.752986   4.804088   5.764586
    19  H    7.485108   6.190772   7.545279   6.672763   7.704633
                   16         17         18         19
    16  H    0.000000
    17  H    3.077917   0.000000
    18  H    2.734454   2.800570   0.000000
    19  H    4.433695   4.235377   4.179565   0.000000
 Stoichiometry    C7H10O2
 Framework group  C1[X(C7H10O2)]
 Deg. of freedom    51
 Full point group                 C1      NOp   1
 Largest Abelian subgroup         C1      NOp   1
 Largest concise Abelian subgroup C1      NOp   1
                         Standard orientation:                         
 ---------------------------------------------------------------------
 Center     Atomic      Atomic             Coordinates (Angstroms)
 Number     Number       Type             X           Y           Z
 ---------------------------------------------------------------------
      1          6           0        1.917859    0.926038   -1.018878
      2          6           0        1.492759   -0.147977   -0.041689
      3          6           0        2.574753   -0.595419    0.919050
      4          8           0        0.707946   -1.228077   -0.593838
      5          6           0        0.086599   -0.353886    0.346185
      6          6           0       -1.071990    0.506071   -0.146952
      7          8           0       -1.200449    1.673265    0.664039
      8          6           0       -2.313487   -0.269632   -0.186504
      9          6           0       -3.332160   -0.907102   -0.156127
     10          1           0        2.148765    1.855881   -0.489109
     11          1           0        2.820566    0.608594   -1.551721
     12          1           0        1.148386    1.133440   -1.763606
     13          1           0        2.918238    0.243595    1.533620
     14          1           0        2.209564   -1.385799    1.579200
     15          1           0        3.438124   -0.982209    0.366816
     16          1           0       -0.106583   -0.804569    1.323279
     17          1           0       -0.844469    0.866336   -1.154053
     18          1           0       -1.685203    1.424089    1.458469
     19          1           0       -4.233363   -1.469412   -0.155004
 ---------------------------------------------------------------------
 Rotational constants (GHZ):      3.0354194      0.9972955      0.8917284
 Standard basis: 6-31G(2df,p) (6D, 7F)
 There are   329 symmetry adapted cartesian basis functions of A   symmetry.
 There are   302 symmetry adapted basis functions of A   symmetry.
   302 basis functions,   466 primitive gaussians,   329 cartesian basis functions
    34 alpha electrons       34 beta electrons
       nuclear repulsion energy       440.5140945539 Hartrees.
 NAtoms=   19 NActive=   19 NUniq=   19 SFac= 1.00D+00 NAtFMM=   60 NAOKFM=F Big=F
 Integral buffers will be    131072 words long.
 Raffenetti 2 integral format.
 Two-electron integral symmetry is turned on.
 One-electron integrals computed using PRISM.
 NBasis=   302 RedAO= T EigKep=  1.49D-04  NBF=   302
 NBsUse=   302 1.00D-06 EigRej= -1.00D+00 NBFU=   302
 ExpMin= 1.61D-01 ExpMax= 5.48D+03 ExpMxC= 8.25D+02 IAcc=1 IRadAn=         1 AccDes= 0.00D+00
 Harris functional with IExCor=  402 and IRadAn=       1 diagonalized for initial guess.
 HarFok:  IExCor=  402 AccDes= 0.00D+00 IRadAn=         1 IDoV= 1 UseB2=F ITyADJ=14
 ICtDFT=  3500011 ScaDFX=  1.000000  1.000000  1.000000  1.000000
 FoFCou: FMM=F IPFlag=           0 FMFlag=      100000 FMFlg1=           0
         NFxFlg=           0 DoJE=T BraDBF=F KetDBF=T FulRan=T
         wScrn=  0.000000 ICntrl=     500 IOpCl=  0 I1Cent=   200000004 NGrid=           0
         NMat0=    1 NMatS0=      1 NMatT0=    0 NMatD0=    1 NMtDS0=    0 NMtDT0=    0
 Petite list used in FoFCou.
 Requested convergence on RMS density matrix=1.00D-08 within 128 cycles.
 Requested convergence on MAX density matrix=1.00D-06.
 Requested convergence on             energy=1.00D-06.
 No special actions if energy rises.
 Integral accuracy reduced to 1.0D-05 until final iterations.
 Initial convergence to 1.0D-05 achieved.  Increase integral accuracy.
 SCF Done:  E(RB3LYP) =  -423.125883444     A.U. after   14 cycles
            NFock= 14  Conv=0.78D-08     -V/T= 2.0074

 **********************************************************************

            Population analysis using the SCF density.

 **********************************************************************

 Orbital symmetries:
       Occupied  (A) (A) (A) (A) (A) (A) (A) (A) (A) (A) (A) (A)
                 (A) (A) (A) (A) (A) (A) (A) (A) (A) (A) (A) (A)
                 (A) (A) (A) (A) (A) (A) (A) (A) (A) (A)
       Virtual   (A) (A) (A) (A) (A) (A) (A) (A) (A) (A) (A) (A)
                 (A) (A) (A) (A) (A) (A) (A) (A) (A) (A) (A) (A)
                 (A) (A) (A) (A) (A) (A) (A) (A) (A) (A) (A) (A)
                 (A) (A) (A) (A) (A) (A) (A) (A) (A) (A) (A) (A)
                 (A) (A) (A) (A) (A) (A) (A) (A) (A) (A) (A) (A)
                 (A) (A) (A) (A) (A) (A) (A) (A) (A) (A) (A) (A)
                 (A) (A) (A) (A) (A) (A) (A) (A) (A) (A) (A) (A)
                 (A) (A) (A) (A) (A) (A) (A) (A) (A) (A) (A) (A)
                 (A) (A) (A) (A) (A) (A) (A) (A) (A) (A) (A) (A)
                 (A) (A) (A) (A) (A) (A) (A) (A) (A) (A) (A) (A)
                 (A) (A) (A) (A) (A) (A) (A) (A) (A) (A) (A) (A)
                 (A) (A) (A) (A) (A) (A) (A) (A) (A) (A) (A) (A)
                 (A) (A) (A) (A) (A) (A) (A) (A) (A) (A) (A) (A)
                 (A) (A) (A) (A) (A) (A) (A) (A) (A) (A) (A) (A)
                 (A) (A) (A) (A) (A) (A) (A) (A) (A) (A) (A) (A)
                 (A) (A) (A) (A) (A) (A) (A) (A) (A) (A) (A) (A)
                 (A) (A) (A) (A) (A) (A) (A) (A) (A) (A) (A) (A)
                 (A) (A) (A) (A) (A) (A) (A) (A) (A) (A) (A) (A)
                 (A) (A) (A) (A) (A) (A) (A) (A) (A) (A) (A) (A)
                 (A) (A) (A) (A) (A) (A) (A) (A) (A) (A) (A) (A)
                 (A) (A) (A) (A) (A) (A) (A) (A) (A) (A) (A) (A)
                 (A) (A) (A) (A) (A) (A) (A) (A) (A) (A) (A) (A)
                 (A) (A) (A) (A)
 The electronic state is 1-A.
 Alpha  occ. eigenvalues --  -19.14980 -19.14674 -10.26262 -10.24476 -10.23629
 Alpha  occ. eigenvalues --  -10.18839 -10.18451 -10.18256 -10.18218  -1.06899
 Alpha  occ. eigenvalues --   -1.03133  -0.77994  -0.76993  -0.71837  -0.70015
 Alpha  occ. eigenvalues --   -0.63056  -0.56943  -0.55216  -0.50796  -0.49744
 Alpha  occ. eigenvalues --   -0.48009  -0.44732  -0.43615  -0.41783  -0.39850
 Alpha  occ. eigenvalues --   -0.38987  -0.37232  -0.36100  -0.35636  -0.30121
 Alpha  occ. eigenvalues --   -0.29761  -0.27818  -0.27306  -0.25773
 Alpha virt. eigenvalues --    0.02312   0.04299   0.09215   0.09683   0.10900
 Alpha virt. eigenvalues --    0.11367   0.12237   0.12993   0.14859   0.15953
 Alpha virt. eigenvalues --    0.17678   0.18542   0.19033   0.20034   0.22335
 Alpha virt. eigenvalues --    0.24680   0.25281   0.26047   0.30226   0.34597
 Alpha virt. eigenvalues --    0.38052   0.39535   0.43305   0.44746   0.46007
 Alpha virt. eigenvalues --    0.48023   0.49564   0.50332   0.51631   0.52771
 Alpha virt. eigenvalues --    0.55303   0.57847   0.59597   0.60267   0.63078
 Alpha virt. eigenvalues --    0.63767   0.65143   0.67106   0.68608   0.69151
 Alpha virt. eigenvalues --    0.70218   0.71476   0.71881   0.72603   0.72934
 Alpha virt. eigenvalues --    0.74272   0.75784   0.76886   0.78886   0.80197
 Alpha virt. eigenvalues --    0.80911   0.81343   0.81989   0.85208   0.86797
 Alpha virt. eigenvalues --    0.87189   0.87393   0.89657   0.91088   0.93632
 Alpha virt. eigenvalues --    0.96509   0.96811   0.98289   1.02832   1.03288
 Alpha virt. eigenvalues --    1.07568   1.09827   1.10811   1.12758   1.15677
 Alpha virt. eigenvalues --    1.16147   1.17673   1.20331   1.21223   1.23524
 Alpha virt. eigenvalues --    1.23898   1.27280   1.30932   1.32807   1.34301
 Alpha virt. eigenvalues --    1.38425   1.41523   1.42623   1.44478   1.45865
 Alpha virt. eigenvalues --    1.48089   1.51857   1.53575   1.55472   1.57728
 Alpha virt. eigenvalues --    1.58643   1.60551   1.62906   1.65505   1.68893
 Alpha virt. eigenvalues --    1.71152   1.74531   1.76466   1.76700   1.80547
 Alpha virt. eigenvalues --    1.81889   1.83779   1.86280   1.87991   1.89809
 Alpha virt. eigenvalues --    1.93919   1.95556   1.98448   2.00411   2.03302
 Alpha virt. eigenvalues --    2.11518   2.17347   2.20827   2.25493   2.29994
 Alpha virt. eigenvalues --    2.32996   2.34162   2.34962   2.42064   2.43564
 Alpha virt. eigenvalues --    2.45576   2.48523   2.52274   2.53368   2.57403
 Alpha virt. eigenvalues --    2.60899   2.62595   2.65364   2.66433   2.67278
 Alpha virt. eigenvalues --    2.69351   2.70831   2.72119   2.75365   2.77229
 Alpha virt. eigenvalues --    2.79441   2.80912   2.85035   2.86845   2.89976
 Alpha virt. eigenvalues --    2.90410   2.92149   2.93675   2.95633   2.97212
 Alpha virt. eigenvalues --    2.98644   3.00988   3.02002   3.03298   3.06754
 Alpha virt. eigenvalues --    3.08083   3.09267   3.13155   3.13757   3.14393
 Alpha virt. eigenvalues --    3.19054   3.23877   3.25057   3.27576   3.35683
 Alpha virt. eigenvalues --    3.37034   3.39192   3.40410   3.41459   3.44902
 Alpha virt. eigenvalues --    3.46512   3.47492   3.49343   3.49530   3.53464
 Alpha virt. eigenvalues --    3.55957   3.60404   3.62958   3.65130   3.66482
 Alpha virt. eigenvalues --    3.67452   3.70269   3.74352   3.76791   3.80706
 Alpha virt. eigenvalues --    3.85773   3.88247   3.91654   3.96161   3.97882
 Alpha virt. eigenvalues --    3.99364   4.03441   4.10918   4.15332   4.20377
 Alpha virt. eigenvalues --    4.21854   4.22243   4.24446   4.26109   4.29061
 Alpha virt. eigenvalues --    4.30064   4.34039   4.35981   4.38777   4.39786
 Alpha virt. eigenvalues --    4.40559   4.43146   4.45156   4.47638   4.50758
 Alpha virt. eigenvalues --    4.52008   4.53106   4.55416   4.56870   4.59035
 Alpha virt. eigenvalues --    4.61606   4.64285   4.67012   4.67544   4.68893
 Alpha virt. eigenvalues --    4.70002   4.71933   4.73939   4.75023   4.78093
 Alpha virt. eigenvalues --    4.81078   4.84145   4.85375   4.87146   4.89279
 Alpha virt. eigenvalues --    4.93737   4.94369   4.98170   4.99757   5.03252
 Alpha virt. eigenvalues --    5.08267   5.19497   5.24614   5.25971   5.29208
 Alpha virt. eigenvalues --    5.31128   5.32298   5.32886   5.40225   5.41583
 Alpha virt. eigenvalues --    5.43463   5.49256   5.51638   5.57749   5.60365
 Alpha virt. eigenvalues --    5.65805   5.81346   5.89394   5.95911   5.98074
 Alpha virt. eigenvalues --    6.03545   6.05844   6.10321   6.14199   6.25918
 Alpha virt. eigenvalues --    6.33869   6.96950   7.02022   7.24342   9.69375
 Alpha virt. eigenvalues --   10.72671  11.10491  11.69607  11.82029  12.24704
 Alpha virt. eigenvalues --   12.45338  13.31982  13.35576
          Condensed to atoms (all electrons):
               1          2          3          4          5          6
     1  C    5.113680   0.399569  -0.097785  -0.026307  -0.017459  -0.009588
     2  C    0.399569   4.336633   0.384662   0.258519   0.329643   0.002094
     3  C   -0.097785   0.384662   5.134043  -0.026316  -0.019242   0.002055
     4  O   -0.026307   0.258519  -0.026316   7.892388   0.220174  -0.015032
     5  C   -0.017459   0.329643  -0.019242   0.220174   4.978575   0.324259
     6  C   -0.009588   0.002094   0.002055  -0.015032   0.324259   4.902730
     7  O    0.000255   0.001799   0.000015   0.001566  -0.043785   0.356345
     8  C    0.001267   0.000591  -0.000250   0.001710  -0.043146   0.337454
     9  C    0.000030  -0.000013  -0.000008   0.000091  -0.007320  -0.027392
    10  H    0.362735  -0.018383   0.002236   0.002780  -0.004164  -0.000014
    11  H    0.365090  -0.020817  -0.003846  -0.001507   0.003874   0.000053
    12  H    0.353117  -0.005235   0.005566   0.000838  -0.006708  -0.000506
    13  H    0.002027  -0.018136   0.359787   0.002771  -0.003288   0.000168
    14  H    0.005287  -0.009418   0.355451  -0.000108  -0.003355   0.000111
    15  H   -0.002251  -0.018119   0.363880  -0.002081   0.002884  -0.000089
    16  H    0.004248  -0.014163  -0.007509  -0.020611   0.337760  -0.059657
    17  H    0.001049  -0.004920   0.000104   0.003022  -0.041179   0.340713
    18  H   -0.000056   0.000440   0.000015  -0.000004  -0.001012  -0.064368
    19  H    0.000000  -0.000001   0.000000   0.000001   0.000026  -0.000041
               7          8          9         10         11         12
     1  C    0.000255   0.001267   0.000030   0.362735   0.365090   0.353117
     2  C    0.001799   0.000591  -0.000013  -0.018383  -0.020817  -0.005235
     3  C    0.000015  -0.000250  -0.000008   0.002236  -0.003846   0.005566
     4  O    0.001566   0.001710   0.000091   0.002780  -0.001507   0.000838
     5  C   -0.043785  -0.043146  -0.007320  -0.004164   0.003874  -0.006708
     6  C    0.356345   0.337454  -0.027392  -0.000014   0.000053  -0.000506
     7  O    7.863103  -0.045941  -0.013142   0.000404   0.000007   0.000006
     8  C   -0.045941   4.559734   0.936025  -0.000007  -0.000015  -0.000078
     9  C   -0.013142   0.936025   5.176082   0.000000   0.000000  -0.000006
    10  H    0.000404  -0.000007   0.000000   0.581345  -0.032634  -0.026880
    11  H    0.000007  -0.000015   0.000000  -0.032634   0.591605  -0.028699
    12  H    0.000006  -0.000078  -0.000006  -0.026880  -0.028699   0.572624
    13  H   -0.000012   0.000001   0.000000   0.000852  -0.000173  -0.000065
    14  H    0.000001   0.000013   0.000001  -0.000072  -0.000053  -0.000209
    15  H    0.000000   0.000003   0.000000  -0.000147   0.004507  -0.000070
    16  H    0.002251  -0.005638   0.001269   0.000214  -0.000119  -0.000026
    17  H   -0.017747  -0.033510  -0.000618   0.000380  -0.000199   0.006697
    18  H    0.310540   0.001579   0.000488   0.000003   0.000000   0.000014
    19  H   -0.000051  -0.001816   0.373041   0.000000   0.000000   0.000000
              13         14         15         16         17         18
     1  C    0.002027   0.005287  -0.002251   0.004248   0.001049  -0.000056
     2  C   -0.018136  -0.009418  -0.018119  -0.014163  -0.004920   0.000440
     3  C    0.359787   0.355451   0.363880  -0.007509   0.000104   0.000015
     4  O    0.002771  -0.000108  -0.002081  -0.020611   0.003022  -0.000004
     5  C   -0.003288  -0.003355   0.002884   0.337760  -0.041179  -0.001012
     6  C    0.000168   0.000111  -0.000089  -0.059657   0.340713  -0.064368
     7  O   -0.000012   0.000001   0.000000   0.002251  -0.017747   0.310540
     8  C    0.000001   0.000013   0.000003  -0.005638  -0.033510   0.001579
     9  C    0.000000   0.000001   0.000000   0.001269  -0.000618   0.000488
    10  H    0.000852  -0.000072  -0.000147   0.000214   0.000380   0.000003
    11  H   -0.000173  -0.000053   0.004507  -0.000119  -0.000199   0.000000
    12  H   -0.000065  -0.000209  -0.000070  -0.000026   0.006697   0.000014
    13  H    0.592045  -0.027003  -0.032640   0.000033  -0.000004   0.000000
    14  H   -0.027003   0.576875  -0.028938   0.004389   0.000004   0.000000
    15  H   -0.032640  -0.028938   0.587208  -0.000056  -0.000001   0.000000
    16  H    0.000033   0.004389  -0.000056   0.664194   0.006510   0.002146
    17  H   -0.000004   0.000004  -0.000001   0.006510   0.608378   0.006929
    18  H    0.000000   0.000000   0.000000   0.002146   0.006929   0.454267
    19  H    0.000000   0.000000   0.000000   0.000001  -0.000063  -0.000022
              19
     1  C    0.000000
     2  C   -0.000001
     3  C    0.000000
     4  O    0.000001
     5  C    0.000026
     6  C   -0.000041
     7  O   -0.000051
     8  C   -0.001816
     9  C    0.373041
    10  H    0.000000
    11  H    0.000000
    12  H    0.000000
    13  H    0.000000
    14  H    0.000000
    15  H    0.000000
    16  H    0.000001
    17  H   -0.000063
    18  H   -0.000022
    19  H    0.425304
 Mulliken charges:
               1
     1  C   -0.454908
     2  C    0.395255
     3  C   -0.452857
     4  O   -0.291893
     5  C   -0.006536
     6  C   -0.089295
     7  O   -0.415614
     8  C    0.292025
     9  C   -0.438528
    10  H    0.131351
    11  H    0.122924
    12  H    0.129618
    13  H    0.123638
    14  H    0.127025
    15  H    0.125911
    16  H    0.084765
    17  H    0.124456
    18  H    0.289041
    19  H    0.203621
 Sum of Mulliken charges =   0.00000
 Mulliken charges with hydrogens summed into heavy atoms:
               1
     1  C   -0.071014
     2  C    0.395255
     3  C   -0.076283
     4  O   -0.291893
     5  C    0.078229
     6  C    0.035161
     7  O   -0.126573
     8  C    0.292025
     9  C   -0.234907
 Electronic spatial extent (au):  <R**2>=           1382.5144
 Charge=              0.0000 electrons
 Dipole moment (field-independent basis, Debye):
    X=              0.1147    Y=              0.2974    Z=              1.3938  Tot=              1.4298
 Quadrupole moment (field-independent basis, Debye-Ang):
   XX=            -45.5057   YY=            -57.9406   ZZ=            -50.8890
   XY=              4.0194   XZ=             -1.6257   YZ=             -1.7602
 Traceless Quadrupole moment (field-independent basis, Debye-Ang):
   XX=              5.9394   YY=             -6.4955   ZZ=              0.5561
   XY=              4.0194   XZ=             -1.6257   YZ=             -1.7602
 Octapole moment (field-independent basis, Debye-Ang**2):
  XXX=            -20.0029  YYY=             -1.3591  ZZZ=              6.4311  XYY=             -2.5690
  XXY=            -14.1143  XXZ=              3.3745  XZZ=             -2.1226  YZZ=              6.1261
  YYZ=              2.7140  XYZ=             -3.4348
 Hexadecapole moment (field-independent basis, Debye-Ang**3):
 XXXX=          -1125.9172 YYYY=           -341.4223 ZZZZ=           -200.1120 XXXY=             63.6942
 XXXZ=            -18.6374 YYYX=              5.4431 YYYZ=              4.7512 ZZZX=            -17.2024
 ZZZY=             11.7021 XXYY=           -244.4274 XXZZ=           -249.8382 YYZZ=            -84.0649
 XXYZ=             14.3367 YYXZ=             -0.9217 ZZXY=            -13.7627
 N-N= 4.405140945539D+02 E-N=-1.867687998660D+03  KE= 4.200000176307D+02
 Calling FoFJK, ICntrl=      2127 FMM=F ISym2X=0 I1Cent= 0 IOpClX= 0 NMat=1 NMatS=1 NMatT=0.
 ***** Axes restored to original set *****
 -------------------------------------------------------------------
 Center     Atomic                   Forces (Hartrees/Bohr)
 Number     Number              X              Y              Z
 -------------------------------------------------------------------
      1        6           0.000002257    0.000001167    0.000012387
      2        6          -0.000009088    0.000008842   -0.000020855
      3        6           0.000003501   -0.000009000   -0.000001214
      4        8           0.000010197    0.000012640   -0.000000088
      5        6          -0.000010412   -0.000023124    0.000011486
      6        6           0.000014677   -0.000014143   -0.000003779
      7        8          -0.000009764    0.000014975    0.000006377
      8        6          -0.000006764    0.000003057    0.000001693
      9        6          -0.000000046   -0.000000046   -0.000002167
     10        1          -0.000000339    0.000003592   -0.000000325
     11        1          -0.000000989    0.000001476   -0.000001165
     12        1          -0.000003464    0.000002122   -0.000003085
     13        1           0.000002779   -0.000002086    0.000000830
     14        1           0.000000988   -0.000004245    0.000001305
     15        1          -0.000001788   -0.000002313    0.000000587
     16        1           0.000005164    0.000002003   -0.000003232
     17        1          -0.000000413    0.000004887    0.000001127
     18        1           0.000002867   -0.000000129    0.000001374
     19        1           0.000000637    0.000000325   -0.000001255
 -------------------------------------------------------------------
 Cartesian Forces:  Max     0.000023124 RMS     0.000007141

 GradGradGradGradGradGradGradGradGradGradGradGradGradGradGradGradGradGrad
 Berny optimization.
 FormGI is forming the generalized inverse of G from B-inverse, IUseBI=4.
 Internal  Forces:  Max     0.000012439 RMS     0.000003473
 Search for a local minimum.
 Step number   1 out of a maximum of   96
 All quantities printed in internal units (Hartrees-Bohrs-Radians)
 Mixed Optimization -- En-DIIS/RFO-DIIS
 Second derivative matrix not updated -- first step.
 ITU=  0
     Eigenvalues ---    0.00438   0.00573   0.00594   0.00602   0.00602
     Eigenvalues ---    0.01334   0.02078   0.02325   0.03787   0.04707
     Eigenvalues ---    0.04707   0.05574   0.05670   0.05769   0.05828
     Eigenvalues ---    0.06015   0.06333   0.12050   0.13431   0.15509
     Eigenvalues ---    0.16000   0.16000   0.16000   0.16000   0.16000
     Eigenvalues ---    0.16000   0.16000   0.16280   0.19259   0.19759
     Eigenvalues ---    0.22394   0.23572   0.27348   0.29908   0.30895
     Eigenvalues ---    0.31053   0.31317   0.34192   0.34210   0.34213
     Eigenvalues ---    0.34264   0.34408   0.34442   0.34509   0.34727
     Eigenvalues ---    0.36414   0.38228   0.38988   0.41412   0.54742
     Eigenvalues ---    1.03787
 RFO step:  Lambda= 0.00000000D+00 EMin= 4.37798041D-03
 Linear search not attempted -- first point.
 Iteration  1 RMS(Cart)=  0.00007074 RMS(Int)=  0.00000000
 Iteration  2 RMS(Cart)=  0.00000000 RMS(Int)=  0.00000000
 Variable       Old X    -DE/DX   Delta X   Delta X   Delta X     New X
                                 (Linear)    (Quad)   (Total)
    R1        2.85912   0.00001   0.00000   0.00003   0.00003   2.85915
    R2        2.06887   0.00000   0.00000   0.00000   0.00000   2.06886
    R3        2.06972   0.00000   0.00000   0.00000   0.00000   2.06972
    R4        2.06121   0.00000   0.00000   0.00000   0.00000   2.06121
    R5        2.86213   0.00000   0.00000   0.00000   0.00000   2.86213
    R6        2.73026   0.00000   0.00000  -0.00003  -0.00003   2.73023
    R7        2.78382   0.00000   0.00000   0.00001   0.00001   2.78384
    R8        2.06977   0.00000   0.00000   0.00000   0.00000   2.06977
    R9        2.06479   0.00000   0.00000   0.00000   0.00000   2.06479
   R10        2.07007   0.00000   0.00000   0.00000   0.00000   2.07007
   R11        2.69505   0.00001   0.00000   0.00004   0.00004   2.69509
   R12        2.88147   0.00000   0.00000   0.00000   0.00000   2.88147
   R13        2.06590   0.00000   0.00000   0.00000   0.00000   2.06590
   R14        2.69679  -0.00001   0.00000  -0.00003  -0.00003   2.69676
   R15        2.76740   0.00000   0.00000   0.00001   0.00001   2.76741
   R16        2.06647   0.00000   0.00000   0.00001   0.00001   2.06648
   R17        1.82062   0.00000   0.00000   0.00000   0.00000   1.82062
   R18        2.27159   0.00000   0.00000   0.00000   0.00000   2.27159
   R19        2.00735   0.00000   0.00000   0.00000   0.00000   2.00735
    A1        1.92798   0.00000   0.00000   0.00000   0.00000   1.92798
    A2        1.91776   0.00000   0.00000   0.00001   0.00001   1.91777
    A3        1.95816   0.00000   0.00000  -0.00003  -0.00003   1.95813
    A4        1.88362   0.00000   0.00000   0.00000   0.00000   1.88362
    A5        1.89408   0.00000   0.00000   0.00001   0.00001   1.89410
    A6        1.88008   0.00000   0.00000   0.00000   0.00000   1.88009
    A7        2.00279   0.00001   0.00000   0.00003   0.00003   2.00282
    A8        2.02248  -0.00001   0.00000  -0.00002  -0.00002   2.02245
    A9        2.13823  -0.00001   0.00000  -0.00005  -0.00005   2.13819
   A10        1.99284   0.00000   0.00000   0.00003   0.00003   1.99287
   A11        2.06417   0.00000   0.00000  -0.00001  -0.00001   2.06416
   A12        1.93228   0.00000   0.00000   0.00003   0.00003   1.93231
   A13        1.93712   0.00000   0.00000  -0.00001  -0.00001   1.93711
   A14        1.92578   0.00000   0.00000  -0.00003  -0.00003   1.92576
   A15        1.89645   0.00000   0.00000   0.00001   0.00001   1.89645
   A16        1.88197   0.00000   0.00000   0.00001   0.00001   1.88198
   A17        1.88871   0.00000   0.00000   0.00000   0.00000   1.88871
   A18        2.16675   0.00000   0.00000   0.00000   0.00000   2.16675
   A19        2.05062  -0.00001   0.00000  -0.00004  -0.00004   2.05058
   A20        2.05282   0.00000   0.00000  -0.00002  -0.00002   2.05280
   A21        1.99698   0.00000   0.00000  -0.00001  -0.00001   1.99697
   A22        1.96848   0.00001   0.00000   0.00005   0.00005   1.96853
   A23        1.92397   0.00001   0.00000   0.00005   0.00005   1.92402
   A24        1.93280   0.00000   0.00000   0.00000   0.00000   1.93280
   A25        1.90240   0.00000   0.00000  -0.00001  -0.00001   1.90239
   A26        1.95225   0.00000   0.00000   0.00000   0.00000   1.95225
   A27        1.84694   0.00000   0.00000  -0.00002  -0.00002   1.84692
   A28        1.90289   0.00000   0.00000  -0.00003  -0.00003   1.90286
   A29        1.87796   0.00000   0.00000   0.00002   0.00002   1.87798
   A30        3.10550   0.00000   0.00000   0.00000   0.00000   3.10550
   A31        3.15420   0.00000   0.00000   0.00015   0.00015   3.15436
   A32        3.09504   0.00000   0.00000   0.00000   0.00000   3.09503
   A33        3.17341   0.00000   0.00000   0.00006   0.00006   3.17347
    D1       -1.14284   0.00000   0.00000   0.00012   0.00012  -1.14272
    D2        2.75851   0.00000   0.00000   0.00006   0.00006   2.75857
    D3        1.57676   0.00000   0.00000   0.00006   0.00006   1.57681
    D4        0.93345   0.00000   0.00000   0.00012   0.00012   0.93357
    D5       -1.44838   0.00000   0.00000   0.00006   0.00006  -1.44832
    D6       -2.63014   0.00000   0.00000   0.00006   0.00006  -2.63008
    D7        3.02449   0.00000   0.00000   0.00011   0.00011   3.02460
    D8        0.64266   0.00000   0.00000   0.00006   0.00006   0.64271
    D9       -0.53910   0.00000   0.00000   0.00005   0.00005  -0.53904
   D10        1.05690   0.00000   0.00000  -0.00014  -0.00014   1.05676
   D11       -3.11869   0.00000   0.00000  -0.00013  -0.00013  -3.11881
   D12       -1.02513   0.00000   0.00000  -0.00015  -0.00015  -1.02528
   D13       -2.83147   0.00000   0.00000  -0.00011  -0.00011  -2.83158
   D14       -0.72388   0.00000   0.00000  -0.00009  -0.00009  -0.72397
   D15        1.36968   0.00000   0.00000  -0.00012  -0.00012   1.36956
   D16       -1.68171   0.00000   0.00000  -0.00008  -0.00008  -1.68179
   D17        0.42588   0.00000   0.00000  -0.00006  -0.00006   0.42583
   D18        2.51944   0.00000   0.00000  -0.00008  -0.00008   2.51935
   D19       -0.03742   0.00000   0.00000   0.00005   0.00005  -0.03738
   D20       -2.68505   0.00000   0.00000   0.00000   0.00000  -2.68505
   D21        2.66817   0.00000   0.00000  -0.00001  -0.00001   2.66816
   D22        0.02054   0.00000   0.00000  -0.00005  -0.00005   0.02049
   D23       -1.47677   0.00000   0.00000   0.00002   0.00002  -1.47675
   D24        2.63658   0.00000   0.00000  -0.00002  -0.00002   2.63656
   D25        0.54324   0.00000   0.00000   0.00002   0.00002   0.54325
   D26       -2.70903   0.00000   0.00000   0.00006   0.00006  -2.70897
   D27        1.40432   0.00000   0.00000   0.00002   0.00002   1.40434
   D28       -0.68903   0.00000   0.00000   0.00006   0.00006  -0.68897
   D29        1.19113   0.00000   0.00000   0.00004   0.00004   1.19116
   D30       -0.97871   0.00000   0.00000   0.00000   0.00000  -0.97871
   D31       -3.07206   0.00000   0.00000   0.00004   0.00004  -3.07202
   D32       -1.41948   0.00000   0.00000   0.00013   0.00013  -1.41936
   D33        0.73911   0.00000   0.00000   0.00016   0.00016   0.73928
   D34        2.80915   0.00000   0.00000   0.00013   0.00013   2.80928
         Item               Value     Threshold  Converged?
 Maximum Force            0.000012     0.000450     YES
 RMS     Force            0.000003     0.000300     YES
 Maximum Displacement     0.000262     0.001800     YES
 RMS     Displacement     0.000071     0.001200     YES
 Predicted change in Energy=-3.490354D-09
 Optimization completed.
    -- Stationary point found.
                           ----------------------------
                           !   Optimized Parameters   !
                           ! (Angstroms and Degrees)  !
 --------------------------                            --------------------------
 ! Name  Definition              Value          Derivative Info.                !
 --------------------------------------------------------------------------------
 ! R1    R(1,2)                  1.513          -DE/DX =    0.0                 !
 ! R2    R(1,10)                 1.0948         -DE/DX =    0.0                 !
 ! R3    R(1,11)                 1.0953         -DE/DX =    0.0                 !
 ! R4    R(1,12)                 1.0907         -DE/DX =    0.0                 !
 ! R5    R(2,3)                  1.5146         -DE/DX =    0.0                 !
 ! R6    R(2,4)                  1.4448         -DE/DX =    0.0                 !
 ! R7    R(2,5)                  1.4731         -DE/DX =    0.0                 !
 ! R8    R(3,13)                 1.0953         -DE/DX =    0.0                 !
 ! R9    R(3,14)                 1.0926         -DE/DX =    0.0                 !
 ! R10   R(3,15)                 1.0954         -DE/DX =    0.0                 !
 ! R11   R(4,5)                  1.4262         -DE/DX =    0.0                 !
 ! R12   R(5,6)                  1.5248         -DE/DX =    0.0                 !
 ! R13   R(5,16)                 1.0932         -DE/DX =    0.0                 !
 ! R14   R(6,7)                  1.4271         -DE/DX =    0.0                 !
 ! R15   R(6,8)                  1.4644         -DE/DX =    0.0                 !
 ! R16   R(6,17)                 1.0935         -DE/DX =    0.0                 !
 ! R17   R(7,18)                 0.9634         -DE/DX =    0.0                 !
 ! R18   R(8,9)                  1.2021         -DE/DX =    0.0                 !
 ! R19   R(9,19)                 1.0622         -DE/DX =    0.0                 !
 ! A1    A(2,1,10)             110.465          -DE/DX =    0.0                 !
 ! A2    A(2,1,11)             109.8797         -DE/DX =    0.0                 !
 ! A3    A(2,1,12)             112.1943         -DE/DX =    0.0                 !
 ! A4    A(10,1,11)            107.9236         -DE/DX =    0.0                 !
 ! A5    A(10,1,12)            108.5228         -DE/DX =    0.0                 !
 ! A6    A(11,1,12)            107.7209         -DE/DX =    0.0                 !
 ! A7    A(1,2,3)              114.7517         -DE/DX =    0.0                 !
 ! A8    A(1,2,4)              115.8793         -DE/DX =    0.0                 !
 ! A9    A(1,2,5)              122.5117         -DE/DX =    0.0                 !
 ! A10   A(3,2,4)              114.1811         -DE/DX =    0.0                 !
 ! A11   A(3,2,5)              118.2681         -DE/DX =    0.0                 !
 ! A12   A(2,3,13)             110.7115         -DE/DX =    0.0                 !
 ! A13   A(2,3,14)             110.9886         -DE/DX =    0.0                 !
 ! A14   A(2,3,15)             110.3393         -DE/DX =    0.0                 !
 ! A15   A(13,3,14)            108.6584         -DE/DX =    0.0                 !
 ! A16   A(13,3,15)            107.8291         -DE/DX =    0.0                 !
 ! A17   A(14,3,15)            108.2152         -DE/DX =    0.0                 !
 ! A18   A(2,5,6)              124.1456         -DE/DX =    0.0                 !
 ! A19   A(2,5,16)             117.4919         -DE/DX =    0.0                 !
 ! A20   A(4,5,6)              117.6179         -DE/DX =    0.0                 !
 ! A21   A(4,5,16)             114.4187         -DE/DX =    0.0                 !
 ! A22   A(6,5,16)             112.7857         -DE/DX =    0.0                 !
 ! A23   A(5,6,7)              110.2354         -DE/DX =    0.0                 !
 ! A24   A(5,6,8)              110.7415         -DE/DX =    0.0                 !
 ! A25   A(5,6,17)             108.9996         -DE/DX =    0.0                 !
 ! A26   A(7,6,8)              111.8555         -DE/DX =    0.0                 !
 ! A27   A(7,6,17)             105.8217         -DE/DX =    0.0                 !
 ! A28   A(8,6,17)             109.0273         -DE/DX =    0.0                 !
 ! A29   A(6,7,18)             107.5994         -DE/DX =    0.0                 !
 ! A30   L(6,8,9,16,-1)        177.932          -DE/DX =    0.0                 !
 ! A31   L(8,9,19,14,-1)       180.7224         -DE/DX =    0.0                 !
 ! A32   L(6,8,9,16,-2)        177.3325         -DE/DX =    0.0                 !
 ! A33   L(8,9,19,14,-2)       181.8231         -DE/DX =    0.0                 !
 ! D1    D(10,1,2,3)           -65.4799         -DE/DX =    0.0                 !
 ! D2    D(10,1,2,4)           158.0511         -DE/DX =    0.0                 !
 ! D3    D(10,1,2,5)            90.3417         -DE/DX =    0.0                 !
 ! D4    D(11,1,2,3)            53.4827         -DE/DX =    0.0                 !
 ! D5    D(11,1,2,4)           -82.9862         -DE/DX =    0.0                 !
 ! D6    D(11,1,2,5)          -150.6957         -DE/DX =    0.0                 !
 ! D7    D(12,1,2,3)           173.2904         -DE/DX =    0.0                 !
 ! D8    D(12,1,2,4)            36.8215         -DE/DX =    0.0                 !
 ! D9    D(12,1,2,5)           -30.888          -DE/DX =    0.0                 !
 ! D10   D(1,2,3,13)            60.556          -DE/DX =    0.0                 !
 ! D11   D(1,2,3,14)          -178.6877         -DE/DX =    0.0                 !
 ! D12   D(1,2,3,15)           -58.7357         -DE/DX =    0.0                 !
 ! D13   D(4,2,3,13)          -162.2314         -DE/DX =    0.0                 !
 ! D14   D(4,2,3,14)           -41.4751         -DE/DX =    0.0                 !
 ! D15   D(4,2,3,15)            78.4768         -DE/DX =    0.0                 !
 ! D16   D(5,2,3,13)           -96.355          -DE/DX =    0.0                 !
 ! D17   D(5,2,3,14)            24.4013         -DE/DX =    0.0                 !
 ! D18   D(5,2,3,15)           144.3532         -DE/DX =    0.0                 !
 ! D19   D(1,2,5,6)             -2.1442         -DE/DX =    0.0                 !
 ! D20   D(1,2,5,16)          -153.842          -DE/DX =    0.0                 !
 ! D21   D(3,2,5,6)            152.8748         -DE/DX =    0.0                 !
 ! D22   D(3,2,5,16)             1.1771         -DE/DX =    0.0                 !
 ! D23   D(2,5,6,7)            -84.6124         -DE/DX =    0.0                 !
 ! D24   D(2,5,6,8)            151.0651         -DE/DX =    0.0                 !
 ! D25   D(2,5,6,17)            31.1251         -DE/DX =    0.0                 !
 ! D26   D(4,5,6,7)           -155.2158         -DE/DX =    0.0                 !
 ! D27   D(4,5,6,8)             80.4617         -DE/DX =    0.0                 !
 ! D28   D(4,5,6,17)           -39.4783         -DE/DX =    0.0                 !
 ! D29   D(16,5,6,7)            68.2464         -DE/DX =    0.0                 !
 ! D30   D(16,5,6,8)           -56.0761         -DE/DX =    0.0                 !
 ! D31   D(16,5,6,17)         -176.016          -DE/DX =    0.0                 !
 ! D32   D(5,6,7,18)           -81.3305         -DE/DX =    0.0                 !
 ! D33   D(8,6,7,18)            42.3482         -DE/DX =    0.0                 !
 ! D34   D(17,6,7,18)          160.9527         -DE/DX =    0.0                 !
 --------------------------------------------------------------------------------
 GradGradGradGradGradGradGradGradGradGradGradGradGradGradGradGradGradGrad

                          Input orientation:                          
 ---------------------------------------------------------------------
 Center     Atomic      Atomic             Coordinates (Angstroms)
 Number     Number       Type             X           Y           Z
 ---------------------------------------------------------------------
      1          6           0        5.315684    1.470958   -0.251096
      2          6           0        4.380330    1.077921   -1.373482
      3          6           0        5.050578    0.878201   -2.716915
      4          8           0        3.131882    1.802340   -1.436825
      5          6           0        3.089869    0.409896   -1.131440
      6          6           0        2.581776    0.003710    0.247651
      7          8           0        3.112087   -1.269588    0.613755
      8          6           0        1.117867    0.015847    0.285318
      9          6           0       -0.083517   -0.024299    0.278303
     10          1           0        6.017348    0.658719   -0.035417
     11          1           0        5.898427    2.351196   -0.542928
     12          1           0        4.778528    1.717413    0.665663
     13          1           0        5.797852    0.079331   -2.662034
     14          1           0        4.317986    0.619409   -3.485158
     15          1           0        5.562526    1.795614   -3.027141
     16          1           0        2.687830   -0.216471   -1.932174
     17          1           0        2.963376    0.710227    0.989961
     18          1           0        2.573784   -1.943631    0.184698
     19          1           0       -1.145597   -0.039897    0.288481
 ---------------------------------------------------------------------
                    Distance matrix (angstroms):
                    1          2          3          4          5
     1  C    0.000000
     2  C    1.512982   0.000000
     3  C    2.549883   1.514574   0.000000
     4  O    2.506942   1.444790   2.484765   0.000000
     5  C    2.618227   1.473137   2.564648   1.426158   0.000000
     6  C    3.142582   2.648924   3.955802   2.524905   1.524807
     7  O    3.621381   3.326912   4.411814   3.693509   2.422161
     8  C    4.475127   3.810942   5.022278   3.195871   2.459933
     9  C    5.627382   4.885613   6.012052   4.076403   3.499468
    10  H    1.094797   2.155452   2.858889   3.405543   3.135811
    11  H    1.095250   2.148410   2.759489   2.958727   3.464533
    12  H    1.090745   2.173849   3.495729   2.671911   2.791191
    13  H    2.825196   2.160305   1.095273   3.402542   3.128125
    14  H    3.489942   2.161781   1.092640   2.646097   2.663110
    15  H    2.805844   2.155751   1.095435   2.904682   3.409975
    16  H    3.546697   2.202759   2.719688   2.125595   1.093228
    17  H    2.766278   2.780076   4.257412   2.666533   2.146286
    18  H    4.400836   3.849845   4.745167   4.119843   2.745478
    19  H    6.657476   5.877713   6.947510   4.966624   4.489728
                    6          7          8          9         10
     6  C    0.000000
     7  O    1.427077   0.000000
     8  C    1.464443   2.395230   0.000000
     9  C    2.665616   3.446035   1.202075   0.000000
    10  H    3.508892   3.546877   4.951875   6.146990   0.000000
    11  H    4.139551   4.712927   5.384571   6.488532   1.770928
    12  H    2.817309   3.420803   4.054679   5.179101   1.773985
    13  H    4.337641   4.445639   5.531110   6.576231   2.698701
    14  H    4.162616   4.671572   4.982121   5.826767   3.845788
    15  H    4.777034   5.353152   5.821937   6.790865   3.232616
    16  H    2.193483   2.787616   2.726908   3.550141   3.930565
    17  H    1.093531   2.020721   2.093941   3.213960   3.221925
    18  H    1.948375   0.963428   2.443229   3.279305   4.321899
    19  H    3.727852   4.443627   2.264153   1.062244   7.204218
                   11         12         13         14         15
    11  H    0.000000
    12  H    1.765375   0.000000
    13  H    3.108391   3.846544   0.000000
    14  H    3.762126   4.318220   1.777420   0.000000
    15  H    2.567647   3.775919   1.770398   1.772602   0.000000
    16  H    4.339453   3.854826   3.208182   2.401637   3.675775
    17  H    3.695545   2.101040   4.665764   4.676527   4.906196
    18  H    5.479802   4.300636   4.752986   4.804088   5.764586
    19  H    7.485108   6.190772   7.545279   6.672763   7.704633
                   16         17         18         19
    16  H    0.000000
    17  H    3.077917   0.000000
    18  H    2.734454   2.800570   0.000000
    19  H    4.433695   4.235377   4.179565   0.000000
 Stoichiometry    C7H10O2
 Framework group  C1[X(C7H10O2)]
 Deg. of freedom    51
 Full point group                 C1      NOp   1
 Largest Abelian subgroup         C1      NOp   1
 Largest concise Abelian subgroup C1      NOp   1
                         Standard orientation:                         
 ---------------------------------------------------------------------
 Center     Atomic      Atomic             Coordinates (Angstroms)
 Number     Number       Type             X           Y           Z
 ---------------------------------------------------------------------
      1          6           0        1.917859    0.926038   -1.018878
      2          6           0        1.492759   -0.147977   -0.041689
      3          6           0        2.574753   -0.595419    0.919050
      4          8           0        0.707946   -1.228077   -0.593838
      5          6           0        0.086599   -0.353886    0.346185
      6          6           0       -1.071990    0.506071   -0.146952
      7          8           0       -1.200449    1.673265    0.664039
      8          6           0       -2.313487   -0.269632   -0.186504
      9          6           0       -3.332160   -0.907102   -0.156127
     10          1           0        2.148765    1.855881   -0.489109
     11          1           0        2.820566    0.608594   -1.551721
     12          1           0        1.148386    1.133440   -1.763606
     13          1           0        2.918238    0.243595    1.533620
     14          1           0        2.209564   -1.385799    1.579200
     15          1           0        3.438124   -0.982209    0.366816
     16          1           0       -0.106583   -0.804569    1.323279
     17          1           0       -0.844469    0.866336   -1.154053
     18          1           0       -1.685203    1.424089    1.458469
     19          1           0       -4.233363   -1.469412   -0.155004
 ---------------------------------------------------------------------
 Rotational constants (GHZ):      3.0354194      0.9972955      0.8917284
 1\1\GINC-ALCHEMY-SR\FOpt\RB3LYP\6-31G(2df,p)\C7H10O2\PUCK\27-Jan-2020\
 0\\# b3lyp 6-31G(2df,p) opt Freq\\titel\\0,1\C,5.3156843656,1.47095820
 12,-0.2510959073\C,4.3803301547,1.0779208609,-1.3734816803\C,5.0505780
 358,0.8782012677,-2.7169148757\O,3.1318823561,1.8023398879,-1.43682506
 69\C,3.0898689783,0.4098960235,-1.1314396416\C,2.5817758455,0.00371027
 03,0.2476509895\O,3.1120874457,-1.2695877055,0.6137546373\C,1.11786727
 16,0.0158467075,0.2853182288\C,-0.0835167678,-0.0242991352,0.278302630
 7\H,6.0173482935,0.6587194955,-0.0354171204\H,5.8984273159,2.351195694
 6,-0.5429281852\H,4.7785275822,1.7174133524,0.6656626101\H,5.797852046
 7,0.0793311443,-2.6620339921\H,4.3179855086,0.6194093442,-3.4851576464
 \H,5.5625264095,1.7956142353,-3.0271408251\H,2.6878301067,-0.216471425
 6,-1.9321742524\H,2.963375613,0.7102272525,0.9899613719\H,2.5737837754
 ,-1.9436308833,0.184698392\H,-1.1455971069,-0.0398971482,0.288481073\\
 Version=ES64L-G09RevD.01\State=1-A\HF=-423.1258834\RMSD=7.769e-09\RMSF
 =7.141e-06\Dipole=0.1042109,-0.4848776,-0.26545\Quadrupole=4.3958643,-
 1.824908,-2.5709563,3.1811188,-1.3758898,2.6372295\PG=C01 [X(C7H10O2)]
 \\@


 IN-LAWS ARE LIKE SEEDS. YOU DON'T NEED THEM
 BUT THEY COME WITH THE TOMATO.
 Job cpu time:       0 days  0 hours  7 minutes 16.5 seconds.
 File lengths (MBytes):  RWF=     52 Int=      0 D2E=      0 Chk=      7 Scr=      1
 Normal termination of Gaussian 09 at Mon Jan 27 14:11:02 2020.
 Link1:  Proceeding to internal job step number  2.
 ----------------------------------------------------------------------
 #N Geom=AllCheck Guess=TCheck SCRF=Check GenChk RB3LYP/6-31G(2df,p) Fr
 eq
 ----------------------------------------------------------------------
 1/10=4,29=7,30=1,38=1,40=1/1,3;
 2/12=2,40=1/2;
 3/5=1,6=6,7=104,11=2,14=-4,16=1,25=1,30=1,70=2,71=2,74=-5,116=1,140=1/1,2,3;
 4/5=101/1;
 5/5=2,98=1/2;
 8/6=4,10=90,11=11/1;
 11/6=1,8=1,9=11,15=111,16=1/1,2,10;
 10/6=1/2;
 6/7=2,8=2,9=2,10=2,18=1,28=1/1;
 7/8=1,10=1,25=1/1,2,3,16;
 1/10=4,30=1/3;
 99//99;
 Structure from the checkpoint file:  "/scratch/puck/g09_20a96e8b-c61c-4838-959e-f1c9b3e108e4/Gau-64279.chk"
 -----
 titel
 -----
 Charge =  0 Multiplicity = 1
 Redundant internal coordinates found in file.
 C,0,5.3156843656,1.4709582012,-0.2510959073
 C,0,4.3803301547,1.0779208609,-1.3734816803
 C,0,5.0505780358,0.8782012677,-2.7169148757
 O,0,3.1318823561,1.8023398879,-1.4368250669
 C,0,3.0898689783,0.4098960235,-1.1314396416
 C,0,2.5817758455,0.0037102703,0.2476509895
 O,0,3.1120874457,-1.2695877055,0.6137546373
 C,0,1.1178672716,0.0158467075,0.2853182288
 C,0,-0.0835167678,-0.0242991352,0.2783026307
 H,0,6.0173482935,0.6587194955,-0.0354171204
 H,0,5.8984273159,2.3511956946,-0.5429281852
 H,0,4.7785275822,1.7174133524,0.6656626101
 H,0,5.7978520467,0.0793311443,-2.6620339921
 H,0,4.3179855086,0.6194093442,-3.4851576464
 H,0,5.5625264095,1.7956142353,-3.0271408251
 H,0,2.6878301067,-0.2164714256,-1.9321742524
 H,0,2.963375613,0.7102272525,0.9899613719
 H,0,2.5737837754,-1.9436308833,0.184698392
 H,0,-1.1455971069,-0.0398971482,0.288481073
 Recover connectivity data from disk.

 GradGradGradGradGradGradGradGradGradGradGradGradGradGradGradGradGradGrad
 Berny optimization.
 Initialization pass.
                           ----------------------------
                           !    Initial Parameters    !
                           ! (Angstroms and Degrees)  !
 --------------------------                            --------------------------
 ! Name  Definition              Value          Derivative Info.                !
 --------------------------------------------------------------------------------
 ! R1    R(1,2)                  1.513          calculate D2E/DX2 analytically  !
 ! R2    R(1,10)                 1.0948         calculate D2E/DX2 analytically  !
 ! R3    R(1,11)                 1.0953         calculate D2E/DX2 analytically  !
 ! R4    R(1,12)                 1.0907         calculate D2E/DX2 analytically  !
 ! R5    R(2,3)                  1.5146         calculate D2E/DX2 analytically  !
 ! R6    R(2,4)                  1.4448         calculate D2E/DX2 analytically  !
 ! R7    R(2,5)                  1.4731         calculate D2E/DX2 analytically  !
 ! R8    R(3,13)                 1.0953         calculate D2E/DX2 analytically  !
 ! R9    R(3,14)                 1.0926         calculate D2E/DX2 analytically  !
 ! R10   R(3,15)                 1.0954         calculate D2E/DX2 analytically  !
 ! R11   R(4,5)                  1.4262         calculate D2E/DX2 analytically  !
 ! R12   R(5,6)                  1.5248         calculate D2E/DX2 analytically  !
 ! R13   R(5,16)                 1.0932         calculate D2E/DX2 analytically  !
 ! R14   R(6,7)                  1.4271         calculate D2E/DX2 analytically  !
 ! R15   R(6,8)                  1.4644         calculate D2E/DX2 analytically  !
 ! R16   R(6,17)                 1.0935         calculate D2E/DX2 analytically  !
 ! R17   R(7,18)                 0.9634         calculate D2E/DX2 analytically  !
 ! R18   R(8,9)                  1.2021         calculate D2E/DX2 analytically  !
 ! R19   R(9,19)                 1.0622         calculate D2E/DX2 analytically  !
 ! A1    A(2,1,10)             110.465          calculate D2E/DX2 analytically  !
 ! A2    A(2,1,11)             109.8797         calculate D2E/DX2 analytically  !
 ! A3    A(2,1,12)             112.1943         calculate D2E/DX2 analytically  !
 ! A4    A(10,1,11)            107.9236         calculate D2E/DX2 analytically  !
 ! A5    A(10,1,12)            108.5228         calculate D2E/DX2 analytically  !
 ! A6    A(11,1,12)            107.7209         calculate D2E/DX2 analytically  !
 ! A7    A(1,2,3)              114.7517         calculate D2E/DX2 analytically  !
 ! A8    A(1,2,4)              115.8793         calculate D2E/DX2 analytically  !
 ! A9    A(1,2,5)              122.5117         calculate D2E/DX2 analytically  !
 ! A10   A(3,2,4)              114.1811         calculate D2E/DX2 analytically  !
 ! A11   A(3,2,5)              118.2681         calculate D2E/DX2 analytically  !
 ! A12   A(2,3,13)             110.7115         calculate D2E/DX2 analytically  !
 ! A13   A(2,3,14)             110.9886         calculate D2E/DX2 analytically  !
 ! A14   A(2,3,15)             110.3393         calculate D2E/DX2 analytically  !
 ! A15   A(13,3,14)            108.6584         calculate D2E/DX2 analytically  !
 ! A16   A(13,3,15)            107.8291         calculate D2E/DX2 analytically  !
 ! A17   A(14,3,15)            108.2152         calculate D2E/DX2 analytically  !
 ! A18   A(2,5,6)              124.1456         calculate D2E/DX2 analytically  !
 ! A19   A(2,5,16)             117.4919         calculate D2E/DX2 analytically  !
 ! A20   A(4,5,6)              117.6179         calculate D2E/DX2 analytically  !
 ! A21   A(4,5,16)             114.4187         calculate D2E/DX2 analytically  !
 ! A22   A(6,5,16)             112.7857         calculate D2E/DX2 analytically  !
 ! A23   A(5,6,7)              110.2354         calculate D2E/DX2 analytically  !
 ! A24   A(5,6,8)              110.7415         calculate D2E/DX2 analytically  !
 ! A25   A(5,6,17)             108.9996         calculate D2E/DX2 analytically  !
 ! A26   A(7,6,8)              111.8555         calculate D2E/DX2 analytically  !
 ! A27   A(7,6,17)             105.8217         calculate D2E/DX2 analytically  !
 ! A28   A(8,6,17)             109.0273         calculate D2E/DX2 analytically  !
 ! A29   A(6,7,18)             107.5994         calculate D2E/DX2 analytically  !
 ! A30   L(6,8,9,16,-1)        177.932          calculate D2E/DX2 analytically  !
 ! A31   L(8,9,19,14,-1)       180.7224         calculate D2E/DX2 analytically  !
 ! A32   L(6,8,9,16,-2)        177.3325         calculate D2E/DX2 analytically  !
 ! A33   L(8,9,19,14,-2)       181.8231         calculate D2E/DX2 analytically  !
 ! D1    D(10,1,2,3)           -65.4799         calculate D2E/DX2 analytically  !
 ! D2    D(10,1,2,4)           158.0511         calculate D2E/DX2 analytically  !
 ! D3    D(10,1,2,5)            90.3417         calculate D2E/DX2 analytically  !
 ! D4    D(11,1,2,3)            53.4827         calculate D2E/DX2 analytically  !
 ! D5    D(11,1,2,4)           -82.9862         calculate D2E/DX2 analytically  !
 ! D6    D(11,1,2,5)          -150.6957         calculate D2E/DX2 analytically  !
 ! D7    D(12,1,2,3)           173.2904         calculate D2E/DX2 analytically  !
 ! D8    D(12,1,2,4)            36.8215         calculate D2E/DX2 analytically  !
 ! D9    D(12,1,2,5)           -30.888          calculate D2E/DX2 analytically  !
 ! D10   D(1,2,3,13)            60.556          calculate D2E/DX2 analytically  !
 ! D11   D(1,2,3,14)          -178.6877         calculate D2E/DX2 analytically  !
 ! D12   D(1,2,3,15)           -58.7357         calculate D2E/DX2 analytically  !
 ! D13   D(4,2,3,13)          -162.2314         calculate D2E/DX2 analytically  !
 ! D14   D(4,2,3,14)           -41.4751         calculate D2E/DX2 analytically  !
 ! D15   D(4,2,3,15)            78.4768         calculate D2E/DX2 analytically  !
 ! D16   D(5,2,3,13)           -96.355          calculate D2E/DX2 analytically  !
 ! D17   D(5,2,3,14)            24.4013         calculate D2E/DX2 analytically  !
 ! D18   D(5,2,3,15)           144.3532         calculate D2E/DX2 analytically  !
 ! D19   D(1,2,5,6)             -2.1442         calculate D2E/DX2 analytically  !
 ! D20   D(1,2,5,16)          -153.842          calculate D2E/DX2 analytically  !
 ! D21   D(3,2,5,6)            152.8748         calculate D2E/DX2 analytically  !
 ! D22   D(3,2,5,16)             1.1771         calculate D2E/DX2 analytically  !
 ! D23   D(2,5,6,7)            -84.6124         calculate D2E/DX2 analytically  !
 ! D24   D(2,5,6,8)            151.0651         calculate D2E/DX2 analytically  !
 ! D25   D(2,5,6,17)            31.1251         calculate D2E/DX2 analytically  !
 ! D26   D(4,5,6,7)           -155.2158         calculate D2E/DX2 analytically  !
 ! D27   D(4,5,6,8)             80.4617         calculate D2E/DX2 analytically  !
 ! D28   D(4,5,6,17)           -39.4783         calculate D2E/DX2 analytically  !
 ! D29   D(16,5,6,7)            68.2464         calculate D2E/DX2 analytically  !
 ! D30   D(16,5,6,8)           -56.0761         calculate D2E/DX2 analytically  !
 ! D31   D(16,5,6,17)         -176.016          calculate D2E/DX2 analytically  !
 ! D32   D(5,6,7,18)           -81.3305         calculate D2E/DX2 analytically  !
 ! D33   D(8,6,7,18)            42.3482         calculate D2E/DX2 analytically  !
 ! D34   D(17,6,7,18)          160.9527         calculate D2E/DX2 analytically  !
 --------------------------------------------------------------------------------
 Trust Radius=3.00D-01 FncErr=1.00D-07 GrdErr=1.00D-07
 Number of steps in this run=      2 maximum allowed number of steps=      2.
 GradGradGradGradGradGradGradGradGradGradGradGradGradGradGradGradGradGrad

                          Input orientation:                          
 ---------------------------------------------------------------------
 Center     Atomic      Atomic             Coordinates (Angstroms)
 Number     Number       Type             X           Y           Z
 ---------------------------------------------------------------------
      1          6           0        5.315684    1.470958   -0.251096
      2          6           0        4.380330    1.077921   -1.373482
      3          6           0        5.050578    0.878201   -2.716915
      4          8           0        3.131882    1.802340   -1.436825
      5          6           0        3.089869    0.409896   -1.131440
      6          6           0        2.581776    0.003710    0.247651
      7          8           0        3.112087   -1.269588    0.613755
      8          6           0        1.117867    0.015847    0.285318
      9          6           0       -0.083517   -0.024299    0.278303
     10          1           0        6.017348    0.658719   -0.035417
     11          1           0        5.898427    2.351196   -0.542928
     12          1           0        4.778528    1.717413    0.665663
     13          1           0        5.797852    0.079331   -2.662034
     14          1           0        4.317986    0.619409   -3.485158
     15          1           0        5.562526    1.795614   -3.027141
     16          1           0        2.687830   -0.216471   -1.932174
     17          1           0        2.963376    0.710227    0.989961
     18          1           0        2.573784   -1.943631    0.184698
     19          1           0       -1.145597   -0.039897    0.288481
 ---------------------------------------------------------------------
                    Distance matrix (angstroms):
                    1          2          3          4          5
     1  C    0.000000
     2  C    1.512982   0.000000
     3  C    2.549883   1.514574   0.000000
     4  O    2.506942   1.444790   2.484765   0.000000
     5  C    2.618227   1.473137   2.564648   1.426158   0.000000
     6  C    3.142582   2.648924   3.955802   2.524905   1.524807
     7  O    3.621381   3.326912   4.411814   3.693509   2.422161
     8  C    4.475127   3.810942   5.022278   3.195871   2.459933
     9  C    5.627382   4.885613   6.012052   4.076403   3.499468
    10  H    1.094797   2.155452   2.858889   3.405543   3.135811
    11  H    1.095250   2.148410   2.759489   2.958727   3.464533
    12  H    1.090745   2.173849   3.495729   2.671911   2.791191
    13  H    2.825196   2.160305   1.095273   3.402542   3.128125
    14  H    3.489942   2.161781   1.092640   2.646097   2.663110
    15  H    2.805844   2.155751   1.095435   2.904682   3.409975
    16  H    3.546697   2.202759   2.719688   2.125595   1.093228
    17  H    2.766278   2.780076   4.257412   2.666533   2.146286
    18  H    4.400836   3.849845   4.745167   4.119843   2.745478
    19  H    6.657476   5.877713   6.947510   4.966624   4.489728
                    6          7          8          9         10
     6  C    0.000000
     7  O    1.427077   0.000000
     8  C    1.464443   2.395230   0.000000
     9  C    2.665616   3.446035   1.202075   0.000000
    10  H    3.508892   3.546877   4.951875   6.146990   0.000000
    11  H    4.139551   4.712927   5.384571   6.488532   1.770928
    12  H    2.817309   3.420803   4.054679   5.179101   1.773985
    13  H    4.337641   4.445639   5.531110   6.576231   2.698701
    14  H    4.162616   4.671572   4.982121   5.826767   3.845788
    15  H    4.777034   5.353152   5.821937   6.790865   3.232616
    16  H    2.193483   2.787616   2.726908   3.550141   3.930565
    17  H    1.093531   2.020721   2.093941   3.213960   3.221925
    18  H    1.948375   0.963428   2.443229   3.279305   4.321899
    19  H    3.727852   4.443627   2.264153   1.062244   7.204218
                   11         12         13         14         15
    11  H    0.000000
    12  H    1.765375   0.000000
    13  H    3.108391   3.846544   0.000000
    14  H    3.762126   4.318220   1.777420   0.000000
    15  H    2.567647   3.775919   1.770398   1.772602   0.000000
    16  H    4.339453   3.854826   3.208182   2.401637   3.675775
    17  H    3.695545   2.101040   4.665764   4.676527   4.906196
    18  H    5.479802   4.300636   4.752986   4.804088   5.764586
    19  H    7.485108   6.190772   7.545279   6.672763   7.704633
                   16         17         18         19
    16  H    0.000000
    17  H    3.077917   0.000000
    18  H    2.734454   2.800570   0.000000
    19  H    4.433695   4.235377   4.179565   0.000000
 Stoichiometry    C7H10O2
 Framework group  C1[X(C7H10O2)]
 Deg. of freedom    51
 Full point group                 C1      NOp   1
 Largest Abelian subgroup         C1      NOp   1
 Largest concise Abelian subgroup C1      NOp   1
                         Standard orientation:                         
 ---------------------------------------------------------------------
 Center     Atomic      Atomic             Coordinates (Angstroms)
 Number     Number       Type             X           Y           Z
 ---------------------------------------------------------------------
      1          6           0        1.917859    0.926038   -1.018878
      2          6           0        1.492759   -0.147977   -0.041689
      3          6           0        2.574753   -0.595419    0.919050
      4          8           0        0.707946   -1.228077   -0.593838
      5          6           0        0.086599   -0.353886    0.346185
      6          6           0       -1.071990    0.506071   -0.146952
      7          8           0       -1.200449    1.673265    0.664039
      8          6           0       -2.313487   -0.269632   -0.186504
      9          6           0       -3.332160   -0.907102   -0.156127
     10          1           0        2.148765    1.855881   -0.489109
     11          1           0        2.820566    0.608594   -1.551721
     12          1           0        1.148386    1.133440   -1.763606
     13          1           0        2.918238    0.243595    1.533620
     14          1           0        2.209564   -1.385799    1.579200
     15          1           0        3.438124   -0.982209    0.366816
     16          1           0       -0.106583   -0.804569    1.323279
     17          1           0       -0.844469    0.866336   -1.154053
     18          1           0       -1.685203    1.424089    1.458469
     19          1           0       -4.233363   -1.469412   -0.155004
 ---------------------------------------------------------------------
 Rotational constants (GHZ):      3.0354194      0.9972955      0.8917284
 Standard basis: 6-31G(2df,p) (6D, 7F)
 There are   329 symmetry adapted cartesian basis functions of A   symmetry.
 There are   302 symmetry adapted basis functions of A   symmetry.
   302 basis functions,   466 primitive gaussians,   329 cartesian basis functions
    34 alpha electrons       34 beta electrons
       nuclear repulsion energy       440.5140945539 Hartrees.
 NAtoms=   19 NActive=   19 NUniq=   19 SFac= 1.00D+00 NAtFMM=   60 NAOKFM=F Big=F
 Integral buffers will be    131072 words long.
 Raffenetti 2 integral format.
 Two-electron integral symmetry is turned on.
 One-electron integrals computed using PRISM.
 NBasis=   302 RedAO= T EigKep=  1.49D-04  NBF=   302
 NBsUse=   302 1.00D-06 EigRej= -1.00D+00 NBFU=   302
 Initial guess from the checkpoint file:  "/scratch/puck/g09_20a96e8b-c61c-4838-959e-f1c9b3e108e4/Gau-64279.chk"
 B after Tr=     0.000000    0.000000    0.000000
         Rot=    1.000000    0.000000    0.000000    0.000000 Ang=   0.00 deg.
 Requested convergence on RMS density matrix=1.00D-08 within 128 cycles.
 Requested convergence on MAX density matrix=1.00D-06.
 Requested convergence on             energy=1.00D-06.
 No special actions if energy rises.
 SCF Done:  E(RB3LYP) =  -423.125883444     A.U. after    1 cycles
            NFock=  1  Conv=0.30D-08     -V/T= 2.0074
 DoSCS=F DFT=T ScalE2(SS,OS)=  1.000000  1.000000
 Range of M.O.s used for correlation:     1   302
 NBasis=   302 NAE=    34 NBE=    34 NFC=     0 NFV=     0
 NROrb=    302 NOA=    34 NOB=    34 NVA=   268 NVB=   268

 **** Warning!!: The largest alpha MO coefficient is  0.18452195D+02

 Symmetrizing basis deriv contribution to polar:
 IMax=3 JMax=2 DiffMx= 0.00D+00
 G2DrvN: will do    20 centers at a time, making    1 passes.
 Calling FoFCou, ICntrl=  3107 FMM=F I1Cent=   0 AccDes= 0.00D+00.
 End of G2Drv F.D. properties file   721 does not exist.
[...]
 565061,0.50277712,-0.02674812,0.02526715,-0.00702688,-0.14563205,0.050
 62168,-0.00471151,-0.02473425,0.02290147,0.00128254,0.20810469,-0.0026
 8459,0.00807042,0.00047815,0.09517831,-0.08357996,-0.00334854,0.006288
 03,-0.00318771,-0.00022943,-0.08495591,0.34213123,-0.01602206,0.022106
 80,-0.00082202,-0.01637249,0.00198797,-0.06111282,0.02119610,-0.027031
 89,0.00765091,0.01014186,-0.04406968,0.11188126,-0.01480875,-0.0124819
 9,0.00187853,-0.21318653,-0.08879147,0.02874848,-0.01344862,-0.0089709
 4,0.00725430,-0.02218302,-0.01710572,0.00223899,0.44747925,-0.00059013
 ,-0.01046029,0.00334253,-0.14340158,-0.04669522,0.00949669,0.00498834,
 -0.00070438,-0.00068238,0.02724262,-0.22224191,0.02870283,0.18302989,0
 .47588492,-0.01199454,-0.02047266,0.00813006,0.03705642,0.00032317,-0.
 06029744,0.01574062,0.02708593,-0.00867551,-0.00902855,0.03380293,-0.0
 6913989,-0.00866652,0.05028137,0.54779945,0.00047230,-0.00040688,-0.00
 086323,-0.00603422,-0.00477921,0.02905480,-0.00097028,-0.00428966,-0.0
 0010742,0.00211066,0.00175002,-0.01308862,-0.08666559,-0.01041195,0.03
 404871,0.50490542,-0.00058421,0.00124548,0.00034187,0.00019139,-0.0073
 3938,-0.00131675,0.00071682,0.00213677,-0.00049025,-0.01339022,-0.0185
 1682,0.02863249,-0.01162862,-0.06076733,0.00526136,0.05847483,0.492732
 24,-0.00008654,0.00072767,0.00184786,0.00313583,0.00482732,-0.00004331
 ,-0.00121945,-0.00179757,-0.00045883,0.00153005,0.00505105,0.00277898,
 0.03323390,-0.00219702,-0.17698507,0.03952753,0.08194576,0.50033146,-0
 .00027697,0.00034402,0.00009708,0.00118509,0.00084624,-0.00246557,0.00
 005614,0.00045543,-0.00010594,0.00125755,-0.00258751,0.00300350,0.0054
 8248,-0.00157025,-0.00184572,-0.08784110,0.01704844,-0.02940591,0.2876
 9567,-0.00036821,-0.00008935,0.00001378,0.00281006,-0.00043185,-0.0020
 7672,-0.00019871,-0.00019415,-0.00024597,-0.00295202,-0.00146383,0.008
 32545,0.00904271,-0.02820438,0.00800647,0.04871553,-0.18514286,0.03987
 267,0.11556015,0.52051325,0.00033326,-0.00020231,-0.00081585,-0.002653
 97,-0.00025045,0.00283775,0.00024142,-0.00040318,0.00036568,0.00321963
 ,0.00399336,-0.00735722,-0.01107171,0.03559114,-0.00503212,-0.02699109
 ,0.01165052,-0.07680193,0.17988304,0.09193024,0.18156220,0.00012543,0.
 00027064,0.00028110,-0.00154224,-0.00003515,0.00122233,-0.00009675,-0.
 00012844,0.00004004,0.00092219,0.00132852,-0.00059417,-0.02351661,-0.0
 0883262,0.01325478,-0.25305150,-0.00596370,0.00581568,-0.03115648,0.02
 264319,-0.00655405,1.42912332,0.00032331,-0.00022142,0.00014679,-0.000
 84680,0.00153754,0.00148581,-0.00014014,-0.00078005,0.00003984,0.00164
 038,0.00077182,-0.00103484,-0.01004191,0.00091317,-0.00003699,-0.01488
 665,-0.06157683,-0.00543593,0.04222560,-0.01522521,0.00466389,0.029200
 46,0.09590387,-0.00037495,-0.00054116,-0.00042882,0.00001968,-0.001569
 76,-0.00507850,0.00048810,0.00160926,0.00014011,-0.00168845,0.00106396
 ,0.00136327,0.03630647,0.00244318,-0.00203745,0.00386595,-0.00255144,-
 0.06868124,-0.01165694,0.00296118,0.00324068,-0.00491258,-0.00339503,0
 .09342268,0.00002506,-0.00022264,0.00000079,0.00136888,0.00153927,0.00
 077946,-0.00011433,-0.00071401,-0.00009489,0.00041348,-0.00190373,0.00
 066622,-0.00223526,0.00202673,-0.00583542,0.00237578,-0.00611307,-0.00
 118221,0.00083540,0.00066367,0.00081722,-1.11395594,-0.02994423,-0.001
 53428,1.54086255,-0.00005890,0.00002818,-0.00001183,0.00007093,-0.0001
 1455,0.00008807,-0.00004631,0.00003002,-0.00003389,-0.00021441,0.00049
 478,-0.00007935,0.00020892,0.00002227,-0.00019679,0.00143153,0.0017077
 0,0.00024974,-0.00004802,0.00119003,-0.00005569,-0.03305710,-0.0284576
 1,0.00084950,0.03855134,0.04646288,0.00006849,0.00007266,-0.00006104,0
 .00029066,0.00020805,0.00040534,-0.00001930,-0.00013341,0.00001065,0.0
 0007319,-0.00058010,0.00018214,-0.00093080,0.00086851,-0.00111132,0.00
 012404,-0.00039343,0.00451594,0.00001166,-0.00003154,0.00077008,-0.002
 16585,0.00088152,-0.02638957,-0.00113256,-0.00145211,0.04054948,-0.151
 48625,0.12517199,-0.03256779,-0.01374738,0.01593088,-0.00132997,0.0002
 1110,-0.00001341,0.00053983,-0.00359084,-0.00200006,-0.00471954,0.0003
 3667,0.00177956,0.00067897,-0.00048637,0.00053700,-0.00025925,0.000412
 97,-0.00046828,0.00024196,0.00005192,-0.00012007,0.00007323,-0.0000138
 1,-0.00002543,0.00001887,0.16541205,0.12616104,-0.19325773,0.03711521,
 -0.00538958,0.00718118,-0.00118676,0.00043930,-0.00033830,0.00002458,-
 0.00372097,0.00080269,-0.00210075,0.00078748,0.00089769,0.00102089,-0.
 00001225,-0.00003040,-0.00008188,0.00006497,-0.00002680,-0.00003374,-0
 .00002262,0.00002661,0.00002628,0.00003114,0.00000674,-0.00000732,-0.1
 3808093,0.20808625,-0.03235717,0.03684096,-0.05784166,-0.01311465,0.01
 943410,-0.00285090,0.00058403,-0.00007900,0.00039100,-0.00415877,-0.00
 118863,-0.00297103,0.00025398,0.00051171,0.00108970,-0.00009434,-0.000
 18839,-0.00052332,-0.00000396,-0.00008429,0.00006308,0.00000323,0.0000
 6086,0.00009207,-0.00002199,-0.00000882,0.00000485,0.03801523,-0.04041
 670,0.05863436,-0.11755653,-0.11019766,0.03882023,-0.01500461,-0.01867
 666,0.00527396,0.00032450,0.00059556,0.00110463,0.00146720,0.00161139,
 0.00062874,-0.00014844,-0.00210403,-0.00329367,0.00022751,0.00050425,-
 0.00045187,0.00007736,-0.00029297,0.00006688,0.00002824,-0.00007701,0.
 00005681,-0.00015640,-0.00000031,0.00001403,0.01198359,0.01714916,-0.0
 0594341,0.12760927,-0.11030944,-0.21484738,0.05825916,-0.00592571,-0.0
 0807991,0.00202954,0.00023847,0.00021083,0.00065733,-0.00098239,0.0016
 9306,-0.00040028,0.00172139,0.00016147,-0.00149081,0.00052855,0.000031
 02,-0.00032658,-0.00014743,-0.00004530,0.00014860,-0.00004917,0.000002
 63,0.00017059,-0.00006083,-0.00000094,0.00000182,-0.01324201,-0.018847
 09,0.00675743,0.12365296,0.23245952,0.03937231,0.05939705,-0.06702126,
 -0.01544907,-0.02268789,0.00638186,-0.00043229,-0.00052128,0.00139694,
 0.00184287,0.00142429,0.00123275,-0.00145614,-0.00185886,-0.00444412,0
 .00029847,-0.00011028,-0.00084855,0.00008938,-0.00003010,0.00031457,-0
 .00000318,0.00006237,0.00028078,0.00005441,-0.00000042,0.00002233,0.00
 355140,0.00410544,-0.00257338,-0.03967700,-0.06307127,0.07188179,-0.11
 566387,0.03058674,0.11558549,0.01099387,-0.00434843,-0.01867580,-0.002
 78574,-0.00087234,-0.00251230,0.00193091,0.00059465,0.00120098,0.00113
 791,-0.00041561,0.00034476,-0.00179231,-0.00122661,-0.00006128,0.00006
 368,0.00039918,-0.00017887,0.00013458,0.00004086,-0.00001113,-0.000002
 65,0.00002683,-0.00000674,-0.00979967,0.00256455,0.01667818,-0.0086961
 2,0.00478625,0.01306938,0.12572639,0.02876930,-0.05893459,-0.05133434,
 0.00634476,-0.00409283,-0.00645806,-0.00148155,-0.00004327,-0.00063748
 ,-0.00036283,0.00036537,0.00110226,0.00062910,0.00045147,-0.00066059,-
 0.00064970,-0.00078949,-0.00079397,0.00011736,0.00015903,0.00026507,0.
 00002981,0.00020990,0.00026295,0.00019412,-0.00000279,0.00000812,0.011
 24942,-0.00495086,-0.02077481,-0.01324298,0.00655359,0.02235282,-0.030
 23269,0.06022909,0.11183997,-0.05128109,-0.23631860,0.01420521,-0.0048
 9111,-0.02054707,-0.00486109,-0.00122724,-0.00241342,0.00074141,0.0015
 1456,0.00274993,0.00107748,-0.00085548,-0.00034396,0.00060170,0.000051
 65,-0.00068637,0.00003135,0.00028251,0.00021410,-0.00013719,0.00017169
 ,0.00041497,0.00020164,0.00002842,0.00000320,-0.00392308,0.00155608,0.
 00679652,0.00410508,-0.00204645,-0.00712235,-0.12475103,0.05646550,0.2
 5663195,0.00008025,-0.00007178,-0.00058332,-0.01089660,0.01006171,-0.0
 0307031,-0.16648326,0.13023740,-0.01034242,-0.00140117,-0.00003827,0.0
 0468893,-0.00002422,0.00108375,-0.00101794,-0.00001166,0.00025618,-0.0
 0021245,0.00015492,-0.00038240,0.00007746,0.00003192,-0.00003152,0.000
 01720,-0.00002189,-0.00002894,0.00001701,0.00054813,-0.00013872,0.0001
 5661,0.00008630,-0.00005689,0.00004315,0.00001694,-0.00026174,0.000067
 21,0.18078609,0.00006370,0.00001392,0.00028027,0.00180068,-0.00334903,
 0.00126626,0.13047190,-0.18607294,0.01022308,-0.00082669,0.00145842,-0
 .00040171,0.00056405,0.00003693,-0.00072369,0.00014137,0.00001318,0.00
 016683,-0.00000941,0.00012144,-0.00009424,-0.00001836,0.00001891,-0.00
 007483,0.00004783,0.00000698,-0.00000451,-0.00021219,0.00037444,-0.000
 42706,0.00012868,-0.00012928,0.00000558,-0.00019560,0.00015823,-0.0000
 4328,-0.14464328,0.20034547,-0.00067106,0.00042946,0.00055998,0.018046
 07,-0.02159492,0.00522356,-0.01130427,0.01098609,-0.04939563,0.0055964
 4,-0.00138972,-0.00576860,-0.00047749,-0.00071135,0.00167132,-0.000104
 32,-0.00002951,0.00020474,-0.00008227,0.00024131,-0.00015412,-0.000033
 35,-0.00003239,0.00001756,-0.00000340,0.00001821,-0.00001114,-0.000317
 91,-0.00013970,-0.00082079,-0.00004808,-0.00003116,-0.00008960,0.00001
 735,0.00033936,0.00033455,0.00961878,-0.01173397,0.05017414,-0.0010660
 3,0.00038787,0.00223434,0.00856664,0.00385350,0.01185484,-0.17111619,-
 0.04408222,-0.12873541,0.00162596,-0.00032610,-0.00093702,0.00097287,-
 0.00000737,0.00130938,0.00003198,-0.00002557,0.00000697,-0.00000287,0.
 00009723,-0.00003589,-0.00001227,0.00002181,-0.00003788,0.00003547,0.0
 0001359,-0.00000025,0.00003333,-0.00011694,0.00015240,-0.00003117,0.00
 019077,0.00009391,0.00054036,0.00017761,0.00072000,-0.01365812,-0.0065
 7105,-0.01389429,0.18353443,0.00067492,0.00006926,-0.00083170,-0.00248
 760,-0.00297289,-0.00274222,-0.04360743,-0.06087580,-0.04389395,-0.000
 41737,-0.00060744,0.00055173,0.00013674,0.00115041,0.00069690,-0.00009
 071,-0.00002417,-0.00007260,0.00002304,-0.00002346,-0.00001544,-0.0000
 0994,0.00001775,-0.00001486,0.00003794,-0.00001314,0.00000569,-0.00025
 989,0.00012759,-0.00021862,0.00033679,0.00035539,0.00023081,-0.0002394
 7,0.00050957,-0.00030437,0.01576568,0.00645125,0.01748600,0.04848544,0
 .06186256,0.00466980,-0.00072262,-0.00422341,-0.02191596,-0.00631178,-
 0.02220798,-0.12408129,-0.04396902,-0.17542983,-0.00024476,0.00009483,
 0.00340409,-0.00230882,-0.00014409,-0.00026105,0.00009589,0.00047131,0
 .00016164,0.00005449,-0.00001569,0.00006382,0.00006958,0.00004849,-0.0
 0000061,0.00000828,-0.00000264,0.00002194,0.00012211,0.00018333,0.0003
 2459,0.00011479,-0.00002629,0.00028106,-0.00117582,-0.00059321,-0.0013
 8077,0.00003296,0.00021268,-0.00074144,0.13674461,0.04843060,0.1928670
 1,-0.00000783,0.00036303,-0.00090668,-0.01017388,-0.01319865,0.0054243
 6,-0.10153945,-0.10231060,0.03169689,0.00143808,0.00087404,-0.00146169
 ,0.00000662,-0.00102262,0.00378242,-0.00081375,0.00088173,-0.00051808,
 0.00010747,-0.00014147,-0.00005347,-0.00002344,-0.00012482,0.00035434,
 -0.00016631,-0.00000351,-0.00001105,0.00010192,0.00008539,-0.00010327,
 0.00057020,0.00016072,0.00011656,-0.00006289,0.00014474,-0.00009074,0.
 01110776,0.01922616,-0.00653381,-0.00967638,-0.01821394,0.00675120,0.1
 0857240,0.00025016,0.00022628,0.00002110,0.00201784,0.00413396,-0.0016
 0915,-0.10255656,-0.23244242,0.05998055,-0.00180448,0.00131211,0.00094
 914,0.00176027,0.00053785,-0.00133355,0.00040716,0.00014956,-0.0002116
 8,-0.00008943,-0.00001302,0.00012567,-0.00002606,0.00006717,-0.0000162
 0,0.00000996,-0.00000563,0.00002004,-0.00005328,-0.00005562,-0.0000261
 0,0.00019890,0.00029642,0.00027360,0.00013829,0.00022946,0.00004341,-0
 .01165212,-0.01949673,0.00579764,-0.00196648,-0.00588159,0.00182012,0.
 11310002,0.25093359,0.00070260,0.00100205,0.00139004,0.01632748,0.0272
 6162,-0.01050934,0.03190679,0.05909591,-0.06660208,-0.00150788,-0.0017
 3489,0.00257998,-0.00065986,-0.00037854,-0.00552343,0.00133581,-0.0005
 1514,0.00106387,-0.00008333,0.00017582,-0.00004946,0.00011096,0.000259
 81,-0.00058069,0.00024058,0.00000642,0.00002367,0.00001253,-0.00006839
 ,-0.00001376,-0.00060856,-0.00074737,-0.00036830,-0.00007947,-0.000329
 95,0.00040118,0.00042165,0.00138964,-0.00117819,-0.00963175,-0.0196333
 6,0.00673280,-0.03857839,-0.06586969,0.07252911,-0.00063742,-0.0034991
 0,0.00287536,-0.00849787,-0.01465308,-0.02343250,0.00086167,0.00116824
 ,-0.00197717,0.00475665,0.00310474,0.01054329,-0.08426337,-0.05760005,
 -0.07369558,0.00346225,0.00503132,0.01075383,-0.00048781,0.00023840,-0
 .00021141,0.00192126,0.00067002,0.00038178,-0.00022337,-0.00007686,-0.
 00034652,-0.00003574,0.00018903,0.00003806,-0.00101562,-0.00042314,-0.
 00135413,0.00014988,-0.00003353,-0.00011640,-0.00023888,0.00003909,0.0
 0016231,0.00017973,-0.00012546,0.00115487,0.00054676,0.00022805,0.0001
 2371,0.08350843,0.00044604,0.00142468,-0.00043841,0.00307904,-0.005988
 65,0.00295713,-0.00067927,0.00014808,-0.00089117,-0.01890465,-0.029446
 51,-0.01688146,-0.05093978,-0.11518453,-0.10592731,0.00087699,0.004939
 97,0.00715145,-0.00025483,0.00253477,-0.00199575,0.00051426,0.00030464
 ,-0.00017636,0.00007136,-0.00004816,0.00006665,-0.00027279,0.00002524,
 -0.00019196,0.00037055,0.00014715,0.00021233,-0.00010325,-0.00013527,0
 .00014053,-0.00011743,0.00008114,0.00039756,-0.00014815,-0.00015106,0.
 00055798,0.00012267,0.00000278,0.00022073,0.06648737,0.14167078,0.0004
 1531,0.00022010,-0.00012559,0.00313864,0.00309574,0.00018845,0.0009040
 7,0.00058899,0.00071996,0.00459794,0.00437070,0.01152082,-0.07382968,-
 0.10775957,-0.20196240,-0.01025225,-0.01845634,-0.02124854,0.00002861,
 0.00175048,0.00285804,-0.00234245,0.00015877,0.00076167,0.00115683,0.0
 0016201,0.00048905,0.00004593,-0.00005536,0.00004102,0.00004064,0.0000
 2027,0.00025816,0.00007740,0.00018902,0.00011916,0.00005408,-0.0000648
 5,-0.00003006,0.00011461,0.00026682,0.00020407,0.00006169,-0.00000282,
 0.00006246,0.07337435,0.11313190,0.21127583,-0.00129173,-0.00010865,0.
 00092631,0.00066302,0.00062443,0.00012058,-0.00023419,0.00001946,-0.00
 015502,0.00011314,0.00018898,-0.00082631,0.00553287,0.00644255,0.00903
 691,-0.08185199,-0.06489338,-0.06763293,0.00703681,0.01194840,0.007303
 98,-0.01996539,-0.02041727,-0.02261309,-0.00172636,0.00033760,0.000705
 15,-0.00003795,0.00003170,-0.00004137,0.00016637,-0.00010216,-0.000175
 88,-0.00183787,-0.00142036,0.00030998,-0.00001601,0.00001906,0.0000250
 1,0.00004286,0.00002146,-0.00014020,-0.00001878,-0.00003127,-0.0000071
 7,-0.00028023,-0.00038326,0.00233431,0.09410350,-0.00106467,-0.0007400
 2,0.00041510,-0.00036805,-0.00001475,-0.00019765,-0.00005915,0.0001630
 9,-0.00005159,0.00054127,0.00122493,-0.00060849,0.00223888,0.00488293,
 0.00441446,-0.05556577,-0.14124589,-0.10992917,-0.00868114,-0.03600469
 ,-0.01570366,-0.00448059,0.00254838,0.00026027,0.00149051,0.00032562,-
 0.00024840,0.00010072,0.00000939,-0.00006177,0.00001049,-0.00002638,0.
 00016135,-0.00150207,0.00007651,0.00037031,-0.00003231,-0.00000282,-0.
 00001406,0.00004166,0.00000278,-0.00005873,-0.00000143,-0.00000811,-0.
 00004895,-0.00070938,-0.00023406,0.00162763,0.06375983,0.17390710,0.00
 004111,-0.00029270,-0.00049629,-0.00044934,-0.00170347,-0.00005489,0.0
 0007695,0.00007369,0.00000536,-0.00074718,0.00081609,0.00338209,-0.010
 40068,-0.01950071,-0.02548878,-0.06313532,-0.11628214,-0.17243572,0.00
 387474,0.00885297,0.00970802,-0.00221050,0.00203831,0.00320564,0.00158
 686,-0.00028257,-0.00002877,-0.00015580,0.00005037,0.00013669,-0.00018
 890,0.00013597,0.00047516,0.00045557,0.00062191,0.00123356,-0.00001978
 ,0.00000327,0.00001398,0.00004994,0.00002474,0.00026825,0.00011709,0.0
 0009289,0.00002209,0.00221481,0.00189820,-0.00420755,0.06918446,0.1204
 6167,0.18390428,-0.00000708,0.00004429,0.00001759,-0.00026042,-0.00020
 738,-0.00002390,0.00006222,-0.00003474,0.00002653,0.00008949,0.0005987
 8,-0.00023349,-0.00054499,-0.00050378,-0.00013900,0.00559105,0.0201729
 2,0.00696641,-0.18497641,-0.20726389,-0.14439685,0.00387825,0.00221788
 ,0.00117395,-0.00103674,-0.00067808,-0.00012844,0.00009965,-0.00001437
 ,-0.00005424,0.00003439,-0.00000196,0.00002105,-0.00004391,0.00005654,
 0.00000325,-0.00007384,-0.00001483,0.00001290,0.00000722,-0.00002559,0
 .00004178,0.00000349,0.00005548,0.00000523,0.00030973,-0.00017093,0.00
 008283,-0.00051744,0.00436481,-0.00028215,0.17750349,0.00006685,0.0000
 5120,-0.00021683,-0.00037495,-0.00024569,0.00007399,0.00002523,0.00009
 805,0.00006686,0.00038478,0.00083740,0.00015947,-0.00058133,-0.0006768
 1,-0.00015529,-0.02202051,-0.03361032,-0.01965124,-0.16164765,-0.25837
 147,-0.12951584,-0.00012036,0.00284655,-0.00076084,-0.00053671,0.00019
 291,0.00015608,-0.00003409,-0.00002502,0.00006188,0.00003107,0.0000662
 9,0.00005938,0.00000443,0.00001503,0.00004634,0.00004085,-0.00002557,-
 0.00001970,-0.00002012,-0.00000109,0.00002748,0.00005313,0.00001976,-0
 .00006877,-0.00001250,-0.00007559,0.00078061,0.00300411,-0.00465566,0.
 00314184,0.18156137,0.29367618,-0.00002184,-0.00011310,0.00002537,-0.0
 0004575,0.00010597,0.00005332,0.00001697,0.00003026,-0.00000427,0.0000
 3835,0.00001063,-0.00142693,0.00020827,0.00291388,0.00262887,0.0055853
 6,0.01163860,0.00125381,-0.14194245,-0.15989451,-0.11156883,-0.0004790
 7,0.00049123,0.00059605,-0.00046689,0.00012471,-0.00040229,-0.00001398
 ,0.00000715,0.00002799,-0.00001708,-0.00003019,-0.00003014,0.00001553,
 -0.00000197,-0.00004540,0.00005649,0.00001127,-0.00000990,-0.00001057,
 0.00003657,-0.00007168,-0.00002633,-0.00005499,-0.00001452,-0.00050129
 ,-0.00021808,-0.00089904,0.00058624,-0.00069594,0.00051053,0.13699874,
 0.14577062,0.10936736,0.00001784,0.00002815,-0.00001713,-0.00014669,-0
 .00008316,-0.00002866,0.00001998,0.00005266,0.00002366,0.00005946,0.00
 008443,-0.00005323,0.00007673,-0.00013346,0.00026396,0.00034184,0.0000
 1048,0.00005979,0.00037610,-0.00005057,-0.00003753,0.00710351,0.000290
 10,0.00009177,-0.42626356,-0.00640286,0.00341843,0.00000667,-0.0000073
 7,0.00001146,0.00003396,0.00002202,-0.00000523,-0.00000950,-0.00002737
 ,-0.00002475,0.00001333,-0.00001111,-0.00000863,-0.00000779,-0.0000046
 1,0.00000646,0.00002801,0.00001356,-0.00003093,-0.00001604,0.00000605,
 -0.00000288,0.00011938,-0.00008360,-0.00001188,-0.00011815,0.00017641,
 0.00001929,0.41836490,-0.00000650,0.00001328,-0.00000535,-0.00000199,-
 0.00007158,-0.00007971,0.00000919,0.00004623,0.00000312,-0.00006743,-0
 .00011806,0.00009033,0.00042232,-0.00000427,0.00010420,0.00078730,0.00
 608756,0.00050514,-0.00164957,0.00071785,-0.00009819,-0.00124276,0.001
 09219,-0.00054670,-0.00516864,-0.02182529,0.00056168,0.00001287,-0.000
 00601,-0.00000079,0.00000181,-0.00000110,-0.00000491,-0.00000573,-0.00
 000814,-0.00002198,0.00000983,-0.00000392,0.00000084,-0.00000551,0.000
 00407,-0.00000274,0.00000541,-0.00000581,-0.00001696,-0.00002314,-0.00
 001541,-0.00002409,0.00095878,-0.00020836,-0.00015031,-0.00015651,-0.0
 0011615,-0.00013213,0.00612026,0.01442291,0.00001585,0.00003305,0.0000
 4322,0.00007605,0.00014342,0.00028990,-0.00003252,-0.00009298,-0.00000
 442,0.00004969,-0.00007955,-0.00012771,-0.00139870,-0.00006383,-0.0000
 1686,0.00009832,0.00034010,0.00655457,0.00051824,-0.00003407,-0.000218
 48,-0.00136531,-0.00057422,-0.00033861,0.00475934,0.00059703,-0.018994
 53,-0.00001274,0.00000127,-0.00000702,0.00000277,-0.00001031,-0.000027
 70,0.00000780,-0.00002263,-0.00004118,-0.00000529,0.00000927,-0.000000
 35,0.00000205,-0.00000275,-0.00001250,-0.00002103,0.00000002,0.0000345
 8,0.00001263,-0.00001396,-0.00002551,0.00105903,-0.00009238,-0.0001536
 4,-0.00009220,0.00004396,0.00000971,-0.00367398,-0.00018144,0.01303653
 \\-0.00000225,-0.00000116,-0.00001242,0.00000916,-0.00000888,0.0000208
 6,-0.00000343,0.00000904,0.00000124,-0.00001026,-0.00001254,0.00000007
 ,0.00001039,0.00002299,-0.00001144,-0.00001479,0.00001422,0.00000373,0
 .00000982,-0.00001494,-0.00000634,0.00000660,-0.00000310,-0.00000170,0
 .00000024,0.00000007,0.00000217,0.00000034,-0.00000360,0.00000033,0.00
 000099,-0.00000147,0.00000117,0.00000345,-0.00000212,0.00000311,-0.000
 00279,0.00000209,-0.00000083,-0.00000103,0.00000423,-0.00000134,0.0000
 0178,0.00000230,-0.00000059,-0.00000516,-0.00000198,0.00000324,0.00000
 043,-0.00000490,-0.00000111,-0.00000291,0.00000007,-0.00000140,-0.0000
 0060,-0.00000032,0.00000126\\\@


 BULLDOZER: SOMEONE WHO SLEEPS THROUGH SPEECHES.
 Job cpu time:       0 days  0 hours 48 minutes 23.5 seconds.
 File lengths (MBytes):  RWF=    152 Int=      0 D2E=      0 Chk=      8 Scr=      1
 Normal termination of Gaussian 09 at Mon Jan 27 14:59:23 2020.
