 Entering Gaussian System, Link 0=/home/puck/opt/gaussian_09/g09
 Input=dsC7O2H10nsd_1482.com
 Output=dsC7O2H10nsd_1482.log
 Initial command:
 /home/puck/opt/gaussian_09/l1.exe "/scratch/puck/g09_815913a7-be19-4742-a1cb-fe009cb90eb2/Gau-56844.inp" -scrdir="/scratch/puck/g09_815913a7-be19-4742-a1cb-fe009cb90eb2/"
 Entering Link 1 = /home/puck/opt/gaussian_09/l1.exe PID=     56845.
  
 Copyright (c) 1988,1990,1992,1993,1995,1998,2003,2009,2013,
            Gaussian, Inc.  All Rights Reserved.
  
 This is part of the Gaussian(R) 09 program.  It is based on
 the Gaussian(R) 03 system (copyright 2003, Gaussian, Inc.),
 the Gaussian(R) 98 system (copyright 1998, Gaussian, Inc.),
 the Gaussian(R) 94 system (copyright 1995, Gaussian, Inc.),
 the Gaussian 92(TM) system (copyright 1992, Gaussian, Inc.),
 the Gaussian 90(TM) system (copyright 1990, Gaussian, Inc.),
 the Gaussian 88(TM) system (copyright 1988, Gaussian, Inc.),
 the Gaussian 86(TM) system (copyright 1986, Carnegie Mellon
 University), and the Gaussian 82(TM) system (copyright 1983,
 Carnegie Mellon University). Gaussian is a federally registered
 trademark of Gaussian, Inc.
  
 This software contains proprietary and confidential information,
 including trade secrets, belonging to Gaussian, Inc.
  
 This software is provided under written license and may be
 used, copied, transmitted, or stored only in accord with that
 written license.
  
 The following legend is applicable only to US Government
 contracts under FAR:
  
                    RESTRICTED RIGHTS LEGEND
  
 Use, reproduction and disclosure by the US Government is
 subject to restrictions as set forth in subparagraphs (a)
 and (c) of the Commercial Computer Software - Restricted
 Rights clause in FAR 52.227-19.
  
 Gaussian, Inc.
 340 Quinnipiac St., Bldg. 40, Wallingford CT 06492
  
  
 ---------------------------------------------------------------
 Warning -- This program may not be used in any manner that
 competes with the business of Gaussian, Inc. or will provide
 assistance to any competitor of Gaussian, Inc.  The licensee
 of this program is prohibited from giving any competitor of
 Gaussian, Inc. access to this program.  By using this program,
 the user acknowledges that Gaussian, Inc. is engaged in the
 business of creating and licensing software in the field of
 computational chemistry and represents and warrants to the
 licensee that it is not a competitor of Gaussian, Inc. and that
 it will not use this program in any manner prohibited above.
 ---------------------------------------------------------------
  

 Cite this work as:
 Gaussian 09, Revision D.01,
 M. J. Frisch, G. W. Trucks, H. B. Schlegel, G. E. Scuseria, 
 M. A. Robb, J. R. Cheeseman, G. Scalmani, V. Barone, B. Mennucci, 
 G. A. Petersson, H. Nakatsuji, M. Caricato, X. Li, H. P. Hratchian, 
 A. F. Izmaylov, J. Bloino, G. Zheng, J. L. Sonnenberg, M. Hada, 
 M. Ehara, K. Toyota, R. Fukuda, J. Hasegawa, M. Ishida, T. Nakajima, 
 Y. Honda, O. Kitao, H. Nakai, T. Vreven, J. A. Montgomery, Jr., 
 J. E. Peralta, F. Ogliaro, M. Bearpark, J. J. Heyd, E. Brothers, 
 K. N. Kudin, V. N. Staroverov, T. Keith, R. Kobayashi, J. Normand, 
 K. Raghavachari, A. Rendell, J. C. Burant, S. S. Iyengar, J. Tomasi, 
 M. Cossi, N. Rega, J. M. Millam, M. Klene, J. E. Knox, J. B. Cross, 
 V. Bakken, C. Adamo, J. Jaramillo, R. Gomperts, R. E. Stratmann, 
 O. Yazyev, A. J. Austin, R. Cammi, C. Pomelli, J. W. Ochterski, 
 R. L. Martin, K. Morokuma, V. G. Zakrzewski, G. A. Voth, 
 P. Salvador, J. J. Dannenberg, S. Dapprich, A. D. Daniels, 
 O. Farkas, J. B. Foresman, J. V. Ortiz, J. Cioslowski, 
 and D. J. Fox, Gaussian, Inc., Wallingford CT, 2013.
 
 ******************************************
 Gaussian 09:  ES64L-G09RevD.01 24-Apr-2013
                27-Jan-2020 
 ******************************************
 -----------------------------
 # b3lyp 6-31G(2df,p) opt Freq
 -----------------------------
 1/14=-1,18=20,19=15,26=3,38=1/1,3;
 2/9=110,12=2,17=6,18=5,40=1/2;
 3/5=1,6=6,7=104,11=2,16=1,25=1,30=1,71=1,74=-5/1,2,3;
 4//1;
 5/5=2,38=5/2;
 6/7=2,8=2,9=2,10=2,28=1/1;
 7//1,2,3,16;
 1/14=-1,18=20,19=15,26=3/3(2);
 2/9=110/2;
 99//99;
 2/9=110/2;
 3/5=1,6=6,7=104,11=2,16=1,25=1,30=1,71=1,74=-5/1,2,3;
 4/5=5,16=3,69=1/1;
 5/5=2,38=5/2;
 7//1,2,3,16;
 1/14=-1,18=20,19=15,26=3/3(-5);
 2/9=110/2;
 6/7=2,8=2,9=2,10=2,19=2,28=1/1;
 99/9=1/99;
 -----
 titel
 -----
 Symbolic Z-matrix:
 Charge =  0 Multiplicity = 1
 C                    -0.93114  -0.03097  -2.37191 
 C                    -1.65631  -0.01947  -1.02401 
 C                    -3.16969  -0.08561  -1.21156 
 C                    -1.07075   1.06534  -0.02143 
 C                    -1.83278   0.73107   1.26823 
 O                    -1.79927  -0.72575   1.23208 
 C                    -1.04461  -0.99908   0.0388 
 C                     0.0851    0.04842   0.15813 
 O                     1.2734    0.08042   0.24723 
 H                    -1.1771   -0.93903  -2.93239 
 H                    -1.24089   0.82687  -2.97841 
 H                     0.15717   0.01396  -2.26896 
 H                    -3.69349  -0.28107  -0.27504 
 H                    -3.55085   0.84761  -1.64034 
 H                    -3.42412  -0.8932   -1.90609 
 H                    -0.91748   2.10916  -0.28717 
 H                    -1.32726   1.09481   2.16998 
 H                    -2.87137   1.07713   1.27845 
 H                    -0.91707  -2.07003  -0.09977 
 

 GradGradGradGradGradGradGradGradGradGradGradGradGradGradGradGradGradGrad
 Berny optimization.
 Initialization pass.
                           ----------------------------
                           !    Initial Parameters    !
                           ! (Angstroms and Degrees)  !
 --------------------------                            --------------------------
 ! Name  Definition              Value          Derivative Info.                !
 --------------------------------------------------------------------------------
 ! R1    R(1,2)                  1.5306         estimate D2E/DX2                !
 ! R2    R(1,10)                 1.0951         estimate D2E/DX2                !
 ! R3    R(1,11)                 1.0953         estimate D2E/DX2                !
 ! R4    R(1,12)                 1.0941         estimate D2E/DX2                !
 ! R5    R(2,3)                  1.5264         estimate D2E/DX2                !
 ! R6    R(2,4)                  1.589          estimate D2E/DX2                !
 ! R7    R(2,7)                  1.5695         estimate D2E/DX2                !
 ! R8    R(3,13)                 1.0907         estimate D2E/DX2                !
 ! R9    R(3,14)                 1.0955         estimate D2E/DX2                !
 ! R10   R(3,15)                 1.0951         estimate D2E/DX2                !
 ! R11   R(4,5)                  1.5348         estimate D2E/DX2                !
 ! R12   R(4,8)                  1.5499         estimate D2E/DX2                !
 ! R13   R(4,16)                 1.088          estimate D2E/DX2                !
 ! R14   R(5,6)                  1.4577         estimate D2E/DX2                !
 ! R15   R(5,17)                 1.0959         estimate D2E/DX2                !
 ! R16   R(5,18)                 1.0948         estimate D2E/DX2                !
 ! R17   R(6,7)                  1.4381         estimate D2E/DX2                !
 ! R18   R(7,8)                  1.5452         estimate D2E/DX2                !
 ! R19   R(7,19)                 1.0874         estimate D2E/DX2                !
 ! R20   R(8,9)                  1.1921         estimate D2E/DX2                !
 ! A1    A(2,1,10)             110.5201         estimate D2E/DX2                !
 ! A2    A(2,1,11)             110.3499         estimate D2E/DX2                !
 ! A3    A(2,1,12)             112.8366         estimate D2E/DX2                !
 ! A4    A(10,1,11)            107.6089         estimate D2E/DX2                !
 ! A5    A(10,1,12)            107.7962         estimate D2E/DX2                !
 ! A6    A(11,1,12)            107.5318         estimate D2E/DX2                !
 ! A7    A(1,2,3)              111.1744         estimate D2E/DX2                !
 ! A8    A(1,2,4)              112.7165         estimate D2E/DX2                !
 ! A9    A(1,2,7)              114.0147         estimate D2E/DX2                !
 ! A10   A(3,2,4)              118.1958         estimate D2E/DX2                !
 ! A11   A(3,2,7)              116.2684         estimate D2E/DX2                !
 ! A12   A(4,2,7)               81.6757         estimate D2E/DX2                !
 ! A13   A(2,3,13)             112.2352         estimate D2E/DX2                !
 ! A14   A(2,3,14)             110.8646         estimate D2E/DX2                !
 ! A15   A(2,3,15)             109.8909         estimate D2E/DX2                !
 ! A16   A(13,3,14)            108.7627         estimate D2E/DX2                !
 ! A17   A(13,3,15)            107.5065         estimate D2E/DX2                !
 ! A18   A(14,3,15)            107.4067         estimate D2E/DX2                !
 ! A19   A(2,4,5)              101.4508         estimate D2E/DX2                !
 ! A20   A(2,4,8)               84.2601         estimate D2E/DX2                !
 ! A21   A(2,4,16)             123.5595         estimate D2E/DX2                !
 ! A22   A(5,4,8)               97.4708         estimate D2E/DX2                !
 ! A23   A(5,4,16)             118.9558         estimate D2E/DX2                !
 ! A24   A(8,4,16)             123.5538         estimate D2E/DX2                !
 ! A25   A(4,5,6)              100.6848         estimate D2E/DX2                !
 ! A26   A(4,5,17)             112.9604         estimate D2E/DX2                !
 ! A27   A(4,5,18)             114.2059         estimate D2E/DX2                !
 ! A28   A(6,5,17)             109.9697         estimate D2E/DX2                !
 ! A29   A(6,5,18)             109.7525         estimate D2E/DX2                !
 ! A30   A(17,5,18)            108.9665         estimate D2E/DX2                !
 ! A31   A(5,6,7)              102.8616         estimate D2E/DX2                !
 ! A32   A(2,7,6)              103.8117         estimate D2E/DX2                !
 ! A33   A(2,7,8)               85.0736         estimate D2E/DX2                !
 ! A34   A(2,7,19)             125.039          estimate D2E/DX2                !
 ! A35   A(6,7,8)              100.9956         estimate D2E/DX2                !
 ! A36   A(6,7,19)             110.761          estimate D2E/DX2                !
 ! A37   A(8,7,19)             126.281          estimate D2E/DX2                !
 ! A38   A(4,8,7)               83.7204         estimate D2E/DX2                !
 ! A39   A(4,8,9)              137.2583         estimate D2E/DX2                !
 ! A40   A(7,8,9)              138.8295         estimate D2E/DX2                !
 ! D1    D(10,1,2,3)           -59.1276         estimate D2E/DX2                !
 ! D2    D(10,1,2,4)           165.5175         estimate D2E/DX2                !
 ! D3    D(10,1,2,7)            74.6752         estimate D2E/DX2                !
 ! D4    D(11,1,2,3)            59.7761         estimate D2E/DX2                !
 ! D5    D(11,1,2,4)           -75.5788         estimate D2E/DX2                !
 ! D6    D(11,1,2,7)          -166.4211         estimate D2E/DX2                !
 ! D7    D(12,1,2,3)          -179.9054         estimate D2E/DX2                !
 ! D8    D(12,1,2,4)            44.7397         estimate D2E/DX2                !
 ! D9    D(12,1,2,7)           -46.1026         estimate D2E/DX2                !
 ! D10   D(1,2,3,13)           168.4347         estimate D2E/DX2                !
 ! D11   D(1,2,3,14)           -69.7154         estimate D2E/DX2                !
 ! D12   D(1,2,3,15)            48.8631         estimate D2E/DX2                !
 ! D13   D(4,2,3,13)           -58.9126         estimate D2E/DX2                !
 ! D14   D(4,2,3,14)            62.9372         estimate D2E/DX2                !
 ! D15   D(4,2,3,15)          -178.4842         estimate D2E/DX2                !
 ! D16   D(7,2,3,13)            35.7567         estimate D2E/DX2                !
 ! D17   D(7,2,3,14)           157.6066         estimate D2E/DX2                !
 ! D18   D(7,2,3,15)           -83.8149         estimate D2E/DX2                !
 ! D19   D(1,2,4,5)           -172.7715         estimate D2E/DX2                !
 ! D20   D(1,2,4,8)            -76.285          estimate D2E/DX2                !
 ! D21   D(1,2,4,16)            50.5807         estimate D2E/DX2                !
 ! D22   D(3,2,4,5)             55.2584         estimate D2E/DX2                !
 ! D23   D(3,2,4,8)            151.7449         estimate D2E/DX2                !
 ! D24   D(3,2,4,16)           -81.3893         estimate D2E/DX2                !
 ! D25   D(7,2,4,5)            -60.1502         estimate D2E/DX2                !
 ! D26   D(7,2,4,8)             36.3363         estimate D2E/DX2                !
 ! D27   D(7,2,4,16)           163.2021         estimate D2E/DX2                !
 ! D28   D(1,2,7,6)            174.9527         estimate D2E/DX2                !
 ! D29   D(1,2,7,8)             74.8187         estimate D2E/DX2                !
 ! D30   D(1,2,7,19)           -56.8614         estimate D2E/DX2                !
 ! D31   D(3,2,7,6)            -53.6813         estimate D2E/DX2                !
 ! D32   D(3,2,7,8)           -153.8152         estimate D2E/DX2                !
 ! D33   D(3,2,7,19)            74.5046         estimate D2E/DX2                !
 ! D34   D(4,2,7,6)             63.7248         estimate D2E/DX2                !
 ! D35   D(4,2,7,8)            -36.4091         estimate D2E/DX2                !
 ! D36   D(4,2,7,19)          -168.0892         estimate D2E/DX2                !
 ! D37   D(2,4,5,6)             41.0509         estimate D2E/DX2                !
 ! D38   D(2,4,5,17)           158.2696         estimate D2E/DX2                !
 ! D39   D(2,4,5,18)           -76.4584         estimate D2E/DX2                !
 ! D40   D(8,4,5,6)            -44.5699         estimate D2E/DX2                !
 ! D41   D(8,4,5,17)            72.6487         estimate D2E/DX2                !
 ! D42   D(8,4,5,18)          -162.0793         estimate D2E/DX2                !
 ! D43   D(16,4,5,6)          -179.7763         estimate D2E/DX2                !
 ! D44   D(16,4,5,17)          -62.5576         estimate D2E/DX2                !
 ! D45   D(16,4,5,18)           62.7144         estimate D2E/DX2                !
 ! D46   D(2,4,8,7)            -36.8049         estimate D2E/DX2                !
 ! D47   D(2,4,8,9)            138.5684         estimate D2E/DX2                !
 ! D48   D(5,4,8,7)             64.0343         estimate D2E/DX2                !
 ! D49   D(5,4,8,9)           -120.5924         estimate D2E/DX2                !
 ! D50   D(16,4,8,7)          -163.6757         estimate D2E/DX2                !
 ! D51   D(16,4,8,9)            11.6976         estimate D2E/DX2                !
 ! D52   D(4,5,6,7)              1.5733         estimate D2E/DX2                !
 ! D53   D(17,5,6,7)          -117.8287         estimate D2E/DX2                !
 ! D54   D(18,5,6,7)           122.3096         estimate D2E/DX2                !
 ! D55   D(5,6,7,2)            -45.0289         estimate D2E/DX2                !
 ! D56   D(5,6,7,8)             42.5456         estimate D2E/DX2                !
 ! D57   D(5,6,7,19)           178.4623         estimate D2E/DX2                !
 ! D58   D(2,7,8,4)             37.2805         estimate D2E/DX2                !
 ! D59   D(2,7,8,9)           -137.9492         estimate D2E/DX2                !
 ! D60   D(6,7,8,4)            -65.8606         estimate D2E/DX2                !
 ! D61   D(6,7,8,9)            118.9097         estimate D2E/DX2                !
 ! D62   D(19,7,8,4)           167.9416         estimate D2E/DX2                !
 ! D63   D(19,7,8,9)            -7.288          estimate D2E/DX2                !
 --------------------------------------------------------------------------------
 Trust Radius=3.00D-01 FncErr=1.00D-07 GrdErr=1.00D-06
 Number of steps in this run=    114 maximum allowed number of steps=    114.
 GradGradGradGradGradGradGradGradGradGradGradGradGradGradGradGradGradGrad

                          Input orientation:                          
 ---------------------------------------------------------------------
 Center     Atomic      Atomic             Coordinates (Angstroms)
 Number     Number       Type             X           Y           Z
 ---------------------------------------------------------------------
      1          6           0       -0.931137   -0.030975   -2.371906
      2          6           0       -1.656311   -0.019465   -1.024013
      3          6           0       -3.169688   -0.085608   -1.211565
      4          6           0       -1.070747    1.065339   -0.021432
      5          6           0       -1.832779    0.731075    1.268233
      6          8           0       -1.799266   -0.725754    1.232076
      7          6           0       -1.044605   -0.999078    0.038797
      8          6           0        0.085098    0.048421    0.158125
      9          8           0        1.273404    0.080424    0.247235
     10          1           0       -1.177095   -0.939035   -2.932386
     11          1           0       -1.240889    0.826875   -2.978415
     12          1           0        0.157167    0.013964   -2.268961
     13          1           0       -3.693494   -0.281072   -0.275038
     14          1           0       -3.550849    0.847609   -1.640342
     15          1           0       -3.424118   -0.893197   -1.906088
     16          1           0       -0.917483    2.109161   -0.287173
     17          1           0       -1.327260    1.094814    2.169977
     18          1           0       -2.871370    1.077130    1.278449
     19          1           0       -0.917074   -2.070033   -0.099771
 ---------------------------------------------------------------------
                    Distance matrix (angstroms):
                    1          2          3          4          5
     1  C    0.000000
     2  C    1.530628   0.000000
     3  C    2.522000   1.526388   0.000000
     4  C    2.597330   1.588980   2.673322   0.000000
     5  C    3.826785   2.418438   2.933205   1.534816   0.000000
     6  O    3.771611   2.368379   2.873886   2.304352   1.457663
     7  C    2.600305   1.569519   2.629412   2.065461   2.264102
     8  C    2.727654   2.105841   3.533786   1.549948   2.318751
     9  O    3.425246   3.195196   4.679394   2.556811   3.333790
    10  H    1.095083   2.171899   2.767668   3.535885   4.567755
    11  H    1.095310   2.169920   2.770316   2.971458   4.288768
    12  H    1.094085   2.199935   3.492272   2.768492   4.121392
    13  H    3.477070   2.186211   1.090716   2.959045   2.620761
    14  H    2.858318   2.172775   1.095458   2.969711   3.380111
    15  H    2.678687   2.160232   1.095124   3.595295   3.904732
    16  H    2.987721   2.370622   3.277794   1.087967   2.270721
    17  H    4.696063   3.398745   4.027749   2.206567   1.095900
    18  H    4.279894   2.824929   2.764258   2.220828   1.094774
    19  H    3.052958   2.367598   3.201296   3.140113   3.249024
                    6          7          8          9         10
     6  O    0.000000
     7  C    1.438100   0.000000
     8  C    2.302943   1.545226   0.000000
     9  O    3.325828   2.565528   1.192072   0.000000
    10  H    4.216080   2.974742   3.481302   4.141767   0.000000
    11  H    4.522242   3.532166   3.493153   4.157364   1.767661
    12  H    4.078244   2.792178   2.428401   2.753478   1.768784
    13  H    2.461145   2.762361   3.817585   5.007347   3.718424
    14  H    3.714067   3.537092   4.134404   5.236882   3.239781
    15  H    3.537832   3.075040   4.178782   5.258464   2.470728
    16  H    3.335026   3.127869   2.334546   3.033373   4.044261
    17  H    2.101646   3.001033   2.671561   3.389598   5.494834
    18  H    2.098082   3.030585   3.324767   4.385884   4.966550
    19  H    2.087861   1.087387   2.357691   3.089185   3.061124
                   11         12         13         14         15
    11  H    0.000000
    12  H    1.765986   0.000000
    13  H    3.814586   4.346305   0.000000
    14  H    2.669604   3.852208   1.777167   0.000000
    15  H    2.979097   3.712171   1.762834   1.765527   0.000000
    16  H    2.998605   3.077695   3.663277   3.218259   4.232996
    17  H    5.156083   4.803741   3.670181   4.418596   4.996329
    18  H    4.565303   4.783981   2.221244   3.005613   3.785366
    19  H    4.096769   3.194123   3.307508   4.221701   3.306508
                   16         17         18         19
    16  H    0.000000
    17  H    2.689684   0.000000
    18  H    2.708124   1.783090   0.000000
    19  H    4.183393   3.916154   3.952644   0.000000
 Stoichiometry    C7H10O2
 Framework group  C1[X(C7H10O2)]
 Deg. of freedom    51
 Full point group                 C1      NOp   1
 Largest Abelian subgroup         C1      NOp   1
 Largest concise Abelian subgroup C1      NOp   1
                         Standard orientation:                         
 ---------------------------------------------------------------------
 Center     Atomic      Atomic             Coordinates (Angstroms)
 Number     Number       Type             X           Y           Z
 ---------------------------------------------------------------------
      1          6           0       -1.051913    1.875834    0.055089
      2          6           0       -0.841997    0.360156    0.016609
      3          6           0       -2.176262   -0.380827   -0.006581
      4          6           0        0.271981   -0.131155    1.037651
      5          6           0        0.401637   -1.612503    0.657574
      6          8           0        0.339029   -1.525017   -0.796113
      7          6           0        0.231726   -0.109683   -1.027306
      8          6           0        1.262360    0.433720   -0.012304
      9          8           0        2.274823    1.062968   -0.011146
     10          1           0       -1.623165    2.206554   -0.818697
     11          1           0       -1.618913    2.159283    0.948326
     12          1           0       -0.111349    2.434510    0.070710
     13          1           0       -2.056045   -1.440336   -0.236040
     14          1           0       -2.692591   -0.284885    0.954786
     15          1           0       -2.828623    0.050328   -0.773281
     16          1           0        0.287963    0.146079    2.089581
     17          1           0        1.357810   -2.050707    0.965321
     18          1           0       -0.413807   -2.243411    1.025725
     19          1           0        0.202702    0.105725   -2.092748
 ---------------------------------------------------------------------
 Rotational constants (GHZ):      2.3399318      1.8886550      1.3511405
 Standard basis: 6-31G(2df,p) (6D, 7F)
 There are   329 symmetry adapted cartesian basis functions of A   symmetry.
 There are   302 symmetry adapted basis functions of A   symmetry.
   302 basis functions,   466 primitive gaussians,   329 cartesian basis functions
    34 alpha electrons       34 beta electrons
       nuclear repulsion energy       479.1323704194 Hartrees.
 NAtoms=   19 NActive=   19 NUniq=   19 SFac= 1.00D+00 NAtFMM=   60 NAOKFM=F Big=F
 Integral buffers will be    131072 words long.
 Raffenetti 2 integral format.
 Two-electron integral symmetry is turned on.
 One-electron integrals computed using PRISM.
 NBasis=   302 RedAO= T EigKep=  2.90D-04  NBF=   302
 NBsUse=   302 1.00D-06 EigRej= -1.00D+00 NBFU=   302
 ExpMin= 1.61D-01 ExpMax= 5.48D+03 ExpMxC= 8.25D+02 IAcc=1 IRadAn=         1 AccDes= 0.00D+00
 Harris functional with IExCor=  402 and IRadAn=       1 diagonalized for initial guess.
 HarFok:  IExCor=  402 AccDes= 0.00D+00 IRadAn=         1 IDoV= 1 UseB2=F ITyADJ=14
 ICtDFT=  3500011 ScaDFX=  1.000000  1.000000  1.000000  1.000000
 FoFCou: FMM=F IPFlag=           0 FMFlag=      100000 FMFlg1=           0
         NFxFlg=           0 DoJE=T BraDBF=F KetDBF=T FulRan=T
         wScrn=  0.000000 ICntrl=     500 IOpCl=  0 I1Cent=   200000004 NGrid=           0
         NMat0=    1 NMatS0=      1 NMatT0=    0 NMatD0=    1 NMtDS0=    0 NMtDT0=    0
 Petite list used in FoFCou.
 Requested convergence on RMS density matrix=1.00D-08 within 128 cycles.
 Requested convergence on MAX density matrix=1.00D-06.
 Requested convergence on             energy=1.00D-06.
 No special actions if energy rises.
 Integral accuracy reduced to 1.0D-05 until final iterations.
 Initial convergence to 1.0D-05 achieved.  Increase integral accuracy.
 SCF Done:  E(RB3LYP) =  -423.173787088     A.U. after   14 cycles
            NFock= 14  Conv=0.49D-08     -V/T= 2.0074

 **********************************************************************

            Population analysis using the SCF density.

 **********************************************************************

 Orbital symmetries:
       Occupied  (A) (A) (A) (A) (A) (A) (A) (A) (A) (A) (A) (A)
                 (A) (A) (A) (A) (A) (A) (A) (A) (A) (A) (A) (A)
                 (A) (A) (A) (A) (A) (A) (A) (A) (A) (A)
       Virtual   (A) (A) (A) (A) (A) (A) (A) (A) (A) (A) (A) (A)
                 (A) (A) (A) (A) (A) (A) (A) (A) (A) (A) (A) (A)
                 (A) (A) (A) (A) (A) (A) (A) (A) (A) (A) (A) (A)
                 (A) (A) (A) (A) (A) (A) (A) (A) (A) (A) (A) (A)
                 (A) (A) (A) (A) (A) (A) (A) (A) (A) (A) (A) (A)
                 (A) (A) (A) (A) (A) (A) (A) (A) (A) (A) (A) (A)
                 (A) (A) (A) (A) (A) (A) (A) (A) (A) (A) (A) (A)
                 (A) (A) (A) (A) (A) (A) (A) (A) (A) (A) (A) (A)
                 (A) (A) (A) (A) (A) (A) (A) (A) (A) (A) (A) (A)
                 (A) (A) (A) (A) (A) (A) (A) (A) (A) (A) (A) (A)
                 (A) (A) (A) (A) (A) (A) (A) (A) (A) (A) (A) (A)
                 (A) (A) (A) (A) (A) (A) (A) (A) (A) (A) (A) (A)
                 (A) (A) (A) (A) (A) (A) (A) (A) (A) (A) (A) (A)
                 (A) (A) (A) (A) (A) (A) (A) (A) (A) (A) (A) (A)
                 (A) (A) (A) (A) (A) (A) (A) (A) (A) (A) (A) (A)
                 (A) (A) (A) (A) (A) (A) (A) (A) (A) (A) (A) (A)
                 (A) (A) (A) (A) (A) (A) (A) (A) (A) (A) (A) (A)
                 (A) (A) (A) (A) (A) (A) (A) (A) (A) (A) (A) (A)
                 (A) (A) (A) (A) (A) (A) (A) (A) (A) (A) (A) (A)
                 (A) (A) (A) (A) (A) (A) (A) (A) (A) (A) (A) (A)
                 (A) (A) (A) (A) (A) (A) (A) (A) (A) (A) (A) (A)
                 (A) (A) (A) (A) (A) (A) (A) (A) (A) (A) (A) (A)
                 (A) (A) (A) (A)
 The electronic state is 1-A.
 Alpha  occ. eigenvalues --  -19.15231 -19.14702 -10.27583 -10.24298 -10.24238
 Alpha  occ. eigenvalues --  -10.21679 -10.20705 -10.18788 -10.18414  -1.06515
 Alpha  occ. eigenvalues --   -1.04390  -0.85434  -0.75570  -0.73229  -0.69625
 Alpha  occ. eigenvalues --   -0.59533  -0.57265  -0.55628  -0.50022  -0.48330
 Alpha  occ. eigenvalues --   -0.46093  -0.45762  -0.42910  -0.40966  -0.40778
 Alpha  occ. eigenvalues --   -0.39639  -0.39151  -0.37849  -0.35574  -0.34681
 Alpha  occ. eigenvalues --   -0.34377  -0.32125  -0.28098  -0.22546
 Alpha virt. eigenvalues --   -0.01818   0.07837   0.10792   0.12244   0.12493
 Alpha virt. eigenvalues --    0.13131   0.13925   0.14326   0.15027   0.15823
 Alpha virt. eigenvalues --    0.16648   0.17443   0.18966   0.20747   0.20845
 Alpha virt. eigenvalues --    0.22163   0.22839   0.24031   0.25731   0.28924
 Alpha virt. eigenvalues --    0.34901   0.42298   0.43321   0.43996   0.45175
 Alpha virt. eigenvalues --    0.45510   0.46810   0.48407   0.49421   0.53450
 Alpha virt. eigenvalues --    0.55747   0.57542   0.59292   0.60122   0.61634
 Alpha virt. eigenvalues --    0.63796   0.64702   0.67106   0.68099   0.69622
 Alpha virt. eigenvalues --    0.70556   0.72764   0.72917   0.73051   0.73648
 Alpha virt. eigenvalues --    0.74373   0.75147   0.75645   0.77430   0.79969
 Alpha virt. eigenvalues --    0.81103   0.83460   0.85834   0.87253   0.88038
 Alpha virt. eigenvalues --    0.88702   0.91910   0.92974   0.95683   0.96838
 Alpha virt. eigenvalues --    0.98640   1.01952   1.03051   1.05889   1.07882
 Alpha virt. eigenvalues --    1.10874   1.11664   1.15667   1.21607   1.24084
 Alpha virt. eigenvalues --    1.26478   1.27490   1.28778   1.31548   1.32609
 Alpha virt. eigenvalues --    1.34884   1.36482   1.40209   1.40485   1.42601
 Alpha virt. eigenvalues --    1.43732   1.45381   1.46118   1.46767   1.50313
 Alpha virt. eigenvalues --    1.50997   1.51781   1.52649   1.55058   1.58239
 Alpha virt. eigenvalues --    1.60342   1.61342   1.63746   1.64997   1.67976
 Alpha virt. eigenvalues --    1.68978   1.72065   1.76484   1.80321   1.82262
 Alpha virt. eigenvalues --    1.83752   1.85002   1.87548   1.88682   1.92164
 Alpha virt. eigenvalues --    1.94195   1.95332   1.97989   2.01118   2.06412
 Alpha virt. eigenvalues --    2.12229   2.13422   2.21125   2.22950   2.27107
 Alpha virt. eigenvalues --    2.28464   2.32113   2.34954   2.36868   2.40693
 Alpha virt. eigenvalues --    2.44580   2.47767   2.49933   2.51136   2.55051
 Alpha virt. eigenvalues --    2.61649   2.64038   2.66525   2.70041   2.72850
 Alpha virt. eigenvalues --    2.75357   2.76349   2.80936   2.83550   2.84627
 Alpha virt. eigenvalues --    2.85238   2.86205   2.88088   2.91159   2.92678
 Alpha virt. eigenvalues --    2.93817   2.96576   2.98072   3.00143   3.01032
 Alpha virt. eigenvalues --    3.07619   3.09680   3.11769   3.14140   3.14847
 Alpha virt. eigenvalues --    3.16345   3.21132   3.21913   3.22913   3.24896
 Alpha virt. eigenvalues --    3.27270   3.30385   3.33824   3.36745   3.39132
 Alpha virt. eigenvalues --    3.40607   3.44116   3.46552   3.48555   3.50630
 Alpha virt. eigenvalues --    3.52077   3.54411   3.59922   3.62229   3.65626
 Alpha virt. eigenvalues --    3.68118   3.70473   3.74173   3.75304   3.77341
 Alpha virt. eigenvalues --    3.82658   3.87549   3.90256   3.91925   3.93316
 Alpha virt. eigenvalues --    3.97952   4.02369   4.05132   4.09116   4.11992
 Alpha virt. eigenvalues --    4.15543   4.16247   4.23268   4.24109   4.28364
 Alpha virt. eigenvalues --    4.31459   4.32479   4.35867   4.38736   4.39646
 Alpha virt. eigenvalues --    4.40787   4.42517   4.45347   4.45827   4.47611
 Alpha virt. eigenvalues --    4.51514   4.52370   4.53930   4.56444   4.58160
 Alpha virt. eigenvalues --    4.60334   4.61546   4.63150   4.64284   4.65387
 Alpha virt. eigenvalues --    4.67412   4.70708   4.73206   4.74285   4.76504
 Alpha virt. eigenvalues --    4.79004   4.79538   4.81883   4.83099   4.84269
 Alpha virt. eigenvalues --    4.87124   4.88092   4.90329   4.93708   4.97542
 Alpha virt. eigenvalues --    5.00296   5.02998   5.05191   5.06258   5.09582
 Alpha virt. eigenvalues --    5.11934   5.13210   5.22291   5.26132   5.29077
 Alpha virt. eigenvalues --    5.37838   5.38470   5.41520   5.44333   5.50746
 Alpha virt. eigenvalues --    5.57594   5.59808   5.63865   5.68305   5.72116
 Alpha virt. eigenvalues --    5.75783   5.80572   5.82893   5.95754   6.04714
 Alpha virt. eigenvalues --    6.09449   6.15803   6.18804   6.26702   6.61251
 Alpha virt. eigenvalues --    6.69917   6.82090   6.98067   7.59903  11.20293
 Alpha virt. eigenvalues --   11.58809  11.87665  11.91572  12.23231  12.35838
 Alpha virt. eigenvalues --   12.83790  13.44160  13.72713
          Condensed to atoms (all electrons):
               1          2          3          4          5          6
     1  C    5.140746   0.397296  -0.066672  -0.050750   0.003869   0.002316
     2  C    0.397296   4.580221   0.358086   0.324372  -0.007342  -0.049465
     3  C   -0.066672   0.358086   5.156410  -0.038534  -0.001080  -0.007606
     4  C   -0.050750   0.324372  -0.038534   5.330584   0.353804  -0.033532
     5  C    0.003869  -0.007342  -0.001080   0.353804   4.838042   0.336985
     6  O    0.002316  -0.049465  -0.007606  -0.033532   0.336985   7.779105
     7  C   -0.045925   0.285663  -0.024841  -0.186933  -0.120005   0.343614
     8  C    0.009926  -0.010731  -0.003802   0.268152  -0.002343  -0.028227
     9  O   -0.003316  -0.004244  -0.000090  -0.053649  -0.001496  -0.000017
    10  H    0.366145  -0.019985  -0.003973   0.004837  -0.000169   0.000021
    11  H    0.367951  -0.018495  -0.003491  -0.003848  -0.000054  -0.000057
    12  H    0.356016  -0.013779   0.006361  -0.004822   0.000308   0.000065
    13  H    0.005623  -0.012318   0.359991  -0.005184   0.000742   0.012492
    14  H   -0.001362  -0.017455   0.368172  -0.005390  -0.000833   0.000298
    15  H   -0.006152  -0.019074   0.366543   0.004373  -0.000070   0.000112
    16  H   -0.002877  -0.031473   0.001591   0.357526  -0.034913   0.002549
    17  H   -0.000098   0.001294   0.000126  -0.026590   0.366734  -0.024036
    18  H   -0.000005  -0.009387   0.004941  -0.023475   0.365512  -0.030931
    19  H   -0.001846  -0.040676   0.001098   0.012899   0.007317  -0.023681
               7          8          9         10         11         12
     1  C   -0.045925   0.009926  -0.003316   0.366145   0.367951   0.356016
     2  C    0.285663  -0.010731  -0.004244  -0.019985  -0.018495  -0.013779
     3  C   -0.024841  -0.003802  -0.000090  -0.003973  -0.003491   0.006361
     4  C   -0.186933   0.268152  -0.053649   0.004837  -0.003848  -0.004822
     5  C   -0.120005  -0.002343  -0.001496  -0.000169  -0.000054   0.000308
     6  O    0.343614  -0.028227  -0.000017   0.000021  -0.000057   0.000065
     7  C    5.216243   0.257721  -0.053892  -0.002871   0.003346  -0.003363
     8  C    0.257721   4.303848   0.817011  -0.000438  -0.000056   0.011372
     9  O   -0.053892   0.817011   7.619107   0.000065   0.000085   0.001959
    10  H   -0.002871  -0.000438   0.000065   0.589715  -0.033210  -0.028683
    11  H    0.003346  -0.000056   0.000085  -0.033210   0.588463  -0.028373
    12  H   -0.003363   0.011372   0.001959  -0.028683  -0.028373   0.561478
    13  H   -0.006550   0.000879  -0.000004  -0.000045  -0.000095  -0.000188
    14  H    0.002925   0.000298   0.000000  -0.000265   0.002982  -0.000118
    15  H   -0.001576   0.000004   0.000001   0.004727  -0.000189  -0.000043
    16  H    0.013619  -0.024823   0.000242  -0.000072   0.001722   0.000212
    17  H    0.009613  -0.007159   0.000842   0.000004  -0.000004  -0.000005
    18  H    0.003848   0.000241  -0.000035  -0.000005   0.000013  -0.000005
    19  H    0.363414  -0.032573   0.000385   0.001751  -0.000145   0.000169
              13         14         15         16         17         18
     1  C    0.005623  -0.001362  -0.006152  -0.002877  -0.000098  -0.000005
     2  C   -0.012318  -0.017455  -0.019074  -0.031473   0.001294  -0.009387
     3  C    0.359991   0.368172   0.366543   0.001591   0.000126   0.004941
     4  C   -0.005184  -0.005390   0.004373   0.357526  -0.026590  -0.023475
     5  C    0.000742  -0.000833  -0.000070  -0.034913   0.366734   0.365512
     6  O    0.012492   0.000298   0.000112   0.002549  -0.024036  -0.030931
     7  C   -0.006550   0.002925  -0.001576   0.013619   0.009613   0.003848
     8  C    0.000879   0.000298   0.000004  -0.024823  -0.007159   0.000241
     9  O   -0.000004   0.000000   0.000001   0.000242   0.000842  -0.000035
    10  H   -0.000045  -0.000265   0.004727  -0.000072   0.000004  -0.000005
    11  H   -0.000095   0.002982  -0.000189   0.001722  -0.000004   0.000013
    12  H   -0.000188  -0.000118  -0.000043   0.000212  -0.000005  -0.000005
    13  H    0.566478  -0.031234  -0.028128  -0.000208   0.000374  -0.003359
    14  H   -0.031234   0.595117  -0.033242   0.000804  -0.000019   0.000736
    15  H   -0.028128  -0.033242   0.591977  -0.000076   0.000000  -0.000192
    16  H   -0.000208   0.000804  -0.000076   0.624125   0.001622   0.001188
    17  H    0.000374  -0.000019   0.000000   0.001622   0.613744  -0.055558
    18  H   -0.003359   0.000736  -0.000192   0.001188  -0.055558   0.636124
    19  H    0.000033  -0.000124   0.000636  -0.000363  -0.000109  -0.000093
              19
     1  C   -0.001846
     2  C   -0.040676
     3  C    0.001098
     4  C    0.012899
     5  C    0.007317
     6  O   -0.023681
     7  C    0.363414
     8  C   -0.032573
     9  O    0.000385
    10  H    0.001751
    11  H   -0.000145
    12  H    0.000169
    13  H    0.000033
    14  H   -0.000124
    15  H    0.000636
    16  H   -0.000363
    17  H   -0.000109
    18  H   -0.000093
    19  H    0.616539
 Mulliken charges:
               1
     1  C   -0.470886
     2  C    0.307492
     3  C   -0.473227
     4  C   -0.223842
     5  C   -0.105008
     6  O   -0.280005
     7  C   -0.054050
     8  C    0.440701
     9  O   -0.322956
    10  H    0.122452
    11  H    0.123457
    12  H    0.141441
    13  H    0.140702
    14  H    0.118710
    15  H    0.120372
    16  H    0.089607
    17  H    0.119227
    18  H    0.110442
    19  H    0.095371
 Sum of Mulliken charges =   0.00000
 Mulliken charges with hydrogens summed into heavy atoms:
               1
     1  C   -0.083536
     2  C    0.307492
     3  C   -0.093443
     4  C   -0.134235
     5  C    0.124661
     6  O   -0.280005
     7  C    0.041320
     8  C    0.440701
     9  O   -0.322956
 Electronic spatial extent (au):  <R**2>=           1009.6744
 Charge=              0.0000 electrons
 Dipole moment (field-independent basis, Debye):
    X=             -2.6329    Y=             -0.1573    Z=              1.0725  Tot=              2.8473
 Quadrupole moment (field-independent basis, Debye-Ang):
   XX=            -58.8627   YY=            -55.1707   ZZ=            -51.1125
   XY=             -3.7711   XZ=              0.7051   YZ=             -3.0952
 Traceless Quadrupole moment (field-independent basis, Debye-Ang):
   XX=             -3.8140   YY=             -0.1221   ZZ=              3.9361
   XY=             -3.7711   XZ=              0.7051   YZ=             -3.0952
 Octapole moment (field-independent basis, Debye-Ang**2):
  XXX=             -7.7166  YYY=             -2.2723  ZZZ=             -3.9310  XYY=             -1.3282
  XXY=            -10.1647  XXZ=             -0.4674  XZZ=              2.1825  YZZ=              1.7311
  YYZ=              4.8810  XYZ=             -1.1713
 Hexadecapole moment (field-independent basis, Debye-Ang**3):
 XXXX=           -639.6221 YYYY=           -483.6750 ZZZZ=           -193.0662 XXXY=            -20.9437
 XXXZ=              0.7906 YYYX=              5.8967 YYYZ=             -6.4510 ZZZX=             -1.4798
 ZZZY=              3.0933 XXYY=           -187.3973 XXZZ=           -131.9701 YYZZ=           -118.3201
 XXYZ=             -0.8087 YYXZ=              2.5920 ZZXY=              0.3872
 N-N= 4.791323704194D+02 E-N=-1.944580066306D+03  KE= 4.200736681973D+02
 Calling FoFJK, ICntrl=      2127 FMM=F ISym2X=0 I1Cent= 0 IOpClX= 0 NMat=1 NMatS=1 NMatT=0.
 ***** Axes restored to original set *****
 -------------------------------------------------------------------
 Center     Atomic                   Forces (Hartrees/Bohr)
 Number     Number              X              Y              Z
 -------------------------------------------------------------------
      1        6           0.000039002   -0.000028821    0.000030428
      2        6          -0.000018663    0.000068524   -0.000051449
      3        6           0.000047836   -0.000046807    0.000053501
      4        6          -0.000154003   -0.000213357    0.000152055
      5        6           0.000068737    0.000205076   -0.000032064
      6        8           0.000058609   -0.000160464   -0.000209943
      7        6          -0.000065642    0.000156399    0.000200942
      8        6          -0.000112309   -0.000076333   -0.000008602
      9        8           0.000147675    0.000056702    0.000022644
     10        1           0.000004364    0.000007341   -0.000017485
     11        1          -0.000002492   -0.000003110   -0.000004944
     12        1          -0.000019189    0.000005181   -0.000004442
     13        1          -0.000000675    0.000015413   -0.000019838
     14        1          -0.000034569    0.000000432   -0.000009881
     15        1           0.000004254    0.000012327   -0.000012197
     16        1           0.000030693    0.000075694   -0.000037057
     17        1          -0.000026833   -0.000005491   -0.000010437
     18        1           0.000021949    0.000011083    0.000007175
     19        1           0.000011255   -0.000079788   -0.000048407
 -------------------------------------------------------------------
 Cartesian Forces:  Max     0.000213357 RMS     0.000080176

 GradGradGradGradGradGradGradGradGradGradGradGradGradGradGradGradGradGrad
 Berny optimization.
 FormGI is forming the generalized inverse of G from B-inverse, IUseBI=4.
 Internal  Forces:  Max     0.000172088 RMS     0.000032477
 Search for a local minimum.
 Step number   1 out of a maximum of  114
 All quantities printed in internal units (Hartrees-Bohrs-Radians)
 Mixed Optimization -- En-DIIS/RFO-DIIS
 Second derivative matrix not updated -- first step.
 ITU=  0
     Eigenvalues ---    0.00242   0.00361   0.00417   0.01003   0.02459
     Eigenvalues ---    0.02693   0.02805   0.03328   0.04560   0.04794
     Eigenvalues ---    0.05335   0.05409   0.05411   0.05570   0.05613
     Eigenvalues ---    0.05700   0.06556   0.07200   0.07788   0.09135
     Eigenvalues ---    0.10108   0.10782   0.14386   0.15017   0.16000
     Eigenvalues ---    0.16000   0.16000   0.16000   0.16000   0.16000
     Eigenvalues ---    0.20259   0.21560   0.22832   0.24587   0.25916
     Eigenvalues ---    0.27624   0.29365   0.29760   0.33886   0.34140
     Eigenvalues ---    0.34189   0.34206   0.34227   0.34232   0.34267
     Eigenvalues ---    0.34345   0.34730   0.35049   0.35116   0.37492
     Eigenvalues ---    1.08910
 RFO step:  Lambda=-6.11990968D-07 EMin= 2.42136806D-03
 Linear search not attempted -- first point.
 Iteration  1 RMS(Cart)=  0.00040683 RMS(Int)=  0.00000016
 Iteration  2 RMS(Cart)=  0.00000016 RMS(Int)=  0.00000006
 Variable       Old X    -DE/DX   Delta X   Delta X   Delta X     New X
                                 (Linear)    (Quad)   (Total)
    R1        2.89247   0.00000   0.00000   0.00001   0.00001   2.89248
    R2        2.06941   0.00001   0.00000   0.00002   0.00002   2.06942
    R3        2.06984   0.00000   0.00000   0.00000   0.00000   2.06984
    R4        2.06752  -0.00002   0.00000  -0.00007  -0.00007   2.06746
    R5        2.88445  -0.00001   0.00000  -0.00005  -0.00005   2.88441
    R6        3.00274  -0.00002   0.00000  -0.00004  -0.00004   3.00269
    R7        2.96596   0.00000   0.00000  -0.00007  -0.00007   2.96589
    R8        2.06115  -0.00002   0.00000  -0.00005  -0.00005   2.06111
    R9        2.07011   0.00002   0.00000   0.00005   0.00005   2.07016
   R10        2.06948  -0.00001   0.00000  -0.00001  -0.00001   2.06947
   R11        2.90038  -0.00013   0.00000  -0.00044  -0.00044   2.89994
   R12        2.92898   0.00002   0.00000  -0.00002  -0.00002   2.92895
   R13        2.05596   0.00009   0.00000   0.00025   0.00025   2.05621
   R14        2.75458   0.00013   0.00000   0.00041   0.00041   2.75500
   R15        2.07095  -0.00002   0.00000  -0.00006  -0.00006   2.07089
   R16        2.06882  -0.00002   0.00000  -0.00006  -0.00006   2.06876
   R17        2.71762  -0.00017   0.00000  -0.00041  -0.00041   2.71721
   R18        2.92005  -0.00001   0.00000  -0.00005  -0.00005   2.92001
   R19        2.05486   0.00009   0.00000   0.00024   0.00024   2.05511
   R20        2.25269   0.00015   0.00000   0.00014   0.00014   2.25283
    A1        1.92894   0.00002   0.00000   0.00011   0.00011   1.92905
    A2        1.92597   0.00000   0.00000  -0.00004  -0.00004   1.92593
    A3        1.96937   0.00001   0.00000   0.00007   0.00007   1.96944
    A4        1.87813  -0.00001   0.00000  -0.00014  -0.00014   1.87798
    A5        1.88140  -0.00001   0.00000   0.00001   0.00001   1.88141
    A6        1.87678   0.00000   0.00000  -0.00001  -0.00001   1.87678
    A7        1.94036   0.00001   0.00000   0.00012   0.00012   1.94048
    A8        1.96727   0.00001   0.00000   0.00025   0.00025   1.96752
    A9        1.98993  -0.00001   0.00000  -0.00012  -0.00012   1.98981
   A10        2.06291   0.00000   0.00000   0.00008   0.00008   2.06299
   A11        2.02927   0.00000   0.00000  -0.00028  -0.00028   2.02898
   A12        1.42551  -0.00001   0.00000  -0.00011  -0.00011   1.42540
   A13        1.95887   0.00001   0.00000   0.00005   0.00005   1.95893
   A14        1.93495   0.00004   0.00000   0.00024   0.00024   1.93519
   A15        1.91796  -0.00001   0.00000  -0.00003  -0.00003   1.91792
   A16        1.89827  -0.00003   0.00000  -0.00017  -0.00017   1.89810
   A17        1.87634   0.00000   0.00000   0.00006   0.00006   1.87640
   A18        1.87460  -0.00002   0.00000  -0.00017  -0.00017   1.87443
   A19        1.77065   0.00003   0.00000   0.00035   0.00035   1.77100
   A20        1.47062   0.00001   0.00000   0.00017   0.00017   1.47079
   A21        2.15652  -0.00001   0.00000  -0.00014  -0.00014   2.15638
   A22        1.70119   0.00002   0.00000  -0.00010  -0.00010   1.70108
   A23        2.07617  -0.00002   0.00000   0.00008   0.00008   2.07625
   A24        2.15642  -0.00002   0.00000  -0.00030  -0.00030   2.15612
   A25        1.75728  -0.00005   0.00000  -0.00028  -0.00028   1.75700
   A26        1.97153   0.00003   0.00000   0.00016   0.00016   1.97169
   A27        1.99327   0.00000   0.00000  -0.00006  -0.00006   1.99321
   A28        1.91933   0.00002   0.00000   0.00011   0.00011   1.91944
   A29        1.91554   0.00002   0.00000   0.00018   0.00018   1.91572
   A30        1.90182  -0.00002   0.00000  -0.00010  -0.00010   1.90173
   A31        1.79527   0.00002   0.00000   0.00007   0.00007   1.79534
   A32        1.81186   0.00000   0.00000  -0.00034  -0.00034   1.81152
   A33        1.48481   0.00001   0.00000   0.00019   0.00019   1.48501
   A34        2.18234  -0.00002   0.00000  -0.00031  -0.00031   2.18203
   A35        1.76271   0.00001   0.00000   0.00021   0.00021   1.76291
   A36        1.93314   0.00001   0.00000   0.00021   0.00021   1.93335
   A37        2.20402   0.00000   0.00000   0.00003   0.00003   2.20405
   A38        1.46120  -0.00002   0.00000  -0.00013  -0.00013   1.46107
   A39        2.39561  -0.00005   0.00000  -0.00013  -0.00013   2.39548
   A40        2.42303   0.00006   0.00000   0.00031   0.00031   2.42335
    D1       -1.03197   0.00001   0.00000   0.00026   0.00026  -1.03171
    D2        2.88883   0.00000   0.00000  -0.00022  -0.00022   2.88861
    D3        1.30333   0.00001   0.00000  -0.00015  -0.00015   1.30318
    D4        1.04329   0.00000   0.00000   0.00012   0.00012   1.04341
    D5       -1.31910  -0.00001   0.00000  -0.00036  -0.00036  -1.31946
    D6       -2.90460   0.00000   0.00000  -0.00029  -0.00029  -2.90488
    D7       -3.13994   0.00000   0.00000   0.00013   0.00013  -3.13981
    D8        0.78085  -0.00001   0.00000  -0.00035  -0.00035   0.78050
    D9       -0.80464   0.00000   0.00000  -0.00028  -0.00028  -0.80492
   D10        2.93974  -0.00001   0.00000  -0.00018  -0.00018   2.93956
   D11       -1.21676  -0.00001   0.00000  -0.00018  -0.00018  -1.21695
   D12        0.85282  -0.00001   0.00000  -0.00026  -0.00026   0.85256
   D13       -1.02822   0.00001   0.00000   0.00042   0.00042  -1.02780
   D14        1.09846   0.00001   0.00000   0.00041   0.00041   1.09888
   D15       -3.11514   0.00001   0.00000   0.00033   0.00033  -3.11480
   D16        0.62407   0.00000   0.00000   0.00016   0.00016   0.62423
   D17        2.75075   0.00000   0.00000   0.00015   0.00015   2.75090
   D18       -1.46285   0.00000   0.00000   0.00007   0.00007  -1.46277
   D19       -3.01543   0.00000   0.00000   0.00019   0.00019  -3.01524
   D20       -1.33143   0.00001   0.00000   0.00009   0.00009  -1.33133
   D21        0.88280   0.00000   0.00000  -0.00021  -0.00021   0.88259
   D22        0.96444  -0.00002   0.00000  -0.00036  -0.00036   0.96408
   D23        2.64845  -0.00001   0.00000  -0.00046  -0.00046   2.64799
   D24       -1.42051  -0.00002   0.00000  -0.00075  -0.00075  -1.42127
   D25       -1.04982  -0.00002   0.00000   0.00002   0.00002  -1.04980
   D26        0.63419   0.00000   0.00000  -0.00008  -0.00008   0.63411
   D27        2.84841  -0.00002   0.00000  -0.00038  -0.00038   2.84804
   D28        3.05350   0.00001   0.00000   0.00057   0.00057   3.05407
   D29        1.30583   0.00000   0.00000   0.00030   0.00030   1.30613
   D30       -0.99242   0.00000   0.00000   0.00025   0.00025  -0.99217
   D31       -0.93692   0.00001   0.00000   0.00034   0.00034  -0.93658
   D32       -2.68458   0.00000   0.00000   0.00006   0.00006  -2.68452
   D33        1.30035   0.00000   0.00000   0.00001   0.00001   1.30036
   D34        1.11221   0.00001   0.00000   0.00035   0.00035   1.11256
   D35       -0.63546  -0.00001   0.00000   0.00007   0.00007  -0.63539
   D36       -2.93371   0.00000   0.00000   0.00002   0.00002  -2.93369
   D37        0.71647  -0.00001   0.00000  -0.00074  -0.00074   0.71573
   D38        2.76233   0.00000   0.00000  -0.00071  -0.00071   2.76162
   D39       -1.33445   0.00000   0.00000  -0.00076  -0.00076  -1.33521
   D40       -0.77789  -0.00002   0.00000  -0.00094  -0.00094  -0.77884
   D41        1.26796  -0.00002   0.00000  -0.00091  -0.00091   1.26705
   D42       -2.82882  -0.00002   0.00000  -0.00096  -0.00096  -2.82977
   D43       -3.13769  -0.00001   0.00000  -0.00050  -0.00050  -3.13819
   D44       -1.09184   0.00000   0.00000  -0.00047  -0.00047  -1.09231
   D45        1.09457   0.00000   0.00000  -0.00052  -0.00051   1.09406
   D46       -0.64237   0.00000   0.00000   0.00009   0.00009  -0.64228
   D47        2.41847  -0.00001   0.00000   0.00068   0.00068   2.41916
   D48        1.11761   0.00003   0.00000   0.00047   0.00047   1.11808
   D49       -2.10473   0.00003   0.00000   0.00106   0.00106  -2.10367
   D50       -2.85668   0.00001   0.00000   0.00025   0.00025  -2.85643
   D51        0.20416   0.00001   0.00000   0.00084   0.00084   0.20500
   D52        0.02746   0.00002   0.00000   0.00104   0.00104   0.02850
   D53       -2.05650   0.00001   0.00000   0.00096   0.00096  -2.05554
   D54        2.13471   0.00000   0.00000   0.00090   0.00090   2.13561
   D55       -0.78590  -0.00002   0.00000  -0.00100  -0.00100  -0.78690
   D56        0.74256  -0.00001   0.00000  -0.00081  -0.00081   0.74175
   D57        3.11475   0.00001   0.00000  -0.00047  -0.00047   3.11428
   D58        0.65067   0.00000   0.00000  -0.00008  -0.00008   0.65058
   D59       -2.40767   0.00001   0.00000  -0.00065  -0.00065  -2.40832
   D60       -1.14949   0.00000   0.00000   0.00024   0.00024  -1.14925
   D61        2.07537   0.00001   0.00000  -0.00033  -0.00033   2.07504
   D62        2.93113  -0.00002   0.00000  -0.00031  -0.00031   2.93082
   D63       -0.12720  -0.00001   0.00000  -0.00088  -0.00088  -0.12808
         Item               Value     Threshold  Converged?
 Maximum Force            0.000172     0.000450     YES
 RMS     Force            0.000032     0.000300     YES
 Maximum Displacement     0.002023     0.001800     NO 
 RMS     Displacement     0.000407     0.001200     YES
 Predicted change in Energy=-3.059573D-07
 GradGradGradGradGradGradGradGradGradGradGradGradGradGradGradGradGradGrad

                          Input orientation:                          
 ---------------------------------------------------------------------
 Center     Atomic      Atomic             Coordinates (Angstroms)
 Number     Number       Type             X           Y           Z
 ---------------------------------------------------------------------
      1          6           0       -0.931126   -0.031021   -2.372012
      2          6           0       -1.656338   -0.019294   -1.024134
      3          6           0       -3.169695   -0.085802   -1.211515
      4          6           0       -1.070844    1.065308   -0.021327
      5          6           0       -1.832593    0.731259    1.268282
      6          8           0       -1.799929   -0.725787    1.231316
      7          6           0       -1.044691   -0.998942    0.038622
      8          6           0        0.085020    0.048461    0.158407
      9          8           0        1.273332    0.080745    0.248305
     10          1           0       -1.177021   -0.939133   -2.932453
     11          1           0       -1.240978    0.826679   -2.978682
     12          1           0        0.157143    0.014044   -2.269126
     13          1           0       -3.693395   -0.281282   -0.274961
     14          1           0       -3.551369    0.847209   -1.640349
     15          1           0       -3.423971   -0.893469   -1.905992
     16          1           0       -0.917260    2.109198   -0.287151
     17          1           0       -1.326686    1.094314    2.170046
     18          1           0       -2.870890    1.078087    1.278879
     19          1           0       -0.917204   -2.069980   -0.100356
 ---------------------------------------------------------------------
                    Distance matrix (angstroms):
                    1          2          3          4          5
     1  C    0.000000
     2  C    1.530636   0.000000
     3  C    2.522092   1.526364   0.000000
     4  C    2.597533   1.588958   2.673346   0.000000
     5  C    3.826938   2.418588   2.933398   1.534582   0.000000
     6  O    3.771139   2.367869   2.872849   2.304062   1.457881
     7  C    2.600178   1.569481   2.629127   2.065285   2.264166
     8  C    2.727983   2.106020   3.533820   1.549936   2.318464
     9  O    3.426104   3.195634   4.679669   2.556800   3.333210
    10  H    1.095091   2.171988   2.767770   3.536059   4.567949
    11  H    1.095311   2.169897   2.770461   2.971841   4.289035
    12  H    1.094050   2.199961   3.492329   2.768701   4.121493
    13  H    3.477123   2.186206   1.090691   2.958954   2.620958
    14  H    2.858722   2.172945   1.095484   2.970153   3.380499
    15  H    2.678669   2.160181   1.095116   3.595272   3.904900
    16  H    2.987871   2.370624   3.278100   1.088098   2.270665
    17  H    4.696077   3.398761   4.027941   2.206448   1.095869
    18  H    4.280398   2.825464   2.765137   2.220555   1.094743
    19  H    3.052535   2.367488   3.200836   3.140045   3.249315
                    6          7          8          9         10
     6  O    0.000000
     7  C    1.437886   0.000000
     8  C    2.302960   1.545202   0.000000
     9  O    3.325919   2.565721   1.192145   0.000000
    10  H    4.215507   2.974622   3.481595   4.142656   0.000000
    11  H    4.521799   3.532074   3.493597   4.158319   1.767575
    12  H    4.078060   2.792176   2.428848   2.754594   1.768768
    13  H    2.460014   2.762065   3.817454   5.007319   3.718490
    14  H    3.713263   3.537040   4.134833   5.237578   3.240074
    15  H    3.536712   3.074674   4.178755   5.258778   2.470727
    16  H    3.334964   3.127762   2.334464   3.033155   4.044431
    17  H    2.101890   3.000701   2.670845   3.388289   5.494798
    18  H    2.098375   3.031053   3.324603   4.385356   4.967261
    19  H    2.087920   1.087516   2.357797   3.089601   3.060571
                   11         12         13         14         15
    11  H    0.000000
    12  H    1.765953   0.000000
    13  H    3.814713   4.346327   0.000000
    14  H    2.670105   3.852607   1.777062   0.000000
    15  H    2.979099   3.712119   1.762846   1.765434   0.000000
    16  H    2.998998   3.077700   3.663532   3.219051   4.233232
    17  H    5.156392   4.803642   3.670372   4.419207   4.996396
    18  H    4.565813   4.784298   2.222345   3.006369   3.786335
    19  H    4.096368   3.193892   3.307138   4.221421   3.305810
                   16         17         18         19
    16  H    0.000000
    17  H    2.689876   0.000000
    18  H    2.707824   1.782977   0.000000
    19  H    4.183351   3.916013   3.953416   0.000000
 Stoichiometry    C7H10O2
 Framework group  C1[X(C7H10O2)]
 Deg. of freedom    51
 Full point group                 C1      NOp   1
 Largest Abelian subgroup         C1      NOp   1
 Largest concise Abelian subgroup C1      NOp   1
                         Standard orientation:                         
 ---------------------------------------------------------------------
 Center     Atomic      Atomic             Coordinates (Angstroms)
 Number     Number       Type             X           Y           Z
 ---------------------------------------------------------------------
      1          6           0       -1.052374    1.875748    0.055335
      2          6           0       -0.842124    0.360107    0.016944
      3          6           0       -2.176114   -0.381319   -0.006367
      4          6           0        0.272266   -0.131205    1.037500
      5          6           0        0.402407   -1.612294    0.657525
      6          8           0        0.338286   -1.524587   -0.796301
      7          6           0        0.231403   -0.109402   -1.027266
      8          6           0        1.262398    0.433836   -0.012579
      9          8           0        2.275190    1.062693   -0.011369
     10          1           0       -1.623827    2.206382   -0.818363
     11          1           0       -1.619429    2.159083    0.948573
     12          1           0       -0.112000    2.434676    0.070908
     13          1           0       -2.055586   -1.440744   -0.235929
     14          1           0       -2.692711   -0.285806    0.954929
     15          1           0       -2.828601    0.049775   -0.772982
     16          1           0        0.288626    0.146229    2.089508
     17          1           0        1.359047   -2.050050    0.964345
     18          1           0       -0.412303   -2.243576    1.026568
     19          1           0        0.201809    0.106363   -2.092752
 ---------------------------------------------------------------------
 Rotational constants (GHZ):      2.3403583      1.8883885      1.3511396
 Standard basis: 6-31G(2df,p) (6D, 7F)
 There are   329 symmetry adapted cartesian basis functions of A   symmetry.
 There are   302 symmetry adapted basis functions of A   symmetry.
   302 basis functions,   466 primitive gaussians,   329 cartesian basis functions
    34 alpha electrons       34 beta electrons
       nuclear repulsion energy       479.1361206117 Hartrees.
 NAtoms=   19 NActive=   19 NUniq=   19 SFac= 1.00D+00 NAtFMM=   60 NAOKFM=F Big=F
 Integral buffers will be    131072 words long.
 Raffenetti 2 integral format.
 Two-electron integral symmetry is turned on.
 One-electron integrals computed using PRISM.
 NBasis=   302 RedAO= T EigKep=  2.90D-04  NBF=   302
 NBsUse=   302 1.00D-06 EigRej= -1.00D+00 NBFU=   302
 Initial guess from the checkpoint file:  "/scratch/puck/g09_815913a7-be19-4742-a1cb-fe009cb90eb2/Gau-56845.chk"
 B after Tr=     0.000000    0.000000    0.000000
         Rot=    1.000000   -0.000038   -0.000111   -0.000055 Ang=  -0.01 deg.
 Requested convergence on RMS density matrix=1.00D-08 within 128 cycles.
 Requested convergence on MAX density matrix=1.00D-06.
 Requested convergence on             energy=1.00D-06.
 No special actions if energy rises.
 SCF Done:  E(RB3LYP) =  -423.173787320     A.U. after    7 cycles
            NFock=  7  Conv=0.32D-08     -V/T= 2.0074
 Calling FoFJK, ICntrl=      2127 FMM=F ISym2X=0 I1Cent= 0 IOpClX= 0 NMat=1 NMatS=1 NMatT=0.
 ***** Axes restored to original set *****
 -------------------------------------------------------------------
 Center     Atomic                   Forces (Hartrees/Bohr)
 Number     Number              X              Y              Z
 -------------------------------------------------------------------
      1        6          -0.000000708    0.000019806    0.000021623
      2        6           0.000014872    0.000035169   -0.000050524
      3        6           0.000020702   -0.000011434    0.000012014
      4        6          -0.000031672   -0.000028291    0.000019549
      5        6          -0.000002918    0.000099134   -0.000059590
      6        8           0.000048856   -0.000098449   -0.000015621
      7        6          -0.000067999    0.000025193    0.000106017
      8        6          -0.000002328   -0.000038328   -0.000005601
      9        8           0.000016786    0.000023113   -0.000002770
     10        1           0.000001998    0.000002787    0.000002732
     11        1           0.000005522    0.000003508   -0.000008756
     12        1           0.000005637    0.000005782    0.000007143
     13        1           0.000002600    0.000004642   -0.000003676
     14        1          -0.000006672   -0.000001117   -0.000006952
     15        1           0.000002156    0.000000292   -0.000010523
     16        1           0.000010540    0.000002945   -0.000005220
     17        1          -0.000005559   -0.000010904    0.000000989
     18        1          -0.000012170   -0.000029877    0.000010887
     19        1           0.000000357   -0.000003970   -0.000011723
 -------------------------------------------------------------------
 Cartesian Forces:  Max     0.000106017 RMS     0.000030897

 GradGradGradGradGradGradGradGradGradGradGradGradGradGradGradGradGradGrad
 Berny optimization.
 Using GEDIIS/GDIIS optimizer.
 FormGI is forming the generalized inverse of G from B-inverse, IUseBI=4.
 Internal  Forces:  Max     0.000061063 RMS     0.000012132
 Search for a local minimum.
 Step number   2 out of a maximum of  114
 All quantities printed in internal units (Hartrees-Bohrs-Radians)
 Mixed Optimization -- En-DIIS/RFO-DIIS
 Swapping is turned off.
 Update second derivatives using D2CorX and points    1    2
 DE= -2.33D-07 DEPred=-3.06D-07 R= 7.61D-01
 Trust test= 7.61D-01 RLast= 4.34D-03 DXMaxT set to 3.00D-01
 ITU=  0  0
     Eigenvalues ---    0.00248   0.00360   0.00415   0.01173   0.02541
     Eigenvalues ---    0.02686   0.02790   0.03361   0.04609   0.04798
     Eigenvalues ---    0.05230   0.05341   0.05410   0.05596   0.05689
     Eigenvalues ---    0.05701   0.06523   0.07197   0.07622   0.09135
     Eigenvalues ---    0.10314   0.10895   0.14632   0.15048   0.15712
     Eigenvalues ---    0.16000   0.16000   0.16000   0.16000   0.16290
     Eigenvalues ---    0.20380   0.21721   0.22554   0.23473   0.25914
     Eigenvalues ---    0.27182   0.29393   0.29645   0.30971   0.34144
     Eigenvalues ---    0.34187   0.34207   0.34229   0.34233   0.34276
     Eigenvalues ---    0.34374   0.34731   0.35076   0.35259   0.35919
     Eigenvalues ---    1.08128
 En-DIIS/RFO-DIIS IScMMF=        0 using points:     2    1
 RFO step:  Lambda=-4.67892551D-08.
 DidBck=F Rises=F RFO-DIIS coefs:    0.96827    0.03173
 Iteration  1 RMS(Cart)=  0.00020518 RMS(Int)=  0.00000005
 Iteration  2 RMS(Cart)=  0.00000004 RMS(Int)=  0.00000003
 Variable       Old X    -DE/DX   Delta X   Delta X   Delta X     New X
                                 (Linear)    (Quad)   (Total)
    R1        2.89248  -0.00002   0.00000  -0.00005  -0.00005   2.89243
    R2        2.06942   0.00000   0.00000   0.00000   0.00000   2.06942
    R3        2.06984   0.00001   0.00000   0.00002   0.00002   2.06985
    R4        2.06746   0.00000   0.00000  -0.00001  -0.00001   2.06745
    R5        2.88441  -0.00001   0.00000  -0.00006  -0.00005   2.88435
    R6        3.00269  -0.00003   0.00000  -0.00018  -0.00018   3.00252
    R7        2.96589   0.00003   0.00000   0.00016   0.00016   2.96605
    R8        2.06111   0.00000   0.00000  -0.00002  -0.00002   2.06109
    R9        2.07016   0.00000   0.00000   0.00003   0.00003   2.07019
   R10        2.06947   0.00000   0.00000   0.00001   0.00001   2.06948
   R11        2.89994  -0.00003   0.00001  -0.00019  -0.00017   2.89977
   R12        2.92895   0.00001   0.00000   0.00007   0.00007   2.92902
   R13        2.05621   0.00001  -0.00001   0.00009   0.00008   2.05628
   R14        2.75500   0.00006  -0.00001   0.00026   0.00025   2.75524
   R15        2.07089   0.00000   0.00000  -0.00002  -0.00002   2.07087
   R16        2.06876   0.00000   0.00000  -0.00002  -0.00002   2.06875
   R17        2.71721  -0.00006   0.00001  -0.00027  -0.00026   2.71695
   R18        2.92001   0.00001   0.00000  -0.00003  -0.00003   2.91998
   R19        2.05511   0.00001  -0.00001   0.00008   0.00007   2.05518
   R20        2.25283   0.00002   0.00000   0.00005   0.00005   2.25288
    A1        1.92905  -0.00001   0.00000  -0.00003  -0.00003   1.92901
    A2        1.92593   0.00001   0.00000   0.00009   0.00009   1.92602
    A3        1.96944  -0.00001   0.00000  -0.00002  -0.00003   1.96941
    A4        1.87798   0.00000   0.00000  -0.00006  -0.00005   1.87793
    A5        1.88141   0.00001   0.00000   0.00002   0.00002   1.88143
    A6        1.87678   0.00000   0.00000   0.00000   0.00000   1.87677
    A7        1.94048   0.00001   0.00000   0.00010   0.00010   1.94058
    A8        1.96752  -0.00001  -0.00001  -0.00004  -0.00005   1.96748
    A9        1.98981   0.00000   0.00000   0.00000   0.00001   1.98982
   A10        2.06299   0.00000   0.00000   0.00004   0.00004   2.06303
   A11        2.02898  -0.00001   0.00001  -0.00010  -0.00010   2.02889
   A12        1.42540   0.00000   0.00000  -0.00005  -0.00004   1.42535
   A13        1.95893   0.00000   0.00000  -0.00001  -0.00001   1.95892
   A14        1.93519   0.00001  -0.00001   0.00011   0.00010   1.93529
   A15        1.91792   0.00000   0.00000   0.00001   0.00001   1.91793
   A16        1.89810   0.00000   0.00001  -0.00008  -0.00008   1.89803
   A17        1.87640   0.00000   0.00000   0.00007   0.00006   1.87647
   A18        1.87443  -0.00001   0.00001  -0.00010  -0.00009   1.87434
   A19        1.77100   0.00001  -0.00001   0.00010   0.00009   1.77109
   A20        1.47079   0.00000  -0.00001  -0.00001  -0.00001   1.47078
   A21        2.15638  -0.00001   0.00000  -0.00009  -0.00009   2.15629
   A22        1.70108   0.00000   0.00000   0.00012   0.00012   1.70121
   A23        2.07625   0.00001   0.00000   0.00010   0.00009   2.07634
   A24        2.15612   0.00000   0.00001  -0.00020  -0.00019   2.15594
   A25        1.75700   0.00000   0.00001  -0.00003  -0.00002   1.75697
   A26        1.97169   0.00000  -0.00001   0.00002   0.00002   1.97171
   A27        1.99321   0.00002   0.00000   0.00022   0.00022   1.99344
   A28        1.91944  -0.00001   0.00000  -0.00008  -0.00009   1.91936
   A29        1.91572  -0.00001  -0.00001  -0.00015  -0.00016   1.91556
   A30        1.90173   0.00000   0.00000   0.00000   0.00000   1.90173
   A31        1.79534  -0.00002   0.00000  -0.00007  -0.00007   1.79527
   A32        1.81152   0.00002   0.00001   0.00022   0.00024   1.81175
   A33        1.48501  -0.00002  -0.00001  -0.00008  -0.00009   1.48492
   A34        2.18203   0.00000   0.00001  -0.00019  -0.00018   2.18185
   A35        1.76291   0.00001  -0.00001   0.00005   0.00004   1.76296
   A36        1.93335  -0.00001  -0.00001   0.00007   0.00007   1.93342
   A37        2.20405   0.00000   0.00000  -0.00003  -0.00003   2.20402
   A38        1.46107   0.00000   0.00000  -0.00007  -0.00006   1.46100
   A39        2.39548  -0.00002   0.00000  -0.00014  -0.00014   2.39534
   A40        2.42335   0.00002  -0.00001   0.00016   0.00015   2.42349
    D1       -1.03171   0.00000  -0.00001  -0.00010  -0.00011  -1.03182
    D2        2.88861   0.00000   0.00001  -0.00022  -0.00021   2.88839
    D3        1.30318   0.00000   0.00000  -0.00015  -0.00014   1.30304
    D4        1.04341   0.00000   0.00000  -0.00013  -0.00013   1.04328
    D5       -1.31946   0.00000   0.00001  -0.00025  -0.00024  -1.31970
    D6       -2.90488   0.00000   0.00001  -0.00018  -0.00017  -2.90505
    D7       -3.13981   0.00000   0.00000  -0.00008  -0.00009  -3.13990
    D8        0.78050   0.00000   0.00001  -0.00021  -0.00020   0.78031
    D9       -0.80492   0.00000   0.00001  -0.00014  -0.00013  -0.80505
   D10        2.93956   0.00001   0.00001   0.00027   0.00028   2.93984
   D11       -1.21695   0.00000   0.00001   0.00024   0.00025  -1.21670
   D12        0.85256   0.00000   0.00001   0.00019   0.00020   0.85276
   D13       -1.02780   0.00000  -0.00001   0.00037   0.00035  -1.02745
   D14        1.09888   0.00000  -0.00001   0.00033   0.00032   1.09920
   D15       -3.11480   0.00000  -0.00001   0.00028   0.00027  -3.11453
   D16        0.62423   0.00000   0.00000   0.00027   0.00026   0.62449
   D17        2.75090   0.00000   0.00000   0.00024   0.00023   2.75113
   D18       -1.46277   0.00000   0.00000   0.00019   0.00018  -1.46259
   D19       -3.01524   0.00001  -0.00001   0.00003   0.00003  -3.01522
   D20       -1.33133   0.00000   0.00000   0.00014   0.00014  -1.33119
   D21        0.88259   0.00000   0.00001  -0.00014  -0.00014   0.88246
   D22        0.96408   0.00000   0.00001  -0.00012  -0.00011   0.96397
   D23        2.64799   0.00000   0.00001  -0.00001   0.00000   2.64799
   D24       -1.42127  -0.00001   0.00002  -0.00030  -0.00027  -1.42154
   D25       -1.04980   0.00001   0.00000   0.00002   0.00002  -1.04979
   D26        0.63411   0.00001   0.00000   0.00013   0.00013   0.63424
   D27        2.84804   0.00000   0.00001  -0.00016  -0.00015   2.84789
   D28        3.05407  -0.00001  -0.00002  -0.00020  -0.00021   3.05386
   D29        1.30613  -0.00002  -0.00001  -0.00022  -0.00023   1.30590
   D30       -0.99217   0.00000  -0.00001  -0.00001  -0.00002  -0.99219
   D31       -0.93658   0.00000  -0.00001  -0.00015  -0.00016  -0.93674
   D32       -2.68452  -0.00001   0.00000  -0.00017  -0.00017  -2.68469
   D33        1.30036   0.00001   0.00000   0.00004   0.00004   1.30040
   D34        1.11256   0.00000  -0.00001  -0.00013  -0.00015   1.11241
   D35       -0.63539  -0.00001   0.00000  -0.00016  -0.00016  -0.63554
   D36       -2.93369   0.00001   0.00000   0.00005   0.00005  -2.93364
   D37        0.71573   0.00001   0.00002   0.00026   0.00028   0.71601
   D38        2.76162   0.00000   0.00002   0.00015   0.00017   2.76179
   D39       -1.33521   0.00001   0.00002   0.00036   0.00038  -1.33483
   D40       -0.77884   0.00001   0.00003   0.00023   0.00026  -0.77857
   D41        1.26705   0.00000   0.00003   0.00013   0.00015   1.26720
   D42       -2.82977   0.00001   0.00003   0.00033   0.00036  -2.82941
   D43       -3.13819   0.00001   0.00002   0.00032   0.00033  -3.13786
   D44       -1.09231   0.00000   0.00001   0.00021   0.00023  -1.09208
   D45        1.09406   0.00001   0.00002   0.00042   0.00043   1.09449
   D46       -0.64228  -0.00001   0.00000  -0.00018  -0.00018  -0.64246
   D47        2.41916  -0.00002  -0.00002  -0.00082  -0.00084   2.41832
   D48        1.11808  -0.00001  -0.00001  -0.00009  -0.00010   1.11798
   D49       -2.10367  -0.00001  -0.00003  -0.00073  -0.00076  -2.10443
   D50       -2.85643   0.00000  -0.00001   0.00002   0.00001  -2.85642
   D51        0.20500   0.00000  -0.00003  -0.00062  -0.00065   0.20435
   D52        0.02850  -0.00001  -0.00003  -0.00028  -0.00032   0.02818
   D53       -2.05554   0.00000  -0.00003  -0.00026  -0.00029  -2.05582
   D54        2.13561   0.00002  -0.00003  -0.00011  -0.00014   2.13547
   D55       -0.78690   0.00002   0.00003   0.00032   0.00036  -0.78654
   D56        0.74175   0.00001   0.00003   0.00029   0.00031   0.74207
   D57        3.11428   0.00001   0.00001   0.00034   0.00036   3.11464
   D58        0.65058   0.00000   0.00000   0.00010   0.00010   0.65069
   D59       -2.40832   0.00001   0.00002   0.00079   0.00081  -2.40751
   D60       -1.14925  -0.00002  -0.00001  -0.00011  -0.00012  -1.14937
   D61        2.07504  -0.00001   0.00001   0.00058   0.00059   2.07562
   D62        2.93082  -0.00001   0.00001  -0.00025  -0.00024   2.93058
   D63       -0.12808  -0.00001   0.00003   0.00044   0.00047  -0.12762
         Item               Value     Threshold  Converged?
 Maximum Force            0.000061     0.000450     YES
 RMS     Force            0.000012     0.000300     YES
 Maximum Displacement     0.001452     0.001800     YES
 RMS     Displacement     0.000205     0.001200     YES
 Predicted change in Energy=-7.547061D-08
 Optimization completed.
    -- Stationary point found.
                           ----------------------------
                           !   Optimized Parameters   !
                           ! (Angstroms and Degrees)  !
 --------------------------                            --------------------------
 ! Name  Definition              Value          Derivative Info.                !
 --------------------------------------------------------------------------------
 ! R1    R(1,2)                  1.5306         -DE/DX =    0.0                 !
 ! R2    R(1,10)                 1.0951         -DE/DX =    0.0                 !
 ! R3    R(1,11)                 1.0953         -DE/DX =    0.0                 !
 ! R4    R(1,12)                 1.0941         -DE/DX =    0.0                 !
 ! R5    R(2,3)                  1.5264         -DE/DX =    0.0                 !
 ! R6    R(2,4)                  1.589          -DE/DX =    0.0                 !
 ! R7    R(2,7)                  1.5695         -DE/DX =    0.0                 !
 ! R8    R(3,13)                 1.0907         -DE/DX =    0.0                 !
 ! R9    R(3,14)                 1.0955         -DE/DX =    0.0                 !
 ! R10   R(3,15)                 1.0951         -DE/DX =    0.0                 !
 ! R11   R(4,5)                  1.5346         -DE/DX =    0.0                 !
 ! R12   R(4,8)                  1.5499         -DE/DX =    0.0                 !
 ! R13   R(4,16)                 1.0881         -DE/DX =    0.0                 !
 ! R14   R(5,6)                  1.4579         -DE/DX =    0.0001              !
 ! R15   R(5,17)                 1.0959         -DE/DX =    0.0                 !
 ! R16   R(5,18)                 1.0947         -DE/DX =    0.0                 !
 ! R17   R(6,7)                  1.4379         -DE/DX =   -0.0001              !
 ! R18   R(7,8)                  1.5452         -DE/DX =    0.0                 !
 ! R19   R(7,19)                 1.0875         -DE/DX =    0.0                 !
 ! R20   R(8,9)                  1.1921         -DE/DX =    0.0                 !
 ! A1    A(2,1,10)             110.5261         -DE/DX =    0.0                 !
 ! A2    A(2,1,11)             110.3476         -DE/DX =    0.0                 !
 ! A3    A(2,1,12)             112.8404         -DE/DX =    0.0                 !
 ! A4    A(10,1,11)            107.6006         -DE/DX =    0.0                 !
 ! A5    A(10,1,12)            107.7968         -DE/DX =    0.0                 !
 ! A6    A(11,1,12)            107.5313         -DE/DX =    0.0                 !
 ! A7    A(1,2,3)              111.1814         -DE/DX =    0.0                 !
 ! A8    A(1,2,4)              112.7308         -DE/DX =    0.0                 !
 ! A9    A(1,2,7)              114.0078         -DE/DX =    0.0                 !
 ! A10   A(3,2,4)              118.2004         -DE/DX =    0.0                 !
 ! A11   A(3,2,7)              116.2521         -DE/DX =    0.0                 !
 ! A12   A(4,2,7)               81.6692         -DE/DX =    0.0                 !
 ! A13   A(2,3,13)             112.2382         -DE/DX =    0.0                 !
 ! A14   A(2,3,14)             110.8782         -DE/DX =    0.0                 !
 ! A15   A(2,3,15)             109.889          -DE/DX =    0.0                 !
 ! A16   A(13,3,14)            108.7532         -DE/DX =    0.0                 !
 ! A17   A(13,3,15)            107.5099         -DE/DX =    0.0                 !
 ! A18   A(14,3,15)            107.3971         -DE/DX =    0.0                 !
 ! A19   A(2,4,5)              101.4708         -DE/DX =    0.0                 !
 ! A20   A(2,4,8)               84.27           -DE/DX =    0.0                 !
 ! A21   A(2,4,16)             123.5513         -DE/DX =    0.0                 !
 ! A22   A(5,4,8)               97.465          -DE/DX =    0.0                 !
 ! A23   A(5,4,16)             118.9603         -DE/DX =    0.0                 !
 ! A24   A(8,4,16)             123.5367         -DE/DX =    0.0                 !
 ! A25   A(4,5,6)              100.6685         -DE/DX =    0.0                 !
 ! A26   A(4,5,17)             112.9696         -DE/DX =    0.0                 !
 ! A27   A(4,5,18)             114.2026         -DE/DX =    0.0                 !
 ! A28   A(6,5,17)             109.976          -DE/DX =    0.0                 !
 ! A29   A(6,5,18)             109.7627         -DE/DX =    0.0                 !
 ! A30   A(17,5,18)            108.9609         -DE/DX =    0.0                 !
 ! A31   A(5,6,7)              102.8654         -DE/DX =    0.0                 !
 ! A32   A(2,7,6)              103.7922         -DE/DX =    0.0                 !
 ! A33   A(2,7,8)               85.0846         -DE/DX =    0.0                 !
 ! A34   A(2,7,19)             125.0212         -DE/DX =    0.0                 !
 ! A35   A(6,7,8)              101.0075         -DE/DX =    0.0                 !
 ! A36   A(6,7,19)             110.773          -DE/DX =    0.0                 !
 ! A37   A(8,7,19)             126.2829         -DE/DX =    0.0                 !
 ! A38   A(4,8,7)               83.7129         -DE/DX =    0.0                 !
 ! A39   A(4,8,9)              137.2506         -DE/DX =    0.0                 !
 ! A40   A(7,8,9)              138.8475         -DE/DX =    0.0                 !
 ! D1    D(10,1,2,3)           -59.1126         -DE/DX =    0.0                 !
 ! D2    D(10,1,2,4)           165.5049         -DE/DX =    0.0                 !
 ! D3    D(10,1,2,7)            74.6668         -DE/DX =    0.0                 !
 ! D4    D(11,1,2,3)            59.7832         -DE/DX =    0.0                 !
 ! D5    D(11,1,2,4)           -75.5994         -DE/DX =    0.0                 !
 ! D6    D(11,1,2,7)          -166.4375         -DE/DX =    0.0                 !
 ! D7    D(12,1,2,3)          -179.8981         -DE/DX =    0.0                 !
 ! D8    D(12,1,2,4)            44.7194         -DE/DX =    0.0                 !
 ! D9    D(12,1,2,7)           -46.1187         -DE/DX =    0.0                 !
 ! D10   D(1,2,3,13)           168.4247         -DE/DX =    0.0                 !
 ! D11   D(1,2,3,14)           -69.7259         -DE/DX =    0.0                 !
 ! D12   D(1,2,3,15)            48.8482         -DE/DX =    0.0                 !
 ! D13   D(4,2,3,13)           -58.8885         -DE/DX =    0.0                 !
 ! D14   D(4,2,3,14)            62.961          -DE/DX =    0.0                 !
 ! D15   D(4,2,3,15)          -178.465          -DE/DX =    0.0                 !
 ! D16   D(7,2,3,13)            35.7657         -DE/DX =    0.0                 !
 ! D17   D(7,2,3,14)           157.6152         -DE/DX =    0.0                 !
 ! D18   D(7,2,3,15)           -83.8108         -DE/DX =    0.0                 !
 ! D19   D(1,2,4,5)           -172.7607         -DE/DX =    0.0                 !
 ! D20   D(1,2,4,8)            -76.2798         -DE/DX =    0.0                 !
 ! D21   D(1,2,4,16)            50.5689         -DE/DX =    0.0                 !
 ! D22   D(3,2,4,5)             55.2379         -DE/DX =    0.0                 !
 ! D23   D(3,2,4,8)            151.7188         -DE/DX =    0.0                 !
 ! D24   D(3,2,4,16)           -81.4325         -DE/DX =    0.0                 !
[...]
 707245,0.00266086,0.00031256,-0.00049741,-0.01715871,-0.08662667,-0.01
 481353,-0.00084341,0.00149119,0.00062249,0.03274471,0.70073694,-0.0052
 8036,-0.02613485,-0.01843209,-0.01169421,-0.00867076,-0.07863388,-0.00
 473575,-0.00504001,-0.00485753,-0.04667091,-0.08884172,0.35148683,-0.0
 0145208,-0.00401605,-0.00174681,0.01173785,-0.00028763,-0.01056975,0.0
 0043631,0.00052015,-0.00248366,-0.09785233,-0.00169741,0.05005606,0.59
 958194,0.00000713,-0.00655546,0.00021938,0.00874017,0.00333457,-0.0077
 6652,-0.00034728,-0.00183833,-0.00043578,-0.00117687,-0.07622932,0.010
 23689,-0.04742478,0.38037617,-0.00275907,-0.00430160,-0.00162105,0.014
 75678,-0.01077455,-0.03938004,-0.00112267,-0.00002684,0.00068925,0.038
 47560,0.00742003,-0.13410241,0.03066919,0.09083861,0.54592987,0.000747
 60,0.00037059,-0.00134997,0.00943257,0.00363783,0.00008380,-0.00269985
 ,-0.00131477,-0.00029985,0.00440854,-0.01632524,-0.00386036,-0.0700674
 3,0.00134210,0.01049014,0.17324950,-0.00028213,-0.00050692,-0.00001287
 ,-0.00656808,0.00156757,0.00307365,0.00042707,0.00163759,0.00017750,-0
 .00866347,-0.04428566,0.01363366,-0.01049278,-0.14854538,0.02110395,-0
 .00046831,0.32597356,-0.00552352,0.01009164,-0.00217812,0.02228537,0.0
 0349445,-0.05179676,0.00194850,-0.00138410,0.00090223,0.00038767,0.028
 12170,-0.00518582,0.00948488,-0.01260693,-0.07988354,-0.12552343,-0.00
 759112,0.29152617,0.00551088,-0.01324731,0.00709064,-0.08130390,0.0139
 3506,-0.00868544,-0.01255294,0.02721019,-0.01772895,0.01471143,0.00605
 468,-0.00367132,-0.00399675,0.01424657,0.00458308,-0.09231365,0.010468
 33,0.05917858,0.33542678,-0.00418267,0.00262042,-0.00126992,0.01992484
 ,-0.09437651,0.01821347,0.00164238,0.00305579,-0.00155884,-0.00176470,
 -0.10732034,0.00543525,0.02405229,-0.03891515,-0.03567549,-0.01434054,
 -0.08122284,0.01745886,-0.02640890,0.75538228,-0.00222538,0.01750200,-
 0.01838448,-0.02567203,0.01956167,-0.07013174,-0.00860638,0.00390671,-
 0.00390915,-0.00410088,0.00263570,0.02738917,-0.00088133,-0.02506307,-
 0.00730095,0.07902177,-0.01034088,-0.13716628,-0.03188778,0.03997053,0
 .30993736,0.00476785,0.00080394,-0.00421415,-0.05818751,-0.00662134,-0
 .04386366,-0.00419693,0.00013970,-0.00263497,-0.07732249,0.01657939,0.
 00637948,-0.03543523,0.00380218,0.01327054,-0.03672668,-0.00473482,0.0
 2178990,-0.07701452,-0.01609387,0.00227569,1.08901900,0.00020831,-0.00
 274877,-0.00050449,0.00070910,0.02346620,-0.00017324,0.00038569,-0.011
 25666,-0.00059486,0.02349863,-0.11478708,0.02591915,0.00656542,0.02279
 342,-0.01358751,0.01157868,-0.00265420,-0.00469071,-0.04889515,-0.1233
 2089,-0.01589650,0.03082808,0.32772579,-0.00417789,-0.00099365,-0.0029
 0314,-0.07008022,-0.00357478,-0.01862982,-0.00048687,0.00093541,-0.007
 37479,0.00070504,0.00616889,-0.06816654,0.03643733,-0.01145237,-0.0010
 9091,0.04210800,0.00762426,-0.01519167,-0.01451340,-0.00810745,-0.0637
 7462,0.06805720,0.00762284,0.25451451,-0.00209528,-0.00000421,0.002105
 59,-0.00677686,0.00106837,0.00381191,0.00211457,-0.00000119,-0.0022382
 8,-0.03310188,0.01091978,-0.00525570,0.00119327,0.00108743,-0.00586062
 ,-0.00160972,0.00117705,0.00270496,-0.02283373,-0.01268299,-0.01019098
 ,-0.83744155,-0.02398738,-0.05561136,0.90623612,-0.00023659,0.00120344
 ,-0.00009081,-0.00080983,-0.00440503,-0.00104270,-0.00014428,0.0038532
 6,0.00018935,0.01971289,0.01901193,-0.00418431,0.00323392,-0.00676133,
 0.00311164,-0.00841928,0.00202457,0.00602987,-0.01171131,0.01852095,-0
 .00133296,-0.02388391,-0.10113224,-0.00093166,0.02257081,0.06366923,0.
 00151289,0.00047581,-0.00236223,0.01230735,0.00082268,-0.00061894,-0.0
 0126441,-0.00027854,0.00219690,-0.00490705,0.00360813,0.01842447,-0.00
 443998,-0.00052128,-0.00189305,-0.00740735,-0.00013175,0.00181894,0.00
 043954,-0.00186493,0.01950701,-0.06438291,-0.00202617,-0.06559027,0.07
 002206,0.00054583,0.02831736,-0.06121429,-0.05149380,-0.03082413,0.002
 62849,0.01344421,0.00740103,0.00096545,0.00111734,0.00043598,-0.001108
 11,-0.00019893,0.00200393,0.00065822,0.00045937,0.00072279,-0.00004495
 ,0.00008284,-0.00041057,0.00031530,-0.00053123,-0.00042041,-0.00122396
 ,-0.00004193,0.00067176,0.00063428,0.00005641,-0.00058148,0.06328265,-
 0.05046836,-0.22873400,-0.10916562,-0.00029037,0.00054988,0.00010981,-
 0.00027977,-0.00004405,0.00022368,0.00033380,0.00112030,0.00056615,-0.
 00024521,0.00003826,0.00026765,0.00004658,0.00012374,-0.00033254,0.000
 27942,0.00117454,0.00017703,0.00036744,-0.00036917,-0.00014654,-0.0001
 1207,0.00008213,0.00011561,0.05636470,0.24656300,-0.03019672,-0.108440
 01,-0.11065041,-0.00750723,-0.02449070,-0.01732492,-0.00157893,-0.0001
 9979,0.00060560,0.00399267,0.00168369,-0.00421478,-0.00142005,-0.00168
 109,-0.00127765,0.00011860,0.00033307,0.00040080,-0.00024536,-0.001168
 38,0.00173988,0.00111248,-0.00115432,0.00066917,-0.00036098,0.00032776
 ,-0.00009461,0.03115479,0.12052961,0.12311363,-0.06820286,0.06066962,-
 0.04226329,0.00448312,-0.01377389,0.00956959,0.00104322,-0.00067135,-0
 .00005560,0.00026679,0.00029808,-0.00069256,-0.00005813,-0.00049282,-0
 .00013843,0.00020817,0.00001753,0.00191491,-0.00178266,0.00059969,0.00
 094238,-0.00140272,0.00008629,0.00078905,0.00068865,-0.00002861,-0.000
 75086,0.00158648,-0.00681007,0.00480871,0.07144027,0.06005535,-0.20871
 007,0.11174799,-0.00031414,0.00077239,-0.00060339,0.00003630,0.0002300
 3,-0.00026190,-0.00030093,0.00141792,0.00007341,0.00013077,0.00006043,
 0.00010808,-0.00011425,0.00020980,-0.00020043,-0.00013140,0.00078644,-
 0.00109786,-0.00021497,-0.00016664,0.00043785,0.00004750,0.00004696,-0
 .00027406,0.00859625,-0.02092896,0.01490278,-0.06643384,0.22461939,-0.
 04187044,0.11142599,-0.12172833,-0.00972510,0.02381061,-0.02009768,-0.
 00131656,-0.00003532,0.00110153,-0.00009417,0.00077955,0.00208877,0.00
 030963,0.00117162,0.00003187,0.00011958,-0.00014826,-0.00347942,0.0043
 1169,-0.00239759,-0.00105159,0.00056397,0.00123586,0.00083193,-0.00026
 305,-0.00043059,-0.00020374,0.00529249,-0.01298697,0.00934300,0.043329
 66,-0.12329533,0.13562309,-0.30695453,-0.01081713,-0.02614871,-0.01376
 693,-0.00078377,-0.00242235,-0.00036922,-0.00032638,0.00382340,0.00039
 603,-0.00005431,-0.00078065,-0.00006935,-0.00007133,0.00001364,0.00034
 485,0.00005674,0.00018421,-0.00014333,0.00009183,-0.00075446,-0.001277
 03,-0.00001702,0.00138305,0.00063851,-0.00003169,-0.00227187,-0.006040
 72,0.00021674,-0.00084787,-0.00830685,-0.00082419,-0.00104121,0.335679
 85,-0.01099427,-0.04754386,-0.00152122,0.00036563,-0.00228490,-0.00019
 929,-0.00020253,0.00038695,-0.00032584,0.00050678,0.00008616,0.0002373
 2,0.00004304,0.00014880,-0.00000672,0.00015196,-0.00030391,-0.00007535
 ,-0.00067474,0.00010833,-0.00002456,-0.00010501,0.00146299,0.00002033,
 0.00004086,-0.00054738,-0.00013271,-0.02734030,-0.00043151,-0.00247372
 ,0.02611677,0.00147331,0.00241611,0.01212495,0.04677561,-0.02837211,-0
 .00178156,-0.05247643,0.02943010,0.00104343,0.00610249,0.00139472,0.00
 019438,-0.00577425,-0.00000307,-0.00025590,0.00136535,0.00015152,0.000
 00972,0.00042899,-0.00061262,0.00008269,0.00051953,0.00055779,0.000634
 43,0.00086975,0.00158750,-0.00026083,-0.00378831,-0.00166354,-0.000018
 17,-0.00045886,-0.01563993,0.00069283,-0.00219572,-0.01730196,-0.00201
 092,-0.00229582,0.02901471,0.00161578,0.05766224,-0.00669398,-0.000262
 14,-0.00244055,-0.01444190,-0.00448979,0.02859641,-0.10679772,-0.02309
 619,0.10849510,0.00044619,0.00013672,0.00048079,-0.00098015,-0.0016858
 9,-0.00092557,0.00236005,0.00021301,-0.00103438,0.00015515,0.00057326,
 0.00248267,0.00027964,-0.00052548,0.00068687,0.00046975,0.00020240,-0.
 00001378,0.00017193,0.00013185,-0.00021419,0.00018953,-0.00013748,-0.0
 0026398,-0.00099076,0.00003901,0.00200490,0.11704173,0.00027732,0.0000
 3118,-0.00014921,-0.00025612,-0.00174643,0.00049619,-0.02392079,-0.055
 70741,0.04170256,0.00018622,-0.00035153,0.00029826,-0.00136022,0.00100
 150,-0.00016434,0.00039334,-0.00098550,0.00007604,0.00021271,0.0002568
 8,0.00012338,-0.00003034,0.00066224,-0.00008293,-0.00000802,-0.0002530
 0,0.00001644,-0.00013263,0.00029292,0.00036966,0.00009536,0.00014491,-
 0.00035409,0.00015513,0.00059325,0.00000061,0.02607134,0.05655449,-0.0
 0044740,0.00020757,0.00031792,-0.00064575,-0.00196492,0.00595421,0.112
 10323,0.04170845,-0.24912821,0.00018302,-0.00022105,0.00014764,-0.0015
 3482,-0.00138339,-0.00189487,-0.00169517,-0.00015818,-0.00100312,0.000
 20114,0.00084257,-0.00070934,0.00058469,-0.00031932,0.00002405,0.00014
 898,0.00013009,0.00000073,-0.00018115,0.00018182,0.00016508,-0.0001995
 2,-0.00010508,0.00002167,-0.00028214,0.00012288,0.00024610,-0.12006677
 ,-0.04369628,0.27250340,0.00123762,0.00039280,-0.00093675,-0.01357635,
 0.02884377,-0.01431055,-0.07521757,0.07517387,-0.03325499,0.00224532,-
 0.00032164,0.00071276,-0.00021818,0.00046078,-0.00008144,0.00176801,-0
 .00071344,0.00027509,-0.00670626,-0.00190347,0.00147652,0.00053929,0.0
 0316790,-0.00142868,-0.00089652,-0.00109587,0.00059516,-0.00006617,-0.
 00007970,0.00005427,-0.00018667,-0.00042709,0.00081953,0.00021343,-0.0
 0049066,0.00001239,0.00523310,-0.01393351,0.00451542,0.08389867,0.0000
 3060,-0.00004951,-0.00009835,-0.00099937,0.00215945,-0.00068827,0.0751
 7982,-0.23811293,0.08779525,0.00025745,0.00110205,-0.00029522,0.000145
 60,-0.00006277,0.00006632,-0.00012021,0.00009515,0.00013002,-0.0015177
 5,0.00135050,-0.00130753,0.00022077,0.00033010,0.00013233,0.00007481,-
 0.00003891,-0.00003390,-0.00003811,-0.00000569,0.00011032,0.00032263,0
 .00016271,-0.00031887,0.00007397,0.00021388,-0.00018545,0.00112797,-0.
 00418800,0.00061828,-0.08271705,0.25747090,0.00014981,-0.00058542,0.00
 024407,-0.00219656,0.00271911,-0.00320661,-0.03283995,0.08743019,-0.08
 574429,0.00038952,0.00033264,0.00050419,-0.00006054,0.00091849,0.00023
 253,-0.00097060,-0.00032320,0.00028752,-0.00077381,-0.00035686,-0.0005
 6019,0.00018829,0.00092162,-0.00028845,-0.00019996,-0.00032352,0.00011
 623,0.00007549,-0.00002569,0.00010404,0.00013646,0.00017226,0.00020877
 ,-0.00011243,0.00003329,-0.00003495,-0.01034217,0.02427463,-0.00941727
 ,0.03881262,-0.09656026,0.08954135,0.00136511,-0.00098000,-0.00126261,
 -0.00984420,-0.02565239,-0.02081590,-0.05736017,-0.04128234,-0.0352485
 7,-0.00576025,0.00143371,-0.00037829,-0.00040351,0.00008576,0.00145930
 ,0.00017755,0.00026592,0.00014883,0.00123340,0.00008707,0.00029277,0.0
 0054895,-0.00265256,-0.00151506,-0.00107371,0.00091075,0.00065536,-0.0
 0046832,0.00053666,0.00077199,-0.00003364,0.00002138,0.00020403,0.0004
 3359,0.00037607,-0.00010086,0.00311761,0.01216597,0.00865382,0.0019494
 5,0.00771499,0.00776702,0.06584641,0.00068189,0.00025396,-0.00009636,-
 0.00071067,-0.00142037,-0.00082900,-0.04241749,-0.18963222,-0.12288826
 ,0.00014234,0.00160485,0.00063479,0.00011873,-0.00011574,0.00030501,0.
 00008082,0.00004949,0.00017053,-0.00037008,0.00064730,0.00012665,-0.00
 000867,-0.00022112,-0.00038858,-0.00025009,0.00010937,0.00010228,-0.00
 033469,0.00042554,0.00040203,-0.00008504,-0.00023477,-0.00006949,0.000
 12604,0.00026540,0.00025934,0.00191925,0.00493687,0.00440811,-0.005913
 54,-0.02043072,-0.01836919,0.04695640,0.20380979,0.00112343,0.00064121
 ,0.00043427,-0.00133714,-0.00274047,-0.00384665,-0.03628900,-0.1236969
 8,-0.15208124,0.00003794,0.00066063,0.00051228,0.00020650,-0.00004213,
 0.00021471,-0.00082164,0.00019821,-0.00045815,0.00043207,-0.00066403,-
 0.00001193,0.00016835,-0.00040923,-0.00010958,-0.00025376,0.00017195,0
 .00009247,0.00007671,0.00006978,0.00056853,-0.00002054,0.00008860,0.00
 005638,-0.00002806,0.00029765,-0.00001258,-0.00624148,-0.02162206,-0.0
 1671702,0.00339226,0.01017813,0.00838299,0.04025787,0.13630175,0.16285
 735,0.00020971,0.00069829,0.00053266,-0.00206277,-0.00647677,0.0068612
 5,0.00057910,-0.00100210,0.00016545,-0.05359323,-0.03989261,0.00666484
 ,-0.00105194,-0.01406749,-0.00153249,-0.00047539,-0.00388700,0.0033496
 4,-0.00392813,0.00557684,0.00171803,0.01594243,0.01753995,-0.00535567,
 -0.00207269,-0.00326829,0.00098123,-0.00011844,-0.00000774,-0.00000162
 ,0.00011186,0.00007212,-0.00021740,0.00002636,0.00014734,-0.00014899,0
 .00003358,0.00001375,0.00002062,-0.00012170,0.00026016,-0.00013127,-0.
 00036462,0.00017759,-0.00023093,0.04445741,-0.00013837,0.00089654,0.00
 056380,0.00242098,-0.00568142,0.00626945,0.00023408,-0.00018443,-0.000
 07979,-0.04008619,-0.30421166,0.06981872,0.00134834,0.00006547,-0.0020
 3169,0.00112255,0.00145887,-0.00148933,0.00194361,-0.00772311,-0.00077
 230,-0.00986787,-0.00893086,0.00054833,0.00228927,0.00179229,-0.000250
 80,0.00005301,0.00012721,-0.00004828,0.00000126,0.00001460,-0.00065383
 ,0.00022925,-0.00019319,-0.00009592,0.00000436,-0.00000158,0.00002205,
 -0.00036057,0.00008533,-0.00015433,-0.00015887,0.00000376,-0.00006229,
 0.04234643,0.32358520,0.00013988,0.00088607,0.00201710,0.00089058,-0.0
 1458577,0.00923249,0.00088365,-0.00064721,-0.00001853,0.00773331,0.066
 75075,-0.06627146,-0.00265291,0.02111681,0.00073619,0.00223594,0.00628
 290,-0.00225544,0.00139607,-0.00390550,-0.00374009,0.00305401,-0.00171
 096,-0.00277881,-0.00067426,0.00028123,-0.00037710,0.00001445,0.000213
 27,0.00004889,-0.00008528,0.00043870,-0.00031709,0.00020603,-0.0000585
 2,-0.00017866,-0.00017198,0.00002958,-0.00004002,-0.00015198,0.0003607
 1,0.00001924,-0.00037798,0.00011195,-0.00014155,-0.01256256,-0.0733822
 5,0.06194972,0.00054713,0.00119214,0.00032143,-0.00231998,-0.00096431,
 0.00287578,-0.00041995,-0.00044617,0.00027360,0.00761060,0.00681021,0.
 01449277,-0.11344113,-0.03536231,-0.10328722,0.00569150,-0.00262168,0.
 00404072,-0.00071117,0.00114049,0.00048419,0.00197321,0.00000006,0.001
 06891,0.00015085,-0.00059602,-0.00034470,-0.00011974,0.00006369,0.0004
 5653,-0.00000964,-0.00001092,-0.00006849,0.00003939,-0.00002265,-0.000
 04535,0.00040131,0.00024350,-0.00024047,0.00005614,0.00003843,0.000041
 58,0.00025617,0.00003232,-0.00015533,0.00023849,-0.00024351,-0.0006252
 6,0.11465376,0.00018590,0.00134043,0.00003755,-0.00154032,-0.00062445,
 0.00174361,-0.00008528,0.00010402,-0.00000711,0.00711666,0.00632198,0.
 00654935,-0.03432204,-0.06657054,-0.05858828,-0.01004338,-0.02673422,-
 0.02867937,-0.00376797,-0.00283380,0.00237146,-0.00146988,-0.00047622,
 -0.00161368,0.00137512,0.00025985,0.00035381,-0.00016619,0.00003365,0.
 00038571,0.00009094,-0.00000964,-0.00017079,-0.00002369,-0.00003629,0.
 00002209,0.00014651,-0.00026668,0.00026666,-0.00002438,-0.00001204,-0.
 00008687,-0.00003560,0.00000936,0.00006437,0.00009377,-0.00004376,-0.0
 0087831,0.03829298,0.08358762,-0.00065712,-0.00195570,-0.00028228,0.00
 332666,0.00187567,-0.00267376,0.00050186,0.00050505,0.00029517,-0.0101
 2963,-0.00835683,-0.01891696,-0.10116530,-0.06318054,-0.22345998,0.003
 09302,-0.00301434,0.00616347,-0.00008181,0.00045019,-0.00132271,-0.003
 97870,0.00004227,-0.00036564,0.00199550,0.00015100,0.00048583,0.000284
 58,0.00000051,-0.00061957,-0.00003077,0.00005202,0.00009096,0.00003293
 ,0.00003426,0.00000216,-0.00003409,0.00000375,0.00009399,-0.00007896,0
 .00003334,-0.00003034,-0.00006424,-0.00004706,0.00001559,0.00029905,0.
 00045017,-0.00003875,0.10699150,0.07334710,0.23978356,0.00013837,-0.00
 014933,0.00001640,0.00010590,-0.00093123,-0.00072433,-0.00036744,-0.00
 068771,-0.00002665,-0.01308659,0.00428814,0.00188387,-0.28705763,0.070
 68967,-0.00209480,0.00812435,0.00590488,0.00056062,0.00035350,-0.00097
 079,-0.00232813,0.00071833,-0.00387893,0.00253273,-0.00098585,0.001114
 40,-0.00031048,0.00005161,0.00006032,0.00006235,-0.00002800,-0.0000063
 1,0.00009151,0.00007964,0.00002867,-0.00010082,0.00008008,-0.00019750,
 -0.00121170,0.00012408,0.00007350,0.00017868,0.00045058,-0.00003639,-0
 .00011646,-0.00009920,-0.00025565,0.00053188,-0.01449168,0.00364833,-0
 .00020274,0.30586617,-0.00036450,-0.00000305,-0.00001610,0.00104096,0.
 00044345,-0.00045871,0.00042294,0.00088591,-0.00040788,-0.01203717,0.0
 0689821,-0.00070621,0.06438183,-0.06288022,0.00110691,0.03171919,-0.02
 623411,-0.00732385,0.00096657,-0.00346910,0.00484508,-0.00044874,-0.00
 439767,0.00239381,-0.00062838,0.00151786,-0.00032823,0.00008628,-0.000
 04296,-0.00002600,0.00006565,0.00003666,-0.00012245,-0.00000958,-0.000
 02629,0.00001924,-0.00043839,-0.00090228,-0.00062389,-0.00013076,-0.00
 005992,-0.00002799,-0.00011233,-0.00009201,0.00035511,0.00080101,-0.00
 003468,-0.00051754,-0.00764227,0.00611503,-0.00037493,-0.07867842,0.08
 215598,-0.00017560,0.00043613,-0.00000602,0.00013310,0.00020575,0.0018
 9334,0.00010748,-0.00033748,-0.00027931,0.02746128,-0.00974004,-0.0007
 8911,-0.00365243,-0.00034907,-0.05242091,0.00041226,-0.00065251,0.0036
 9640,0.00018334,-0.00106331,-0.00030527,0.00006199,0.00489418,-0.00516
 945,0.00209745,-0.00195047,0.00109857,-0.00006211,-0.00000977,0.000024
 56,0.00002598,0.00002718,-0.00009470,-0.00012826,-0.00000759,0.0001507
 0,-0.00074374,-0.00126457,-0.00057407,-0.00009911,0.00014767,-0.000239
 65,-0.00021533,0.00007848,0.00032946,-0.00055589,0.00032648,0.00044006
 ,-0.02633228,0.00599787,0.00075399,0.00137876,0.00332024,0.05156790,0.
 00003110,-0.00002155,0.00045654,0.00009546,0.00817095,0.00429203,0.000
 58667,0.00024946,0.00046892,-0.00284151,-0.00543402,0.00034562,-0.0015
 2375,-0.00029238,0.00336125,-0.00257501,0.01981833,0.00423801,-0.05441
 940,0.02519046,-0.00162624,0.01643991,-0.01456965,-0.00127078,-0.00323
 822,0.00242408,0.00016127,0.00011029,-0.00010790,-0.00015946,-0.000006
 94,-0.00004415,-0.00018167,0.00006706,-0.00011093,-0.00016434,-0.00007
 515,0.00002446,0.00009399,-0.00027569,-0.00012819,-0.00011218,-0.00007
 039,-0.00010872,-0.00020081,0.00228916,-0.00088210,0.00021641,-0.00010
 528,0.00052851,-0.00010175,0.00002378,0.00100611,0.00010310,0.04548789
 ,0.00010735,0.00038635,-0.00016408,-0.00338444,-0.00417174,-0.00479193
 ,-0.00007463,0.00016332,0.00002506,-0.00136295,-0.00629183,0.00047012,
 -0.00069397,0.00065561,0.00082880,0.00070234,-0.00166760,-0.00119939,0
 .03140749,-0.32472168,-0.03538453,0.01073791,-0.00597922,0.00140757,-0
 .00297668,0.00104604,-0.00019820,0.00001739,0.00002514,0.00063766,-0.0
 0006820,0.00007451,0.00014384,-0.00011557,-0.00014734,0.00003421,0.000
 06970,-0.00007181,-0.00003636,0.00007256,-0.00000957,0.00001112,0.0003
 1941,0.00003127,0.00020981,0.00087473,-0.00102458,-0.00078590,0.000096
 02,-0.00016432,-0.00001594,-0.00001565,0.00008918,-0.00005918,-0.03571
 278,0.34177827,-0.00003473,-0.00064550,0.00193954,0.00231331,0.0148458
 3,0.00843651,0.00073532,0.00025818,0.00023375,0.00044180,0.00394227,-0
 .00234812,0.00329247,-0.00002935,-0.00393805,0.00485787,-0.03013676,-0
 .00671672,-0.00078606,-0.02497299,-0.05107481,-0.00001968,0.00069223,-
 0.00081765,-0.00031396,-0.00063352,-0.00045972,-0.00001422,-0.00048061
 ,-0.00040553,0.00002206,-0.00019990,-0.00012958,0.00016004,0.00004789,
 -0.00013172,-0.00025405,-0.00005763,0.00000914,-0.00032358,-0.00008451
 ,-0.00011919,-0.00023215,-0.00021298,-0.00008531,0.00014405,0.00102179
 ,0.00171380,0.00005208,-0.00111517,0.00002527,-0.00012069,-0.00110659,
 -0.00007648,-0.00991991,0.03886732,0.05394486\\0.00000069,-0.00001979,
 -0.00002157,-0.00001491,-0.00003516,0.00005057,-0.00002063,0.00001145,
 -0.00001202,0.00003168,0.00002823,-0.00001959,0.00000292,-0.00009901,0
 .00005954,-0.00004890,0.00009839,0.00001571,0.00006804,-0.00002514,-0.
 00010616,0.00000241,0.00003838,0.00000565,-0.00001690,-0.00002312,0.00
 000274,-0.00000200,-0.00000279,-0.00000274,-0.00000551,-0.00000352,0.0
 0000876,-0.00000564,-0.00000578,-0.00000715,-0.00000261,-0.00000464,0.
 00000367,0.00000668,0.00000109,0.00000696,-0.00000216,-0.00000028,0.00
 001053,-0.00001054,-0.00000297,0.00000524,0.00000556,0.00001089,-0.000
 00097,0.00001217,0.00002986,-0.00001088,-0.00000036,0.00000393,0.00001
 173\\\@


 A SUCCESSFUL PURSUIT OF SCIENCE MAKES A MAN THE
 BENEFACTOR OF ALL MANKIND OF EVERY AGE.
   --  JOSEPH PRIESTLEY, "EXPERIMENTS AND
 OBSERVATIONS ON DIFFERENT KINDS OF AIR", 1774
 Job cpu time:       0 days  0 hours 45 minutes 51.7 seconds.
 File lengths (MBytes):  RWF=    152 Int=      0 D2E=      0 Chk=      8 Scr=      1
 Normal termination of Gaussian 09 at Mon Jan 27 17:02:21 2020.
