 Entering Gaussian System, Link 0=/home/puck/opt/gaussian_09/g09
 Input=dsC7O2H10nsd_3858.com
 Output=dsC7O2H10nsd_3858.log
 Initial command:
 /home/puck/opt/gaussian_09/l1.exe "/scratch/puck/g09_28514886-609a-45d5-a7e7-fbfbba47004e/Gau-172334.inp" -scrdir="/scratch/puck/g09_28514886-609a-45d5-a7e7-fbfbba47004e/"
 Entering Link 1 = /home/puck/opt/gaussian_09/l1.exe PID=    172336.
  
 Copyright (c) 1988,1990,1992,1993,1995,1998,2003,2009,2013,
            Gaussian, Inc.  All Rights Reserved.
  
 This is part of the Gaussian(R) 09 program.  It is based on
 the Gaussian(R) 03 system (copyright 2003, Gaussian, Inc.),
 the Gaussian(R) 98 system (copyright 1998, Gaussian, Inc.),
 the Gaussian(R) 94 system (copyright 1995, Gaussian, Inc.),
 the Gaussian 92(TM) system (copyright 1992, Gaussian, Inc.),
 the Gaussian 90(TM) system (copyright 1990, Gaussian, Inc.),
 the Gaussian 88(TM) system (copyright 1988, Gaussian, Inc.),
 the Gaussian 86(TM) system (copyright 1986, Carnegie Mellon
 University), and the Gaussian 82(TM) system (copyright 1983,
 Carnegie Mellon University). Gaussian is a federally registered
 trademark of Gaussian, Inc.
  
 This software contains proprietary and confidential information,
 including trade secrets, belonging to Gaussian, Inc.
  
 This software is provided under written license and may be
 used, copied, transmitted, or stored only in accord with that
 written license.
  
 The following legend is applicable only to US Government
 contracts under FAR:
  
                    RESTRICTED RIGHTS LEGEND
  
 Use, reproduction and disclosure by the US Government is
 subject to restrictions as set forth in subparagraphs (a)
 and (c) of the Commercial Computer Software - Restricted
 Rights clause in FAR 52.227-19.
  
 Gaussian, Inc.
 340 Quinnipiac St., Bldg. 40, Wallingford CT 06492
  
  
 ---------------------------------------------------------------
 Warning -- This program may not be used in any manner that
 competes with the business of Gaussian, Inc. or will provide
 assistance to any competitor of Gaussian, Inc.  The licensee
 of this program is prohibited from giving any competitor of
 Gaussian, Inc. access to this program.  By using this program,
 the user acknowledges that Gaussian, Inc. is engaged in the
 business of creating and licensing software in the field of
 computational chemistry and represents and warrants to the
 licensee that it is not a competitor of Gaussian, Inc. and that
 it will not use this program in any manner prohibited above.
 ---------------------------------------------------------------
  

 Cite this work as:
 Gaussian 09, Revision D.01,
 M. J. Frisch, G. W. Trucks, H. B. Schlegel, G. E. Scuseria, 
 M. A. Robb, J. R. Cheeseman, G. Scalmani, V. Barone, B. Mennucci, 
 G. A. Petersson, H. Nakatsuji, M. Caricato, X. Li, H. P. Hratchian, 
 A. F. Izmaylov, J. Bloino, G. Zheng, J. L. Sonnenberg, M. Hada, 
 M. Ehara, K. Toyota, R. Fukuda, J. Hasegawa, M. Ishida, T. Nakajima, 
 Y. Honda, O. Kitao, H. Nakai, T. Vreven, J. A. Montgomery, Jr., 
 J. E. Peralta, F. Ogliaro, M. Bearpark, J. J. Heyd, E. Brothers, 
 K. N. Kudin, V. N. Staroverov, T. Keith, R. Kobayashi, J. Normand, 
 K. Raghavachari, A. Rendell, J. C. Burant, S. S. Iyengar, J. Tomasi, 
 M. Cossi, N. Rega, J. M. Millam, M. Klene, J. E. Knox, J. B. Cross, 
 V. Bakken, C. Adamo, J. Jaramillo, R. Gomperts, R. E. Stratmann, 
 O. Yazyev, A. J. Austin, R. Cammi, C. Pomelli, J. W. Ochterski, 
 R. L. Martin, K. Morokuma, V. G. Zakrzewski, G. A. Voth, 
 P. Salvador, J. J. Dannenberg, S. Dapprich, A. D. Daniels, 
 O. Farkas, J. B. Foresman, J. V. Ortiz, J. Cioslowski, 
 and D. J. Fox, Gaussian, Inc., Wallingford CT, 2013.
 
 ******************************************
 Gaussian 09:  ES64L-G09RevD.01 24-Apr-2013
                28-Jan-2020 
 ******************************************
 -----------------------------
 # b3lyp 6-31G(2df,p) opt Freq
 -----------------------------
 1/14=-1,18=20,19=15,26=3,38=1/1,3;
 2/9=110,12=2,17=6,18=5,40=1/2;
 3/5=1,6=6,7=104,11=2,16=1,25=1,30=1,71=1,74=-5/1,2,3;
 4//1;
 5/5=2,38=5/2;
 6/7=2,8=2,9=2,10=2,28=1/1;
 7//1,2,3,16;
 1/14=-1,18=20,19=15,26=3/3(2);
 2/9=110/2;
 99//99;
 2/9=110/2;
 3/5=1,6=6,7=104,11=2,16=1,25=1,30=1,71=1,74=-5/1,2,3;
 4/5=5,16=3,69=1/1;
 5/5=2,38=5/2;
 7//1,2,3,16;
 1/14=-1,18=20,19=15,26=3/3(-5);
 2/9=110/2;
 6/7=2,8=2,9=2,10=2,19=2,28=1/1;
 99/9=1/99;
 -----
 titel
 -----
 Symbolic Z-matrix:
 Charge =  0 Multiplicity = 1
 O                    -5.43556  -0.38404   0.22803 
 C                    -4.14304   0.15151   0.1347 
 C                    -3.06141  -0.21877   1.18491 
 C                    -2.01273  -0.16963   0.04162 
 C                    -3.17034  -0.32936  -0.97548 
 C                    -0.75055  -1.07679   0.05287 
 C                     0.11286   0.19191   0.13819 
 O                     1.27801   0.39352   0.31721 
 C                    -1.1114    1.10464  -0.04053 
 H                    -5.35977  -1.34311   0.2747 
 H                    -4.27883   1.23595   0.08575 
 H                    -2.92412   0.43708   2.04874 
 H                    -3.20712  -1.24585   1.54106 
 H                    -3.12307   0.23494  -1.91076 
 H                    -3.34644  -1.38645  -1.20945 
 H                    -0.64503  -1.77331   0.89059 
 H                    -0.58645  -1.63071  -0.87861 
 H                    -1.24336   1.86516   0.73517 
 H                    -1.11852   1.60274  -1.01659 
 

 GradGradGradGradGradGradGradGradGradGradGradGradGradGradGradGradGradGrad
 Berny optimization.
 Initialization pass.
                           ----------------------------
                           !    Initial Parameters    !
                           ! (Angstroms and Degrees)  !
 --------------------------                            --------------------------
 ! Name  Definition              Value          Derivative Info.                !
 --------------------------------------------------------------------------------
 ! R1    R(1,2)                  1.4022         estimate D2E/DX2                !
 ! R2    R(1,10)                 0.9632         estimate D2E/DX2                !
 ! R3    R(2,3)                  1.5524         estimate D2E/DX2                !
 ! R4    R(2,5)                  1.5524         estimate D2E/DX2                !
 ! R5    R(2,11)                 1.094          estimate D2E/DX2                !
 ! R6    R(3,4)                  1.5522         estimate D2E/DX2                !
 ! R7    R(3,12)                 1.0932         estimate D2E/DX2                !
 ! R8    R(3,13)                 1.0968         estimate D2E/DX2                !
 ! R9    R(4,5)                  1.5492         estimate D2E/DX2                !
 ! R10   R(4,6)                  1.5544         estimate D2E/DX2                !
 ! R11   R(4,9)                  1.563          estimate D2E/DX2                !
 ! R12   R(5,14)                 1.0934         estimate D2E/DX2                !
 ! R13   R(5,15)                 1.0969         estimate D2E/DX2                !
 ! R14   R(6,7)                  1.537          estimate D2E/DX2                !
 ! R15   R(6,16)                 1.0946         estimate D2E/DX2                !
 ! R16   R(6,17)                 1.0961         estimate D2E/DX2                !
 ! R17   R(7,8)                  1.1959         estimate D2E/DX2                !
 ! R18   R(7,9)                  1.5375         estimate D2E/DX2                !
 ! R19   R(9,18)                 1.0943         estimate D2E/DX2                !
 ! R20   R(9,19)                 1.0958         estimate D2E/DX2                !
 ! A1    A(2,1,10)             108.1192         estimate D2E/DX2                !
 ! A2    A(1,2,3)              120.4061         estimate D2E/DX2                !
 ! A3    A(1,2,5)              120.4557         estimate D2E/DX2                !
 ! A4    A(1,2,11)             105.4952         estimate D2E/DX2                !
 ! A5    A(3,2,5)               88.4726         estimate D2E/DX2                !
 ! A6    A(3,2,11)             110.6821         estimate D2E/DX2                !
 ! A7    A(5,2,11)             110.6608         estimate D2E/DX2                !
 ! A8    A(2,3,4)               87.9878         estimate D2E/DX2                !
 ! A9    A(2,3,12)             118.617          estimate D2E/DX2                !
 ! A10   A(2,3,13)             110.5159         estimate D2E/DX2                !
 ! A11   A(4,3,12)             118.5658         estimate D2E/DX2                !
 ! A12   A(4,3,13)             111.0127         estimate D2E/DX2                !
 ! A13   A(12,3,13)            108.7768         estimate D2E/DX2                !
 ! A14   A(3,4,5)               88.5946         estimate D2E/DX2                !
 ! A15   A(3,4,6)              121.6547         estimate D2E/DX2                !
 ! A16   A(3,4,9)              117.0091         estimate D2E/DX2                !
 ! A17   A(5,4,6)              123.458          estimate D2E/DX2                !
 ! A18   A(5,4,9)              118.7153         estimate D2E/DX2                !
 ! A19   A(6,4,9)               90.4543         estimate D2E/DX2                !
 ! A20   A(2,5,4)               88.0947         estimate D2E/DX2                !
 ! A21   A(2,5,14)             118.6178         estimate D2E/DX2                !
 ! A22   A(2,5,15)             110.5157         estimate D2E/DX2                !
 ! A23   A(4,5,14)             118.4304         estimate D2E/DX2                !
 ! A24   A(4,5,15)             111.0614         estimate D2E/DX2                !
 ! A25   A(14,5,15)            108.7756         estimate D2E/DX2                !
 ! A26   A(4,6,7)               88.5566         estimate D2E/DX2                !
 ! A27   A(4,6,16)             117.0777         estimate D2E/DX2                !
 ! A28   A(4,6,17)             114.2271         estimate D2E/DX2                !
 ! A29   A(7,6,16)             115.3808         estimate D2E/DX2                !
 ! A30   A(7,6,17)             112.3473         estimate D2E/DX2                !
 ! A31   A(16,6,17)            108.3238         estimate D2E/DX2                !
 ! A32   A(6,7,8)              134.0073         estimate D2E/DX2                !
 ! A33   A(6,7,9)               92.0784         estimate D2E/DX2                !
 ! A34   A(8,7,9)              133.876          estimate D2E/DX2                !
 ! A35   A(4,9,7)               88.2281         estimate D2E/DX2                !
 ! A36   A(4,9,18)             117.375          estimate D2E/DX2                !
 ! A37   A(4,9,19)             114.434          estimate D2E/DX2                !
 ! A38   A(7,9,18)             115.2268         estimate D2E/DX2                !
 ! A39   A(7,9,19)             112.2433         estimate D2E/DX2                !
 ! A40   A(18,9,19)            108.3428         estimate D2E/DX2                !
 ! D1    D(10,1,2,3)           -53.9397         estimate D2E/DX2                !
 ! D2    D(10,1,2,5)            54.0719         estimate D2E/DX2                !
 ! D3    D(10,1,2,11)         -179.9296         estimate D2E/DX2                !
 ! D4    D(1,2,3,4)            144.4951         estimate D2E/DX2                !
 ! D5    D(1,2,3,12)           -93.7778         estimate D2E/DX2                !
 ! D6    D(1,2,3,13)            32.7827         estimate D2E/DX2                !
 ! D7    D(5,2,3,4)             19.5867         estimate D2E/DX2                !
 ! D8    D(5,2,3,12)           141.3139         estimate D2E/DX2                !
 ! D9    D(5,2,3,13)           -92.1256         estimate D2E/DX2                !
 ! D10   D(11,2,3,4)           -91.9568         estimate D2E/DX2                !
 ! D11   D(11,2,3,12)           29.7704         estimate D2E/DX2                !
 ! D12   D(11,2,3,13)          156.3309         estimate D2E/DX2                !
 ! D13   D(1,2,5,4)           -144.4911         estimate D2E/DX2                !
 ! D14   D(1,2,5,14)            93.8745         estimate D2E/DX2                !
 ! D15   D(1,2,5,15)           -32.6849         estimate D2E/DX2                !
 ! D16   D(3,2,5,4)            -19.6245         estimate D2E/DX2                !
 ! D17   D(3,2,5,14)          -141.2589         estimate D2E/DX2                !
 ! D18   D(3,2,5,15)            92.1817         estimate D2E/DX2                !
 ! D19   D(11,2,5,4)            91.9393         estimate D2E/DX2                !
 ! D20   D(11,2,5,14)          -29.6951         estimate D2E/DX2                !
 ! D21   D(11,2,5,15)         -156.2545         estimate D2E/DX2                !
 ! D22   D(2,3,4,5)            -19.6273         estimate D2E/DX2                !
 ! D23   D(2,3,4,6)           -148.8809         estimate D2E/DX2                !
 ! D24   D(2,3,4,9)            102.1711         estimate D2E/DX2                !
 ! D25   D(12,3,4,5)          -141.3996         estimate D2E/DX2                !
 ! D26   D(12,3,4,6)            89.3469         estimate D2E/DX2                !
 ! D27   D(12,3,4,9)           -19.6012         estimate D2E/DX2                !
 ! D28   D(13,3,4,5)            91.6062         estimate D2E/DX2                !
 ! D29   D(13,3,4,6)           -37.6473         estimate D2E/DX2                !
 ! D30   D(13,3,4,9)          -146.5954         estimate D2E/DX2                !
 ! D31   D(3,4,5,2)             19.6264         estimate D2E/DX2                !
 ! D32   D(3,4,5,14)           141.4256         estimate D2E/DX2                !
 ! D33   D(3,4,5,15)           -91.6551         estimate D2E/DX2                !
 ! D34   D(6,4,5,2)            147.434          estimate D2E/DX2                !
 ! D35   D(6,4,5,14)           -90.7667         estimate D2E/DX2                !
 ! D36   D(6,4,5,15)            36.1526         estimate D2E/DX2                !
 ! D37   D(9,4,5,2)           -100.6737         estimate D2E/DX2                !
 ! D38   D(9,4,5,14)            21.1255         estimate D2E/DX2                !
 ! D39   D(9,4,5,15)           148.0448         estimate D2E/DX2                !
 ! D40   D(3,4,6,7)           -116.372          estimate D2E/DX2                !
 ! D41   D(3,4,6,16)             1.5759         estimate D2E/DX2                !
 ! D42   D(3,4,6,17)           129.6908         estimate D2E/DX2                !
 ! D43   D(5,4,6,7)            131.7346         estimate D2E/DX2                !
 ! D44   D(5,4,6,16)          -110.3175         estimate D2E/DX2                !
 ! D45   D(5,4,6,17)            17.7974         estimate D2E/DX2                !
 ! D46   D(9,4,6,7)              6.2033         estimate D2E/DX2                !
 ! D47   D(9,4,6,16)           124.1513         estimate D2E/DX2                !
 ! D48   D(9,4,6,17)          -107.7339         estimate D2E/DX2                !
 ! D49   D(3,4,9,7)            120.1752         estimate D2E/DX2                !
 ! D50   D(3,4,9,18)             2.5193         estimate D2E/DX2                !
 ! D51   D(3,4,9,19)          -126.1264         estimate D2E/DX2                !
 ! D52   D(5,4,9,7)           -135.4742         estimate D2E/DX2                !
 ! D53   D(5,4,9,18)           106.8699         estimate D2E/DX2                !
 ! D54   D(5,4,9,19)           -21.7758         estimate D2E/DX2                !
 ! D55   D(6,4,9,7)             -6.2024         estimate D2E/DX2                !
 ! D56   D(6,4,9,18)          -123.8582         estimate D2E/DX2                !
 ! D57   D(6,4,9,19)           107.496          estimate D2E/DX2                !
 ! D58   D(4,6,7,8)            171.5942         estimate D2E/DX2                !
 ! D59   D(4,6,7,9)             -6.3106         estimate D2E/DX2                !
 ! D60   D(16,6,7,8)            52.1199         estimate D2E/DX2                !
 ! D61   D(16,6,7,9)          -125.785          estimate D2E/DX2                !
 ! D62   D(17,6,7,8)           -72.7185         estimate D2E/DX2                !
 ! D63   D(17,6,7,9)           109.3767         estimate D2E/DX2                !
 ! D64   D(6,7,9,4)              6.2768         estimate D2E/DX2                !
 ! D65   D(6,7,9,18)           125.8778         estimate D2E/DX2                !
 ! D66   D(6,7,9,19)          -109.4743         estimate D2E/DX2                !
 ! D67   D(8,7,9,4)           -171.6326         estimate D2E/DX2                !
 ! D68   D(8,7,9,18)           -52.0316         estimate D2E/DX2                !
 ! D69   D(8,7,9,19)            72.6162         estimate D2E/DX2                !
 --------------------------------------------------------------------------------
 Trust Radius=3.00D-01 FncErr=1.00D-07 GrdErr=1.00D-06
 Number of steps in this run=    114 maximum allowed number of steps=    114.
 GradGradGradGradGradGradGradGradGradGradGradGradGradGradGradGradGradGrad

                          Input orientation:                          
 ---------------------------------------------------------------------
 Center     Atomic      Atomic             Coordinates (Angstroms)
 Number     Number       Type             X           Y           Z
 ---------------------------------------------------------------------
      1          8           0       -5.435562   -0.384035    0.228028
      2          6           0       -4.143040    0.151508    0.134701
      3          6           0       -3.061411   -0.218768    1.184914
      4          6           0       -2.012725   -0.169629    0.041619
      5          6           0       -3.170336   -0.329365   -0.975477
      6          6           0       -0.750549   -1.076787    0.052868
      7          6           0        0.112856    0.191911    0.138188
      8          8           0        1.278013    0.393522    0.317206
      9          6           0       -1.111403    1.104645   -0.040527
     10          1           0       -5.359773   -1.343114    0.274697
     11          1           0       -4.278832    1.235952    0.085754
     12          1           0       -2.924120    0.437076    2.048744
     13          1           0       -3.207118   -1.245854    1.541063
     14          1           0       -3.123071    0.234937   -1.910764
     15          1           0       -3.346442   -1.386450   -1.209445
     16          1           0       -0.645030   -1.773310    0.890589
     17          1           0       -0.586447   -1.630710   -0.878606
     18          1           0       -1.243360    1.865162    0.735168
     19          1           0       -1.118516    1.602738   -1.016594
 ---------------------------------------------------------------------
                    Distance matrix (angstroms):
                    1          2          3          4          5
     1  O    0.000000
     2  C    1.402188   0.000000
     3  C    2.565061   1.552409   0.000000
     4  C    3.434608   2.156394   1.552185   0.000000
     5  C    2.565670   1.552382   2.165961   1.549214   0.000000
     6  C    4.739191   3.608934   2.712528   1.554397   2.733405
     7  C    5.578955   4.256090   3.367531   2.158271   3.505899
     8  O    6.759041   5.429520   4.467484   3.349932   4.688432
     9  C    4.581118   3.182766   2.656249   1.562979   2.677633
    10  H    0.963200   1.932339   2.715717   3.554451   2.717400
    11  H    1.995652   1.094008   2.192368   2.666992   2.192075
    12  H    3.208827   2.287110   1.093244   2.286325   3.129531
    13  H    2.726309   2.192357   1.096804   2.198446   2.678485
    14  H    3.210167   2.287187   3.129356   2.282179   1.093358
    15  H    2.726827   2.192399   2.679119   2.196501   1.096897
    16  H    5.031726   4.063541   2.888274   2.272253   3.456060
    17  H    5.127647   4.105174   3.518116   2.239608   2.894713
    18  H    4.784417   3.421303   2.801847   2.283267   3.384596
    19  H    4.912560   3.546730   3.455338   2.249602   2.818630
                    6          7          8          9         10
     6  C    0.000000
     7  C    1.536991   0.000000
     8  O    2.519275   1.195945   0.000000
     9  C    2.213048   1.537476   2.518526   0.000000
    10  H    4.622238   5.685474   6.861335   4.913201   0.000000
    11  H    4.218842   4.514388   5.625103   3.172664   2.802805
    12  H    3.316581   3.596326   4.545112   2.845461   3.499817
    13  H    2.877158   3.880394   4.929683   3.523960   2.499414
    14  H    3.347437   3.830311   4.935437   2.881144   3.502759
    15  H    2.903099   4.034114   5.185031   3.545042   2.501612
    16  H    1.094556   2.236647   2.953307   3.060572   4.774222
    17  H    1.096086   2.201100   3.000615   2.908629   4.919092
    18  H    3.059977   2.235056   2.949192   1.094304   5.239268
    19  H    2.908436   2.200052   2.997428   1.095835   5.322945
                   11         12         13         14         15
    11  H    0.000000
    12  H    2.515308   0.000000
    13  H    3.070157   1.780472   0.000000
    14  H    2.514736   3.969652   3.756982   0.000000
    15  H    3.069835   3.757579   2.757621   1.780628   0.000000
    16  H    4.786224   3.379554   2.695481   4.245152   3.443462
    17  H    4.772992   4.278999   3.587594   3.313676   2.790464
    18  H    3.167292   2.567074   3.766196   3.632066   4.333296
    19  H    3.367091   3.743697   4.361003   2.586245   3.733107
                   16         17         18         19
    16  H    0.000000
    17  H    1.775899   0.000000
    18  H    3.690614   3.906011   0.000000
    19  H    3.906307   3.279836   1.775703   0.000000
 Stoichiometry    C7H10O2
 Framework group  C1[X(C7H10O2)]
 Deg. of freedom    51
 Full point group                 C1      NOp   1
 Largest Abelian subgroup         C1      NOp   1
 Largest concise Abelian subgroup C1      NOp   1
                         Standard orientation:                         
 ---------------------------------------------------------------------
 Center     Atomic      Atomic             Coordinates (Angstroms)
 Number     Number       Type             X           Y           Z
 ---------------------------------------------------------------------
      1          8           0       -3.334622   -0.004244   -0.121601
      2          6           0       -1.996568   -0.406954   -0.005129
      3          6           0       -0.951834    0.020288   -1.070947
      4          6           0        0.092079    0.123582    0.073105
      5          6           0       -1.079637    0.214485    1.082501
      6          6           0        1.260184    1.147799    0.021527
      7          6           0        2.243100   -0.033448   -0.008039
      8          8           0        3.423039   -0.128469   -0.178328
      9          6           0        1.112604   -1.052172    0.211077
     10          1           0       -3.352185    0.954682   -0.210516
     11          1           0       -2.026553   -1.496265    0.091605
     12          1           0       -0.748017   -0.656379   -1.905071
     13          1           0       -1.195211    1.011712   -1.471976
     14          1           0       -0.981516   -0.300948    2.041736
     15          1           0       -1.358546    1.258683    1.269703
     16          1           0        1.300886    1.813838   -0.846107
     17          1           0        1.365963    1.755402    0.927637
     18          1           0        1.058266   -1.855227   -0.530309
     19          1           0        1.150009   -1.505273    1.208150
 ---------------------------------------------------------------------
 Rotational constants (GHZ):      5.3295434      0.8384551      0.8296593
 Standard basis: 6-31G(2df,p) (6D, 7F)
 There are   329 symmetry adapted cartesian basis functions of A   symmetry.
 There are   302 symmetry adapted basis functions of A   symmetry.
   302 basis functions,   466 primitive gaussians,   329 cartesian basis functions
    34 alpha electrons       34 beta electrons
       nuclear repulsion energy       446.4568717690 Hartrees.
 NAtoms=   19 NActive=   19 NUniq=   19 SFac= 1.00D+00 NAtFMM=   60 NAOKFM=F Big=F
 Integral buffers will be    131072 words long.
 Raffenetti 2 integral format.
 Two-electron integral symmetry is turned on.
 One-electron integrals computed using PRISM.
 NBasis=   302 RedAO= T EigKep=  3.83D-04  NBF=   302
 NBsUse=   302 1.00D-06 EigRej= -1.00D+00 NBFU=   302
 ExpMin= 1.61D-01 ExpMax= 5.48D+03 ExpMxC= 8.25D+02 IAcc=1 IRadAn=         1 AccDes= 0.00D+00
 Harris functional with IExCor=  402 and IRadAn=       1 diagonalized for initial guess.
 HarFok:  IExCor=  402 AccDes= 0.00D+00 IRadAn=         1 IDoV= 1 UseB2=F ITyADJ=14
 ICtDFT=  3500011 ScaDFX=  1.000000  1.000000  1.000000  1.000000
 FoFCou: FMM=F IPFlag=           0 FMFlag=      100000 FMFlg1=           0
         NFxFlg=           0 DoJE=T BraDBF=F KetDBF=T FulRan=T
         wScrn=  0.000000 ICntrl=     500 IOpCl=  0 I1Cent=   200000004 NGrid=           0
         NMat0=    1 NMatS0=      1 NMatT0=    0 NMatD0=    1 NMtDS0=    0 NMtDT0=    0
 Petite list used in FoFCou.
 Requested convergence on RMS density matrix=1.00D-08 within 128 cycles.
 Requested convergence on MAX density matrix=1.00D-06.
 Requested convergence on             energy=1.00D-06.
 No special actions if energy rises.
 Integral accuracy reduced to 1.0D-05 until final iterations.
 Initial convergence to 1.0D-05 achieved.  Increase integral accuracy.
 SCF Done:  E(RB3LYP) =  -423.177662682     A.U. after   14 cycles
            NFock= 14  Conv=0.29D-08     -V/T= 2.0074

 **********************************************************************

            Population analysis using the SCF density.

 **********************************************************************

 Orbital symmetries:
       Occupied  (A) (A) (A) (A) (A) (A) (A) (A) (A) (A) (A) (A)
                 (A) (A) (A) (A) (A) (A) (A) (A) (A) (A) (A) (A)
                 (A) (A) (A) (A) (A) (A) (A) (A) (A) (A)
       Virtual   (A) (A) (A) (A) (A) (A) (A) (A) (A) (A) (A) (A)
                 (A) (A) (A) (A) (A) (A) (A) (A) (A) (A) (A) (A)
                 (A) (A) (A) (A) (A) (A) (A) (A) (A) (A) (A) (A)
                 (A) (A) (A) (A) (A) (A) (A) (A) (A) (A) (A) (A)
                 (A) (A) (A) (A) (A) (A) (A) (A) (A) (A) (A) (A)
                 (A) (A) (A) (A) (A) (A) (A) (A) (A) (A) (A) (A)
                 (A) (A) (A) (A) (A) (A) (A) (A) (A) (A) (A) (A)
                 (A) (A) (A) (A) (A) (A) (A) (A) (A) (A) (A) (A)
                 (A) (A) (A) (A) (A) (A) (A) (A) (A) (A) (A) (A)
                 (A) (A) (A) (A) (A) (A) (A) (A) (A) (A) (A) (A)
                 (A) (A) (A) (A) (A) (A) (A) (A) (A) (A) (A) (A)
                 (A) (A) (A) (A) (A) (A) (A) (A) (A) (A) (A) (A)
                 (A) (A) (A) (A) (A) (A) (A) (A) (A) (A) (A) (A)
                 (A) (A) (A) (A) (A) (A) (A) (A) (A) (A) (A) (A)
                 (A) (A) (A) (A) (A) (A) (A) (A) (A) (A) (A) (A)
                 (A) (A) (A) (A) (A) (A) (A) (A) (A) (A) (A) (A)
                 (A) (A) (A) (A) (A) (A) (A) (A) (A) (A) (A) (A)
                 (A) (A) (A) (A) (A) (A) (A) (A) (A) (A) (A) (A)
                 (A) (A) (A) (A) (A) (A) (A) (A) (A) (A) (A) (A)
                 (A) (A) (A) (A) (A) (A) (A) (A) (A) (A) (A) (A)
                 (A) (A) (A) (A) (A) (A) (A) (A) (A) (A) (A) (A)
                 (A) (A) (A) (A) (A) (A) (A) (A) (A) (A) (A) (A)
                 (A) (A) (A) (A)
 The electronic state is 1-A.
 Alpha  occ. eigenvalues --  -19.14277 -19.13732 -10.27158 -10.23912 -10.21106
 Alpha  occ. eigenvalues --  -10.19377 -10.19301 -10.18893 -10.18866  -1.04623
 Alpha  occ. eigenvalues --   -1.02669  -0.87309  -0.79820  -0.68742  -0.67427
 Alpha  occ. eigenvalues --   -0.62981  -0.54865  -0.53098  -0.50739  -0.48626
 Alpha  occ. eigenvalues --   -0.47770  -0.45219  -0.42923  -0.41835  -0.39725
 Alpha  occ. eigenvalues --   -0.39117  -0.38735  -0.37757  -0.36210  -0.32166
 Alpha  occ. eigenvalues --   -0.31601  -0.29631  -0.26576  -0.24309
 Alpha virt. eigenvalues --   -0.02229   0.06738   0.08004   0.08596   0.10322
 Alpha virt. eigenvalues --    0.13458   0.13987   0.14365   0.15514   0.15877
 Alpha virt. eigenvalues --    0.17118   0.17857   0.19578   0.21567   0.23490
 Alpha virt. eigenvalues --    0.24845   0.25782   0.26573   0.29268   0.30322
 Alpha virt. eigenvalues --    0.33100   0.42063   0.44675   0.45146   0.45471
 Alpha virt. eigenvalues --    0.47008   0.49027   0.50654   0.51571   0.52798
 Alpha virt. eigenvalues --    0.54454   0.57219   0.59029   0.59575   0.60417
 Alpha virt. eigenvalues --    0.61875   0.63476   0.63533   0.65605   0.68680
 Alpha virt. eigenvalues --    0.69463   0.70144   0.71284   0.73291   0.74563
 Alpha virt. eigenvalues --    0.74929   0.75577   0.78415   0.78993   0.79452
 Alpha virt. eigenvalues --    0.79915   0.81197   0.84784   0.86657   0.88223
 Alpha virt. eigenvalues --    0.89392   0.92260   0.94208   0.95630   0.96586
 Alpha virt. eigenvalues --    0.98149   0.99147   0.99940   1.00078   1.05080
 Alpha virt. eigenvalues --    1.09284   1.10683   1.14056   1.16312   1.20176
 Alpha virt. eigenvalues --    1.20932   1.24498   1.27710   1.28641   1.31690
 Alpha virt. eigenvalues --    1.32821   1.34610   1.37211   1.38090   1.41212
 Alpha virt. eigenvalues --    1.42034   1.42651   1.43969   1.47838   1.48610
 Alpha virt. eigenvalues --    1.49301   1.51410   1.52741   1.55894   1.56569
 Alpha virt. eigenvalues --    1.57788   1.61035   1.62994   1.65585   1.66247
 Alpha virt. eigenvalues --    1.71617   1.72799   1.74297   1.74997   1.76673
 Alpha virt. eigenvalues --    1.81945   1.82971   1.84543   1.91184   1.94645
 Alpha virt. eigenvalues --    1.98382   2.00748   2.04432   2.05549   2.09681
 Alpha virt. eigenvalues --    2.15566   2.17833   2.19430   2.21353   2.26081
 Alpha virt. eigenvalues --    2.28500   2.31266   2.34884   2.37248   2.42767
 Alpha virt. eigenvalues --    2.43819   2.46239   2.48916   2.51680   2.54894
 Alpha virt. eigenvalues --    2.56250   2.58084   2.59671   2.66949   2.69722
 Alpha virt. eigenvalues --    2.69860   2.73247   2.77207   2.78821   2.83840
 Alpha virt. eigenvalues --    2.86353   2.87834   2.88552   2.90916   2.92683
 Alpha virt. eigenvalues --    2.94420   2.95422   2.96600   2.98446   3.01808
 Alpha virt. eigenvalues --    3.03572   3.05859   3.07605   3.09795   3.11499
 Alpha virt. eigenvalues --    3.12617   3.15400   3.16841   3.20690   3.22426
 Alpha virt. eigenvalues --    3.23291   3.23780   3.27469   3.29584   3.33791
 Alpha virt. eigenvalues --    3.36300   3.38435   3.42590   3.44252   3.45785
 Alpha virt. eigenvalues --    3.49958   3.53507   3.56200   3.60681   3.63028
 Alpha virt. eigenvalues --    3.66190   3.67592   3.72564   3.78197   3.81386
 Alpha virt. eigenvalues --    3.84131   3.88407   3.89764   3.92646   3.93321
 Alpha virt. eigenvalues --    3.94802   4.00137   4.01592   4.03724   4.07788
 Alpha virt. eigenvalues --    4.12430   4.15340   4.16594   4.19732   4.24410
 Alpha virt. eigenvalues --    4.29589   4.35398   4.36434   4.41334   4.42069
 Alpha virt. eigenvalues --    4.43958   4.44877   4.46691   4.49435   4.50636
 Alpha virt. eigenvalues --    4.53397   4.56146   4.57983   4.60915   4.61680
 Alpha virt. eigenvalues --    4.62605   4.64413   4.65691   4.67168   4.67807
 Alpha virt. eigenvalues --    4.69254   4.70558   4.75454   4.77370   4.77975
 Alpha virt. eigenvalues --    4.79093   4.80431   4.82216   4.82690   4.84479
 Alpha virt. eigenvalues --    4.85993   4.89278   4.90476   4.94787   4.96531
 Alpha virt. eigenvalues --    4.98121   5.01941   5.04131   5.07475   5.08494
 Alpha virt. eigenvalues --    5.09646   5.11090   5.14456   5.18823   5.27908
 Alpha virt. eigenvalues --    5.30659   5.32934   5.37873   5.39850   5.45550
 Alpha virt. eigenvalues --    5.47823   5.52697   5.56382   5.60151   5.60469
 Alpha virt. eigenvalues --    5.66462   5.68532   5.70061   5.84912   5.94221
 Alpha virt. eigenvalues --    5.94355   6.04190   6.10419   6.33862   6.34956
 Alpha virt. eigenvalues --    6.69172   6.88302   7.02628   7.27176  10.74255
 Alpha virt. eigenvalues --   11.23816  11.96109  11.97331  12.02832  12.55496
 Alpha virt. eigenvalues --   13.11193  13.20221  13.39313
          Condensed to atoms (all electrons):
               1          2          3          4          5          6
     1  O    7.801668   0.404388  -0.032320  -0.002441  -0.031691  -0.000104
     2  C    0.404388   4.520697   0.371784  -0.061162   0.368236   0.001834
     3  C   -0.032320   0.371784   5.268490   0.367834  -0.205252  -0.033922
     4  C   -0.002441  -0.061162   0.367834   4.414387   0.351980   0.361660
     5  C   -0.031691   0.368236  -0.205252   0.351980   5.287944  -0.026517
     6  C   -0.000104   0.001834  -0.033922   0.361660  -0.026517   5.495171
     7  C   -0.000002  -0.000002   0.002983  -0.055622  -0.002021   0.319589
     8  O    0.000000   0.000001  -0.000031   0.000071  -0.000106  -0.058511
     9  C   -0.000077   0.000420  -0.037624   0.377520  -0.031683  -0.298415
    10  H    0.313357  -0.074117  -0.003183  -0.001000  -0.003134  -0.000045
    11  H   -0.019426   0.355253  -0.042139   0.000558  -0.041855  -0.000399
    12  H    0.001737  -0.017316   0.347875  -0.017394   0.013056   0.003156
    13  H   -0.002462  -0.017516   0.328122  -0.008786  -0.000656  -0.010622
    14  H    0.001744  -0.017403   0.013059  -0.016185   0.346980   0.002449
    15  H   -0.002384  -0.017632  -0.000505  -0.008141   0.328270  -0.010294
    16  H   -0.000001   0.000055  -0.008936  -0.014055   0.003745   0.335081
    17  H    0.000001   0.000026   0.004247  -0.013018  -0.009028   0.329130
    18  H    0.000005  -0.000201  -0.009631  -0.016564   0.004544   0.011735
    19  H    0.000004  -0.000138   0.004798  -0.015167  -0.010147   0.009647
               7          8          9         10         11         12
     1  O   -0.000002   0.000000  -0.000077   0.313357  -0.019426   0.001737
     2  C   -0.000002   0.000001   0.000420  -0.074117   0.355253  -0.017316
     3  C    0.002983  -0.000031  -0.037624  -0.003183  -0.042139   0.347875
     4  C   -0.055622   0.000071   0.377520  -0.001000   0.000558  -0.017394
     5  C   -0.002021  -0.000106  -0.031683  -0.003134  -0.041855   0.013056
     6  C    0.319589  -0.058511  -0.298415  -0.000045  -0.000399   0.003156
     7  C    4.214703   0.812338   0.330903   0.000000   0.000042  -0.000387
     8  O    0.812338   7.594289  -0.059601   0.000000   0.000000  -0.000013
     9  C    0.330903  -0.059601   5.448489   0.000018   0.002989  -0.009082
    10  H    0.000000   0.000000   0.000018   0.473074   0.008023  -0.000215
    11  H    0.000042   0.000000   0.002989   0.008023   0.639480  -0.005827
    12  H   -0.000387  -0.000013  -0.009082  -0.000215  -0.005827   0.612844
    13  H    0.000167   0.000000   0.004743   0.005366   0.005251  -0.038465
    14  H    0.000093  -0.000001  -0.009719  -0.000212  -0.005810  -0.000558
    15  H    0.000298   0.000001   0.004464   0.005360   0.005258  -0.000467
    16  H   -0.009487  -0.000499   0.011540   0.000001   0.000006   0.000351
    17  H   -0.006549   0.000089   0.009299   0.000001   0.000008  -0.000125
    18  H   -0.010568  -0.000554   0.337013   0.000000   0.000085   0.005189
    19  H   -0.007685  -0.000016   0.330163   0.000000  -0.000055  -0.000040
              13         14         15         16         17         18
     1  O   -0.002462   0.001744  -0.002384  -0.000001   0.000001   0.000005
     2  C   -0.017516  -0.017403  -0.017632   0.000055   0.000026  -0.000201
     3  C    0.328122   0.013059  -0.000505  -0.008936   0.004247  -0.009631
     4  C   -0.008786  -0.016185  -0.008141  -0.014055  -0.013018  -0.016564
     5  C   -0.000656   0.346980   0.328270   0.003745  -0.009028   0.004544
     6  C   -0.010622   0.002449  -0.010294   0.335081   0.329130   0.011735
     7  C    0.000167   0.000093   0.000298  -0.009487  -0.006549  -0.010568
     8  O    0.000000  -0.000001   0.000001  -0.000499   0.000089  -0.000554
     9  C    0.004743  -0.009719   0.004464   0.011540   0.009299   0.337013
    10  H    0.005366  -0.000212   0.005360   0.000001   0.000001   0.000000
    11  H    0.005251  -0.005810   0.005258   0.000006   0.000008   0.000085
    12  H   -0.038465  -0.000558  -0.000467   0.000351  -0.000125   0.005189
    13  H    0.635891  -0.000466   0.002647   0.003809   0.000092  -0.000011
    14  H   -0.000466   0.615605  -0.038578  -0.000131   0.000557  -0.000043
    15  H    0.002647  -0.038578   0.635360   0.000244   0.002702  -0.000135
    16  H    0.003809  -0.000131   0.000244   0.582381  -0.031342  -0.000661
    17  H    0.000092   0.000557   0.002702  -0.031342   0.584462  -0.000339
    18  H   -0.000011  -0.000043  -0.000135  -0.000661  -0.000339   0.580564
    19  H   -0.000148   0.005305  -0.000006  -0.000341  -0.000666  -0.030593
              19
     1  O    0.000004
     2  C   -0.000138
     3  C    0.004798
     4  C   -0.015167
     5  C   -0.010147
     6  C    0.009647
     7  C   -0.007685
     8  O   -0.000016
     9  C    0.330163
    10  H    0.000000
    11  H   -0.000055
    12  H   -0.000040
    13  H   -0.000148
    14  H    0.005305
    15  H   -0.000006
    16  H   -0.000341
    17  H   -0.000666
    18  H   -0.030593
    19  H    0.584560
 Mulliken charges:
               1
     1  O   -0.431997
     2  C    0.182792
     3  C   -0.335650
     4  C    0.355525
     5  C   -0.342667
     6  C   -0.430623
     7  C    0.411207
     8  O   -0.287456
     9  C   -0.411360
    10  H    0.276705
    11  H    0.098559
    12  H    0.105680
    13  H    0.093046
    14  H    0.103315
    15  H    0.093538
    16  H    0.128239
    17  H    0.130452
    18  H    0.130167
    19  H    0.130526
 Sum of Mulliken charges =   0.00000
 Mulliken charges with hydrogens summed into heavy atoms:
               1
     1  O   -0.155292
     2  C    0.281352
     3  C   -0.136923
     4  C    0.355525
     5  C   -0.145814
     6  C   -0.171931
     7  C    0.411207
     8  O   -0.287456
     9  C   -0.150668
 Electronic spatial extent (au):  <R**2>=           1401.8619
 Charge=              0.0000 electrons
 Dipole moment (field-independent basis, Debye):
    X=             -1.7347    Y=              1.1816    Z=              0.3623  Tot=              2.1299
 Quadrupole moment (field-independent basis, Debye-Ang):
   XX=            -73.4602   YY=            -48.9312   ZZ=            -51.6692
   XY=             -3.3517   XZ=              1.4528   YZ=             -0.4648
 Traceless Quadrupole moment (field-independent basis, Debye-Ang):
   XX=            -15.4400   YY=              9.0890   ZZ=              6.3510
   XY=             -3.3517   XZ=              1.4528   YZ=             -0.4648
 Octapole moment (field-independent basis, Debye-Ang**2):
  XXX=            -32.9946  YYY=              1.1887  ZZZ=             -0.3036  XYY=             -6.8800
  XXY=             18.3501  XXZ=              3.6325  XZZ=              2.7570  YZZ=             -0.6132
  YYZ=             -1.0768  XYZ=              1.3782
 Hexadecapole moment (field-independent basis, Debye-Ang**3):
 XXXX=          -1631.6405 YYYY=           -205.2283 ZZZZ=           -188.7084 XXXY=            -50.6146
 XXXZ=             16.8882 YYYX=             -6.9791 YYYZ=              0.2800 ZZZX=             -0.2083
 ZZZY=             -1.3314 XXYY=           -229.3980 XXZZ=           -249.3775 YYZZ=            -62.3734
 XXYZ=             -4.9367 YYXZ=              1.2845 ZZXY=             -1.1075
 N-N= 4.464568717690D+02 E-N=-1.879632411402D+03  KE= 4.200620448700D+02
 Calling FoFJK, ICntrl=      2127 FMM=F ISym2X=0 I1Cent= 0 IOpClX= 0 NMat=1 NMatS=1 NMatT=0.
 ***** Axes restored to original set *****
 -------------------------------------------------------------------
 Center     Atomic                   Forces (Hartrees/Bohr)
 Number     Number              X              Y              Z
 -------------------------------------------------------------------
      1        8           0.000010072    0.000006574    0.000021932
      2        6          -0.000033174   -0.000001653    0.000022109
      3        6           0.000053765   -0.000025733   -0.000029233
      4        6           0.000024991   -0.000050035    0.000051114
      5        6          -0.000047840    0.000033536   -0.000005243
      6        6          -0.000000154   -0.000004744   -0.000044521
      7        6          -0.000016296   -0.000001295    0.000007849
      8        8           0.000003900   -0.000007142    0.000001510
      9        6           0.000010102    0.000036651   -0.000043632
     10        1          -0.000025869   -0.000024794   -0.000021054
     11        1           0.000026722    0.000000905    0.000005898
     12        1          -0.000010462   -0.000009380   -0.000012553
     13        1          -0.000018388    0.000063533   -0.000025347
     14        1          -0.000006570   -0.000016714    0.000011710
     15        1           0.000012335    0.000013560   -0.000016047
     16        1           0.000000252   -0.000023554    0.000019808
     17        1          -0.000010770    0.000017921    0.000010576
     18        1           0.000008136   -0.000003968    0.000026640
     19        1           0.000019248   -0.000003668    0.000018484
 -------------------------------------------------------------------
 Cartesian Forces:  Max     0.000063533 RMS     0.000024233

 GradGradGradGradGradGradGradGradGradGradGradGradGradGradGradGradGradGrad
 Berny optimization.
 FormGI is forming the generalized inverse of G from B-inverse, IUseBI=4.
 Internal  Forces:  Max     0.000067334 RMS     0.000012944
 Search for a local minimum.
 Step number   1 out of a maximum of  114
 All quantities printed in internal units (Hartrees-Bohrs-Radians)
 Mixed Optimization -- En-DIIS/RFO-DIIS
 Second derivative matrix not updated -- first step.
 ITU=  0
     Eigenvalues ---    0.00258   0.00276   0.00330   0.01663   0.02277
     Eigenvalues ---    0.02319   0.02778   0.03390   0.03583   0.04636
     Eigenvalues ---    0.04654   0.04679   0.04893   0.04931   0.05025
     Eigenvalues ---    0.05067   0.05480   0.06155   0.06237   0.06387
     Eigenvalues ---    0.06903   0.07315   0.07555   0.07746   0.07770
     Eigenvalues ---    0.09278   0.10169   0.10875   0.16000   0.20298
     Eigenvalues ---    0.24291   0.24933   0.25302   0.25539   0.25956
     Eigenvalues ---    0.26523   0.27527   0.28009   0.28132   0.34028
     Eigenvalues ---    0.34038   0.34119   0.34147   0.34291   0.34320
     Eigenvalues ---    0.34353   0.34427   0.34440   0.45260   0.54791
     Eigenvalues ---    1.06887
 RFO step:  Lambda=-2.07929668D-07 EMin= 2.58063379D-03
 Linear search not attempted -- first point.
 Iteration  1 RMS(Cart)=  0.00054153 RMS(Int)=  0.00000013
 Iteration  2 RMS(Cart)=  0.00000017 RMS(Int)=  0.00000003
 Variable       Old X    -DE/DX   Delta X   Delta X   Delta X     New X
                                 (Linear)    (Quad)   (Total)
    R1        2.64975   0.00002   0.00000   0.00005   0.00005   2.64980
    R2        1.82018   0.00003   0.00000   0.00005   0.00005   1.82023
    R3        2.93363  -0.00002   0.00000  -0.00007  -0.00007   2.93355
    R4        2.93358   0.00000   0.00000   0.00000   0.00000   2.93357
    R5        2.06738  -0.00001   0.00000  -0.00002  -0.00002   2.06736
    R6        2.93320  -0.00004   0.00000  -0.00012  -0.00012   2.93309
    R7        2.06593  -0.00002   0.00000  -0.00005  -0.00005   2.06589
    R8        2.07266  -0.00007   0.00000  -0.00020  -0.00020   2.07246
    R9        2.92759   0.00004   0.00000   0.00016   0.00016   2.92775
   R10        2.93739   0.00000   0.00000  -0.00003  -0.00003   2.93736
   R11        2.95360   0.00004   0.00000   0.00015   0.00015   2.95375
   R12        2.06615  -0.00002   0.00000  -0.00006  -0.00006   2.06608
   R13        2.07284  -0.00001   0.00000  -0.00002  -0.00002   2.07282
   R14        2.90449   0.00000   0.00000   0.00000   0.00000   2.90450
   R15        2.06841   0.00003   0.00000   0.00009   0.00009   2.06850
   R16        2.07130  -0.00002   0.00000  -0.00007  -0.00007   2.07123
   R17        2.26001   0.00000   0.00000   0.00000   0.00000   2.26001
   R18        2.90541  -0.00001   0.00000  -0.00002  -0.00002   2.90539
   R19        2.06794   0.00001   0.00000   0.00004   0.00004   2.06798
   R20        2.07083  -0.00001   0.00000  -0.00004  -0.00004   2.07079
    A1        1.88704   0.00005   0.00000   0.00028   0.00028   1.88732
    A2        2.10148   0.00001   0.00000   0.00008   0.00008   2.10156
    A3        2.10235   0.00000   0.00000   0.00001   0.00001   2.10236
    A4        1.84124   0.00001   0.00000   0.00013   0.00013   1.84137
    A5        1.54414  -0.00001   0.00000   0.00002   0.00002   1.54416
    A6        1.93177  -0.00001   0.00000  -0.00021  -0.00021   1.93156
    A7        1.93140   0.00000   0.00000  -0.00009  -0.00009   1.93131
    A8        1.53568   0.00003   0.00000   0.00027   0.00027   1.53595
    A9        2.07026  -0.00001   0.00000  -0.00013  -0.00013   2.07013
   A10        1.92887  -0.00002   0.00000  -0.00028  -0.00028   1.92858
   A11        2.06936  -0.00001   0.00000   0.00004   0.00004   2.06941
   A12        1.93754   0.00000   0.00000   0.00016   0.00016   1.93769
   A13        1.89851   0.00001   0.00000  -0.00003  -0.00003   1.89849
   A14        1.54627  -0.00001   0.00000  -0.00002  -0.00002   1.54625
   A15        2.12328   0.00001   0.00000  -0.00002  -0.00002   2.12326
   A16        2.04219   0.00000   0.00000  -0.00006  -0.00006   2.04214
   A17        2.15475   0.00001   0.00000   0.00004   0.00004   2.15479
   A18        2.07197   0.00001   0.00000   0.00007   0.00007   2.07205
   A19        1.57873  -0.00001   0.00000  -0.00002  -0.00002   1.57871
   A20        1.53754   0.00000   0.00000   0.00016   0.00016   1.53770
   A21        2.07027   0.00001   0.00000   0.00004   0.00004   2.07031
   A22        1.92886   0.00000   0.00000   0.00009   0.00009   1.92896
   A23        2.06700   0.00001   0.00000   0.00008   0.00008   2.06708
   A24        1.93839   0.00000   0.00000  -0.00015  -0.00015   1.93824
   A25        1.89849  -0.00001   0.00000  -0.00017  -0.00017   1.89832
   A26        1.54560   0.00000   0.00000  -0.00004  -0.00004   1.54557
   A27        2.04339   0.00000   0.00000   0.00000   0.00000   2.04339
   A28        1.99364   0.00000   0.00000  -0.00004  -0.00004   1.99360
   A29        2.01377   0.00000   0.00000  -0.00002  -0.00002   2.01375
   A30        1.96083   0.00000   0.00000   0.00002   0.00002   1.96085
   A31        1.89061   0.00000   0.00000   0.00006   0.00006   1.89066
   A32        2.33887   0.00000   0.00000  -0.00001  -0.00001   2.33886
   A33        1.60707   0.00001   0.00000   0.00003   0.00003   1.60710
   A34        2.33658   0.00000   0.00000  -0.00001  -0.00001   2.33657
   A35        1.53987  -0.00001   0.00000  -0.00009  -0.00009   1.53978
   A36        2.04858   0.00000   0.00000  -0.00005  -0.00005   2.04853
   A37        1.99725   0.00001   0.00000   0.00021   0.00021   1.99746
   A38        2.01109   0.00000   0.00000  -0.00014  -0.00014   2.01095
   A39        1.95902   0.00000   0.00000  -0.00006  -0.00006   1.95896
   A40        1.89094   0.00000   0.00000   0.00009   0.00009   1.89103
    D1       -0.94143  -0.00001   0.00000  -0.00080  -0.00080  -0.94223
    D2        0.94373  -0.00001   0.00000  -0.00070  -0.00070   0.94303
    D3       -3.14036  -0.00001   0.00000  -0.00069  -0.00069  -3.14106
    D4        2.52191   0.00000   0.00000  -0.00052  -0.00052   2.52140
    D5       -1.63673   0.00000   0.00000  -0.00034  -0.00034  -1.63707
    D6        0.57217  -0.00001   0.00000  -0.00076  -0.00076   0.57141
    D7        0.34185   0.00000   0.00000  -0.00057  -0.00057   0.34128
    D8        2.46639   0.00000   0.00000  -0.00040  -0.00040   2.46600
    D9       -1.60790  -0.00001   0.00000  -0.00082  -0.00082  -1.60871
   D10       -1.60495   0.00001   0.00000  -0.00046  -0.00046  -1.60541
   D11        0.51959   0.00001   0.00000  -0.00028  -0.00028   0.51931
   D12        2.72849  -0.00001   0.00000  -0.00070  -0.00070   2.72779
   D13       -2.52185   0.00000   0.00000   0.00049   0.00049  -2.52135
   D14        1.63842   0.00000   0.00000   0.00029   0.00029   1.63871
   D15       -0.57046   0.00000   0.00000   0.00041   0.00041  -0.57005
   D16       -0.34251   0.00001   0.00000   0.00061   0.00061  -0.34190
   D17       -2.46543   0.00000   0.00000   0.00040   0.00040  -2.46503
   D18        1.60887   0.00001   0.00000   0.00052   0.00052   1.60940
   D19        1.60464   0.00000   0.00000   0.00038   0.00038   1.60502
   D20       -0.51828  -0.00001   0.00000   0.00018   0.00018  -0.51810
   D21       -2.72716  -0.00001   0.00000   0.00030   0.00030  -2.72686
   D22       -0.34256   0.00001   0.00000   0.00060   0.00060  -0.34197
   D23       -2.59846   0.00001   0.00000   0.00057   0.00057  -2.59789
   D24        1.78322   0.00001   0.00000   0.00065   0.00065   1.78387
   D25       -2.46789   0.00000   0.00000   0.00057   0.00057  -2.46732
   D26        1.55940   0.00000   0.00000   0.00054   0.00054   1.55994
   D27       -0.34211   0.00000   0.00000   0.00062   0.00062  -0.34148
   D28        1.59883   0.00000   0.00000   0.00042   0.00042   1.59925
   D29       -0.65707  -0.00001   0.00000   0.00039   0.00039  -0.65668
   D30       -2.55857   0.00000   0.00000   0.00047   0.00047  -2.55810
   D31        0.34254  -0.00001   0.00000  -0.00060  -0.00060   0.34194
   D32        2.46834   0.00000   0.00000  -0.00044  -0.00044   2.46791
   D33       -1.59968  -0.00001   0.00000  -0.00075  -0.00075  -1.60043
   D34        2.57321  -0.00001   0.00000  -0.00062  -0.00062   2.57259
   D35       -1.58418   0.00000   0.00000  -0.00045  -0.00045  -1.58463
   D36        0.63098  -0.00001   0.00000  -0.00077  -0.00077   0.63022
   D37       -1.75709   0.00000   0.00000  -0.00054  -0.00054  -1.75763
   D38        0.36871   0.00001   0.00000  -0.00038  -0.00038   0.36833
   D39        2.58387  -0.00001   0.00000  -0.00069  -0.00069   2.58318
   D40       -2.03108   0.00000   0.00000   0.00061   0.00061  -2.03046
   D41        0.02751   0.00000   0.00000   0.00057   0.00057   0.02807
   D42        2.26353   0.00000   0.00000   0.00061   0.00061   2.26414
   D43        2.29920   0.00001   0.00000   0.00062   0.00062   2.29982
   D44       -1.92540   0.00001   0.00000   0.00057   0.00057  -1.92483
   D45        0.31062   0.00001   0.00000   0.00062   0.00062   0.31124
   D46        0.10827   0.00000   0.00000   0.00052   0.00052   0.10879
   D47        2.16685   0.00000   0.00000   0.00048   0.00048   2.16732
   D48       -1.88031   0.00000   0.00000   0.00052   0.00052  -1.87979
   D49        2.09745   0.00000   0.00000  -0.00058  -0.00058   2.09688
   D50        0.04397   0.00001   0.00000  -0.00036  -0.00036   0.04361
   D51       -2.20132   0.00000   0.00000  -0.00065  -0.00065  -2.20197
   D52       -2.36447  -0.00001   0.00000  -0.00059  -0.00059  -2.36507
   D53        1.86523   0.00000   0.00000  -0.00037  -0.00037   1.86486
   D54       -0.38006  -0.00001   0.00000  -0.00066  -0.00066  -0.38072
   D55       -0.10825   0.00000   0.00000  -0.00052  -0.00052  -0.10878
   D56       -2.16173   0.00001   0.00000  -0.00030  -0.00030  -2.16204
   D57        1.87616  -0.00001   0.00000  -0.00059  -0.00059   1.87557
   D58        2.99488   0.00000   0.00000  -0.00015  -0.00015   2.99474
   D59       -0.11014   0.00000   0.00000  -0.00054  -0.00054  -0.11068
   D60        0.90966   0.00000   0.00000  -0.00012  -0.00012   0.90954
   D61       -2.19536   0.00000   0.00000  -0.00051  -0.00051  -2.19588
   D62       -1.26918   0.00000   0.00000  -0.00020  -0.00020  -1.26938
   D63        1.90898   0.00000   0.00000  -0.00059  -0.00059   1.90839
   D64        0.10955   0.00000   0.00000   0.00053   0.00053   0.11008
   D65        2.19698   0.00000   0.00000   0.00039   0.00039   2.19738
   D66       -1.91069  -0.00001   0.00000   0.00035   0.00035  -1.91034
   D67       -2.99555   0.00000   0.00000   0.00014   0.00014  -2.99542
   D68       -0.90812   0.00000   0.00000   0.00000   0.00000  -0.90812
   D69        1.26739  -0.00001   0.00000  -0.00004  -0.00004   1.26735
         Item               Value     Threshold  Converged?
 Maximum Force            0.000067     0.000450     YES
 RMS     Force            0.000013     0.000300     YES
 Maximum Displacement     0.001971     0.001800     NO 
 RMS     Displacement     0.000541     0.001200     YES
 Predicted change in Energy=-1.039710D-07
 GradGradGradGradGradGradGradGradGradGradGradGradGradGradGradGradGradGrad

                          Input orientation:                          
 ---------------------------------------------------------------------
 Center     Atomic      Atomic             Coordinates (Angstroms)
 Number     Number       Type             X           Y           Z
 ---------------------------------------------------------------------
      1          8           0       -5.435534   -0.385039    0.228501
      2          6           0       -4.143310    0.151249    0.134910
      3          6           0       -3.061225   -0.218268    1.184862
      4          6           0       -2.012712   -0.169454    0.041479
      5          6           0       -3.170568   -0.329024   -0.975492
      6          6           0       -0.750735   -1.076865    0.052683
      7          6           0        0.112859    0.191658    0.138709
      8          8           0        1.277988    0.393005    0.318218
      9          6           0       -1.111061    1.104675   -0.040769
     10          1           0       -5.359493   -1.344157    0.274497
     11          1           0       -4.279582    1.235626    0.086029
     12          1           0       -2.924014    0.437972    2.048374
     13          1           0       -3.206907   -1.245084    1.541478
     14          1           0       -3.123596    0.235455   -1.910647
     15          1           0       -3.346321   -1.386077   -1.209825
     16          1           0       -0.645535   -1.773736    0.890217
     17          1           0       -0.586555   -1.630421   -0.878952
     18          1           0       -1.243047    1.865366    0.734782
     19          1           0       -1.117517    1.602548   -1.016928
 ---------------------------------------------------------------------
                    Distance matrix (angstroms):
                    1          2          3          4          5
     1  O    0.000000
     2  C    1.402215   0.000000
     3  C    2.565109   1.552369   0.000000
     4  C    3.434700   2.156624   1.552124   0.000000
     5  C    2.565698   1.552379   2.165954   1.549298   0.000000
     6  C    4.738868   3.608959   2.712449   1.554382   2.733496
     7  C    5.579006   4.256363   3.367089   2.158219   3.506202
     8  O    6.759051   5.429780   4.466933   3.349873   4.688781
     9  C    4.581793   3.183460   2.656217   1.563057   2.677830
    10  H    0.963226   1.932569   2.716326   3.554598   2.717418
    11  H    1.995766   1.093999   2.192176   2.667384   2.192002
    12  H    3.208897   2.286972   1.093220   2.286278   3.129352
    13  H    2.725869   2.192038   1.096700   2.198427   2.678736
    14  H    3.210300   2.287184   3.129207   2.282282   1.093324
    15  H    2.726842   2.192458   2.679475   2.196462   1.096887
    16  H    5.030948   4.063309   2.888227   2.272278   3.455988
    17  H    5.127380   4.105212   3.518167   2.239540   2.894836
    18  H    4.785143   3.421925   2.801763   2.283320   3.384631
    19  H    4.913946   3.548016   3.455611   2.249798   2.819167
                    6          7          8          9         10
     6  C    0.000000
     7  C    1.536993   0.000000
     8  O    2.519274   1.195946   0.000000
     9  C    2.213071   1.537464   2.518512   0.000000
    10  H    4.621828   5.685403   6.861180   4.913791   0.000000
    11  H    4.219181   4.515106   5.625878   3.173760   2.803036
    12  H    3.316723   3.595843   4.544478   2.845314   3.500598
    13  H    2.877081   3.879799   4.928893   3.523840   2.499737
    14  H    3.347733   3.830982   4.936254   2.881369   3.502751
    15  H    2.902861   4.034070   5.185005   3.544986   2.501565
    16  H    1.094605   2.236671   2.953284   3.060833   4.773369
    17  H    1.096049   2.201088   3.000665   2.908335   4.918671
    18  H    3.060123   2.234968   2.949066   1.094326   5.240041
    19  H    2.908238   2.199985   2.997341   1.095813   5.324021
                   11         12         13         14         15
    11  H    0.000000
    12  H    2.514879   0.000000
    13  H    3.069672   1.780351   0.000000
    14  H    2.514630   3.969219   3.757141   0.000000
    15  H    3.069779   3.757840   2.758439   1.780484   0.000000
    16  H    4.786363   3.380006   2.695226   4.245288   3.443065
    17  H    4.773244   4.279159   3.587926   3.313980   2.790249
    18  H    3.168280   2.566833   3.765954   3.631993   4.333260
    19  H    3.368946   3.743761   4.361193   2.586895   3.733182
                   16         17         18         19
    16  H    0.000000
    17  H    1.775944   0.000000
    18  H    3.691103   3.905848   0.000000
    19  H    3.906310   3.279184   1.775759   0.000000
 Stoichiometry    C7H10O2
 Framework group  C1[X(C7H10O2)]
 Deg. of freedom    51
 Full point group                 C1      NOp   1
 Largest Abelian subgroup         C1      NOp   1
 Largest concise Abelian subgroup C1      NOp   1
                         Standard orientation:                         
 ---------------------------------------------------------------------
 Center     Atomic      Atomic             Coordinates (Angstroms)
 Number     Number       Type             X           Y           Z
 ---------------------------------------------------------------------
      1          8           0       -3.334660   -0.003593   -0.122173
      2          6           0       -1.996819   -0.406947   -0.005153
      3          6           0       -0.951509    0.019220   -1.070780
      4          6           0        0.092119    0.123335    0.073375
      5          6           0       -1.079896    0.214391    1.082539
      6          6           0        1.259953    1.147824    0.021499
      7          6           0        2.243104   -0.033225   -0.008243
      8          8           0        3.423008   -0.128017   -0.178917
      9          6           0        1.113006   -1.052133    0.211981
     10          1           0       -3.352020    0.955390   -0.210803
     11          1           0       -2.027240   -1.496204    0.091945
     12          1           0       -0.747644   -0.658158   -1.904284
     13          1           0       -1.194856    1.010184   -1.472676
     14          1           0       -0.982087   -0.300864    2.041863
     15          1           0       -1.358517    1.258667    1.269669
     16          1           0        1.300328    1.813840   -0.846229
     17          1           0        1.365754    1.755445    0.927548
     18          1           0        1.058745   -1.855656   -0.528935
     19          1           0        1.150999   -1.504544    1.209320
 ---------------------------------------------------------------------
 Rotational constants (GHZ):      5.3293107      0.8384175      0.8296397
 Standard basis: 6-31G(2df,p) (6D, 7F)
 There are   329 symmetry adapted cartesian basis functions of A   symmetry.
 There are   302 symmetry adapted basis functions of A   symmetry.
   302 basis functions,   466 primitive gaussians,   329 cartesian basis functions
    34 alpha electrons       34 beta electrons
       nuclear repulsion energy       446.4514524121 Hartrees.
 NAtoms=   19 NActive=   19 NUniq=   19 SFac= 1.00D+00 NAtFMM=   60 NAOKFM=F Big=F
 Integral buffers will be    131072 words long.
 Raffenetti 2 integral format.
 Two-electron integral symmetry is turned on.
 One-electron integrals computed using PRISM.
 NBasis=   302 RedAO= T EigKep=  3.83D-04  NBF=   302
 NBsUse=   302 1.00D-06 EigRej= -1.00D+00 NBFU=   302
 Initial guess from the checkpoint file:  "/scratch/puck/g09_28514886-609a-45d5-a7e7-fbfbba47004e/Gau-172336.chk"
 B after Tr=     0.000000    0.000000    0.000000
         Rot=    1.000000    0.000183    0.000014   -0.000018 Ang=   0.02 deg.
 Requested convergence on RMS density matrix=1.00D-08 within 128 cycles.
 Requested convergence on MAX density matrix=1.00D-06.
 Requested convergence on             energy=1.00D-06.
 No special actions if energy rises.
 SCF Done:  E(RB3LYP) =  -423.177662694     A.U. after    6 cycles
            NFock=  6  Conv=0.92D-08     -V/T= 2.0074
 Calling FoFJK, ICntrl=      2127 FMM=F ISym2X=0 I1Cent= 0 IOpClX= 0 NMat=1 NMatS=1 NMatT=0.
 ***** Axes restored to original set *****
 -------------------------------------------------------------------
 Center     Atomic                   Forces (Hartrees/Bohr)
 Number     Number              X              Y              Z
 -------------------------------------------------------------------
      1        8           0.000018993    0.000014779    0.000023840
      2        6          -0.000000333    0.000029081   -0.000007358
      3        6           0.000013475   -0.000041388   -0.000003250
      4        6          -0.000009939    0.000029664   -0.000019487
      5        6          -0.000023943   -0.000025589    0.000011523
      6        6          -0.000006857   -0.000006057    0.000041842
      7        6           0.000007628   -0.000006418   -0.000070347
      8        8          -0.000000005   -0.000008097    0.000023097
      9        6           0.000011050    0.000010897    0.000036968
     10        1           0.000002409    0.000006772   -0.000020204
     11        1          -0.000008298    0.000003387   -0.000004012
     12        1          -0.000000374   -0.000001234   -0.000001315
     13        1           0.000001224   -0.000001670    0.000004578
     14        1          -0.000000915    0.000006620    0.000000946
     15        1          -0.000001702    0.000002533   -0.000014086
     16        1          -0.000006446   -0.000012158   -0.000008522
     17        1          -0.000002061    0.000011836   -0.000008360
     18        1          -0.000001008   -0.000005015    0.000007628
     19        1           0.000007103   -0.000007943    0.000006521
 -------------------------------------------------------------------
 Cartesian Forces:  Max     0.000070347 RMS     0.000017429

 GradGradGradGradGradGradGradGradGradGradGradGradGradGradGradGradGradGrad
 Berny optimization.
 Using GEDIIS/GDIIS optimizer.
 FormGI is forming the generalized inverse of G from B-inverse, IUseBI=4.
 Internal  Forces:  Max     0.000025959 RMS     0.000005842
 Search for a local minimum.
 Step number   2 out of a maximum of  114
 All quantities printed in internal units (Hartrees-Bohrs-Radians)
 Mixed Optimization -- En-DIIS/RFO-DIIS
 Swapping is turned off.
 Update second derivatives using D2CorX and points    1    2
 DE= -1.24D-08 DEPred=-1.04D-07 R= 1.19D-01
 Trust test= 1.19D-01 RLast= 4.43D-03 DXMaxT set to 3.00D-01
 ITU=  0  0
     Eigenvalues ---    0.00225   0.00285   0.00451   0.01314   0.02264
     Eigenvalues ---    0.02300   0.02774   0.03225   0.03626   0.04494
     Eigenvalues ---    0.04651   0.04678   0.04884   0.04930   0.05028
     Eigenvalues ---    0.05410   0.05470   0.06130   0.06377   0.06489
     Eigenvalues ---    0.07077   0.07335   0.07559   0.07762   0.08133
     Eigenvalues ---    0.09265   0.10643   0.10899   0.16517   0.20319
     Eigenvalues ---    0.24225   0.24346   0.24939   0.25464   0.25981
     Eigenvalues ---    0.26295   0.27533   0.27996   0.28127   0.33680
     Eigenvalues ---    0.34066   0.34125   0.34230   0.34288   0.34317
     Eigenvalues ---    0.34371   0.34436   0.34442   0.46202   0.54834
     Eigenvalues ---    1.06884
 En-DIIS/RFO-DIIS IScMMF=        0 using points:     2    1
 RFO step:  Lambda=-1.89155298D-08.
 DidBck=F Rises=F RFO-DIIS coefs:    0.90435    0.09565
 Iteration  1 RMS(Cart)=  0.00031266 RMS(Int)=  0.00000028
 Iteration  2 RMS(Cart)=  0.00000019 RMS(Int)=  0.00000019
 Variable       Old X    -DE/DX   Delta X   Delta X   Delta X     New X
                                 (Linear)    (Quad)   (Total)
    R1        2.64980  -0.00003   0.00000  -0.00001  -0.00001   2.64979
    R2        1.82023   0.00000   0.00000   0.00004   0.00003   1.82027
    R3        2.93355   0.00001   0.00001  -0.00004  -0.00003   2.93352
    R4        2.93357   0.00000   0.00000  -0.00002  -0.00002   2.93355
    R5        2.06736   0.00000   0.00000  -0.00001  -0.00001   2.06735
    R6        2.93309  -0.00001   0.00001  -0.00015  -0.00014   2.93295
    R7        2.06589   0.00000   0.00000  -0.00004  -0.00004   2.06585
    R8        2.07246   0.00000   0.00002  -0.00016  -0.00015   2.07232
    R9        2.92775   0.00002  -0.00002   0.00018   0.00017   2.92792
   R10        2.93736   0.00000   0.00000  -0.00005  -0.00005   2.93731
   R11        2.95375   0.00001  -0.00001   0.00014   0.00012   2.95387
   R12        2.06608   0.00000   0.00001  -0.00005  -0.00005   2.06603
   R13        2.07282   0.00001   0.00000   0.00000   0.00000   2.07282
   R14        2.90450   0.00000   0.00000   0.00001   0.00001   2.90450
   R15        2.06850   0.00000  -0.00001   0.00008   0.00007   2.06858
   R16        2.07123   0.00000   0.00001  -0.00007  -0.00006   2.07117
   R17        2.26001   0.00000   0.00000   0.00000   0.00000   2.26002
   R18        2.90539   0.00000   0.00000  -0.00001  -0.00001   2.90538
   R19        2.06798   0.00000   0.00000   0.00004   0.00003   2.06801
   R20        2.07079  -0.00001   0.00000  -0.00005  -0.00005   2.07074
    A1        1.88732  -0.00001  -0.00003   0.00018   0.00015   1.88747
    A2        2.10156  -0.00001  -0.00001   0.00001   0.00000   2.10157
    A3        2.10236   0.00000   0.00000  -0.00002  -0.00002   2.10233
    A4        1.84137   0.00000  -0.00001   0.00009   0.00008   1.84145
    A5        1.54416   0.00000   0.00000  -0.00003  -0.00003   1.54412
    A6        1.93156   0.00001   0.00002  -0.00005  -0.00003   1.93153
    A7        1.93131   0.00000   0.00001  -0.00002  -0.00002   1.93129
    A8        1.53595   0.00000  -0.00003   0.00016   0.00014   1.53608
    A9        2.07013   0.00000   0.00001  -0.00018  -0.00017   2.06996
   A10        1.92858   0.00001   0.00003  -0.00014  -0.00011   1.92847
   A11        2.06941   0.00000   0.00000   0.00000   0.00000   2.06940
   A12        1.93769   0.00001  -0.00002   0.00020   0.00019   1.93788
   A13        1.89849   0.00000   0.00000  -0.00002  -0.00001   1.89847
   A14        1.54625   0.00000   0.00000  -0.00006  -0.00006   1.54618
   A15        2.12326  -0.00001   0.00000  -0.00014  -0.00014   2.12312
   A16        2.04214   0.00000   0.00001  -0.00010  -0.00010   2.04204
   A17        2.15479   0.00000   0.00000   0.00006   0.00006   2.15485
   A18        2.07205   0.00001  -0.00001   0.00024   0.00023   2.07228
   A19        1.57871   0.00000   0.00000   0.00001   0.00002   1.57872
   A20        1.53770  -0.00001  -0.00001   0.00005   0.00003   1.53773
   A21        2.07031   0.00000   0.00000   0.00001   0.00001   2.07032
   A22        1.92896   0.00001  -0.00001   0.00017   0.00016   1.92912
   A23        2.06708   0.00000  -0.00001   0.00006   0.00005   2.06713
   A24        1.93824   0.00000   0.00001  -0.00007  -0.00005   1.93819
   A25        1.89832  -0.00001   0.00002  -0.00017  -0.00015   1.89817
   A26        1.54557   0.00000   0.00000   0.00004   0.00004   1.54561
   A27        2.04339   0.00000   0.00000   0.00000   0.00000   2.04339
   A28        1.99360   0.00000   0.00000  -0.00008  -0.00008   1.99353
   A29        2.01375   0.00001   0.00000   0.00009   0.00010   2.01385
   A30        1.96085  -0.00001   0.00000  -0.00013  -0.00013   1.96072
   A31        1.89066   0.00000  -0.00001   0.00006   0.00005   1.89071
   A32        2.33886   0.00000   0.00000  -0.00007  -0.00007   2.33879
   A33        1.60710   0.00000   0.00000   0.00005   0.00004   1.60714
   A34        2.33657   0.00000   0.00000  -0.00006  -0.00006   2.33650
   A35        1.53978   0.00000   0.00001  -0.00002  -0.00001   1.53978
   A36        2.04853   0.00000   0.00000  -0.00009  -0.00008   2.04844
   A37        1.99746   0.00000  -0.00002   0.00016   0.00014   1.99760
   A38        2.01095   0.00001   0.00001  -0.00004  -0.00003   2.01092
   A39        1.95896  -0.00001   0.00001  -0.00015  -0.00015   1.95881
   A40        1.89103   0.00000  -0.00001   0.00010   0.00009   1.89112
    D1       -0.94223  -0.00001   0.00008  -0.00113  -0.00105  -0.94328
    D2        0.94303  -0.00001   0.00007  -0.00119  -0.00112   0.94191
    D3       -3.14106  -0.00001   0.00007  -0.00115  -0.00109   3.14104
    D4        2.52140   0.00001   0.00005  -0.00018  -0.00013   2.52126
    D5       -1.63707   0.00000   0.00003  -0.00013  -0.00010  -1.63717
    D6        0.57141   0.00000   0.00007  -0.00045  -0.00038   0.57103
    D7        0.34128   0.00001   0.00005  -0.00014  -0.00008   0.34120
    D8        2.46600   0.00000   0.00004  -0.00009  -0.00005   2.46595
    D9       -1.60871   0.00000   0.00008  -0.00040  -0.00033  -1.60904
   D10       -1.60541   0.00000   0.00004  -0.00009  -0.00005  -1.60546
   D11        0.51931   0.00000   0.00003  -0.00004  -0.00002   0.51929
   D12        2.72779   0.00000   0.00007  -0.00036  -0.00029   2.72749
   D13       -2.52135   0.00000  -0.00005   0.00019   0.00015  -2.52121
   D14        1.63871   0.00000  -0.00003   0.00009   0.00007   1.63877
   D15       -0.57005   0.00000  -0.00004   0.00016   0.00012  -0.56993
   D16       -0.34190  -0.00001  -0.00006   0.00018   0.00012  -0.34179
   D17       -2.46503   0.00000  -0.00004   0.00008   0.00004  -2.46499
   D18        1.60940   0.00000  -0.00005   0.00014   0.00009   1.60949
   D19        1.60502   0.00000  -0.00004   0.00010   0.00007   1.60509
   D20       -0.51810   0.00000  -0.00002   0.00000  -0.00001  -0.51811
   D21       -2.72686   0.00000  -0.00003   0.00007   0.00004  -2.72682
   D22       -0.34197  -0.00001  -0.00006   0.00016   0.00011  -0.34186
   D23       -2.59789  -0.00001  -0.00005   0.00020   0.00015  -2.59775
   D24        1.78387   0.00000  -0.00006   0.00037   0.00031   1.78418
   D25       -2.46732   0.00000  -0.00005   0.00028   0.00022  -2.46710
   D26        1.55994   0.00000  -0.00005   0.00031   0.00026   1.56020
   D27       -0.34148   0.00001  -0.00006   0.00048   0.00042  -0.34106
   D28        1.59925   0.00000  -0.00004   0.00010   0.00006   1.59931
   D29       -0.65668   0.00000  -0.00004   0.00014   0.00010  -0.65658
   D30       -2.55810   0.00001  -0.00005   0.00031   0.00026  -2.55784
   D31        0.34194   0.00001   0.00006  -0.00016  -0.00011   0.34184
   D32        2.46791   0.00000   0.00004  -0.00010  -0.00006   2.46785
   D33       -1.60043   0.00000   0.00007  -0.00036  -0.00029  -1.60072
   D34        2.57259   0.00000   0.00006  -0.00036  -0.00031   2.57229
   D35       -1.58463   0.00000   0.00004  -0.00030  -0.00026  -1.58489
   D36        0.63022  -0.00001   0.00007  -0.00056  -0.00049   0.62973
   D37       -1.75763   0.00001   0.00005  -0.00007  -0.00002  -1.75765
   D38        0.36833   0.00000   0.00004  -0.00001   0.00003   0.36836
   D39        2.58318   0.00000   0.00007  -0.00027  -0.00020   2.58298
   D40       -2.03046  -0.00001  -0.00006  -0.00020  -0.00026  -2.03072
   D41        0.02807   0.00000  -0.00005  -0.00007  -0.00012   0.02795
   D42        2.26414   0.00000  -0.00006  -0.00006  -0.00012   2.26402
   D43        2.29982   0.00000  -0.00006  -0.00003  -0.00008   2.29974
   D44       -1.92483   0.00001  -0.00005   0.00011   0.00005  -1.92478
   D45        0.31124   0.00001  -0.00006   0.00011   0.00005   0.31129
   D46        0.10879  -0.00001  -0.00005  -0.00037  -0.00042   0.10837
   D47        2.16732   0.00000  -0.00005  -0.00024  -0.00029   2.16704
   D48       -1.87979   0.00000  -0.00005  -0.00024  -0.00029  -1.88008
   D49        2.09688   0.00000   0.00006   0.00018   0.00023   2.09711
   D50        0.04361  -0.00001   0.00003   0.00026   0.00029   0.04391
   D51       -2.20197  -0.00001   0.00006   0.00003   0.00009  -2.20188
   D52       -2.36507   0.00001   0.00006   0.00018   0.00024  -2.36483
   D53        1.86486   0.00000   0.00004   0.00026   0.00029   1.86515
   D54       -0.38072   0.00000   0.00006   0.00003   0.00009  -0.38063
   D55       -0.10878   0.00001   0.00005   0.00037   0.00042  -0.10835
   D56       -2.16204   0.00000   0.00003   0.00045   0.00048  -2.16156
   D57        1.87557   0.00000   0.00006   0.00022   0.00028   1.87585
   D58        2.99474   0.00000   0.00001  -0.00213  -0.00212   2.99262
   D59       -0.11068   0.00001   0.00005   0.00037   0.00043  -0.11025
   D60        0.90954  -0.00001   0.00001  -0.00218  -0.00217   0.90738
   D61       -2.19588   0.00001   0.00005   0.00033   0.00038  -2.19550
   D62       -1.26938  -0.00001   0.00002  -0.00222  -0.00220  -1.27158
   D63        1.90839   0.00000   0.00006   0.00028   0.00034   1.90873
   D64        0.11008  -0.00001  -0.00005  -0.00038  -0.00043   0.10965
   D65        2.19738  -0.00001  -0.00004  -0.00050  -0.00053   2.19684
   D66       -1.91034  -0.00001  -0.00003  -0.00052  -0.00056  -1.91089
   D67       -2.99542   0.00000  -0.00001   0.00212   0.00211  -2.99331
   D68       -0.90812   0.00000   0.00000   0.00200   0.00200  -0.90612
   D69        1.26735   0.00001   0.00000   0.00198   0.00198   1.26933
         Item               Value     Threshold  Converged?
 Maximum Force            0.000026     0.000450     YES
 RMS     Force            0.000006     0.000300     YES
 Maximum Displacement     0.001706     0.001800     YES
 RMS     Displacement     0.000313     0.001200     YES
 Predicted change in Energy=-7.881247D-08
 Optimization completed.
    -- Stationary point found.
                           ----------------------------
                           !   Optimized Parameters   !
                           ! (Angstroms and Degrees)  !
 --------------------------                            --------------------------
 ! Name  Definition              Value          Derivative Info.                !
 --------------------------------------------------------------------------------
 ! R1    R(1,2)                  1.4022         -DE/DX =    0.0                 !
 ! R2    R(1,10)                 0.9632         -DE/DX =    0.0                 !
 ! R3    R(2,3)                  1.5524         -DE/DX =    0.0                 !
 ! R4    R(2,5)                  1.5524         -DE/DX =    0.0                 !
 ! R5    R(2,11)                 1.094          -DE/DX =    0.0                 !
 ! R6    R(3,4)                  1.5521         -DE/DX =    0.0                 !
 ! R7    R(3,12)                 1.0932         -DE/DX =    0.0                 !
 ! R8    R(3,13)                 1.0967         -DE/DX =    0.0                 !
 ! R9    R(4,5)                  1.5493         -DE/DX =    0.0                 !
 ! R10   R(4,6)                  1.5544         -DE/DX =    0.0                 !
 ! R11   R(4,9)                  1.5631         -DE/DX =    0.0                 !
 ! R12   R(5,14)                 1.0933         -DE/DX =    0.0                 !
 ! R13   R(5,15)                 1.0969         -DE/DX =    0.0                 !
 ! R14   R(6,7)                  1.537          -DE/DX =    0.0                 !
 ! R15   R(6,16)                 1.0946         -DE/DX =    0.0                 !
 ! R16   R(6,17)                 1.096          -DE/DX =    0.0                 !
 ! R17   R(7,8)                  1.1959         -DE/DX =    0.0                 !
 ! R18   R(7,9)                  1.5375         -DE/DX =    0.0                 !
 ! R19   R(9,18)                 1.0943         -DE/DX =    0.0                 !
 ! R20   R(9,19)                 1.0958         -DE/DX =    0.0                 !
 ! A1    A(2,1,10)             108.1353         -DE/DX =    0.0                 !
 ! A2    A(1,2,3)              120.4107         -DE/DX =    0.0                 !
 ! A3    A(1,2,5)              120.4562         -DE/DX =    0.0                 !
 ! A4    A(1,2,11)             105.5027         -DE/DX =    0.0                 !
 ! A5    A(3,2,5)               88.4737         -DE/DX =    0.0                 !
 ! A6    A(3,2,11)             110.6702         -DE/DX =    0.0                 !
 ! A7    A(5,2,11)             110.6557         -DE/DX =    0.0                 !
 ! A8    A(2,3,4)               88.0032         -DE/DX =    0.0                 !
 ! A9    A(2,3,12)             118.6096         -DE/DX =    0.0                 !
 ! A10   A(2,3,13)             110.4997         -DE/DX =    0.0                 !
 ! A11   A(4,3,12)             118.5682         -DE/DX =    0.0                 !
 ! A12   A(4,3,13)             111.0217         -DE/DX =    0.0                 !
 ! A13   A(12,3,13)            108.7752         -DE/DX =    0.0                 !
 ! A14   A(3,4,5)               88.5934         -DE/DX =    0.0                 !
 ! A15   A(3,4,6)              121.6538         -DE/DX =    0.0                 !
 ! A16   A(3,4,9)              117.0059         -DE/DX =    0.0                 !
 ! A17   A(5,4,6)              123.4604         -DE/DX =    0.0                 !
 ! A18   A(5,4,9)              118.7195         -DE/DX =    0.0                 !
 ! A19   A(6,4,9)               90.4532         -DE/DX =    0.0                 !
 ! A20   A(2,5,4)               88.1036         -DE/DX =    0.0                 !
 ! A21   A(2,5,14)             118.6201         -DE/DX =    0.0                 !
 ! A22   A(2,5,15)             110.5211         -DE/DX =    0.0                 !
 ! A23   A(4,5,14)             118.4351         -DE/DX =    0.0                 !
 ! A24   A(4,5,15)             111.053          -DE/DX =    0.0                 !
 ! A25   A(14,5,15)            108.7659         -DE/DX =    0.0                 !
 ! A26   A(4,6,7)               88.5544         -DE/DX =    0.0                 !
 ! A27   A(4,6,16)             117.0777         -DE/DX =    0.0                 !
 ! A28   A(4,6,17)             114.2251         -DE/DX =    0.0                 !
 ! A29   A(7,6,16)             115.3795         -DE/DX =    0.0                 !
 ! A30   A(7,6,17)             112.3485         -DE/DX =    0.0                 !
 ! A31   A(16,6,17)            108.327          -DE/DX =    0.0                 !
 ! A32   A(6,7,8)              134.0069         -DE/DX =    0.0                 !
 ! A33   A(6,7,9)               92.0801         -DE/DX =    0.0                 !
 ! A34   A(8,7,9)              133.8756         -DE/DX =    0.0                 !
 ! A35   A(4,9,7)               88.2231         -DE/DX =    0.0                 !
 ! A36   A(4,9,18)             117.372          -DE/DX =    0.0                 !
 ! A37   A(4,9,19)             114.4458         -DE/DX =    0.0                 !
 ! A38   A(7,9,18)             115.2189         -DE/DX =    0.0                 !
 ! A39   A(7,9,19)             112.2401         -DE/DX =    0.0                 !
 ! A40   A(18,9,19)            108.3478         -DE/DX =    0.0                 !
 ! D1    D(10,1,2,3)           -53.9855         -DE/DX =    0.0                 !
 ! D2    D(10,1,2,5)            54.0319         -DE/DX =    0.0                 !
 ! D3    D(10,1,2,11)          180.0306         -DE/DX =    0.0                 !
 ! D4    D(1,2,3,4)            144.4653         -DE/DX =    0.0                 !
 ! D5    D(1,2,3,12)           -93.7973         -DE/DX =    0.0                 !
 ! D6    D(1,2,3,13)            32.7391         -DE/DX =    0.0                 !
 ! D7    D(5,2,3,4)             19.5538         -DE/DX =    0.0                 !
[...]
 4,0.03170422,0.57563509,-0.00806693,0.00319409,-0.00007655,-0.07937169
 ,0.00035327,0.00456961,-0.09422289,-0.00360796,0.04948885,0.57895888,0
 .00386492,-0.00018775,-0.00040677,0.01892952,0.00980775,-0.00111043,-0
 .00013605,-0.07686670,-0.00071662,0.01121464,0.38690779,0.00010472,-0.
 00033561,-0.00303126,0.00361163,-0.00021837,0.00428884,0.05524174,-0.0
 0106519,-0.11167146,-0.00190437,0.00155252,0.39563237,-0.02691762,0.00
 314574,0.01855786,-0.08132431,0.01240813,0.05007264,0.00082808,0.00158
 440,-0.00270836,-0.10715257,-0.00640928,-0.05641847,0.34065027,-0.0137
 3857,0.00356032,0.01355577,0.02063855,-0.09478709,-0.02626974,0.002512
 02,0.01585356,0.00626272,-0.00863603,-0.07939601,-0.00131595,0.0375841
 0,0.57237240,0.00393321,0.00193809,0.00627066,0.04048263,-0.02198253,-
 0.11270801,-0.00596581,-0.01666675,-0.08325309,-0.05270015,-0.00254337
 ,-0.10285316,0.00562955,-0.03542543,0.58502073,-0.00024216,0.00062399,
 0.00013116,-0.00468475,-0.00008070,-0.00005638,-0.01296317,0.00804819,
 0.00006217,-0.11358499,0.05274267,-0.00071322,-0.01288667,0.00818208,0
 .00148487,0.34333122,-0.00143811,0.00035453,0.00024097,-0.00077028,-0.
 00003025,-0.00040938,-0.00081720,0.00071107,0.00032518,0.04676411,-0.0
 9348396,0.00171066,-0.00324634,0.00324236,-0.00025282,-0.04439437,0.54
 771367,0.00036682,0.00009123,0.00223962,0.00007208,-0.00013596,-0.0048
 8394,0.01319175,-0.01836630,0.00345114,0.00068907,0.00077943,-0.084690
 93,-0.01032925,0.01685349,0.00278097,-0.00629508,-0.01984802,0.5433192
 9,0.00141311,0.00065900,0.00017771,-0.00187622,0.00051711,-0.00055016,
 -0.00208848,0.00048436,0.00037409,-0.09184083,-0.01875720,-0.00899529,
 -0.00412900,0.00032718,0.00101282,-0.07443240,-0.01366372,-0.00051916,
 1.04175836,0.00076169,-0.00033664,-0.00000585,0.00156850,0.00091652,-0
 .00014706,0.00135760,-0.00467546,0.00113508,-0.01794531,0.00623358,-0.
 00142359,0.00105475,-0.00623802,-0.00073048,-0.05282085,-0.13320315,0.
 00182258,0.11291595,0.41687274,0.00030934,0.00013997,-0.00003527,-0.00
 037110,-0.00022947,-0.00022718,0.00070500,0.00047659,-0.00071970,-0.00
 143242,-0.00017189,0.00829806,-0.00155142,0.00010256,-0.00100866,0.001
 54032,-0.00070131,-0.08673054,0.12227018,0.01376420,0.24259213,-0.0019
 1014,-0.00052480,0.00020913,0.00148965,0.00027307,-0.00023508,-0.00027
 124,-0.00068605,-0.00085786,-0.00127567,0.00036485,-0.00072413,-0.0003
 3957,-0.00078285,0.00098961,-0.02518576,-0.02523623,-0.00678073,-0.787
 42099,-0.11774283,-0.11191213,0.85933598,-0.00055151,0.00008555,0.0000
 5762,-0.00056710,-0.00029815,-0.00003986,-0.00074254,0.00173147,-0.000
 52377,0.00074225,-0.00314418,-0.00006586,-0.00078955,0.00269257,0.0005
 2533,-0.02479615,0.00842460,-0.00553645,-0.11744010,-0.12988532,-0.017
 28264,0.13643692,0.09477217,-0.00040094,-0.00007938,0.00005337,0.00021
 111,0.00010506,0.00005050,-0.00051715,-0.00024602,-0.00024943,-0.00199
 866,-0.00028187,0.00067817,0.00045920,-0.00014086,0.00050943,-0.006843
 92,-0.00217909,0.01742220,-0.11080645,-0.01712474,-0.07848591,0.128272
 61,0.02007973,0.04180361,-0.00022838,0.00004981,0.00015975,-0.00035785
 ,0.00029041,-0.00024044,-0.00944805,-0.01450183,0.00375397,-0.07876718
 ,-0.04552702,0.00360100,-0.00999626,-0.01557179,-0.00057317,-0.0014051
 8,0.01057419,-0.00316519,-0.10017403,0.06302200,-0.00410504,-0.0372465
 4,0.00878924,-0.00872880,0.33456445,0.00049414,0.00063781,-0.00003562,
 -0.00139632,-0.00147680,0.00013213,-0.00470673,-0.00205854,0.00251794,
 -0.03492410,-0.11783118,0.00023015,-0.00469963,-0.00289807,-0.00076447
 ,0.01473709,-0.07768385,0.00874525,0.02464857,-0.10577972,0.00297108,0
 .00946185,0.02014595,-0.00013780,-0.02912162,0.55147559,0.00011621,-0.
 00006123,0.00113080,-0.00007308,0.00015073,-0.00201418,0.01106221,0.02
 422744,-0.00295784,0.00455354,0.00197190,-0.07792694,-0.00911534,-0.02
 158554,0.00065382,-0.00206342,0.00117843,0.04576766,-0.00196686,0.0006
 8985,-0.08691670,-0.00975751,0.00288374,0.01696209,-0.01262428,0.01616
 642,0.54416963,-0.04803147,0.07734488,-0.00180011,-0.00523957,-0.04862
 787,0.00279058,0.00115181,-0.00142198,0.00047039,0.00037394,0.00009547
 ,0.00002842,0.00104364,-0.00115440,-0.00037823,0.00007811,0.00025286,-
 0.00001890,-0.00034937,-0.00015061,-0.00007000,0.00039261,0.00010097,0
 .00007740,0.00008268,0.00001523,-0.00005647,0.05629335,0.02556362,-0.5
 0093335,0.02451328,0.00288785,-0.02356459,0.00101998,0.00155635,0.0026
 3439,-0.00142571,0.00122832,0.00007018,-0.00000497,0.00158357,0.003042
 91,0.00107287,0.00008007,0.00009606,-0.00004693,-0.00010697,0.00002116
 ,-0.00004225,0.00020809,0.00001762,0.00005185,0.00018927,-0.00017438,-
 0.00004805,-0.02729828,0.51752051,0.00099970,0.02203635,-0.00514684,0.
 00002799,0.00343025,-0.00138492,0.00097658,-0.00280573,0.00094563,0.00
 001911,0.00004622,0.00106138,-0.00121747,0.00271514,0.00070104,-0.0000
 3943,-0.00006989,-0.00016227,-0.00002348,-0.00001491,0.00000556,-0.000
 06911,-0.00000709,-0.00003335,-0.00006511,0.00002522,-0.00047696,-0.00
 139280,-0.02527074,0.00472828,-0.00590188,-0.04224350,0.00258858,-0.05
 365060,0.04824826,-0.00219334,-0.00115001,0.01710513,-0.00243841,0.001
 63676,-0.00068163,-0.00015693,-0.00043556,0.01442791,0.00083392,-0.000
 00412,-0.00033981,0.00003048,-0.00050847,0.00019033,-0.00006608,0.0001
 4979,-0.00005719,0.00000197,0.00007011,-0.00014365,0.00017414,-0.00573
 884,-0.00463574,0.00057888,0.06928068,-0.00791272,-0.01883728,0.001490
 99,0.03709593,-0.30136494,0.01118150,0.00166869,-0.00566280,0.00037903
 ,0.00034881,-0.00056764,-0.00008700,0.00211149,-0.00844057,0.00006509,
 0.00067952,0.00039784,-0.00003005,-0.00008073,-0.00080334,0.00008287,-
 0.00001076,0.00028634,-0.00002098,-0.00021884,0.00043125,-0.00009418,-
 0.00277281,0.00110973,0.00012336,-0.03275007,0.32954781,0.00080585,0.0
 0319845,0.00173263,-0.00158881,0.01063929,-0.04762466,-0.00475254,0.02
 626719,-0.00251128,-0.00016513,-0.00001712,-0.00130536,0.00445263,-0.0
 2724061,-0.00034364,-0.00000682,0.00008875,0.00015567,0.00012478,0.000
 04731,0.00002836,0.00000583,-0.00000765,-0.00002184,0.00002389,0.00002
 295,0.00054369,0.00049284,0.00023780,0.00100674,0.00074115,-0.01274337
 ,0.05051169,-0.00314232,0.00027556,-0.00094233,0.00343402,-0.01839313,
 -0.01054630,-0.05653380,-0.02108309,-0.02632449,0.00423591,0.01589095,
 0.01249843,-0.00088319,0.00103216,-0.00129083,-0.00032487,-0.00057630,
 0.00205314,0.00018447,0.00106874,0.00008089,-0.00016124,-0.00039044,-0
 .00002572,0.00198743,0.00123521,-0.00097543,0.00025424,0.00046079,0.00
 001573,0.00114180,-0.00006397,0.00153937,0.04860678,0.00027857,0.00047
 701,-0.00005082,0.00046762,0.00578999,0.00799960,-0.02037582,-0.148233
 34,-0.12823356,-0.00113285,-0.00035801,0.00349035,0.00086326,0.0004790
 5,0.00169002,0.00018328,0.00019730,-0.00006117,-0.00024518,-0.00008959
 ,-0.00013575,0.00030119,0.00007427,0.00008277,-0.00007149,0.00121595,0
 .00075162,0.00052351,-0.00008504,0.00027096,-0.00036788,0.00097769,-0.
 00063231,0.02345857,0.15648068,-0.00179162,-0.00058583,0.00010772,0.00
 388946,-0.00879070,-0.01048822,-0.02591073,-0.12826778,-0.20537684,-0.
 00460483,-0.00898380,-0.01053582,-0.00084407,0.00307100,-0.00638626,-0
 .00027835,0.00024821,-0.00131389,0.00010733,-0.00067440,0.00003270,0.0
 0018055,0.00024403,0.00007535,-0.00135170,-0.00125722,0.00127056,-0.00
 014906,0.00025815,-0.00029037,0.00005786,0.00021377,0.00120887,0.02829
 894,0.13769084,0.22386407,0.00385802,-0.00031072,0.00269028,0.00176722
 ,0.02791097,-0.00943781,-0.04532465,-0.03162004,0.00884664,-0.00524789
 ,-0.02528604,0.00827732,-0.00127157,-0.00015978,0.00067756,0.00245119,
 -0.00046931,-0.00119543,0.00069946,-0.00211678,0.00014254,-0.00047819,
 0.00071992,-0.00012905,-0.00198892,0.00046027,0.00490867,-0.00030470,-
 0.00119381,-0.00032487,-0.00308314,0.00080501,-0.00407622,-0.00006207,
 -0.00386063,0.00155518,0.04989086,0.00010014,0.00310454,-0.00145453,-0
 .00232301,-0.01138139,0.00219035,-0.03312945,-0.27436228,0.07429565,-0
 .00012303,0.,-0.00079384,0.00016837,-0.00047281,-0.00048421,0.00041312
 ,0.00153607,-0.00011337,0.00034980,-0.00045561,-0.00000481,-0.00019094
 ,0.00014595,-0.00006898,0.00067480,0.00099652,0.00007502,0.00133843,0.
 00025359,0.00077414,0.00096847,0.00094014,0.00170732,-0.00216530,-0.01
 744902,0.00712588,0.03476353,0.29569371,0.00146572,-0.00095903,0.00199
 536,0.00374544,0.01751978,-0.00560008,0.00890912,0.07535866,-0.0736605
 3,0.00330392,0.01755573,-0.00677652,0.00000523,-0.00106408,0.00073313,
 -0.00124758,0.00010517,0.00146894,-0.00035546,0.00074336,0.00005024,0.
 00024197,-0.00023535,0.00005094,-0.00008726,-0.00071066,-0.00282903,-0
 .00084344,-0.00041468,-0.00020103,-0.00116369,0.00019155,-0.00228072,-
 0.00323908,-0.02366626,0.00881143,-0.01151720,-0.08405336,0.07839523,-
 0.00286172,0.00042931,0.00120849,0.00408542,-0.01642026,0.01088740,-0.
 00066384,0.00078601,0.00065460,0.00280478,0.01539982,-0.01607286,-0.05
 275868,-0.00629285,0.01078294,-0.00040267,-0.00091489,-0.00204099,0.00
 022631,0.00128142,0.00020485,-0.00011803,-0.00050149,-0.00010911,0.002
 35718,0.00114625,0.00080339,0.00026425,0.00042501,-0.00012106,0.000972
 59,-0.00024133,-0.00149765,0.00178307,-0.00026984,0.00001063,-0.000076
 48,0.00009866,-0.00008073,0.04462888,0.00046554,0.00053117,-0.00004696
 ,-0.00086065,0.00576554,-0.00966515,0.00072150,-0.00008835,-0.00240948
 ,-0.00143454,0.00005800,-0.00469685,-0.00574676,-0.12246238,0.12078742
 ,0.00016108,0.00020898,0.00000439,-0.00013022,-0.00001503,-0.00006669,
 0.00020270,0.00005612,0.00003129,0.00014810,0.00122317,-0.00054917,0.0
 0050812,-0.00014330,-0.00034856,-0.00031527,0.00103698,0.00069273,-0.0
 0036590,0.00031201,-0.00082945,-0.00000002,0.00020585,-0.00051101,0.00
 777459,0.12854705,0.00206883,0.00049414,-0.00025314,-0.00539612,0.0088
 8822,-0.01112517,0.00021212,-0.00386428,-0.00603141,0.00304572,0.00641
 522,-0.01015633,0.01047584,0.12095663,-0.23434223,0.00030263,-0.000333
 81,-0.00098125,-0.00007856,0.00068291,0.00025445,-0.00002666,-0.000252
 04,-0.00006739,0.00141105,0.00055974,0.00126443,0.00003749,-0.00032336
 ,-0.00022569,-0.00002092,-0.00018382,0.00128544,-0.00031336,0.00066123
 ,-0.00168206,0.00007262,0.00041877,0.00008858,-0.01011276,-0.12906716,
 0.25493767,0.00342093,-0.00037673,-0.00282011,0.00218694,0.02656911,0.
 00578112,-0.00131789,-0.00012291,-0.00046289,-0.00613238,-0.02839333,-
 0.00576709,-0.04713965,-0.03876645,-0.00710080,0.00251532,0.00033388,0
 .00134088,0.00065076,-0.00258528,0.00033477,-0.00062078,0.00095115,-0.
 00016266,-0.00240519,0.00029930,-0.00468642,-0.00039356,-0.00111155,0.
 00057461,-0.00255860,0.00118881,0.00402049,-0.00006626,0.00004476,-0.0
 0005994,0.00053331,-0.00005859,-0.00011570,0.00019309,-0.00145949,-0.0
 0054274,0.05231423,0.00009530,0.00327990,0.00134520,-0.00287162,-0.013
 67515,-0.00119113,0.00024025,-0.00032137,0.00055049,-0.00042976,-0.001
 52553,0.00031339,-0.04010278,-0.28662925,-0.04858085,0.00046534,0.0015
 3652,0.00002501,0.00015095,-0.00055717,0.00006251,-0.00017346,0.000190
 38,-0.00000756,0.00065139,0.00121761,-0.00037694,0.00118986,0.00012004
 ,-0.00092160,0.00090394,0.00070617,-0.00215678,0.00006653,0.00020912,-
 0.00043772,-0.00007431,0.00053851,-0.00020539,-0.00235957,-0.01550182,
 -0.00440731,0.04319525,0.31003477,-0.00165487,0.00085292,0.00218145,-0
 .00422355,-0.01932819,-0.00379176,0.00015031,0.00116125,0.00058897,-0.
 00308412,-0.01570845,-0.00429252,-0.00711028,-0.04983971,-0.05914332,0
 .00091255,0.00012219,0.00138396,0.00020608,-0.00062064,0.00022810,-0.0
 0013698,0.00023484,-0.00006681,0.00019724,0.00024885,-0.00225856,0.000
 82711,0.00042001,-0.00036075,0.00111634,-0.00061179,-0.00257370,0.0000
 9587,0.00049969,0.00007224,-0.00003314,0.00014619,-0.00077522,0.004254
 12,0.02640146,0.00654874,0.00932186,0.05622547,0.06174385,-0.00031994,
 -0.00008328,0.00059954,0.00021307,-0.00049288,-0.00127531,0.00266564,-
 0.00089971,-0.00023574,-0.00033839,0.01182668,-0.02267928,-0.00095799,
 0.00351025,0.00089575,-0.05163308,0.01325959,-0.01534230,0.00534666,-0
 .00472709,0.02218790,-0.00101516,0.00016481,-0.00397656,-0.00031239,-0
 .00102457,-0.00249486,-0.00001828,0.00004992,-0.00010628,0.00009310,-0
 .00005567,0.00007756,-0.00001893,-0.00001813,0.00017231,-0.00053916,-0
 .00068665,0.00043873,-0.00054998,-0.00009707,-0.00030665,0.00016254,-0
 .00034690,0.00012935,0.04465192,0.00003904,-0.00002718,-0.00011438,-0.
 00012021,0.00023810,0.00030994,-0.00107528,0.00108427,0.00008604,-0.00
 074435,-0.00654207,0.00791639,-0.00059951,-0.00084041,-0.00023291,0.01
 424573,-0.14615557,0.13678423,0.00716017,-0.01263945,0.01838364,-0.001
 03323,0.00171066,-0.00229798,-0.00006326,-0.00547408,-0.00606304,-0.00
 000305,-0.00000731,0.00005954,-0.00009348,0.00003184,-0.00011287,0.000
 06542,-0.00009387,-0.00007782,0.00076835,0.00025040,-0.00040839,0.0002
 9185,-0.00004008,0.00010623,0.00004238,0.00010838,0.00003363,-0.018660
 99,0.15869022,-0.00016631,0.00001221,0.00003324,0.00011174,-0.00020512
 ,-0.00001827,0.00017520,-0.00004228,0.00120616,0.00125928,-0.00287910,
 0.00094084,0.00005716,0.00011345,0.00044974,-0.01874715,0.13065159,-0.
 20067679,-0.00043473,-0.00324197,0.00284491,0.00054182,0.00052312,0.00
 002519,0.00054083,-0.00087336,-0.00158161,0.00001255,0.00003110,-0.000
 03532,0.00002312,0.00001414,0.00009786,-0.00020886,-0.00017183,0.00009
 630,-0.00057458,0.00014768,0.00029565,0.00008483,-0.00007103,-0.000015
 11,-0.00003838,0.00006636,-0.00005616,0.01899406,-0.14210154,0.2165969
 2,-0.00042663,-0.00013036,-0.00070063,0.00020917,-0.00037472,0.0016697
 7,-0.00178567,0.00419413,-0.00134119,-0.00404209,0.01163423,0.02631370
 ,0.00253538,-0.00146063,-0.00013776,-0.04820392,0.01670627,0.02746699,
 0.00483573,-0.00472470,-0.02427098,-0.00206545,-0.00079833,0.00437246,
 -0.00036575,-0.00101828,0.00303966,0.00000815,0.00006471,0.00013140,0.
 00010008,-0.00003243,-0.00013651,-0.00066451,0.00001084,0.00041111,0.0
 0026549,-0.00023105,-0.00022654,0.00007818,0.00005013,-0.00017292,-0.0
 0056472,-0.00064449,-0.00033335,0.00124763,-0.00075163,-0.00166880,0.0
 4782400,0.00004975,-0.00002125,0.00013293,-0.00014891,0.00017849,-0.00
 033457,-0.00071613,-0.00119396,0.00049767,0.00150136,-0.00621610,-0.01
 038536,-0.00098650,0.00125196,0.00005115,0.01939081,-0.10738953,-0.120
 51291,0.00573861,-0.00973098,-0.02008719,-0.00100560,0.00050125,0.0019
 2779,-0.00032913,-0.00255027,0.00701021,-0.00001626,-0.00000750,-0.000
 03413,-0.00004312,0.00001707,0.00006378,0.00033617,-0.00001681,-0.0001
 7174,0.00003994,0.00014293,-0.00001224,0.00005753,-0.00008161,0.000123
 20,0.00050230,0.00015987,0.00024132,-0.00217891,0.01130101,0.01827781,
 -0.02276127,0.11521757,0.00013840,-0.00003314,0.00004790,-0.00007622,0
 .00012675,-0.00004975,-0.00028002,0.00015969,0.00076999,-0.00084069,0.
 00244975,0.00124710,-0.00012087,-0.00019773,0.00128756,0.03227518,-0.1
 1199974,-0.23502330,0.00037113,-0.00020201,-0.00128960,-0.00023859,-0.
 00033509,0.00064360,-0.00056741,0.00003179,-0.00183566,-0.00002857,-0.
 00002740,-0.00005958,0.00001010,-0.00002061,0.00013956,-0.00007151,-0.
 00000249,-0.00000258,-0.00008077,-0.00011881,0.00000417,0.00033971,0.0
 0017936,0.00007314,0.00051644,-0.00009041,0.00020293,0.00292578,-0.013
 40095,-0.02028018,-0.03433083,0.12363116,0.25386579,-0.00012476,0.0001
 5762,0.00032001,0.00027355,-0.00046110,-0.00059529,0.00169969,0.001346
 41,-0.00116628,0.00298682,-0.00945086,-0.01684688,-0.00070359,-0.00335
 521,0.00029410,-0.00128361,0.00203803,-0.00451160,0.00371644,0.0127917
 9,0.02594771,-0.00086767,-0.00147900,-0.00437853,-0.05348312,0.0219072
 8,0.02943447,0.00006311,0.00001629,-0.00010695,-0.00027878,0.00012942,
 -0.00002905,0.00003958,0.00021171,0.00062028,0.00031086,0.00010913,0.0
 0003226,0.00012273,0.00008038,0.00014580,-0.00118290,-0.00008908,-0.00
 056687,0.00173529,0.00097414,0.00019091,-0.00041110,-0.00045364,0.0001
 4628,0.04602173,-0.00010671,0.00010364,0.00022430,0.00008533,-0.000171
 95,-0.00040623,0.00148774,0.00156389,-0.00134958,0.00377170,-0.0089809
 9,-0.01246023,0.00050642,-0.00208523,0.00048049,0.00135043,-0.00405382
 ,0.00512817,-0.00125742,-0.01209197,-0.00925460,0.00010436,0.00173452,
 0.00079382,0.02064743,-0.16786683,-0.13732255,0.00004285,0.00001374,-0
 .00010345,-0.00013899,0.00015583,-0.00000771,-0.00076171,0.00001466,0.
 00111555,0.00038956,0.00024701,0.00018590,-0.00011624,0.00008721,-0.00
 003749,-0.00063483,-0.00003368,-0.00036525,0.00014048,-0.00159137,-0.0
 0043908,0.00029851,-0.00006555,-0.00047373,-0.02345052,0.18240458,-0.0
 0010261,0.00011156,0.00006673,0.00017882,-0.00032899,-0.00006168,0.000
 34149,0.00075553,0.00145336,-0.00035921,0.00378307,0.00121919,0.000141
 97,-0.00000747,0.00011636,0.00010281,0.00125504,-0.00217810,-0.0013380
 7,0.00436766,0.00375123,0.00063743,-0.00049448,-0.00007593,0.02412535,
 -0.13256028,-0.17832794,0.00004835,0.00003451,-0.00002644,-0.00021521,
 0.00013447,-0.00001895,-0.00053109,-0.00022412,0.00032689,0.00003846,0
 .00003874,0.00009528,0.00012763,-0.00009364,0.00013679,-0.00009004,-0.
 00010961,0.00016736,0.00002640,0.00062609,0.00007268,-0.00012907,-0.00
 022447,0.00006270,-0.02778506,0.14329946,0.19279709,-0.00015129,0.0000
 8994,-0.00041967,0.00026050,-0.00027556,0.00079547,-0.00111728,-0.0044
 6338,0.00018729,-0.00095357,-0.00732233,0.02060155,0.00183887,0.001704
 31,0.00112980,-0.00113849,0.00193760,0.00498743,0.00398850,0.00680070,
 -0.02994432,-0.00239161,0.00020812,0.00468279,-0.04288300,0.00262971,-
 0.01027862,0.00006990,0.00003248,0.00014256,-0.00013492,0.00011165,-0.
 00003167,0.00018989,-0.00000148,-0.00031335,-0.00139962,-0.00007643,0.
 00073431,-0.00008508,0.00029775,-0.00080141,0.00040481,0.00013315,-0.0
 0006766,-0.00041254,-0.00044208,-0.00015269,0.00142602,0.00102300,-0.0
 0008754,0.00136574,-0.00235840,0.00478162,0.04112315,-0.00010152,-0.00
 000263,-0.00022756,0.00014399,0.00006683,0.00041106,0.00041865,-0.0028
 0110,-0.00034552,-0.00014062,-0.00797720,0.01763937,0.00157010,0.00175
 472,0.00105336,0.00078864,-0.00241886,-0.00558262,-0.00127018,-0.00754
 252,0.01199318,0.00003372,0.00075824,-0.00048704,0.00036833,-0.0935501
 1,0.11099534,0.00003307,0.00001556,0.00009492,-0.00003370,0.00003787,-
 0.00004716,-0.00009025,0.00009796,0.00010902,-0.00076610,0.00006588,0.
 00058030,-0.00057398,0.00030051,-0.00083700,0.00038223,0.00014269,-0.0
 0011379,0.00032010,-0.00000350,0.00018784,-0.00003093,-0.00149658,0.00
 032361,-0.00102280,0.01061633,-0.02036307,-0.00002876,0.10193592,0.000
 10836,-0.00006286,0.00014073,-0.00026178,0.00017810,-0.00017835,-0.000
 55794,0.00027644,0.00041982,0.00023703,-0.00173440,-0.00012563,-0.0004
 3657,-0.00054364,0.00151495,-0.00052034,-0.00013213,-0.00134845,0.0004
 2410,0.00093269,-0.00267217,-0.00034016,0.00023187,0.00072622,-0.00230
 467,0.10468788,-0.25463725,-0.00004755,-0.00003546,-0.00004509,0.00009
 803,-0.00008496,-0.00003038,-0.00011337,0.00004124,0.00020992,0.000159
 79,0.00017218,0.00013418,0.00067659,0.00025849,0.00029054,-0.00004340,
 -0.00010313,0.00020121,-0.00003041,0.00050415,0.00000395,0.00004347,-0
 .00019439,0.00019621,-0.00114530,0.01099220,-0.01957662,0.00405410,-0.
 11538425,0.27477621\\-0.00001901,-0.00001481,-0.00002383,0.00000042,-0
 .00002915,0.00000737,-0.00001356,0.00004131,0.00000325,0.00000978,-0.0
 0002970,0.00001952,0.00002383,0.00002549,-0.00001149,0.00000666,0.0000
 0578,-0.00004177,-0.00000607,0.00000672,0.00007058,-0.00000088,0.00000
 793,-0.00002327,-0.00001128,-0.00001073,-0.00003690,-0.00000241,-0.000
 00675,0.00002020,0.00000828,-0.00000332,0.00000401,0.00000039,0.000001
 26,0.00000132,-0.00000120,0.00000173,-0.00000461,0.00000094,-0.0000065
 6,-0.00000101,0.00000172,-0.00000249,0.00001410,0.00000645,0.00001217,
 0.00000852,0.00000207,-0.00001189,0.00000826,0.00000100,0.00000503,-0.
 00000761,-0.00000711,0.00000799,-0.00000664\\\@


 BREAD HAS TO MOLD IN ORDER TO GET PENICILLIN.
          -- JERRY BOATZ
 Job cpu time:       0 days  0 hours 34 minutes 15.7 seconds.
 File lengths (MBytes):  RWF=    152 Int=      0 D2E=      0 Chk=      8 Scr=      1
 Normal termination of Gaussian 09 at Tue Jan 28 03:15:54 2020.
