 Entering Gaussian System, Link 0=/home/puck/opt/gaussian_09/g09
 Input=dsC7O2H10nsd_3285.com
 Output=dsC7O2H10nsd_3285.log
 Initial command:
 /home/puck/opt/gaussian_09/l1.exe "/scratch/puck/g09_7ef0de1b-01a6-4eb6-8d67-7a191b1ab8ab/Gau-68194.inp" -scrdir="/scratch/puck/g09_7ef0de1b-01a6-4eb6-8d67-7a191b1ab8ab/"
 Entering Link 1 = /home/puck/opt/gaussian_09/l1.exe PID=     68197.
  
 Copyright (c) 1988,1990,1992,1993,1995,1998,2003,2009,2013,
            Gaussian, Inc.  All Rights Reserved.
  
 This is part of the Gaussian(R) 09 program.  It is based on
 the Gaussian(R) 03 system (copyright 2003, Gaussian, Inc.),
 the Gaussian(R) 98 system (copyright 1998, Gaussian, Inc.),
 the Gaussian(R) 94 system (copyright 1995, Gaussian, Inc.),
 the Gaussian 92(TM) system (copyright 1992, Gaussian, Inc.),
 the Gaussian 90(TM) system (copyright 1990, Gaussian, Inc.),
 the Gaussian 88(TM) system (copyright 1988, Gaussian, Inc.),
 the Gaussian 86(TM) system (copyright 1986, Carnegie Mellon
 University), and the Gaussian 82(TM) system (copyright 1983,
 Carnegie Mellon University). Gaussian is a federally registered
 trademark of Gaussian, Inc.
  
 This software contains proprietary and confidential information,
 including trade secrets, belonging to Gaussian, Inc.
  
 This software is provided under written license and may be
 used, copied, transmitted, or stored only in accord with that
 written license.
  
 The following legend is applicable only to US Government
 contracts under FAR:
  
                    RESTRICTED RIGHTS LEGEND
  
 Use, reproduction and disclosure by the US Government is
 subject to restrictions as set forth in subparagraphs (a)
 and (c) of the Commercial Computer Software - Restricted
 Rights clause in FAR 52.227-19.
  
 Gaussian, Inc.
 340 Quinnipiac St., Bldg. 40, Wallingford CT 06492
  
  
 ---------------------------------------------------------------
 Warning -- This program may not be used in any manner that
 competes with the business of Gaussian, Inc. or will provide
 assistance to any competitor of Gaussian, Inc.  The licensee
 of this program is prohibited from giving any competitor of
 Gaussian, Inc. access to this program.  By using this program,
 the user acknowledges that Gaussian, Inc. is engaged in the
 business of creating and licensing software in the field of
 computational chemistry and represents and warrants to the
 licensee that it is not a competitor of Gaussian, Inc. and that
 it will not use this program in any manner prohibited above.
 ---------------------------------------------------------------
  

 Cite this work as:
 Gaussian 09, Revision D.01,
 M. J. Frisch, G. W. Trucks, H. B. Schlegel, G. E. Scuseria, 
 M. A. Robb, J. R. Cheeseman, G. Scalmani, V. Barone, B. Mennucci, 
 G. A. Petersson, H. Nakatsuji, M. Caricato, X. Li, H. P. Hratchian, 
 A. F. Izmaylov, J. Bloino, G. Zheng, J. L. Sonnenberg, M. Hada, 
 M. Ehara, K. Toyota, R. Fukuda, J. Hasegawa, M. Ishida, T. Nakajima, 
 Y. Honda, O. Kitao, H. Nakai, T. Vreven, J. A. Montgomery, Jr., 
 J. E. Peralta, F. Ogliaro, M. Bearpark, J. J. Heyd, E. Brothers, 
 K. N. Kudin, V. N. Staroverov, T. Keith, R. Kobayashi, J. Normand, 
 K. Raghavachari, A. Rendell, J. C. Burant, S. S. Iyengar, J. Tomasi, 
 M. Cossi, N. Rega, J. M. Millam, M. Klene, J. E. Knox, J. B. Cross, 
 V. Bakken, C. Adamo, J. Jaramillo, R. Gomperts, R. E. Stratmann, 
 O. Yazyev, A. J. Austin, R. Cammi, C. Pomelli, J. W. Ochterski, 
 R. L. Martin, K. Morokuma, V. G. Zakrzewski, G. A. Voth, 
 P. Salvador, J. J. Dannenberg, S. Dapprich, A. D. Daniels, 
 O. Farkas, J. B. Foresman, J. V. Ortiz, J. Cioslowski, 
 and D. J. Fox, Gaussian, Inc., Wallingford CT, 2013.
 
 ******************************************
 Gaussian 09:  ES64L-G09RevD.01 24-Apr-2013
                27-Jan-2020 
 ******************************************
 -----------------------------
 # b3lyp 6-31G(2df,p) opt Freq
 -----------------------------
 1/14=-1,18=20,19=15,26=3,38=1/1,3;
 2/9=110,12=2,17=6,18=5,40=1/2;
 3/5=1,6=6,7=104,11=2,16=1,25=1,30=1,71=1,74=-5/1,2,3;
 4//1;
 5/5=2,38=5/2;
 6/7=2,8=2,9=2,10=2,28=1/1;
 7//1,2,3,16;
 1/14=-1,18=20,19=15,26=3/3(2);
 2/9=110/2;
 99//99;
 2/9=110/2;
 3/5=1,6=6,7=104,11=2,16=1,25=1,30=1,71=1,74=-5/1,2,3;
 4/5=5,16=3,69=1/1;
 5/5=2,38=5/2;
 7//1,2,3,16;
 1/14=-1,18=20,19=15,26=3/3(-5);
 2/9=110/2;
 6/7=2,8=2,9=2,10=2,19=2,28=1/1;
 99/9=1/99;
 -----
 titel
 -----
 Symbolic Z-matrix:
 Charge =  0 Multiplicity = 1
 O                     0.48432   0.50585   0.552 
 C                    -0.64703   1.05282   1.1577 
 C                    -1.71076   1.6646    0.26008 
 C                    -3.14804   1.86838   0.75335 
 C                    -3.09155   2.90729   1.88141 
 C                    -2.3779    2.56788   3.1653 
 C                    -1.64613   3.3203    2.08001 
 C                    -0.8005    2.55475   1.07942 
 O                     0.23506   3.24781   0.4307 
 H                     0.92846   1.24126   0.10697 
 H                    -0.92563   0.49615   2.04711 
 H                    -1.53281   1.54121  -0.80373 
 H                    -3.75487   2.26045  -0.06936 
 H                    -3.61853   0.9316    1.07469 
 H                    -3.89087   3.63851   1.93057 
 H                    -2.66034   3.12998   4.04947 
 H                    -2.11264   1.53774   3.37617 
 H                    -1.36043   4.3527    2.24844 
 H                     0.89989   3.46823   1.09472 
 

 GradGradGradGradGradGradGradGradGradGradGradGradGradGradGradGradGradGrad
 Berny optimization.
 Initialization pass.
                           ----------------------------
                           !    Initial Parameters    !
                           ! (Angstroms and Degrees)  !
 --------------------------                            --------------------------
 ! Name  Definition              Value          Derivative Info.                !
 --------------------------------------------------------------------------------
 ! R1    R(1,2)                  1.395          estimate D2E/DX2                !
 ! R2    R(1,10)                 0.9675         estimate D2E/DX2                !
 ! R3    R(2,3)                  1.5204         estimate D2E/DX2                !
 ! R4    R(2,8)                  1.5118         estimate D2E/DX2                !
 ! R5    R(2,11)                 1.0856         estimate D2E/DX2                !
 ! R6    R(3,4)                  1.5332         estimate D2E/DX2                !
 ! R7    R(3,8)                  1.514          estimate D2E/DX2                !
 ! R8    R(3,12)                 1.0856         estimate D2E/DX2                !
 ! R9    R(4,5)                  1.5346         estimate D2E/DX2                !
 ! R10   R(4,13)                 1.0949         estimate D2E/DX2                !
 ! R11   R(4,14)                 1.0964         estimate D2E/DX2                !
 ! R12   R(5,6)                  1.5076         estimate D2E/DX2                !
 ! R13   R(5,7)                  1.5163         estimate D2E/DX2                !
 ! R14   R(5,15)                 1.0844         estimate D2E/DX2                !
 ! R15   R(6,7)                  1.5098         estimate D2E/DX2                !
 ! R16   R(6,16)                 1.0851         estimate D2E/DX2                !
 ! R17   R(6,17)                 1.0844         estimate D2E/DX2                !
 ! R18   R(7,8)                  1.5173         estimate D2E/DX2                !
 ! R19   R(7,18)                 1.0844         estimate D2E/DX2                !
 ! R20   R(8,9)                  1.4048         estimate D2E/DX2                !
 ! R21   R(9,19)                 0.9651         estimate D2E/DX2                !
 ! A1    A(2,1,10)             105.9009         estimate D2E/DX2                !
 ! A2    A(1,2,3)              117.9598         estimate D2E/DX2                !
 ! A3    A(1,2,8)              116.7042         estimate D2E/DX2                !
 ! A4    A(1,2,11)             111.2728         estimate D2E/DX2                !
 ! A5    A(3,2,11)             120.6954         estimate D2E/DX2                !
 ! A6    A(8,2,11)             121.7216         estimate D2E/DX2                !
 ! A7    A(2,3,4)              121.294          estimate D2E/DX2                !
 ! A8    A(2,3,12)             114.7154         estimate D2E/DX2                !
 ! A9    A(4,3,8)              108.1412         estimate D2E/DX2                !
 ! A10   A(4,3,12)             118.9494         estimate D2E/DX2                !
 ! A11   A(8,3,12)             119.9054         estimate D2E/DX2                !
 ! A12   A(3,4,5)              106.9757         estimate D2E/DX2                !
 ! A13   A(3,4,13)             108.9906         estimate D2E/DX2                !
 ! A14   A(3,4,14)             112.5195         estimate D2E/DX2                !
 ! A15   A(5,4,13)             109.2883         estimate D2E/DX2                !
 ! A16   A(5,4,14)             112.2573         estimate D2E/DX2                !
 ! A17   A(13,4,14)            106.7587         estimate D2E/DX2                !
 ! A18   A(4,5,6)              119.4071         estimate D2E/DX2                !
 ! A19   A(4,5,7)              108.4068         estimate D2E/DX2                !
 ! A20   A(4,5,15)             117.5592         estimate D2E/DX2                !
 ! A21   A(6,5,15)             117.5234         estimate D2E/DX2                !
 ! A22   A(7,5,15)             120.8652         estimate D2E/DX2                !
 ! A23   A(5,6,16)             117.0051         estimate D2E/DX2                !
 ! A24   A(5,6,17)             119.6856         estimate D2E/DX2                !
 ! A25   A(7,6,16)             116.9823         estimate D2E/DX2                !
 ! A26   A(7,6,17)             119.6455         estimate D2E/DX2                !
 ! A27   A(16,6,17)            113.4091         estimate D2E/DX2                !
 ! A28   A(5,7,8)              107.9061         estimate D2E/DX2                !
 ! A29   A(5,7,18)             122.0607         estimate D2E/DX2                !
 ! A30   A(6,7,8)              119.5181         estimate D2E/DX2                !
 ! A31   A(6,7,18)             119.3756         estimate D2E/DX2                !
 ! A32   A(8,7,18)             115.8453         estimate D2E/DX2                !
 ! A33   A(2,8,7)              121.5793         estimate D2E/DX2                !
 ! A34   A(2,8,9)              116.0532         estimate D2E/DX2                !
 ! A35   A(3,8,7)              108.5682         estimate D2E/DX2                !
 ! A36   A(3,8,9)              118.9034         estimate D2E/DX2                !
 ! A37   A(7,8,9)              117.8023         estimate D2E/DX2                !
 ! A38   A(8,9,19)             107.6223         estimate D2E/DX2                !
 ! D1    D(10,1,2,3)            63.0726         estimate D2E/DX2                !
 ! D2    D(10,1,2,8)            -5.3122         estimate D2E/DX2                !
 ! D3    D(10,1,2,11)         -151.1507         estimate D2E/DX2                !
 ! D4    D(1,2,3,4)            159.8467         estimate D2E/DX2                !
 ! D5    D(1,2,3,12)             5.2443         estimate D2E/DX2                !
 ! D6    D(11,2,3,4)            17.3994         estimate D2E/DX2                !
 ! D7    D(11,2,3,12)         -137.203          estimate D2E/DX2                !
 ! D8    D(1,2,8,7)           -157.0479         estimate D2E/DX2                !
 ! D9    D(1,2,8,9)             -1.5505         estimate D2E/DX2                !
 ! D10   D(11,2,8,7)           -15.0118         estimate D2E/DX2                !
 ! D11   D(11,2,8,9)           140.4856         estimate D2E/DX2                !
 ! D12   D(2,3,4,5)             65.4949         estimate D2E/DX2                !
 ! D13   D(2,3,4,13)          -176.4509         estimate D2E/DX2                !
 ! D14   D(2,3,4,14)           -58.235          estimate D2E/DX2                !
 ! D15   D(8,3,4,5)              0.3904         estimate D2E/DX2                !
 ! D16   D(8,3,4,13)           118.4445         estimate D2E/DX2                !
 ! D17   D(8,3,4,14)          -123.3396         estimate D2E/DX2                !
 ! D18   D(12,3,4,5)          -140.944          estimate D2E/DX2                !
 ! D19   D(12,3,4,13)          -22.8899         estimate D2E/DX2                !
 ! D20   D(12,3,4,14)           95.3261         estimate D2E/DX2                !
 ! D21   D(4,3,8,7)             -0.1737         estimate D2E/DX2                !
 ! D22   D(4,3,8,9)           -138.5488         estimate D2E/DX2                !
 ! D23   D(12,3,8,7)           140.7257         estimate D2E/DX2                !
 ! D24   D(12,3,8,9)             2.3507         estimate D2E/DX2                !
 ! D25   D(3,4,5,6)            -65.6859         estimate D2E/DX2                !
 ! D26   D(3,4,5,7)             -0.4628         estimate D2E/DX2                !
 ! D27   D(3,4,5,15)           141.1247         estimate D2E/DX2                !
 ! D28   D(13,4,5,6)           176.4546         estimate D2E/DX2                !
 ! D29   D(13,4,5,7)          -118.3223         estimate D2E/DX2                !
 ! D30   D(13,4,5,15)           23.2652         estimate D2E/DX2                !
 ! D31   D(14,4,5,6)            58.2052         estimate D2E/DX2                !
 ! D32   D(14,4,5,7)           123.4284         estimate D2E/DX2                !
 ! D33   D(14,4,5,15)          -94.9841         estimate D2E/DX2                !
 ! D34   D(4,5,6,16)          -157.5021         estimate D2E/DX2                !
 ! D35   D(4,5,6,17)           -14.0076         estimate D2E/DX2                !
 ! D36   D(15,5,6,16)           -4.3033         estimate D2E/DX2                !
 ! D37   D(15,5,6,17)          139.1912         estimate D2E/DX2                !
 ! D38   D(4,5,7,8)              0.3601         estimate D2E/DX2                !
 ! D39   D(4,5,7,18)           138.344          estimate D2E/DX2                !
 ! D40   D(15,5,7,8)          -139.7212         estimate D2E/DX2                !
 ! D41   D(15,5,7,18)           -1.7374         estimate D2E/DX2                !
 ! D42   D(16,6,7,8)           158.2324         estimate D2E/DX2                !
 ! D43   D(16,6,7,18)            4.9033         estimate D2E/DX2                !
 ! D44   D(17,6,7,8)            14.8405         estimate D2E/DX2                !
 ! D45   D(17,6,7,18)         -138.4886         estimate D2E/DX2                !
 ! D46   D(5,7,8,2)            -66.1285         estimate D2E/DX2                !
 ! D47   D(5,7,8,3)             -0.1153         estimate D2E/DX2                !
 ! D48   D(5,7,8,9)            138.7829         estimate D2E/DX2                !
 ! D49   D(6,7,8,2)             -1.2946         estimate D2E/DX2                !
 ! D50   D(6,7,8,3)             64.7185         estimate D2E/DX2                !
 ! D51   D(6,7,8,9)           -156.3832         estimate D2E/DX2                !
 ! D52   D(18,7,8,2)           152.9439         estimate D2E/DX2                !
 ! D53   D(18,7,8,3)          -141.0429         estimate D2E/DX2                !
 ! D54   D(18,7,8,9)            -2.1447         estimate D2E/DX2                !
 ! D55   D(2,8,9,19)           -89.2222         estimate D2E/DX2                !
 ! D56   D(3,8,9,19)          -158.1502         estimate D2E/DX2                !
 ! D57   D(7,8,9,19)            67.2353         estimate D2E/DX2                !
 --------------------------------------------------------------------------------
 Trust Radius=3.00D-01 FncErr=1.00D-07 GrdErr=1.00D-06
 Number of steps in this run=    114 maximum allowed number of steps=    114.
 GradGradGradGradGradGradGradGradGradGradGradGradGradGradGradGradGradGrad

                          Input orientation:                          
 ---------------------------------------------------------------------
 Center     Atomic      Atomic             Coordinates (Angstroms)
 Number     Number       Type             X           Y           Z
 ---------------------------------------------------------------------
      1          8           0        0.484321    0.505853    0.551999
      2          6           0       -0.647029    1.052816    1.157699
      3          6           0       -1.710759    1.664599    0.260081
      4          6           0       -3.148045    1.868383    0.753350
      5          6           0       -3.091549    2.907294    1.881412
      6          6           0       -2.377896    2.567881    3.165298
      7          6           0       -1.646129    3.320303    2.080013
      8          6           0       -0.800497    2.554752    1.079425
      9          8           0        0.235056    3.247810    0.430703
     10          1           0        0.928455    1.241261    0.106970
     11          1           0       -0.925634    0.496152    2.047112
     12          1           0       -1.532807    1.541206   -0.803728
     13          1           0       -3.754871    2.260452   -0.069358
     14          1           0       -3.618533    0.931599    1.074693
     15          1           0       -3.890867    3.638507    1.930571
     16          1           0       -2.660337    3.129980    4.049469
     17          1           0       -2.112643    1.537739    3.376167
     18          1           0       -1.360428    4.352700    2.248435
     19          1           0        0.899889    3.468229    1.094715
 ---------------------------------------------------------------------
                    Distance matrix (angstroms):
                    1          2          3          4          5
     1  O    0.000000
     2  C    1.394989   0.000000
     3  C    2.499257   1.520368   0.000000
     4  C    3.884728   2.661527   1.533177   0.000000
     5  C    4.507894   3.152543   2.465682   1.534618   0.000000
     6  C    4.390168   3.053158   3.114688   2.626770   1.507603
     7  C    3.846397   2.643929   2.461236   2.474643   1.516330
     8  C    2.475262   1.511784   1.514025   2.467470   2.452833
     9  O    2.755933   2.474792   2.514332   3.667737   3.645108
    10  H    0.967538   1.903075   2.677332   4.174798   4.699441
    11  H    2.055099   1.085611   2.274900   2.914781   3.245343
    12  H    2.641734   2.206881   1.085625   2.267273   3.392027
    13  H    4.629843   3.552848   2.154522   1.094899   2.159607
    14  H    4.157869   2.975133   2.200110   1.096442   2.198153
    15  H    5.554840   4.219670   3.382266   2.251883   1.084434
    16  H    5.385834   4.090275   4.172350   3.562848   2.221712
    17  H    3.973026   2.702734   3.144455   2.839112   2.251274
    18  H    4.591212   3.547940   3.361871   3.406272   2.284882
    19  H    3.040214   2.868997   3.281033   4.365983   4.106717
                    6          7          8          9         10
     6  C    0.000000
     7  C    1.509790   0.000000
     8  C    2.615192   1.517346   0.000000
     9  O    3.842894   2.502866   1.404828   0.000000
    10  H    4.695237   3.852765   2.379118   2.147520   0.000000
    11  H    2.766128   2.914794   2.278137   3.395821   2.785136
    12  H    4.185858   3.390278   2.260491   2.749847   2.641430
    13  H    3.528962   3.192157   3.183494   4.140586   4.796184
    14  H    2.930397   3.256831   3.252072   4.541993   4.659128
    15  H    2.227077   2.272099   3.383691   4.407436   5.683148
    16  H    1.085120   2.223421   3.551205   4.636018   5.655969
    17  H    1.084444   2.252818   2.833914   4.136641   4.474799
    18  H    2.249768   1.084359   2.216467   2.659043   4.416550
    19  H    3.980177   2.734027   1.930282   0.965143   2.436358
                   11         12         13         14         15
    11  H    0.000000
    12  H    3.096463   0.000000
    13  H    3.949276   2.448301   0.000000
    14  H    2.896017   2.872340   1.758776   0.000000
    15  H    4.322104   4.175585   2.432539   2.852024   0.000000
    16  H    3.735729   5.229632   4.349577   3.821035   2.502505
    17  H    2.064044   4.219922   3.884697   2.816362   3.108868
    18  H    3.886198   4.153302   3.934847   4.263876   2.648439
    19  H    3.615637   3.638065   4.947785   5.181798   4.866107
                   16         17         18         19
    16  H    0.000000
    17  H    1.813432   0.000000
    18  H    2.535455   3.124358   0.000000
    19  H    4.638986   4.243485   2.687451   0.000000
 Stoichiometry    C7H10O2
 Framework group  C1[X(C7H10O2)]
 Deg. of freedom    51
 Full point group                 C1      NOp   1
 Largest Abelian subgroup         C1      NOp   1
 Largest concise Abelian subgroup C1      NOp   1
                         Standard orientation:                         
 ---------------------------------------------------------------------
 Center     Atomic      Atomic             Coordinates (Angstroms)
 Number     Number       Type             X           Y           Z
 ---------------------------------------------------------------------
      1          8           0        2.415882   -0.603817    0.715466
      2          6           0        1.022732   -0.550465    0.667701
      3          6           0        0.339621   -0.920078   -0.639305
      4          6           0       -1.136525   -1.332590   -0.677519
      5          6           0       -1.956141   -0.103400   -0.262340
      6          6           0       -1.829194    0.431248    1.141549
      7          6           0       -0.997491    1.033288    0.034624
      8          6           0        0.413484    0.527008   -0.200261
      9          8           0        1.319363    1.386459   -0.843898
     10          1           0        2.728343    0.053446    0.077890
     11          1           0        0.584917   -0.831309    1.620589
     12          1           0        1.007615   -1.285720   -1.413043
     13          1           0       -1.401241   -1.614668   -1.701805
     14          1           0       -1.345553   -2.203896   -0.045604
     15          1           0       -2.888849    0.077645   -0.785099
     16          1           0       -2.653716    1.027833    1.518027
     17          1           0       -1.350301   -0.172192    1.904792
     18          1           0       -1.194105    2.050540   -0.285341
     19          1           0        1.492019    2.127105   -0.249648
 ---------------------------------------------------------------------
 Rotational constants (GHZ):      2.8623591      1.4415130      1.2812489
 Standard basis: 6-31G(2df,p) (6D, 7F)
 There are   329 symmetry adapted cartesian basis functions of A   symmetry.
 There are   302 symmetry adapted basis functions of A   symmetry.
   302 basis functions,   466 primitive gaussians,   329 cartesian basis functions
    34 alpha electrons       34 beta electrons
       nuclear repulsion energy       473.7076897787 Hartrees.
 NAtoms=   19 NActive=   19 NUniq=   19 SFac= 1.00D+00 NAtFMM=   60 NAOKFM=F Big=F
 Integral buffers will be    131072 words long.
 Raffenetti 2 integral format.
 Two-electron integral symmetry is turned on.
 One-electron integrals computed using PRISM.
 NBasis=   302 RedAO= T EigKep=  4.57D-04  NBF=   302
 NBsUse=   302 1.00D-06 EigRej= -1.00D+00 NBFU=   302
 ExpMin= 1.61D-01 ExpMax= 5.48D+03 ExpMxC= 8.25D+02 IAcc=1 IRadAn=         1 AccDes= 0.00D+00
 Harris functional with IExCor=  402 and IRadAn=       1 diagonalized for initial guess.
 HarFok:  IExCor=  402 AccDes= 0.00D+00 IRadAn=         1 IDoV= 1 UseB2=F ITyADJ=14
 ICtDFT=  3500011 ScaDFX=  1.000000  1.000000  1.000000  1.000000
 FoFCou: FMM=F IPFlag=           0 FMFlag=      100000 FMFlg1=           0
         NFxFlg=           0 DoJE=T BraDBF=F KetDBF=T FulRan=T
         wScrn=  0.000000 ICntrl=     500 IOpCl=  0 I1Cent=   200000004 NGrid=           0
         NMat0=    1 NMatS0=      1 NMatT0=    0 NMatD0=    1 NMtDS0=    0 NMtDT0=    0
 Petite list used in FoFCou.
 Requested convergence on RMS density matrix=1.00D-08 within 128 cycles.
 Requested convergence on MAX density matrix=1.00D-06.
 Requested convergence on             energy=1.00D-06.
 No special actions if energy rises.
 Integral accuracy reduced to 1.0D-05 until final iterations.
 Initial convergence to 1.0D-05 achieved.  Increase integral accuracy.
 SCF Done:  E(RB3LYP) =  -423.152469271     A.U. after   12 cycles
            NFock= 12  Conv=0.83D-08     -V/T= 2.0074

 **********************************************************************

            Population analysis using the SCF density.

 **********************************************************************

 Orbital symmetries:
       Occupied  (A) (A) (A) (A) (A) (A) (A) (A) (A) (A) (A) (A)
                 (A) (A) (A) (A) (A) (A) (A) (A) (A) (A) (A) (A)
                 (A) (A) (A) (A) (A) (A) (A) (A) (A) (A)
       Virtual   (A) (A) (A) (A) (A) (A) (A) (A) (A) (A) (A) (A)
                 (A) (A) (A) (A) (A) (A) (A) (A) (A) (A) (A) (A)
                 (A) (A) (A) (A) (A) (A) (A) (A) (A) (A) (A) (A)
                 (A) (A) (A) (A) (A) (A) (A) (A) (A) (A) (A) (A)
                 (A) (A) (A) (A) (A) (A) (A) (A) (A) (A) (A) (A)
                 (A) (A) (A) (A) (A) (A) (A) (A) (A) (A) (A) (A)
                 (A) (A) (A) (A) (A) (A) (A) (A) (A) (A) (A) (A)
                 (A) (A) (A) (A) (A) (A) (A) (A) (A) (A) (A) (A)
                 (A) (A) (A) (A) (A) (A) (A) (A) (A) (A) (A) (A)
                 (A) (A) (A) (A) (A) (A) (A) (A) (A) (A) (A) (A)
                 (A) (A) (A) (A) (A) (A) (A) (A) (A) (A) (A) (A)
                 (A) (A) (A) (A) (A) (A) (A) (A) (A) (A) (A) (A)
                 (A) (A) (A) (A) (A) (A) (A) (A) (A) (A) (A) (A)
                 (A) (A) (A) (A) (A) (A) (A) (A) (A) (A) (A) (A)
                 (A) (A) (A) (A) (A) (A) (A) (A) (A) (A) (A) (A)
                 (A) (A) (A) (A) (A) (A) (A) (A) (A) (A) (A) (A)
                 (A) (A) (A) (A) (A) (A) (A) (A) (A) (A) (A) (A)
                 (A) (A) (A) (A) (A) (A) (A) (A) (A) (A) (A) (A)
                 (A) (A) (A) (A) (A) (A) (A) (A) (A) (A) (A) (A)
                 (A) (A) (A) (A) (A) (A) (A) (A) (A) (A) (A) (A)
                 (A) (A) (A) (A) (A) (A) (A) (A) (A) (A) (A) (A)
                 (A) (A) (A) (A) (A) (A) (A) (A) (A) (A) (A) (A)
                 (A) (A) (A) (A)
 The electronic state is 1-A.
 Alpha  occ. eigenvalues --  -19.16124 -19.13280 -10.23746 -10.22763 -10.19370
 Alpha  occ. eigenvalues --  -10.19088 -10.18739 -10.18709 -10.17977  -1.04939
 Alpha  occ. eigenvalues --   -1.01246  -0.88911  -0.81287  -0.71744  -0.63757
 Alpha  occ. eigenvalues --   -0.59499  -0.57512  -0.55938  -0.53919  -0.49637
 Alpha  occ. eigenvalues --   -0.46740  -0.44500  -0.42647  -0.42133  -0.41059
 Alpha  occ. eigenvalues --   -0.38284  -0.35897  -0.34825  -0.33994  -0.32087
 Alpha  occ. eigenvalues --   -0.30135  -0.28186  -0.24558  -0.22834
 Alpha virt. eigenvalues --    0.05896   0.08200   0.09619   0.11385   0.13013
 Alpha virt. eigenvalues --    0.13619   0.14403   0.16149   0.16923   0.17746
 Alpha virt. eigenvalues --    0.18082   0.20129   0.21056   0.22688   0.24020
 Alpha virt. eigenvalues --    0.25670   0.27186   0.29309   0.32700   0.34407
 Alpha virt. eigenvalues --    0.37511   0.42527   0.44577   0.47484   0.49234
 Alpha virt. eigenvalues --    0.49961   0.50458   0.51282   0.52975   0.54202
 Alpha virt. eigenvalues --    0.54940   0.55980   0.57588   0.58079   0.59176
 Alpha virt. eigenvalues --    0.60551   0.62584   0.63706   0.65124   0.66278
 Alpha virt. eigenvalues --    0.69172   0.70795   0.74127   0.74860   0.76083
 Alpha virt. eigenvalues --    0.76709   0.77538   0.78896   0.79650   0.81487
 Alpha virt. eigenvalues --    0.83479   0.85015   0.85388   0.88031   0.91085
 Alpha virt. eigenvalues --    0.91933   0.93696   0.96111   0.98732   0.99814
 Alpha virt. eigenvalues --    1.03885   1.05254   1.06505   1.08073   1.11616
 Alpha virt. eigenvalues --    1.12534   1.15831   1.17827   1.20838   1.22558
 Alpha virt. eigenvalues --    1.23216   1.29065   1.29880   1.33175   1.35707
 Alpha virt. eigenvalues --    1.36403   1.37092   1.39268   1.40173   1.41588
 Alpha virt. eigenvalues --    1.43010   1.45380   1.47001   1.47600   1.49834
 Alpha virt. eigenvalues --    1.51380   1.52320   1.55533   1.57115   1.57601
 Alpha virt. eigenvalues --    1.59900   1.64921   1.65587   1.68076   1.69801
 Alpha virt. eigenvalues --    1.71192   1.73346   1.76053   1.77875   1.82561
 Alpha virt. eigenvalues --    1.84801   1.89156   1.92494   1.93685   1.97257
 Alpha virt. eigenvalues --    2.02977   2.06504   2.08614   2.12893   2.15382
 Alpha virt. eigenvalues --    2.18862   2.21356   2.24221   2.29887   2.30719
 Alpha virt. eigenvalues --    2.36826   2.39491   2.40398   2.43949   2.47630
 Alpha virt. eigenvalues --    2.49904   2.53111   2.53876   2.58019   2.61783
 Alpha virt. eigenvalues --    2.64408   2.67781   2.69240   2.70280   2.73621
 Alpha virt. eigenvalues --    2.74725   2.77803   2.79544   2.85787   2.86777
 Alpha virt. eigenvalues --    2.88455   2.90530   2.92393   2.93170   2.95898
 Alpha virt. eigenvalues --    2.97825   3.01293   3.02515   3.04631   3.06204
 Alpha virt. eigenvalues --    3.08213   3.10176   3.12993   3.14313   3.15384
 Alpha virt. eigenvalues --    3.17302   3.18248   3.19431   3.22597   3.23824
 Alpha virt. eigenvalues --    3.25682   3.27352   3.29766   3.33224   3.34230
 Alpha virt. eigenvalues --    3.36927   3.38714   3.40771   3.47793   3.49120
 Alpha virt. eigenvalues --    3.50113   3.53940   3.56984   3.59010   3.66095
 Alpha virt. eigenvalues --    3.70215   3.72596   3.77168   3.79481   3.80318
 Alpha virt. eigenvalues --    3.87488   3.90112   3.93643   3.97665   3.99133
 Alpha virt. eigenvalues --    4.02331   4.05049   4.09179   4.11711   4.13740
 Alpha virt. eigenvalues --    4.16351   4.19385   4.20467   4.26195   4.28981
 Alpha virt. eigenvalues --    4.31436   4.32819   4.35339   4.37437   4.38957
 Alpha virt. eigenvalues --    4.41432   4.45426   4.45924   4.48755   4.51124
 Alpha virt. eigenvalues --    4.52995   4.57625   4.60016   4.60461   4.64441
 Alpha virt. eigenvalues --    4.66975   4.67675   4.68387   4.71178   4.72795
 Alpha virt. eigenvalues --    4.73663   4.75886   4.75963   4.77374   4.78919
 Alpha virt. eigenvalues --    4.81184   4.83108   4.83734   4.87800   4.92221
 Alpha virt. eigenvalues --    4.95086   4.95396   4.97493   5.00876   5.03439
 Alpha virt. eigenvalues --    5.05650   5.10517   5.11803   5.17831   5.21863
 Alpha virt. eigenvalues --    5.26101   5.28068   5.33202   5.36321   5.41337
 Alpha virt. eigenvalues --    5.43734   5.46519   5.47008   5.48840   5.50267
 Alpha virt. eigenvalues --    5.53663   5.55664   5.57889   5.65284   5.65781
 Alpha virt. eigenvalues --    5.70239   5.70944   5.79866   5.86741   5.99956
 Alpha virt. eigenvalues --    6.00732   6.09315   6.10367   6.25348   6.30738
 Alpha virt. eigenvalues --    6.52304   7.03971   7.17361   7.24335  10.52289
 Alpha virt. eigenvalues --   11.22109  11.70304  11.95421  12.39393  12.55197
 Alpha virt. eigenvalues --   12.67612  13.28936  13.60564
          Condensed to atoms (all electrons):
               1          2          3          4          5          6
     1  O    7.819705   0.381110  -0.027500   0.002071   0.000043   0.000056
     2  C    0.381110   4.905912   0.255358  -0.000432  -0.000891  -0.007155
     3  C   -0.027500   0.255358   5.084390   0.340368  -0.042246   0.003273
     4  C    0.002071  -0.000432   0.340368   4.947612   0.419243  -0.012682
     5  C    0.000043  -0.000891  -0.042246   0.419243   4.754300   0.341360
     6  C    0.000056  -0.007155   0.003273  -0.012682   0.341360   5.027833
     7  C    0.001996  -0.046532  -0.053552  -0.040136   0.306797   0.290803
     8  C   -0.012302   0.280819   0.307539  -0.035411  -0.014946  -0.001299
     9  O   -0.008926  -0.065167  -0.001974   0.000576   0.002254   0.002001
    10  H    0.316983  -0.101263   0.006483  -0.000123  -0.000068  -0.000036
    11  H   -0.022984   0.357780  -0.045460  -0.003630  -0.001746   0.000602
    12  H   -0.001658  -0.020258   0.354909  -0.032203   0.003365  -0.000147
    13  H   -0.000038   0.002645  -0.017534   0.352900  -0.026503   0.004110
    14  H    0.000074  -0.007968  -0.032418   0.363154  -0.027688  -0.009568
    15  H    0.000002  -0.000170   0.003474  -0.043085   0.382044  -0.037466
    16  H   -0.000002   0.000038  -0.000104   0.002325  -0.017442   0.367075
    17  H   -0.000068   0.003028  -0.003275  -0.005186  -0.020743   0.374004
    18  H   -0.000041   0.005423   0.002931   0.004972  -0.030994  -0.038448
    19  H    0.000987   0.000076   0.007973  -0.000298  -0.000256   0.000025
               7          8          9         10         11         12
     1  O    0.001996  -0.012302  -0.008926   0.316983  -0.022984  -0.001658
     2  C   -0.046532   0.280819  -0.065167  -0.101263   0.357780  -0.020258
     3  C   -0.053552   0.307539  -0.001974   0.006483  -0.045460   0.354909
     4  C   -0.040136  -0.035411   0.000576  -0.000123  -0.003630  -0.032203
     5  C    0.306797  -0.014946   0.002254  -0.000068  -0.001746   0.003365
     6  C    0.290803  -0.001299   0.002001  -0.000036   0.000602  -0.000147
     7  C    4.990996   0.403152  -0.044450   0.001062  -0.009462   0.002523
     8  C    0.403152   4.488917   0.406359   0.000404  -0.028356  -0.025586
     9  O   -0.044450   0.406359   7.839664   0.035119   0.000983  -0.001498
    10  H    0.001062   0.000404   0.035119   0.454505   0.005643   0.000417
    11  H   -0.009462  -0.028356   0.000983   0.005643   0.639022   0.002498
    12  H    0.002523  -0.025586  -0.001498   0.000417   0.002498   0.626346
    13  H    0.003523   0.001232   0.000017   0.000011  -0.000117  -0.007596
    14  H    0.002659   0.004459  -0.000021   0.000006   0.003501   0.003274
    15  H   -0.029273   0.003057  -0.000025   0.000000  -0.000004  -0.000219
    16  H   -0.011899   0.001637  -0.000031   0.000000  -0.000126   0.000012
    17  H   -0.019423  -0.007662   0.000049  -0.000019   0.006302  -0.000034
    18  H    0.363172  -0.037003  -0.000649  -0.000056   0.000062  -0.000080
    19  H   -0.001042  -0.078988   0.317296  -0.000522   0.000569  -0.000168
              13         14         15         16         17         18
     1  O   -0.000038   0.000074   0.000002  -0.000002  -0.000068  -0.000041
     2  C    0.002645  -0.007968  -0.000170   0.000038   0.003028   0.005423
     3  C   -0.017534  -0.032418   0.003474  -0.000104  -0.003275   0.002931
     4  C    0.352900   0.363154  -0.043085   0.002325  -0.005186   0.004972
     5  C   -0.026503  -0.027688   0.382044  -0.017442  -0.020743  -0.030994
     6  C    0.004110  -0.009568  -0.037466   0.367075   0.374004  -0.038448
     7  C    0.003523   0.002659  -0.029273  -0.011899  -0.019423   0.363172
     8  C    0.001232   0.004459   0.003057   0.001637  -0.007662  -0.037003
     9  O    0.000017  -0.000021  -0.000025  -0.000031   0.000049  -0.000649
    10  H    0.000011   0.000006   0.000000   0.000000  -0.000019  -0.000056
    11  H   -0.000117   0.003501  -0.000004  -0.000126   0.006302   0.000062
    12  H   -0.007596   0.003274  -0.000219   0.000012  -0.000034  -0.000080
    13  H    0.628575  -0.043128  -0.006668  -0.000118  -0.000008  -0.000018
    14  H   -0.043128   0.631441   0.003498   0.000094   0.003040  -0.000144
    15  H   -0.006668   0.003498   0.649427  -0.007769   0.002566  -0.005982
    16  H   -0.000118   0.000094  -0.007769   0.600628  -0.038132  -0.005811
    17  H   -0.000008   0.003040   0.002566  -0.038132   0.586433   0.002556
    18  H   -0.000018  -0.000144  -0.005982  -0.005811   0.002556   0.654456
    19  H    0.000001   0.000007   0.000004  -0.000024   0.000015   0.001312
              19
     1  O    0.000987
     2  C    0.000076
     3  C    0.007973
     4  C   -0.000298
     5  C   -0.000256
     6  C    0.000025
     7  C   -0.001042
     8  C   -0.078988
     9  O    0.317296
    10  H   -0.000522
    11  H    0.000569
    12  H   -0.000168
    13  H    0.000001
    14  H    0.000007
    15  H    0.000004
    16  H   -0.000024
    17  H    0.000015
    18  H    0.001312
    19  H    0.463822
 Mulliken charges:
               1
     1  O   -0.449507
     2  C    0.057646
     3  C   -0.142636
     4  C   -0.260036
     5  C   -0.025882
     6  C   -0.304340
     7  C   -0.110916
     8  C    0.343979
     9  O   -0.481578
    10  H    0.281455
    11  H    0.094922
    12  H    0.096102
    13  H    0.108714
    14  H    0.105728
    15  H    0.086589
    16  H    0.109653
    17  H    0.116556
    18  H    0.084341
    19  H    0.289210
 Sum of Mulliken charges =   0.00000
 Mulliken charges with hydrogens summed into heavy atoms:
               1
     1  O   -0.168052
     2  C    0.152568
     3  C   -0.046534
     4  C   -0.045593
     5  C    0.060707
     6  C   -0.078131
     7  C   -0.026575
     8  C    0.343979
     9  O   -0.192368
 Electronic spatial extent (au):  <R**2>=           1060.6383
 Charge=              0.0000 electrons
 Dipole moment (field-independent basis, Debye):
    X=             -1.4170    Y=              1.5061    Z=              0.0156  Tot=              2.0680
 Quadrupole moment (field-independent basis, Debye-Ang):
   XX=            -54.2304   YY=            -50.1067   ZZ=            -54.6439
   XY=              3.4895   XZ=             -1.2973   YZ=              2.5891
 Traceless Quadrupole moment (field-independent basis, Debye-Ang):
   XX=             -1.2368   YY=              2.8870   ZZ=             -1.6502
   XY=              3.4895   XZ=             -1.2973   YZ=              2.5891
 Octapole moment (field-independent basis, Debye-Ang**2):
  XXX=             10.9629  YYY=             17.4754  ZZZ=              0.9209  XYY=              7.2657
  XXY=             15.8649  XXZ=             -8.6185  XZZ=             -0.0653  YZZ=             -4.0670
  YYZ=              0.6128  XYZ=              4.0769
 Hexadecapole moment (field-independent basis, Debye-Ang**3):
 XXXX=           -748.6024 YYYY=           -311.7421 ZZZZ=           -232.7765 XXXY=             21.5340
 XXXZ=            -15.8022 YYYX=             21.9939 YYYZ=             -5.3600 ZZZX=              1.7403
 ZZZY=             -2.7377 XXYY=           -178.0094 XXZZ=           -174.3196 YYZZ=            -98.6070
 XXYZ=             11.5916 YYXZ=              2.1404 ZZXY=             -1.5369
 N-N= 4.737076897787D+02 E-N=-1.934314162800D+03  KE= 4.200239355117D+02
 Calling FoFJK, ICntrl=      2127 FMM=F ISym2X=0 I1Cent= 0 IOpClX= 0 NMat=1 NMatS=1 NMatT=0.
 ***** Axes restored to original set *****
 -------------------------------------------------------------------
 Center     Atomic                   Forces (Hartrees/Bohr)
 Number     Number              X              Y              Z
 -------------------------------------------------------------------
      1        8          -0.000079579    0.000027417    0.000033084
      2        6           0.000110358   -0.000064758   -0.000039978
      3        6          -0.000003299   -0.000017983   -0.000047634
      4        6           0.000022652    0.000040234   -0.000004149
      5        6          -0.000005639   -0.000047566   -0.000016058
      6        6          -0.000011259   -0.000018027   -0.000016675
      7        6           0.000016956    0.000051525    0.000003982
      8        6          -0.000034614    0.000024572    0.000052275
      9        8          -0.000011183    0.000001751    0.000005580
     10        1           0.000016307    0.000008050    0.000010644
     11        1          -0.000014587    0.000003450    0.000008749
     12        1           0.000007654    0.000009036   -0.000001752
     13        1          -0.000002891    0.000000020   -0.000012055
     14        1           0.000003521   -0.000000103   -0.000009534
     15        1          -0.000003620    0.000000046    0.000003191
     16        1          -0.000012993   -0.000007212    0.000002457
     17        1          -0.000010043   -0.000004517    0.000011539
     18        1           0.000000740   -0.000004875   -0.000007719
     19        1           0.000011521   -0.000001060    0.000024055
 -------------------------------------------------------------------
 Cartesian Forces:  Max     0.000110358 RMS     0.000027873

 GradGradGradGradGradGradGradGradGradGradGradGradGradGradGradGradGradGrad
 Berny optimization.
 FormGI is forming the generalized inverse of G from B-inverse, IUseBI=4.
 Internal  Forces:  Max     0.000083896 RMS     0.000010630
 Search for a local minimum.
 Step number   1 out of a maximum of  114
 All quantities printed in internal units (Hartrees-Bohrs-Radians)
 Mixed Optimization -- En-DIIS/RFO-DIIS
 Second derivative matrix not updated -- first step.
 ITU=  0
     Eigenvalues ---    0.00675   0.01288   0.01608   0.01628   0.01758
     Eigenvalues ---    0.01794   0.01993   0.02437   0.02832   0.03032
     Eigenvalues ---    0.03083   0.03693   0.04157   0.05257   0.05723
     Eigenvalues ---    0.06391   0.07294   0.07764   0.09058   0.09801
     Eigenvalues ---    0.10417   0.11333   0.11718   0.12923   0.14842
     Eigenvalues ---    0.15847   0.16000   0.16000   0.16966   0.19364
     Eigenvalues ---    0.20106   0.22133   0.24361   0.24778   0.27923
     Eigenvalues ---    0.28609   0.30144   0.30575   0.31124   0.34079
     Eigenvalues ---    0.34253   0.35323   0.35325   0.35383   0.35463
     Eigenvalues ---    0.35464   0.35473   0.44830   0.46461   0.53883
     Eigenvalues ---    0.54382
 RFO step:  Lambda=-7.56922138D-08 EMin= 6.74590341D-03
 Linear search not attempted -- first point.
 Iteration  1 RMS(Cart)=  0.00015913 RMS(Int)=  0.00000002
 Iteration  2 RMS(Cart)=  0.00000002 RMS(Int)=  0.00000001
 Variable       Old X    -DE/DX   Delta X   Delta X   Delta X     New X
                                 (Linear)    (Quad)   (Total)
    R1        2.63615  -0.00008   0.00000  -0.00018  -0.00018   2.63597
    R2        1.82838   0.00001   0.00000   0.00001   0.00001   1.82840
    R3        2.87308   0.00001   0.00000   0.00004   0.00004   2.87312
    R4        2.85686   0.00003   0.00000   0.00010   0.00010   2.85696
    R5        2.05151   0.00001   0.00000   0.00003   0.00003   2.05153
    R6        2.89729   0.00000   0.00000  -0.00002  -0.00002   2.89726
    R7        2.86109   0.00002   0.00000   0.00004   0.00004   2.86114
    R8        2.05153   0.00000   0.00000   0.00000   0.00000   2.05153
    R9        2.90001  -0.00001   0.00000  -0.00004  -0.00004   2.89997
   R10        2.06906   0.00001   0.00000   0.00002   0.00002   2.06908
   R11        2.07197   0.00000   0.00000   0.00000   0.00000   2.07198
   R12        2.84896   0.00000   0.00000   0.00000   0.00000   2.84896
   R13        2.86545   0.00000   0.00000   0.00004   0.00004   2.86549
   R14        2.04928   0.00000   0.00000   0.00001   0.00001   2.04929
   R15        2.85309   0.00001   0.00000   0.00003   0.00003   2.85312
   R16        2.05058   0.00000   0.00000   0.00001   0.00001   2.05059
   R17        2.04930   0.00000   0.00000   0.00000   0.00000   2.04931
   R18        2.86737  -0.00001   0.00000  -0.00003  -0.00003   2.86734
   R19        2.04914   0.00000   0.00000  -0.00001  -0.00001   2.04913
   R20        2.65474  -0.00001   0.00000  -0.00002  -0.00002   2.65472
   R21        1.82386   0.00001   0.00000   0.00002   0.00002   1.82388
    A1        1.84832   0.00001   0.00000   0.00005   0.00005   1.84837
    A2        2.05879   0.00000   0.00000  -0.00004  -0.00004   2.05875
    A3        2.03687   0.00002   0.00000   0.00010   0.00010   2.03697
    A4        1.94208   0.00000   0.00000   0.00005   0.00005   1.94213
    A5        2.10653   0.00000   0.00000  -0.00007  -0.00007   2.10646
    A6        2.12444  -0.00002   0.00000  -0.00008  -0.00008   2.12437
    A7        2.11698  -0.00001   0.00000  -0.00011  -0.00011   2.11687
    A8        2.00216   0.00000   0.00000   0.00006   0.00006   2.00222
    A9        1.88742  -0.00002   0.00000  -0.00007  -0.00007   1.88735
   A10        2.07606   0.00001   0.00000   0.00004   0.00004   2.07610
   A11        2.09274   0.00001   0.00000   0.00002   0.00002   2.09277
   A12        1.86708   0.00001   0.00000   0.00007   0.00007   1.86715
   A13        1.90225   0.00000   0.00000   0.00008   0.00008   1.90233
   A14        1.96384  -0.00001   0.00000  -0.00008  -0.00008   1.96376
   A15        1.90744   0.00000   0.00000   0.00005   0.00005   1.90749
   A16        1.95926  -0.00001   0.00000  -0.00008  -0.00008   1.95918
   A17        1.86329   0.00000   0.00000  -0.00003  -0.00003   1.86326
   A18        2.08405   0.00001   0.00000   0.00017   0.00017   2.08422
   A19        1.89206   0.00000   0.00000  -0.00002  -0.00002   1.89204
   A20        2.05179   0.00000   0.00000  -0.00002  -0.00002   2.05177
   A21        2.05117  -0.00001   0.00000  -0.00011  -0.00011   2.05106
   A22        2.10950   0.00000   0.00000  -0.00001  -0.00001   2.10948
   A23        2.04212   0.00000   0.00000  -0.00003  -0.00003   2.04210
   A24        2.08891   0.00000   0.00000   0.00009   0.00009   2.08900
   A25        2.04173   0.00000   0.00000  -0.00002  -0.00002   2.04171
   A26        2.08821   0.00001   0.00000   0.00006   0.00006   2.08826
   A27        1.97936  -0.00001   0.00000  -0.00007  -0.00007   1.97929
   A28        1.88332  -0.00001   0.00000  -0.00003  -0.00003   1.88329
   A29        2.13036   0.00001   0.00000   0.00002   0.00002   2.13038
   A30        2.08599  -0.00001   0.00000  -0.00010  -0.00010   2.08589
   A31        2.08350   0.00001   0.00000   0.00013   0.00013   2.08363
   A32        2.02188   0.00000   0.00000  -0.00002  -0.00002   2.02186
   A33        2.12196   0.00001   0.00000   0.00013   0.00013   2.12209
   A34        2.02551   0.00000   0.00000  -0.00004  -0.00004   2.02547
   A35        1.89487   0.00002   0.00000   0.00005   0.00005   1.89492
   A36        2.07526  -0.00001   0.00000  -0.00004  -0.00004   2.07522
   A37        2.05604  -0.00001   0.00000  -0.00006  -0.00006   2.05597
   A38        1.87836   0.00000   0.00000  -0.00002  -0.00002   1.87835
    D1        1.10082   0.00001   0.00000   0.00030   0.00030   1.10112
    D2       -0.09272   0.00000   0.00000   0.00028   0.00028  -0.09243
    D3       -2.63808   0.00000   0.00000   0.00020   0.00020  -2.63788
    D4        2.78985   0.00000   0.00000  -0.00011  -0.00011   2.78974
    D5        0.09153   0.00000   0.00000  -0.00012  -0.00012   0.09141
    D6        0.30368   0.00000   0.00000  -0.00005  -0.00005   0.30363
    D7       -2.39464   0.00000   0.00000  -0.00006  -0.00006  -2.39471
    D8       -2.74100   0.00000   0.00000  -0.00010  -0.00010  -2.74110
    D9       -0.02706   0.00000   0.00000  -0.00006  -0.00006  -0.02712
   D10       -0.26201   0.00001   0.00000   0.00005   0.00005  -0.26196
   D11        2.45194   0.00001   0.00000   0.00009   0.00009   2.45202
   D12        1.14310   0.00000   0.00000   0.00000   0.00000   1.14310
   D13       -3.07965   0.00000   0.00000   0.00014   0.00014  -3.07951
   D14       -1.01639   0.00000   0.00000   0.00010   0.00010  -1.01629
   D15        0.00681   0.00000   0.00000   0.00001   0.00001   0.00683
   D16        2.06725   0.00000   0.00000   0.00016   0.00016   2.06740
   D17       -2.15268   0.00000   0.00000   0.00012   0.00012  -2.15256
   D18       -2.45994   0.00000   0.00000   0.00001   0.00001  -2.45993
   D19       -0.39950   0.00000   0.00000   0.00015   0.00015  -0.39935
   D20        1.66375   0.00000   0.00000   0.00012   0.00012   1.66387
   D21       -0.00303  -0.00001   0.00000  -0.00021  -0.00021  -0.00324
   D22       -2.41813   0.00000   0.00000  -0.00013  -0.00013  -2.41826
   D23        2.45613  -0.00001   0.00000  -0.00020  -0.00020   2.45593
   D24        0.04103   0.00000   0.00000  -0.00012  -0.00012   0.04091
   D25       -1.14644   0.00000   0.00000   0.00017   0.00017  -1.14627
   D26       -0.00808   0.00001   0.00000   0.00018   0.00018  -0.00789
   D27        2.46309   0.00000   0.00000   0.00012   0.00012   2.46321
   D28        3.07971  -0.00001   0.00000   0.00000   0.00000   3.07972
   D29       -2.06511   0.00000   0.00000   0.00002   0.00002  -2.06509
   D30        0.40605  -0.00001   0.00000  -0.00005  -0.00005   0.40601
   D31        1.01587   0.00000   0.00000   0.00006   0.00006   1.01594
   D32        2.15423   0.00000   0.00000   0.00008   0.00008   2.15431
   D33       -1.65778   0.00000   0.00000   0.00001   0.00001  -1.65777
   D34       -2.74893   0.00000   0.00000  -0.00012  -0.00012  -2.74905
   D35       -0.24448  -0.00001   0.00000  -0.00015  -0.00015  -0.24462
   D36       -0.07511   0.00000   0.00000  -0.00004  -0.00004  -0.07515
   D37        2.42934   0.00000   0.00000  -0.00007  -0.00007   2.42927
   D38        0.00629  -0.00001   0.00000  -0.00031  -0.00031   0.00597
   D39        2.41456  -0.00001   0.00000  -0.00036  -0.00036   2.41420
   D40       -2.43859  -0.00001   0.00000  -0.00024  -0.00024  -2.43883
   D41       -0.03032  -0.00001   0.00000  -0.00029  -0.00029  -0.03061
   D42        2.76168   0.00000   0.00000   0.00001   0.00001   2.76169
   D43        0.08558   0.00000   0.00000  -0.00001  -0.00001   0.08557
   D44        0.25902   0.00001   0.00000   0.00008   0.00008   0.25910
   D45       -2.41708   0.00001   0.00000   0.00006   0.00006  -2.41702
   D46       -1.15416   0.00001   0.00000   0.00030   0.00030  -1.15386
   D47       -0.00201   0.00001   0.00000   0.00032   0.00032  -0.00169
   D48        2.42222   0.00001   0.00000   0.00026   0.00026   2.42247
   D49       -0.02260   0.00000   0.00000   0.00026   0.00026  -0.02233
   D50        1.12955   0.00000   0.00000   0.00028   0.00028   1.12983
   D51       -2.72940   0.00000   0.00000   0.00022   0.00022  -2.72919
   D52        2.66938   0.00000   0.00000   0.00032   0.00032   2.66970
   D53       -2.46166   0.00001   0.00000   0.00035   0.00035  -2.46132
   D54       -0.03743   0.00000   0.00000   0.00028   0.00028  -0.03715
   D55       -1.55722   0.00000   0.00000   0.00014   0.00014  -1.55708
   D56       -2.76024   0.00001   0.00000   0.00019   0.00019  -2.76006
   D57        1.17348   0.00000   0.00000   0.00023   0.00023   1.17370
         Item               Value     Threshold  Converged?
 Maximum Force            0.000084     0.000450     YES
 RMS     Force            0.000011     0.000300     YES
 Maximum Displacement     0.000553     0.001800     YES
 RMS     Displacement     0.000159     0.001200     YES
 Predicted change in Energy=-3.784691D-08
 Optimization completed.
    -- Stationary point found.
                           ----------------------------
                           !   Optimized Parameters   !
                           ! (Angstroms and Degrees)  !
 --------------------------                            --------------------------
 ! Name  Definition              Value          Derivative Info.                !
 --------------------------------------------------------------------------------
 ! R1    R(1,2)                  1.395          -DE/DX =   -0.0001              !
 ! R2    R(1,10)                 0.9675         -DE/DX =    0.0                 !
 ! R3    R(2,3)                  1.5204         -DE/DX =    0.0                 !
 ! R4    R(2,8)                  1.5118         -DE/DX =    0.0                 !
 ! R5    R(2,11)                 1.0856         -DE/DX =    0.0                 !
 ! R6    R(3,4)                  1.5332         -DE/DX =    0.0                 !
 ! R7    R(3,8)                  1.514          -DE/DX =    0.0                 !
 ! R8    R(3,12)                 1.0856         -DE/DX =    0.0                 !
 ! R9    R(4,5)                  1.5346         -DE/DX =    0.0                 !
 ! R10   R(4,13)                 1.0949         -DE/DX =    0.0                 !
 ! R11   R(4,14)                 1.0964         -DE/DX =    0.0                 !
 ! R12   R(5,6)                  1.5076         -DE/DX =    0.0                 !
 ! R13   R(5,7)                  1.5163         -DE/DX =    0.0                 !
 ! R14   R(5,15)                 1.0844         -DE/DX =    0.0                 !
 ! R15   R(6,7)                  1.5098         -DE/DX =    0.0                 !
 ! R16   R(6,16)                 1.0851         -DE/DX =    0.0                 !
 ! R17   R(6,17)                 1.0844         -DE/DX =    0.0                 !
 ! R18   R(7,8)                  1.5173         -DE/DX =    0.0                 !
 ! R19   R(7,18)                 1.0844         -DE/DX =    0.0                 !
 ! R20   R(8,9)                  1.4048         -DE/DX =    0.0                 !
 ! R21   R(9,19)                 0.9651         -DE/DX =    0.0                 !
 ! A1    A(2,1,10)             105.9009         -DE/DX =    0.0                 !
 ! A2    A(1,2,3)              117.9598         -DE/DX =    0.0                 !
 ! A3    A(1,2,8)              116.7042         -DE/DX =    0.0                 !
 ! A4    A(1,2,11)             111.2728         -DE/DX =    0.0                 !
 ! A5    A(3,2,11)             120.6954         -DE/DX =    0.0                 !
 ! A6    A(8,2,11)             121.7216         -DE/DX =    0.0                 !
 ! A7    A(2,3,4)              121.294          -DE/DX =    0.0                 !
 ! A8    A(2,3,12)             114.7154         -DE/DX =    0.0                 !
 ! A9    A(4,3,8)              108.1412         -DE/DX =    0.0                 !
 ! A10   A(4,3,12)             118.9494         -DE/DX =    0.0                 !
 ! A11   A(8,3,12)             119.9054         -DE/DX =    0.0                 !
 ! A12   A(3,4,5)              106.9757         -DE/DX =    0.0                 !
 ! A13   A(3,4,13)             108.9906         -DE/DX =    0.0                 !
 ! A14   A(3,4,14)             112.5195         -DE/DX =    0.0                 !
 ! A15   A(5,4,13)             109.2883         -DE/DX =    0.0                 !
 ! A16   A(5,4,14)             112.2573         -DE/DX =    0.0                 !
 ! A17   A(13,4,14)            106.7587         -DE/DX =    0.0                 !
 ! A18   A(4,5,6)              119.4071         -DE/DX =    0.0                 !
 ! A19   A(4,5,7)              108.4068         -DE/DX =    0.0                 !
 ! A20   A(4,5,15)             117.5592         -DE/DX =    0.0                 !
 ! A21   A(6,5,15)             117.5234         -DE/DX =    0.0                 !
 ! A22   A(7,5,15)             120.8652         -DE/DX =    0.0                 !
 ! A23   A(5,6,16)             117.0051         -DE/DX =    0.0                 !
 ! A24   A(5,6,17)             119.6856         -DE/DX =    0.0                 !
 ! A25   A(7,6,16)             116.9823         -DE/DX =    0.0                 !
 ! A26   A(7,6,17)             119.6455         -DE/DX =    0.0                 !
 ! A27   A(16,6,17)            113.4091         -DE/DX =    0.0                 !
 ! A28   A(5,7,8)              107.9061         -DE/DX =    0.0                 !
 ! A29   A(5,7,18)             122.0607         -DE/DX =    0.0                 !
 ! A30   A(6,7,8)              119.5181         -DE/DX =    0.0                 !
 ! A31   A(6,7,18)             119.3756         -DE/DX =    0.0                 !
 ! A32   A(8,7,18)             115.8453         -DE/DX =    0.0                 !
 ! A33   A(2,8,7)              121.5793         -DE/DX =    0.0                 !
 ! A34   A(2,8,9)              116.0532         -DE/DX =    0.0                 !
 ! A35   A(3,8,7)              108.5682         -DE/DX =    0.0                 !
 ! A36   A(3,8,9)              118.9034         -DE/DX =    0.0                 !
 ! A37   A(7,8,9)              117.8023         -DE/DX =    0.0                 !
 ! A38   A(8,9,19)             107.6223         -DE/DX =    0.0                 !
 ! D1    D(10,1,2,3)            63.0726         -DE/DX =    0.0                 !
 ! D2    D(10,1,2,8)            -5.3122         -DE/DX =    0.0                 !
 ! D3    D(10,1,2,11)         -151.1507         -DE/DX =    0.0                 !
 ! D4    D(1,2,3,4)            159.8467         -DE/DX =    0.0                 !
 ! D5    D(1,2,3,12)             5.2443         -DE/DX =    0.0                 !
 ! D6    D(11,2,3,4)            17.3994         -DE/DX =    0.0                 !
 ! D7    D(11,2,3,12)         -137.203          -DE/DX =    0.0                 !
 ! D8    D(1,2,8,7)           -157.0479         -DE/DX =    0.0                 !
 ! D9    D(1,2,8,9)             -1.5505         -DE/DX =    0.0                 !
 ! D10   D(11,2,8,7)           -15.0118         -DE/DX =    0.0                 !
 ! D11   D(11,2,8,9)           140.4856         -DE/DX =    0.0                 !
 ! D12   D(2,3,4,5)             65.4949         -DE/DX =    0.0                 !
 ! D13   D(2,3,4,13)          -176.4509         -DE/DX =    0.0                 !
 ! D14   D(2,3,4,14)           -58.235          -DE/DX =    0.0                 !
 ! D15   D(8,3,4,5)              0.3904         -DE/DX =    0.0                 !
 ! D16   D(8,3,4,13)           118.4445         -DE/DX =    0.0                 !
 ! D17   D(8,3,4,14)          -123.3396         -DE/DX =    0.0                 !
 ! D18   D(12,3,4,5)          -140.944          -DE/DX =    0.0                 !
 ! D19   D(12,3,4,13)          -22.8899         -DE/DX =    0.0                 !
 ! D20   D(12,3,4,14)           95.3261         -DE/DX =    0.0                 !
 ! D21   D(4,3,8,7)             -0.1737         -DE/DX =    0.0                 !
 ! D22   D(4,3,8,9)           -138.5488         -DE/DX =    0.0                 !
 ! D23   D(12,3,8,7)           140.7257         -DE/DX =    0.0                 !
 ! D24   D(12,3,8,9)             2.3507         -DE/DX =    0.0                 !
 ! D25   D(3,4,5,6)            -65.6859         -DE/DX =    0.0                 !
 ! D26   D(3,4,5,7)             -0.4628         -DE/DX =    0.0                 !
 ! D27   D(3,4,5,15)           141.1247         -DE/DX =    0.0                 !
 ! D28   D(13,4,5,6)           176.4546         -DE/DX =    0.0                 !
 ! D29   D(13,4,5,7)          -118.3223         -DE/DX =    0.0                 !
 ! D30   D(13,4,5,15)           23.2652         -DE/DX =    0.0                 !
 ! D31   D(14,4,5,6)            58.2052         -DE/DX =    0.0                 !
 ! D32   D(14,4,5,7)           123.4284         -DE/DX =    0.0                 !
 ! D33   D(14,4,5,15)          -94.9841         -DE/DX =    0.0                 !
 ! D34   D(4,5,6,16)          -157.5021         -DE/DX =    0.0                 !
 ! D35   D(4,5,6,17)           -14.0076         -DE/DX =    0.0                 !
 ! D36   D(15,5,6,16)           -4.3033         -DE/DX =    0.0                 !
 ! D37   D(15,5,6,17)          139.1912         -DE/DX =    0.0                 !
 ! D38   D(4,5,7,8)              0.3601         -DE/DX =    0.0                 !
 ! D39   D(4,5,7,18)           138.344          -DE/DX =    0.0                 !
 ! D40   D(15,5,7,8)          -139.7212         -DE/DX =    0.0                 !
 ! D41   D(15,5,7,18)           -1.7374         -DE/DX =    0.0                 !
 ! D42   D(16,6,7,8)           158.2324         -DE/DX =    0.0                 !
 ! D43   D(16,6,7,18)            4.9033         -DE/DX =    0.0                 !
 ! D44   D(17,6,7,8)            14.8405         -DE/DX =    0.0                 !
 ! D45   D(17,6,7,18)         -138.4886         -DE/DX =    0.0                 !
 ! D46   D(5,7,8,2)            -66.1285         -DE/DX =    0.0                 !
 ! D47   D(5,7,8,3)             -0.1153         -DE/DX =    0.0                 !
 ! D48   D(5,7,8,9)            138.7829         -DE/DX =    0.0                 !
 ! D49   D(6,7,8,2)             -1.2946         -DE/DX =    0.0                 !
 ! D50   D(6,7,8,3)             64.7185         -DE/DX =    0.0                 !
 ! D51   D(6,7,8,9)           -156.3832         -DE/DX =    0.0                 !
 ! D52   D(18,7,8,2)           152.9439         -DE/DX =    0.0                 !
 ! D53   D(18,7,8,3)          -141.0429         -DE/DX =    0.0                 !
 ! D54   D(18,7,8,9)            -2.1447         -DE/DX =    0.0                 !
 ! D55   D(2,8,9,19)           -89.2222         -DE/DX =    0.0                 !
 ! D56   D(3,8,9,19)          -158.1502         -DE/DX =    0.0                 !
 ! D57   D(7,8,9,19)            67.2353         -DE/DX =    0.0                 !
 --------------------------------------------------------------------------------
 GradGradGradGradGradGradGradGradGradGradGradGradGradGradGradGradGradGrad

                          Input orientation:                          
 ---------------------------------------------------------------------
 Center     Atomic      Atomic             Coordinates (Angstroms)
 Number     Number       Type             X           Y           Z
 ---------------------------------------------------------------------
      1          8           0        0.484321    0.505853    0.551999
      2          6           0       -0.647029    1.052816    1.157699
      3          6           0       -1.710759    1.664599    0.260081
      4          6           0       -3.148045    1.868383    0.753350
      5          6           0       -3.091549    2.907294    1.881412
      6          6           0       -2.377896    2.567881    3.165298
      7          6           0       -1.646129    3.320303    2.080013
      8          6           0       -0.800497    2.554752    1.079425
      9          8           0        0.235056    3.247810    0.430703
     10          1           0        0.928455    1.241261    0.106970
     11          1           0       -0.925634    0.496152    2.047112
     12          1           0       -1.532807    1.541206   -0.803728
     13          1           0       -3.754871    2.260452   -0.069358
     14          1           0       -3.618533    0.931599    1.074693
     15          1           0       -3.890867    3.638507    1.930571
     16          1           0       -2.660337    3.129980    4.049469
     17          1           0       -2.112643    1.537739    3.376167
     18          1           0       -1.360428    4.352700    2.248435
     19          1           0        0.899889    3.468229    1.094715
 ---------------------------------------------------------------------
                    Distance matrix (angstroms):
                    1          2          3          4          5
     1  O    0.000000
     2  C    1.394989   0.000000
     3  C    2.499257   1.520368   0.000000
     4  C    3.884728   2.661527   1.533177   0.000000
     5  C    4.507894   3.152543   2.465682   1.534618   0.000000
     6  C    4.390168   3.053158   3.114688   2.626770   1.507603
     7  C    3.846397   2.643929   2.461236   2.474643   1.516330
     8  C    2.475262   1.511784   1.514025   2.467470   2.452833
     9  O    2.755933   2.474792   2.514332   3.667737   3.645108
    10  H    0.967538   1.903075   2.677332   4.174798   4.699441
    11  H    2.055099   1.085611   2.274900   2.914781   3.245343
    12  H    2.641734   2.206881   1.085625   2.267273   3.392027
    13  H    4.629843   3.552848   2.154522   1.094899   2.159607
    14  H    4.157869   2.975133   2.200110   1.096442   2.198153
    15  H    5.554840   4.219670   3.382266   2.251883   1.084434
    16  H    5.385834   4.090275   4.172350   3.562848   2.221712
    17  H    3.973026   2.702734   3.144455   2.839112   2.251274
    18  H    4.591212   3.547940   3.361871   3.406272   2.284882
    19  H    3.040214   2.868997   3.281033   4.365983   4.106717
                    6          7          8          9         10
     6  C    0.000000
     7  C    1.509790   0.000000
     8  C    2.615192   1.517346   0.000000
     9  O    3.842894   2.502866   1.404828   0.000000
    10  H    4.695237   3.852765   2.379118   2.147520   0.000000
    11  H    2.766128   2.914794   2.278137   3.395821   2.785136
    12  H    4.185858   3.390278   2.260491   2.749847   2.641430
    13  H    3.528962   3.192157   3.183494   4.140586   4.796184
    14  H    2.930397   3.256831   3.252072   4.541993   4.659128
    15  H    2.227077   2.272099   3.383691   4.407436   5.683148
    16  H    1.085120   2.223421   3.551205   4.636018   5.655969
    17  H    1.084444   2.252818   2.833914   4.136641   4.474799
    18  H    2.249768   1.084359   2.216467   2.659043   4.416550
    19  H    3.980177   2.734027   1.930282   0.965143   2.436358
                   11         12         13         14         15
    11  H    0.000000
    12  H    3.096463   0.000000
    13  H    3.949276   2.448301   0.000000
    14  H    2.896017   2.872340   1.758776   0.000000
    15  H    4.322104   4.175585   2.432539   2.852024   0.000000
    16  H    3.735729   5.229632   4.349577   3.821035   2.502505
    17  H    2.064044   4.219922   3.884697   2.816362   3.108868
    18  H    3.886198   4.153302   3.934847   4.263876   2.648439
    19  H    3.615637   3.638065   4.947785   5.181798   4.866107
                   16         17         18         19
    16  H    0.000000
    17  H    1.813432   0.000000
    18  H    2.535455   3.124358   0.000000
    19  H    4.638986   4.243485   2.687451   0.000000
 Stoichiometry    C7H10O2
 Framework group  C1[X(C7H10O2)]
 Deg. of freedom    51
 Full point group                 C1      NOp   1
 Largest Abelian subgroup         C1      NOp   1
 Largest concise Abelian subgroup C1      NOp   1
                         Standard orientation:                         
 ---------------------------------------------------------------------
 Center     Atomic      Atomic             Coordinates (Angstroms)
 Number     Number       Type             X           Y           Z
 ---------------------------------------------------------------------
      1          8           0        2.415882   -0.603817    0.715466
      2          6           0        1.022732   -0.550465    0.667701
      3          6           0        0.339621   -0.920078   -0.639305
      4          6           0       -1.136525   -1.332590   -0.677519
      5          6           0       -1.956141   -0.103400   -0.262340
      6          6           0       -1.829194    0.431248    1.141549
      7          6           0       -0.997491    1.033288    0.034624
      8          6           0        0.413484    0.527008   -0.200261
      9          8           0        1.319363    1.386459   -0.843898
     10          1           0        2.728343    0.053446    0.077890
     11          1           0        0.584917   -0.831309    1.620589
     12          1           0        1.007615   -1.285720   -1.413043
     13          1           0       -1.401241   -1.614668   -1.701805
     14          1           0       -1.345553   -2.203896   -0.045604
     15          1           0       -2.888849    0.077645   -0.785099
     16          1           0       -2.653716    1.027833    1.518027
     17          1           0       -1.350301   -0.172192    1.904792
     18          1           0       -1.194105    2.050540   -0.285341
     19          1           0        1.492019    2.127105   -0.249648
 ---------------------------------------------------------------------
 Rotational constants (GHZ):      2.8623591      1.4415130      1.2812489
 1\1\GINC-ALCHEMY-MG\FOpt\RB3LYP\6-31G(2df,p)\C7H10O2\PUCK\27-Jan-2020\
 0\\# b3lyp 6-31G(2df,p) opt Freq\\titel\\0,1\O,0.4843208517,0.50585349
 29,0.551999238\C,-0.6470294265,1.0528160096,1.1576991746\C,-1.71075908
 96,1.6645993259,0.2600805626\C,-3.1480447755,1.8683830704,0.7533497577
 \C,-3.0915494874,2.9072942678,1.8814118635\C,-2.3778957889,2.567881294
 7,3.1652981852\C,-1.6461292912,3.3203031043,2.0800126611\C,-0.80049725
 89,2.5547519317,1.0794247051\O,0.2350563399,3.2478095814,0.4307026263\
 H,0.9284550514,1.2412612963,0.1069703105\H,-0.9256343799,0.496152459,2
 .047112054\H,-1.5328074295,1.5412061532,-0.8037280505\H,-3.7548706795,
 2.2604524652,-0.0693580151\H,-3.6185328989,0.9315994588,1.0746933154\H
 ,-3.890867166,3.6385073372,1.9305710024\H,-2.6603373795,3.1299798159,4
 .0494689454\H,-2.112642711,1.5377388058,3.3761672327\H,-1.3604283095,4
 .3527002985,2.2484354694\H,0.8998891188,3.4682285913,1.0947153818\\Ver
 sion=ES64L-G09RevD.01\State=1-A\HF=-423.1524693\RMSD=8.264e-09\RMSF=2.
 787e-05\Dipole=-0.1526644,0.6558812,0.4565879\Quadrupole=2.1695805,-2.
 3951563,0.2255758,2.8421403,1.0165444,0.697783\PG=C01 [X(C7H10O2)]\\@


 TWO ROADS DIVERGED IN A WOOD, AND I--
 I TOOK THE ONE LESS TRAVELED BY,
 AND THAT HAS MADE ALL THE DIFFERENCE.

                       -- ROBERT FROST
 Job cpu time:       0 days  0 hours  6 minutes 21.5 seconds.
 File lengths (MBytes):  RWF=     52 Int=      0 D2E=      0 Chk=      7 Scr=      1
 Normal termination of Gaussian 09 at Mon Jan 27 23:51:05 2020.
 Link1:  Proceeding to internal job step number  2.
 ----------------------------------------------------------------------
 #N Geom=AllCheck Guess=TCheck SCRF=Check GenChk RB3LYP/6-31G(2df,p) Fr
 eq
 ----------------------------------------------------------------------
 1/10=4,29=7,30=1,38=1,40=1/1,3;
 2/12=2,40=1/2;
 3/5=1,6=6,7=104,11=2,14=-4,16=1,25=1,30=1,70=2,71=2,74=-5,116=1,140=1/1,2,3;
 4/5=101/1;
 5/5=2,98=1/2;
 8/6=4,10=90,11=11/1;
 11/6=1,8=1,9=11,15=111,16=1/1,2,10;
 10/6=1/2;
 6/7=2,8=2,9=2,10=2,18=1,28=1/1;
 7/8=1,10=1,25=1/1,2,3,16;
 1/10=4,30=1/3;
 99//99;
 Structure from the checkpoint file:  "/scratch/puck/g09_7ef0de1b-01a6-4eb6-8d67-7a191b1ab8ab/Gau-68197.chk"
 -----
 titel
 -----
 Charge =  0 Multiplicity = 1
 Redundant internal coordinates found in file.
 O,0,0.4843208517,0.5058534929,0.551999238
 C,0,-0.6470294265,1.0528160096,1.1576991746
 C,0,-1.7107590896,1.6645993259,0.2600805626
 C,0,-3.1480447755,1.8683830704,0.7533497577
 C,0,-3.0915494874,2.9072942678,1.8814118635
 C,0,-2.3778957889,2.5678812947,3.1652981852
 C,0,-1.6461292912,3.3203031043,2.0800126611
 C,0,-0.8004972589,2.5547519317,1.0794247051
 O,0,0.2350563399,3.2478095814,0.4307026263
 H,0,0.9284550514,1.2412612963,0.1069703105
 H,0,-0.9256343799,0.496152459,2.047112054
 H,0,-1.5328074295,1.5412061532,-0.8037280505
 H,0,-3.7548706795,2.2604524652,-0.0693580151
 H,0,-3.6185328989,0.9315994588,1.0746933154
 H,0,-3.890867166,3.6385073372,1.9305710024
 H,0,-2.6603373795,3.1299798159,4.0494689454
 H,0,-2.112642711,1.5377388058,3.3761672327
 H,0,-1.3604283095,4.3527002985,2.2484354694
 H,0,0.8998891188,3.4682285913,1.0947153818
 Recover connectivity data from disk.

 GradGradGradGradGradGradGradGradGradGradGradGradGradGradGradGradGradGrad
 Berny optimization.
 Initialization pass.
                           ----------------------------
                           !    Initial Parameters    !
                           ! (Angstroms and Degrees)  !
 --------------------------                            --------------------------
 ! Name  Definition              Value          Derivative Info.                !
 --------------------------------------------------------------------------------
 ! R1    R(1,2)                  1.395          calculate D2E/DX2 analytically  !
 ! R2    R(1,10)                 0.9675         calculate D2E/DX2 analytically  !
 ! R3    R(2,3)                  1.5204         calculate D2E/DX2 analytically  !
 ! R4    R(2,8)                  1.5118         calculate D2E/DX2 analytically  !
 ! R5    R(2,11)                 1.0856         calculate D2E/DX2 analytically  !
 ! R6    R(3,4)                  1.5332         calculate D2E/DX2 analytically  !
 ! R7    R(3,8)                  1.514          calculate D2E/DX2 analytically  !
 ! R8    R(3,12)                 1.0856         calculate D2E/DX2 analytically  !
 ! R9    R(4,5)                  1.5346         calculate D2E/DX2 analytically  !
 ! R10   R(4,13)                 1.0949         calculate D2E/DX2 analytically  !
 ! R11   R(4,14)                 1.0964         calculate D2E/DX2 analytically  !
 ! R12   R(5,6)                  1.5076         calculate D2E/DX2 analytically  !
 ! R13   R(5,7)                  1.5163         calculate D2E/DX2 analytically  !
 ! R14   R(5,15)                 1.0844         calculate D2E/DX2 analytically  !
 ! R15   R(6,7)                  1.5098         calculate D2E/DX2 analytically  !
 ! R16   R(6,16)                 1.0851         calculate D2E/DX2 analytically  !
 ! R17   R(6,17)                 1.0844         calculate D2E/DX2 analytically  !
 ! R18   R(7,8)                  1.5173         calculate D2E/DX2 analytically  !
 ! R19   R(7,18)                 1.0844         calculate D2E/DX2 analytically  !
 ! R20   R(8,9)                  1.4048         calculate D2E/DX2 analytically  !
 ! R21   R(9,19)                 0.9651         calculate D2E/DX2 analytically  !
 ! A1    A(2,1,10)             105.9009         calculate D2E/DX2 analytically  !
 ! A2    A(1,2,3)              117.9598         calculate D2E/DX2 analytically  !
 ! A3    A(1,2,8)              116.7042         calculate D2E/DX2 analytically  !
 ! A4    A(1,2,11)             111.2728         calculate D2E/DX2 analytically  !
 ! A5    A(3,2,11)             120.6954         calculate D2E/DX2 analytically  !
 ! A6    A(8,2,11)             121.7216         calculate D2E/DX2 analytically  !
 ! A7    A(2,3,4)              121.294          calculate D2E/DX2 analytically  !
 ! A8    A(2,3,12)             114.7154         calculate D2E/DX2 analytically  !
 ! A9    A(4,3,8)              108.1412         calculate D2E/DX2 analytically  !
 ! A10   A(4,3,12)             118.9494         calculate D2E/DX2 analytically  !
 ! A11   A(8,3,12)             119.9054         calculate D2E/DX2 analytically  !
 ! A12   A(3,4,5)              106.9757         calculate D2E/DX2 analytically  !
 ! A13   A(3,4,13)             108.9906         calculate D2E/DX2 analytically  !
 ! A14   A(3,4,14)             112.5195         calculate D2E/DX2 analytically  !
 ! A15   A(5,4,13)             109.2883         calculate D2E/DX2 analytically  !
 ! A16   A(5,4,14)             112.2573         calculate D2E/DX2 analytically  !
 ! A17   A(13,4,14)            106.7587         calculate D2E/DX2 analytically  !
 ! A18   A(4,5,6)              119.4071         calculate D2E/DX2 analytically  !
 ! A19   A(4,5,7)              108.4068         calculate D2E/DX2 analytically  !
 ! A20   A(4,5,15)             117.5592         calculate D2E/DX2 analytically  !
 ! A21   A(6,5,15)             117.5234         calculate D2E/DX2 analytically  !
 ! A22   A(7,5,15)             120.8652         calculate D2E/DX2 analytically  !
 ! A23   A(5,6,16)             117.0051         calculate D2E/DX2 analytically  !
 ! A24   A(5,6,17)             119.6856         calculate D2E/DX2 analytically  !
 ! A25   A(7,6,16)             116.9823         calculate D2E/DX2 analytically  !
 ! A26   A(7,6,17)             119.6455         calculate D2E/DX2 analytically  !
 ! A27   A(16,6,17)            113.4091         calculate D2E/DX2 analytically  !
 ! A28   A(5,7,8)              107.9061         calculate D2E/DX2 analytically  !
 ! A29   A(5,7,18)             122.0607         calculate D2E/DX2 analytically  !
 ! A30   A(6,7,8)              119.5181         calculate D2E/DX2 analytically  !
 ! A31   A(6,7,18)             119.3756         calculate D2E/DX2 analytically  !
 ! A32   A(8,7,18)             115.8453         calculate D2E/DX2 analytically  !
 ! A33   A(2,8,7)              121.5793         calculate D2E/DX2 analytically  !
 ! A34   A(2,8,9)              116.0532         calculate D2E/DX2 analytically  !
 ! A35   A(3,8,7)              108.5682         calculate D2E/DX2 analytically  !
 ! A36   A(3,8,9)              118.9034         calculate D2E/DX2 analytically  !
 ! A37   A(7,8,9)              117.8023         calculate D2E/DX2 analytically  !
 ! A38   A(8,9,19)             107.6223         calculate D2E/DX2 analytically  !
 ! D1    D(10,1,2,3)            63.0726         calculate D2E/DX2 analytically  !
 ! D2    D(10,1,2,8)            -5.3122         calculate D2E/DX2 analytically  !
 ! D3    D(10,1,2,11)         -151.1507         calculate D2E/DX2 analytically  !
 ! D4    D(1,2,3,4)            159.8467         calculate D2E/DX2 analytically  !
 ! D5    D(1,2,3,12)             5.2443         calculate D2E/DX2 analytically  !
 ! D6    D(11,2,3,4)            17.3994         calculate D2E/DX2 analytically  !
 ! D7    D(11,2,3,12)         -137.203          calculate D2E/DX2 analytically  !
 ! D8    D(1,2,8,7)           -157.0479         calculate D2E/DX2 analytically  !
 ! D9    D(1,2,8,9)             -1.5505         calculate D2E/DX2 analytically  !
 ! D10   D(11,2,8,7)           -15.0118         calculate D2E/DX2 analytically  !
 ! D11   D(11,2,8,9)           140.4856         calculate D2E/DX2 analytically  !
 ! D12   D(2,3,4,5)             65.4949         calculate D2E/DX2 analytically  !
 ! D13   D(2,3,4,13)          -176.4509         calculate D2E/DX2 analytically  !
 ! D14   D(2,3,4,14)           -58.235          calculate D2E/DX2 analytically  !
 ! D15   D(8,3,4,5)              0.3904         calculate D2E/DX2 analytically  !
 ! D16   D(8,3,4,13)           118.4445         calculate D2E/DX2 analytically  !
 ! D17   D(8,3,4,14)          -123.3396         calculate D2E/DX2 analytically  !
 ! D18   D(12,3,4,5)          -140.944          calculate D2E/DX2 analytically  !
 ! D19   D(12,3,4,13)          -22.8899         calculate D2E/DX2 analytically  !
 ! D20   D(12,3,4,14)           95.3261         calculate D2E/DX2 analytically  !
 ! D21   D(4,3,8,7)             -0.1737         calculate D2E/DX2 analytically  !
 ! D22   D(4,3,8,9)           -138.5488         calculate D2E/DX2 analytically  !
 ! D23   D(12,3,8,7)           140.7257         calculate D2E/DX2 analytically  !
 ! D24   D(12,3,8,9)             2.3507         calculate D2E/DX2 analytically  !
 ! D25   D(3,4,5,6)            -65.6859         calculate D2E/DX2 analytically  !
 ! D26   D(3,4,5,7)             -0.4628         calculate D2E/DX2 analytically  !
 ! D27   D(3,4,5,15)           141.1247         calculate D2E/DX2 analytically  !
 ! D28   D(13,4,5,6)           176.4546         calculate D2E/DX2 analytically  !
 ! D29   D(13,4,5,7)          -118.3223         calculate D2E/DX2 analytically  !
 ! D30   D(13,4,5,15)           23.2652         calculate D2E/DX2 analytically  !
 ! D31   D(14,4,5,6)            58.2052         calculate D2E/DX2 analytically  !
 ! D32   D(14,4,5,7)           123.4284         calculate D2E/DX2 analytically  !
 ! D33   D(14,4,5,15)          -94.9841         calculate D2E/DX2 analytically  !
 ! D34   D(4,5,6,16)          -157.5021         calculate D2E/DX2 analytically  !
 ! D35   D(4,5,6,17)           -14.0076         calculate D2E/DX2 analytically  !
 ! D36   D(15,5,6,16)           -4.3033         calculate D2E/DX2 analytically  !
 ! D37   D(15,5,6,17)          139.1912         calculate D2E/DX2 analytically  !
 ! D38   D(4,5,7,8)              0.3601         calculate D2E/DX2 analytically  !
 ! D39   D(4,5,7,18)           138.344          calculate D2E/DX2 analytically  !
 ! D40   D(15,5,7,8)          -139.7212         calculate D2E/DX2 analytically  !
 ! D41   D(15,5,7,18)           -1.7374         calculate D2E/DX2 analytically  !
 ! D42   D(16,6,7,8)           158.2324         calculate D2E/DX2 analytically  !
 ! D43   D(16,6,7,18)            4.9033         calculate D2E/DX2 analytically  !
 ! D44   D(17,6,7,8)            14.8405         calculate D2E/DX2 analytically  !
 ! D45   D(17,6,7,18)         -138.4886         calculate D2E/DX2 analytically  !
 ! D46   D(5,7,8,2)            -66.1285         calculate D2E/DX2 analytically  !
 ! D47   D(5,7,8,3)             -0.1153         calculate D2E/DX2 analytically  !
 ! D48   D(5,7,8,9)            138.7829         calculate D2E/DX2 analytically  !
[...]
 .00187126,-0.15969863,0.01152710,0.03550749,0.49363278,0.00725272,-0.0
 0147370,0.00222479,0.01382787,0.00027082,-0.01227533,0.01754471,-0.067
 15483,-0.00370892,0.04052290,0.52224176,-0.00523672,-0.00021027,-0.000
 52684,-0.00898947,0.00023176,0.00776300,0.02632045,0.00185261,-0.09234
 881,0.06058550,-0.06927207,0.49367997,-0.00123269,0.00085166,-0.000135
 36,-0.00122849,-0.00070659,0.00118208,-0.00555332,0.01167409,0.0212057
 7,-0.07127762,0.00572906,-0.00556149,0.55807939,0.00028451,-0.00185031
 ,-0.00085580,0.00201096,0.00041071,-0.00168678,0.01044987,-0.00867673,
 -0.01435527,0.00685529,-0.12160068,-0.05338328,-0.16441718,0.45557780,
 -0.00009221,-0.00070939,0.00017968,0.00175013,-0.00157871,-0.00054289,
 0.01398066,-0.00945123,-0.01180628,-0.00724815,-0.04844395,-0.12418155
 ,0.07696094,0.08712760,0.41160047,0.00000141,-0.00113618,-0.00080297,0
 .00224276,0.00070767,0.00019097,-0.00114295,0.00039550,0.00013037,-0.0
 0323546,-0.00407139,-0.00643208,-0.06834889,0.03312145,-0.05214987,0.2
 6019454,-0.00014847,-0.00076374,-0.00015693,0.00103099,0.00140199,-0.0
 0082759,0.00078511,-0.00146165,-0.00228332,-0.00381480,0.01150163,-0.0
 1949678,0.05203572,-0.07061483,0.02900000,-0.11638719,0.62075113,0.000
 50323,0.00037065,-0.00026358,0.00210921,-0.00116251,0.00199630,0.00192
 898,-0.00126062,-0.00068269,-0.00328971,0.01039957,-0.01918028,-0.0969
 3853,0.01429664,-0.16629676,-0.05158739,-0.00219646,0.60515590,0.00034
 100,0.00195008,0.00093779,-0.00450529,0.00714929,0.00508191,0.00488413
 ,0.00217161,-0.00229370,-0.00943026,-0.01577254,-0.00825625,-0.1744268
 0,-0.02068485,-0.04028682,-0.06128957,-0.04440395,0.09479660,0.4324586
 9,0.00016320,-0.00292068,-0.00160846,0.00845943,-0.00737840,-0.0176961
 2,-0.00434528,-0.01133059,-0.01087928,-0.01688710,-0.01638969,-0.00225
 649,-0.04349260,-0.06578275,-0.02719627,-0.02604936,-0.11403376,0.0601
 5692,0.12040013,0.62893193,-0.00167118,0.00430676,0.00174506,-0.005693
 36,-0.00406326,0.00339525,0.00381334,-0.02603711,-0.01928892,-0.013941
 97,-0.01466781,-0.00363678,0.00575055,-0.01003278,-0.02825371,0.052385
 69,0.04391315,-0.12013679,-0.10772357,0.07887004,0.35702321,-0.0075592
 2,0.02957028,0.01114041,-0.04882263,-0.00944137,0.02161741,-0.08754747
 ,-0.03874843,-0.04383652,-0.02874412,-0.01725827,0.00059634,-0.0310002
 3,0.00592403,0.01616846,-0.00657497,-0.00400440,0.00060648,-0.09236593
 ,0.03555508,0.04509455,0.49510740,0.00721828,-0.01673797,-0.00674135,0
 .04244406,-0.18862154,0.02484335,-0.08131855,-0.07395488,-0.06942303,-
 0.00884611,-0.00026659,0.00026261,0.01227013,-0.00103982,-0.00583736,-
 0.00832405,0.01020992,0.00467228,0.02873830,-0.11688816,-0.03594740,0.
 07529035,0.52167893,0.00584317,-0.01617735,-0.01408463,0.01468811,0.01
 240042,-0.03524748,-0.03595760,-0.03445266,-0.10824969,-0.00481508,0.0
 0658023,0.00096926,0.00774985,0.00757407,0.00339231,0.01578353,-0.0108
 6383,-0.01680832,0.04746902,-0.04943798,-0.11089188,-0.09761700,0.0619
 6762,0.39547762,0.00646500,0.00292896,-0.00208026,-0.00446639,-0.00492
 518,0.00546284,-0.01849897,-0.01100526,0.01341443,-0.00080840,-0.00469
 178,0.00007038,-0.00153864,-0.00011528,0.00092847,-0.00204185,0.002717
 09,-0.00014548,-0.01682516,-0.01615765,0.01348101,-0.16202906,-0.07429
 060,0.07457814,0.43878413,-0.00538962,-0.00180502,0.00597187,-0.024303
 05,-0.02753978,0.01822039,-0.00737007,-0.00810484,0.00119001,0.0021247
 5,-0.00232652,-0.00017673,0.00059615,-0.00003229,-0.00005748,0.0008043
 6,-0.00012940,-0.00002347,0.00658144,0.00796911,-0.00404805,-0.0689192
 6,-0.10634151,0.04776901,0.18423700,0.16751949,-0.00172378,-0.00624764
 ,0.00366528,0.01927371,0.00750367,-0.01440383,-0.01345724,-0.00693334,
 0.01970095,-0.00173570,-0.00400045,-0.00005909,-0.00060239,-0.00078824
 ,-0.00280297,0.00274259,-0.00288931,-0.00137332,0.02066300,0.01791064,
 -0.01151365,0.03656565,0.02758437,-0.12384298,0.14148184,0.00817755,0.
 40061255,-0.11787308,-0.12848732,0.10109173,-0.02807620,-0.02305532,0.
 02419629,-0.00132655,-0.00123097,0.00211742,-0.00094746,0.00014940,-0.
 00059243,0.00009859,-0.00013684,-0.00014798,-0.00005323,-0.00022035,-0
 .00003438,-0.00021738,-0.00034559,0.00007937,0.00000250,-0.00009435,0.
 00385126,-0.00035124,-0.00063579,-0.00231169,0.15048193,-0.16806940,-0
 .30971375,0.17491402,0.00817394,0.01354362,-0.00704678,0.00159661,0.00
 022667,0.00003014,-0.00006946,-0.00085391,0.00046491,-0.00000268,0.000
 09986,0.00004352,-0.00003239,0.00017573,-0.00002996,-0.00106434,-0.000
 93077,0.00012788,0.00882406,0.00080893,-0.00438705,-0.00435245,0.00374
 795,0.00233976,0.15304670,0.29671702,0.10996177,0.14693232,-0.10448103
 ,0.01410150,0.01522670,-0.01660873,-0.00083998,-0.00066971,0.00089844,
 -0.00016367,0.00031742,-0.00039170,-0.00000022,0.00028250,-0.00006352,
 0.00028794,0.00013908,-0.00019966,-0.00012920,0.00050328,-0.00064704,0
 .00172112,0.00162903,0.00233693,-0.00281301,0.00216531,-0.00175966,-0.
 12571654,-0.16182756,0.12292657,-0.01671211,-0.01336418,0.02554877,-0.
 05857394,-0.03147727,0.05397531,0.00609789,0.00991120,-0.01841247,0.00
 295776,-0.00150497,0.00016601,-0.00001054,0.00024051,0.00020703,-0.000
 58027,0.00148829,0.00012359,-0.00029017,0.00088435,0.00081704,-0.00319
 262,-0.00050080,0.00210957,0.00005382,-0.00214802,0.00094942,-0.002595
 73,0.00275167,0.00473133,0.07430744,0.00732171,0.00976690,-0.01359588,
 -0.03690107,-0.12356332,0.12583215,0.00138564,-0.00325317,-0.00232006,
 0.00078560,0.00102401,0.00035293,0.00012172,0.00017298,0.00064188,0.00
 009951,-0.00057753,-0.00029310,-0.00142768,0.00175375,0.00080046,-0.00
 351202,-0.00563780,0.01984004,-0.00083478,-0.00417898,0.00321589,0.001
 79138,-0.00138435,-0.00195714,0.02962728,0.12446240,0.01175946,0.00447
 777,-0.00970769,0.05847650,0.12128168,-0.23145948,0.00604638,0.0094940
 4,-0.01286399,0.00150677,-0.00115423,0.00130086,-0.00018825,0.00025896
 ,-0.00020892,0.00086667,-0.00054972,-0.00120933,0.00045396,0.00099748,
 -0.00027366,-0.00661265,-0.00007570,0.00571745,-0.00074320,-0.00296017
 ,0.00174614,-0.00035240,-0.00280498,-0.00147469,-0.07089351,-0.1291104
 3,0.24808515,0.00218006,0.00036905,0.00174664,-0.00185960,-0.00302830,
 -0.01589911,-0.05315736,0.00385191,0.04892603,-0.00032375,0.00370876,0
 .02475454,-0.00340163,-0.00022422,0.00132297,-0.00041733,-0.00008839,-
 0.00001770,-0.00177707,0.00104082,-0.00082401,-0.00048786,0.00229460,-
 0.01518995,0.00140887,-0.00042471,0.00230789,-0.00029522,-0.00000707,-
 0.00096366,-0.00099082,-0.00064518,-0.00059164,0.05752163,-0.00468393,
 0.00122217,-0.00436520,-0.00660383,0.00175690,0.02549641,0.00403465,-0
 .03625251,-0.03234621,-0.00017276,-0.00015862,-0.00060535,-0.00014061,
 -0.00239597,-0.00134040,0.00015362,-0.00070266,-0.00043079,-0.00098601
 ,-0.00166287,-0.00213108,0.00785799,-0.00042761,-0.02445423,0.00314058
 ,0.00187080,0.00360115,0.00019339,0.00043697,-0.00009961,0.00375529,0.
 00005367,0.00253672,-0.00788755,0.03516205,0.00170292,0.00051318,0.004
 02797,0.00127518,-0.00428251,-0.01527683,0.04664578,-0.03540418,-0.322
 64286,-0.00188666,0.00046911,-0.00160210,0.00012105,-0.00039132,0.0004
 5704,-0.00000431,0.00010778,-0.00015041,0.00027110,0.00066725,0.000130
 22,-0.00002432,0.00468268,-0.00667013,0.00008659,-0.00086995,0.0018420
 8,-0.00090906,-0.00014946,-0.00048718,-0.00130294,-0.00111629,-0.00062
 603,-0.04709692,0.03584682,0.34035913,-0.00240228,0.00003853,-0.000063
 28,-0.00051463,-0.00104689,0.00368433,-0.01978588,0.01337077,-0.022305
 12,-0.12329718,0.05079203,-0.10854368,0.00000214,0.00044800,0.00051880
 ,0.00096379,0.00019490,0.00096682,-0.00087972,-0.00085515,0.00056351,-
 0.00007704,-0.00032136,-0.00116975,-0.00031518,-0.00010044,-0.00007551
 ,-0.00014676,0.00022293,-0.00022375,0.00020051,0.00012322,0.00023167,0
 .00179345,-0.00007329,0.00036629,0.13587137,0.00075012,0.00013958,-0.0
 0002279,0.00057574,0.00051886,-0.00086177,0.00288408,-0.00207722,0.003
 00309,0.05148219,-0.08204087,0.07354259,-0.01243146,0.00828722,-0.0184
 9247,-0.00002685,-0.00256524,-0.00213370,-0.00026743,0.00007720,-0.000
 14839,0.00017626,-0.00096707,0.00024298,-0.00017795,0.00024514,0.00011
 142,0.00007612,-0.00008429,0.00004765,-0.00035555,-0.00010288,-0.00036
 189,-0.00005524,0.00045165,-0.00018583,-0.05761628,0.08742699,0.000785
 43,0.00001354,0.00011830,0.00170506,0.00016718,-0.00024704,0.00812200,
 -0.00501131,0.00904661,-0.10816067,0.07264302,-0.19322870,-0.01205636,
 0.00932452,-0.01879940,0.00077998,-0.00381073,-0.00203378,-0.00082203,
 0.00036890,-0.00023025,0.00025438,-0.00099932,-0.00038158,-0.00028679,
 0.00009423,0.00029327,0.00004974,-0.00010500,0.00002640,0.00001591,-0.
 00011559,-0.00002554,-0.00043461,-0.00041052,0.00105958,0.11560954,-0.
 07606688,0.21148632,0.00043400,0.00038770,0.00003366,0.00339145,-0.000
 17123,0.00056517,-0.01549284,-0.02368228,0.00788462,-0.08889018,-0.090
 36250,0.03115775,0.00105002,0.00011479,-0.00035244,0.00022214,-0.00072
 468,0.00020170,-0.00114626,0.00007841,0.00050416,-0.00235582,-0.000653
 52,0.00353824,-0.00198180,-0.00068806,-0.00141871,0.00022690,-0.000222
 26,-0.00008640,-0.00042471,0.00049905,-0.00120668,-0.00153290,-0.00032
 727,0.00048549,0.00791221,0.01557127,-0.00544528,0.09953497,-0.0004241
 0,0.00025888,0.00002659,-0.00042943,0.00085393,-0.00045785,0.00315196,
 0.00700039,-0.00128795,-0.09142922,-0.23326185,0.06818424,-0.00862270,
 -0.01728156,0.00323231,0.00147698,0.00253321,0.00111298,0.00110839,-0.
 00271129,-0.00021823,0.00198744,-0.00034887,-0.00105927,0.00019590,0.0
 0041049,0.00043195,0.00004957,-0.00001718,-0.00002708,-0.00064813,-0.0
 0029055,-0.00006150,-0.00009167,-0.00028774,-0.00027388,-0.00480970,-0
 .01054778,0.00418293,0.10039980,0.25401393,0.00024668,-0.00010381,-0.0
 0025210,-0.00195080,-0.00131184,0.00104916,0.00604570,0.00774503,-0.00
 187766,0.03144144,0.06938336,-0.06950620,-0.01183474,-0.02179153,0.004
 51072,0.00154083,0.00033556,0.00323162,-0.00061154,-0.00452427,-0.0020
 5881,-0.00012879,-0.00099787,-0.00242944,0.00038390,0.00046758,0.00044
 607,-0.00013101,0.00000023,-0.00002997,0.00066800,0.00007402,0.0005052
 9,0.00086373,0.00015675,-0.00021478,0.01022314,0.02176467,-0.00769621,
 -0.03559937,-0.07152903,0.07550089,-0.00002163,0.00061740,0.00040867,-
 0.00073172,-0.00039741,0.00005296,-0.00120099,-0.00148818,0.00053269,0
 .00498306,-0.00460405,-0.00156661,-0.19831720,0.14537716,0.00783038,-0
 .00396333,-0.00210332,-0.00182350,-0.01309986,0.01736271,-0.00142570,-
 0.00147451,0.00145797,-0.00192310,-0.00053272,0.00010728,0.00037723,0.
 00007074,-0.00008445,-0.00011913,-0.00001038,-0.00000407,-0.00010397,0
 .00029357,0.00044289,0.00016399,0.00065011,0.00020891,0.00060127,-0.00
 022366,-0.00048538,0.00010275,0.21014072,0.00026604,0.00038629,0.00025
 643,-0.00078657,-0.00032315,0.00012780,-0.00132711,-0.00172617,-0.0009
 9804,0.01324981,-0.00922664,0.00138279,0.14842249,-0.17837954,-0.01506
 452,0.00645891,-0.00858348,-0.00276045,-0.01080007,0.01217570,0.002010
 64,-0.00236064,0.00060881,-0.00213094,-0.00020921,0.00027791,0.0004733
 6,-0.00002115,-0.00008047,-0.00007620,0.00001342,0.00007435,-0.0000397
 8,0.00075543,0.00006468,0.00006483,-0.00040772,0.00133362,0.00013810,-
 0.00004844,-0.00125336,-0.00084821,-0.15557530,0.18261987,0.00056383,-
 0.00035339,0.00032681,-0.00005903,0.00000820,-0.00084907,0.00123800,-0
 .00211477,-0.00221407,0.01548383,-0.01108194,-0.00011200,0.00835268,-0
 .01569377,-0.04164964,-0.02087946,0.01992066,0.00048932,0.00051430,-0.
 00504076,-0.00421452,0.00090518,-0.00056233,-0.00148817,0.00055518,0.0
 0022929,0.00000174,-0.00012316,-0.00001375,0.00001477,0.00003225,-0.00
 027488,0.00014287,0.00094445,-0.00043053,-0.00021145,0.00027856,0.0004
 7564,0.00108869,0.00005542,-0.00080871,-0.00056638,-0.00489021,0.01591
 977,0.04908011,0.00000912,0.00025963,0.00034575,-0.00059222,-0.0007119
 0,-0.00044620,-0.00087512,-0.00014538,0.00041201,-0.00064538,0.0035109
 5,-0.00389926,0.00731729,-0.01682087,-0.01834084,-0.05649356,0.0443851
 5,0.06292701,-0.00699432,0.01614906,0.01659319,0.00081555,-0.00231102,
 0.00281305,-0.00095477,0.00007748,0.00137047,0.00004664,-0.00010012,-0
 .00003086,0.00016054,-0.00020191,-0.00016272,0.00035803,0.00015183,0.0
 0009477,0.00011813,-0.00087902,-0.00129850,-0.00004105,0.00021395,0.00
 027690,0.00044961,-0.00151133,0.00243788,0.05839056,0.00021757,0.00032
 420,-0.00034467,-0.00009616,-0.00058818,0.00041236,-0.00079893,0.00042
 393,0.00075260,-0.00102495,-0.00043536,-0.00062728,0.00028400,-0.00128
 399,0.00423870,0.04462838,-0.13088863,-0.12441314,-0.00478537,0.007892
 57,0.01388552,0.00161676,-0.00196324,0.00218469,-0.00040858,0.00038729
 ,0.00045908,0.00005257,-0.00013754,-0.00011452,-0.00006268,0.00060506,
 -0.00034887,0.00001367,0.00033257,0.00000154,0.00005869,-0.00003795,-0
 .00028363,0.00016398,0.00024814,0.00010122,0.00054638,0.00126149,0.000
 66002,-0.04581188,0.13394255,0.00011853,-0.00027984,0.00006840,0.00000
 621,0.00055219,-0.00008786,0.00064471,-0.00044952,-0.00038293,0.000039
 54,0.00374427,-0.00084991,0.00582093,-0.00863013,-0.01550919,0.0624772
 9,-0.12142483,-0.23202144,0.00112810,-0.00452850,-0.01006645,-0.001953
 17,0.00094505,-0.00047123,0.00018856,-0.00007672,-0.00030456,-0.000090
 35,0.00006595,0.00007562,-0.00001506,-0.00025214,0.00020967,0.00012969
 ,-0.00032205,-0.00007125,0.00011269,-0.00055132,-0.00054654,-0.0000560
 1,-0.00007278,0.00011757,-0.00080778,-0.00086746,0.00177723,-0.0662145
 5,0.12810779,0.24995687,0.00002277,-0.00006536,-0.00024715,-0.00091639
 ,0.00047870,0.00091821,0.00060331,-0.00021263,-0.00062250,0.00119841,-
 0.00042559,0.00306307,-0.00757423,0.02230085,0.00041905,-0.05387690,0.
 07123193,-0.01121220,0.00590828,-0.02428603,-0.00071766,0.00068269,0.0
 0062267,-0.00176121,0.00038637,0.00039258,-0.00064916,-0.00005201,-0.0
 0004639,-0.00002861,-0.00047361,0.00159110,0.00155708,-0.00006253,0.00
 002130,-0.00005164,-0.00019682,0.00016161,0.00073167,-0.00011455,-0.00
 107608,-0.00026059,0.00046272,0.00201952,-0.00433633,-0.00199710,0.006
 21759,-0.00219680,0.05594793,0.00001062,0.00074311,-0.00018327,0.00077
 333,-0.00087775,-0.00050328,0.00012058,0.00001448,0.00029804,0.0003452
 8,0.00080907,-0.00014989,-0.00259686,0.00188415,0.00129882,0.07063144,
 -0.30697750,0.04707440,0.00274257,-0.01046182,0.00259855,0.00096821,-0
 .00077833,-0.00219710,-0.00012643,0.00029284,0.00000510,0.00017122,-0.
 00008896,-0.00017387,0.00108010,0.00021071,-0.00186690,-0.00005217,0.0
 0013897,-0.00006329,0.00002566,0.00002844,-0.00009985,0.00004705,0.000
 29046,0.00086061,-0.00085518,0.00038624,-0.00073497,0.00272543,-0.0113
 4917,0.00412168,-0.07705477,0.32620824,-0.00029890,-0.00031029,0.00050
 142,0.00103009,0.00046749,-0.00193005,0.00004376,0.00008381,-0.0001162
 6,-0.00052742,0.00030506,0.00237787,-0.00304468,0.01965731,-0.00535762
 ,-0.01032080,0.04442275,-0.05577618,-0.00490931,0.01172934,-0.00549425
 ,0.00046804,0.00087696,0.00115160,0.00008129,-0.00059624,0.00008076,0.
 00002816,0.00017752,0.00014356,0.00084154,-0.00175303,-0.00018443,0.00
 002214,-0.00014266,0.00004102,0.00003025,-0.00010561,0.00029974,-0.000
 11934,-0.00082766,-0.00015574,0.00109311,0.00146279,-0.00223642,0.0057
 0999,-0.02343854,0.00683701,0.01090952,-0.05225131,0.06093898,-0.00024
 391,0.00121331,0.00065192,-0.00194465,-0.00063259,0.00190711,-0.001292
 39,-0.00001749,0.00019071,-0.00264170,-0.00301571,0.00240434,-0.001962
 97,-0.02440246,-0.00112182,-0.00576987,-0.00180041,0.00106605,-0.06154
 580,-0.06857214,-0.00604398,0.00493761,0.01911036,0.00181474,0.0018383
 9,-0.00098377,-0.00185762,0.00021073,0.00021952,-0.00021736,-0.0000597
 4,-0.00005473,-0.00025685,0.00032829,0.00036318,-0.00011574,0.00016865
 ,-0.00012720,-0.00023720,-0.00009993,-0.00081764,-0.00146826,0.0024272
 4,0.00174117,-0.00120245,0.00071960,-0.00090074,0.00075400,0.00002674,
 0.00092540,-0.00095621,0.06546957,0.00040952,-0.00053241,-0.00061443,0
 .00067855,0.00051038,-0.00112795,-0.00007926,-0.00036618,-0.00009058,0
 .00094936,0.00059354,-0.00029691,0.00025128,0.00277315,0.00273002,-0.0
 0235161,-0.00925360,-0.00335261,-0.07086863,-0.31018543,-0.05000710,-0
 .00567162,-0.01211458,0.00150217,-0.00006395,0.00289186,0.00108159,-0.
 00006533,-0.00020368,0.00010220,0.00004506,0.00017836,0.00012994,0.000
 04180,-0.00029054,0.00009184,-0.00015052,-0.00002183,0.00001381,-0.000
 05513,0.00024838,0.00015496,-0.00058705,0.00036594,-0.00006948,0.00092
 793,0.00134837,-0.00010718,-0.00172562,-0.00032936,0.00014931,0.077380
 58,0.32487475,0.00028422,-0.00032708,-0.00032713,-0.00012973,0.0014507
 5,-0.00117479,-0.00098234,-0.00119705,-0.00245688,-0.00133102,-0.00190
 405,-0.00078955,0.00317108,-0.01092831,-0.00446642,0.00472918,0.026430
 54,0.00529892,-0.00618470,-0.04879333,-0.04604610,-0.00608101,-0.01593
 764,-0.00136872,-0.00140628,0.00143663,0.00171989,-0.00007568,-0.00023
 622,0.00014420,0.00019879,-0.00018251,0.00016583,-0.00012365,-0.000886
 15,-0.00012367,-0.00029584,-0.00024293,-0.00018040,-0.00037012,-0.0005
 2705,-0.00056615,0.00154893,0.00099934,0.00069786,-0.00261045,-0.00118
 333,0.00123237,0.00447842,0.00198372,-0.00114768,0.00456902,0.05025248
 ,0.04919783,-0.00014951,0.00011161,-0.00051289,0.00242209,-0.00100046,
 -0.00090155,-0.00174177,0.00067373,0.00526956,-0.00028242,-0.00133160,
 -0.00004039,-0.00067418,-0.00032571,-0.00034675,0.00016352,-0.00017323
 ,-0.00018077,0.00120151,0.00089770,-0.00104100,-0.02931427,-0.01278635
 ,-0.02180499,-0.23859239,-0.08395825,-0.20190002,0.00079683,-0.0007844
 2,0.00052874,0.00013668,0.00023523,0.00021340,0.00042216,0.00076054,0.
 00017844,-0.00006487,0.00005066,0.00008645,-0.00046798,0.00025008,0.00
 019202,0.00009821,0.00012075,0.00012908,0.00020845,0.00008969,-0.00008
 651,0.00002493,0.00011853,-0.00008121,-0.00056585,0.00093463,0.0006111
 8,0.26637886,0.00271004,-0.00013892,0.00069717,-0.00231100,0.00078866,
 -0.00274023,-0.00259005,-0.00132277,0.00318610,-0.00012279,-0.00125158
 ,0.00020061,0.00017438,-0.00026741,-0.00014109,-0.00009879,-0.00002158
 ,-0.00002662,0.00021908,0.00187593,0.00078821,-0.01785444,-0.00721861,
 -0.01490084,-0.07586043,-0.03515454,-0.05203657,-0.00123736,-0.0022618
 6,-0.00239981,0.00026442,0.00068637,0.00015759,0.00042844,0.00068809,0
 .00029167,0.00010664,-0.00006357,-0.00004339,-0.00032671,0.00014238,0.
 00006256,0.00006370,0.00001790,-0.00003432,0.00009203,-0.00008209,0.00
 002554,-0.00014538,-0.00014381,0.00009298,0.00037136,-0.00048714,-0.00
 020783,0.09611686,0.04421454,0.00094538,0.00021598,-0.00047390,-0.0007
 4332,0.00032716,-0.00024521,0.00191495,0.00055465,-0.00065093,0.000258
 06,0.00044192,0.00032255,0.00004708,0.00001561,-0.00020135,0.00026185,
 0.00022999,-0.00003951,-0.00009865,0.00075760,0.00045905,0.02111545,0.
 00905805,0.01288908,-0.24323762,-0.07691305,-0.27404868,-0.00092928,-0
 .00156320,-0.00042331,0.00023943,0.00021368,0.00016050,0.00012316,0.00
 032692,0.00015964,0.00009134,-0.00001447,-0.00004948,0.00022815,-0.000
 02003,-0.00000788,-0.00005199,-0.00005026,-0.00007768,0.00002238,-0.00
 004956,0.00003661,0.00000683,-0.00001720,0.00002668,0.00011959,-0.0005
 4207,0.00019060,0.21968723,0.06702828,0.26197322\\0.00007970,-0.000027
 49,-0.00003315,-0.00011055,0.00006481,0.00004010,0.00000361,0.00001798
 ,0.00004746,-0.00002266,-0.00004027,0.00000407,0.00000577,0.00004779,0
 .00001638,0.00001133,0.00001807,0.00001666,-0.00001701,-0.00005161,-0.
 00000396,0.00003463,-0.00002447,-0.00005233,0.00001111,-0.00000183,-0.
 00000550,-0.00001630,-0.00000803,-0.00001065,0.00001459,-0.00000347,-0
 .00000873,-0.00000770,-0.00000903,0.00000180,0.00000281,0.00000002,0.0
 0001196,-0.00000360,-0.00000003,0.00000958,0.00000356,-0.00000004,-0.0
 0000324,0.00001299,0.00000717,-0.00000252,0.00001002,0.00000454,-0.000
 01156,-0.00000077,0.00000482,0.00000769,-0.00001154,0.00000105,-0.0000
 2407\\\@


 KNOWLEDGE IS EXPERIMENT'S DAUGHTER.
 -- LEONARDO DA VINCI, IN "PENSIERI" CA. 1492
 Job cpu time:       0 days  0 hours 45 minutes 15.8 seconds.
 File lengths (MBytes):  RWF=    152 Int=      0 D2E=      0 Chk=      8 Scr=      1
 Normal termination of Gaussian 09 at Tue Jan 28 00:36:18 2020.
