 Entering Gaussian System, Link 0=/home/puck/opt/gaussian_09/g09
 Input=dsC7O2H10nsd_4685.com
 Output=dsC7O2H10nsd_4685.log
 Initial command:
 /home/puck/opt/gaussian_09/l1.exe "/scratch/puck/g09_82081ab8-e3ca-4bac-acbc-3e2b90f81627/Gau-59564.inp" -scrdir="/scratch/puck/g09_82081ab8-e3ca-4bac-acbc-3e2b90f81627/"
 Entering Link 1 = /home/puck/opt/gaussian_09/l1.exe PID=     59700.
  
 Copyright (c) 1988,1990,1992,1993,1995,1998,2003,2009,2013,
            Gaussian, Inc.  All Rights Reserved.
  
 This is part of the Gaussian(R) 09 program.  It is based on
 the Gaussian(R) 03 system (copyright 2003, Gaussian, Inc.),
 the Gaussian(R) 98 system (copyright 1998, Gaussian, Inc.),
 the Gaussian(R) 94 system (copyright 1995, Gaussian, Inc.),
 the Gaussian 92(TM) system (copyright 1992, Gaussian, Inc.),
 the Gaussian 90(TM) system (copyright 1990, Gaussian, Inc.),
 the Gaussian 88(TM) system (copyright 1988, Gaussian, Inc.),
 the Gaussian 86(TM) system (copyright 1986, Carnegie Mellon
 University), and the Gaussian 82(TM) system (copyright 1983,
 Carnegie Mellon University). Gaussian is a federally registered
 trademark of Gaussian, Inc.
  
 This software contains proprietary and confidential information,
 including trade secrets, belonging to Gaussian, Inc.
  
 This software is provided under written license and may be
 used, copied, transmitted, or stored only in accord with that
 written license.
  
 The following legend is applicable only to US Government
 contracts under FAR:
  
                    RESTRICTED RIGHTS LEGEND
  
 Use, reproduction and disclosure by the US Government is
 subject to restrictions as set forth in subparagraphs (a)
 and (c) of the Commercial Computer Software - Restricted
 Rights clause in FAR 52.227-19.
  
 Gaussian, Inc.
 340 Quinnipiac St., Bldg. 40, Wallingford CT 06492
  
  
 ---------------------------------------------------------------
 Warning -- This program may not be used in any manner that
 competes with the business of Gaussian, Inc. or will provide
 assistance to any competitor of Gaussian, Inc.  The licensee
 of this program is prohibited from giving any competitor of
 Gaussian, Inc. access to this program.  By using this program,
 the user acknowledges that Gaussian, Inc. is engaged in the
 business of creating and licensing software in the field of
 computational chemistry and represents and warrants to the
 licensee that it is not a competitor of Gaussian, Inc. and that
 it will not use this program in any manner prohibited above.
 ---------------------------------------------------------------
  

 Cite this work as:
 Gaussian 09, Revision D.01,
 M. J. Frisch, G. W. Trucks, H. B. Schlegel, G. E. Scuseria, 
 M. A. Robb, J. R. Cheeseman, G. Scalmani, V. Barone, B. Mennucci, 
 G. A. Petersson, H. Nakatsuji, M. Caricato, X. Li, H. P. Hratchian, 
 A. F. Izmaylov, J. Bloino, G. Zheng, J. L. Sonnenberg, M. Hada, 
 M. Ehara, K. Toyota, R. Fukuda, J. Hasegawa, M. Ishida, T. Nakajima, 
 Y. Honda, O. Kitao, H. Nakai, T. Vreven, J. A. Montgomery, Jr., 
 J. E. Peralta, F. Ogliaro, M. Bearpark, J. J. Heyd, E. Brothers, 
 K. N. Kudin, V. N. Staroverov, T. Keith, R. Kobayashi, J. Normand, 
 K. Raghavachari, A. Rendell, J. C. Burant, S. S. Iyengar, J. Tomasi, 
 M. Cossi, N. Rega, J. M. Millam, M. Klene, J. E. Knox, J. B. Cross, 
 V. Bakken, C. Adamo, J. Jaramillo, R. Gomperts, R. E. Stratmann, 
 O. Yazyev, A. J. Austin, R. Cammi, C. Pomelli, J. W. Ochterski, 
 R. L. Martin, K. Morokuma, V. G. Zakrzewski, G. A. Voth, 
 P. Salvador, J. J. Dannenberg, S. Dapprich, A. D. Daniels, 
 O. Farkas, J. B. Foresman, J. V. Ortiz, J. Cioslowski, 
 and D. J. Fox, Gaussian, Inc., Wallingford CT, 2013.
 
 ******************************************
 Gaussian 09:  ES64L-G09RevD.01 24-Apr-2013
                28-Jan-2020 
 ******************************************
 -----------------------------
 # b3lyp 6-31G(2df,p) opt Freq
 -----------------------------
 1/14=-1,18=20,19=15,26=3,38=1/1,3;
 2/9=110,12=2,17=6,18=5,40=1/2;
 3/5=1,6=6,7=104,11=2,16=1,25=1,30=1,71=1,74=-5/1,2,3;
 4//1;
 5/5=2,38=5/2;
 6/7=2,8=2,9=2,10=2,28=1/1;
 7//1,2,3,16;
 1/14=-1,18=20,19=15,26=3/3(2);
 2/9=110/2;
 99//99;
 2/9=110/2;
 3/5=1,6=6,7=104,11=2,16=1,25=1,30=1,71=1,74=-5/1,2,3;
 4/5=5,16=3,69=1/1;
 5/5=2,38=5/2;
 7//1,2,3,16;
 1/14=-1,18=20,19=15,26=3/3(-5);
 2/9=110/2;
 6/7=2,8=2,9=2,10=2,19=2,28=1/1;
 99/9=1/99;
 -----
 titel
 -----
 Symbolic Z-matrix:
 Charge =  0 Multiplicity = 1
 C                     1.52971  -0.11225   0.2069 
 O                     0.17266  -0.37927   0.58034 
 C                    -0.49275   0.66223   1.12396 
 O                    -0.00176   1.75267   1.28066 
 C                    -1.88773   0.23943   1.52515 
 C                    -2.80383   1.42643   1.9593 
 C                    -2.86019   0.858     3.38191 
 C                    -3.38037  -0.5514    3.35881 
 C                    -1.95004  -0.29895   2.97272 
 H                     2.11683   0.19624   1.07576 
 H                     1.9149   -1.04639  -0.20233 
 H                     1.57426   0.68119  -0.54355 
 H                    -2.27711  -0.45248   0.77292 
 H                    -2.25342   2.36577   1.89462 
 H                    -3.75977   1.52019   1.4346 
 H                    -2.84359   1.44631   4.29072 
 H                    -3.51721  -1.01624   4.3302 
 H                    -4.10714  -0.86116   2.61041 
 H                    -1.11935  -0.75063   3.501 
 

 GradGradGradGradGradGradGradGradGradGradGradGradGradGradGradGradGradGrad
 Berny optimization.
 Initialization pass.
                           ----------------------------
                           !    Initial Parameters    !
                           ! (Angstroms and Degrees)  !
 --------------------------                            --------------------------
 ! Name  Definition              Value          Derivative Info.                !
 --------------------------------------------------------------------------------
 ! R1    R(1,2)                  1.4326         estimate D2E/DX2                !
 ! R2    R(1,10)                 1.0931         estimate D2E/DX2                !
 ! R3    R(1,11)                 1.0902         estimate D2E/DX2                !
 ! R4    R(1,12)                 1.093          estimate D2E/DX2                !
 ! R5    R(2,3)                  1.3502         estimate D2E/DX2                !
 ! R6    R(3,4)                  1.2061         estimate D2E/DX2                !
 ! R7    R(3,5)                  1.5119         estimate D2E/DX2                !
 ! R8    R(5,6)                  1.561          estimate D2E/DX2                !
 ! R9    R(5,9)                  1.5457         estimate D2E/DX2                !
 ! R10   R(5,13)                 1.0937         estimate D2E/DX2                !
 ! R11   R(6,7)                  1.533          estimate D2E/DX2                !
 ! R12   R(6,14)                 1.0906         estimate D2E/DX2                !
 ! R13   R(6,15)                 1.0945         estimate D2E/DX2                !
 ! R14   R(7,8)                  1.5025         estimate D2E/DX2                !
 ! R15   R(7,9)                  1.5279         estimate D2E/DX2                !
 ! R16   R(7,16)                 1.0827         estimate D2E/DX2                !
 ! R17   R(8,9)                  1.5029         estimate D2E/DX2                !
 ! R18   R(8,17)                 1.0855         estimate D2E/DX2                !
 ! R19   R(8,18)                 1.0882         estimate D2E/DX2                !
 ! R20   R(9,19)                 1.0831         estimate D2E/DX2                !
 ! A1    A(2,1,10)             110.7448         estimate D2E/DX2                !
 ! A2    A(2,1,11)             105.8332         estimate D2E/DX2                !
 ! A3    A(2,1,12)             110.6634         estimate D2E/DX2                !
 ! A4    A(10,1,11)            110.5138         estimate D2E/DX2                !
 ! A5    A(10,1,12)            108.6021         estimate D2E/DX2                !
 ! A6    A(11,1,12)            110.4804         estimate D2E/DX2                !
 ! A7    A(1,2,3)              115.3418         estimate D2E/DX2                !
 ! A8    A(2,3,4)              123.3042         estimate D2E/DX2                !
 ! A9    A(2,3,5)              110.2337         estimate D2E/DX2                !
 ! A10   A(4,3,5)              126.4402         estimate D2E/DX2                !
 ! A11   A(3,5,6)              113.7439         estimate D2E/DX2                !
 ! A12   A(3,5,9)              112.527          estimate D2E/DX2                !
 ! A13   A(3,5,13)             108.8383         estimate D2E/DX2                !
 ! A14   A(6,5,9)               88.8961         estimate D2E/DX2                !
 ! A15   A(6,5,13)             117.6075         estimate D2E/DX2                !
 ! A16   A(9,5,13)             114.1684         estimate D2E/DX2                !
 ! A17   A(5,6,7)               89.8692         estimate D2E/DX2                !
 ! A18   A(5,6,14)             110.0146         estimate D2E/DX2                !
 ! A19   A(5,6,15)             116.384          estimate D2E/DX2                !
 ! A20   A(7,6,14)             113.1379         estimate D2E/DX2                !
 ! A21   A(7,6,15)             116.3936         estimate D2E/DX2                !
 ! A22   A(14,6,15)            109.789          estimate D2E/DX2                !
 ! A23   A(6,7,8)              110.2597         estimate D2E/DX2                !
 ! A24   A(6,7,9)               90.5926         estimate D2E/DX2                !
 ! A25   A(6,7,16)             125.2321         estimate D2E/DX2                !
 ! A26   A(8,7,16)             121.863          estimate D2E/DX2                !
 ! A27   A(9,7,16)             128.8374         estimate D2E/DX2                !
 ! A28   A(7,8,17)             115.5664         estimate D2E/DX2                !
 ! A29   A(7,8,18)             120.5833         estimate D2E/DX2                !
 ! A30   A(9,8,17)             114.9473         estimate D2E/DX2                !
 ! A31   A(9,8,18)             120.4471         estimate D2E/DX2                !
 ! A32   A(17,8,18)            114.163          estimate D2E/DX2                !
 ! A33   A(5,9,7)               90.6347         estimate D2E/DX2                !
 ! A34   A(5,9,8)              109.7223         estimate D2E/DX2                !
 ! A35   A(5,9,19)             124.8281         estimate D2E/DX2                !
 ! A36   A(7,9,19)             129.9428         estimate D2E/DX2                !
 ! A37   A(8,9,19)             122.3148         estimate D2E/DX2                !
 ! D1    D(10,1,2,3)            59.8401         estimate D2E/DX2                !
 ! D2    D(11,1,2,3)           179.6366         estimate D2E/DX2                !
 ! D3    D(12,1,2,3)           -60.6512         estimate D2E/DX2                !
 ! D4    D(1,2,3,4)              0.7129         estimate D2E/DX2                !
 ! D5    D(1,2,3,5)           -177.6863         estimate D2E/DX2                !
 ! D6    D(2,3,5,6)           -171.0935         estimate D2E/DX2                !
 ! D7    D(2,3,5,9)             89.7191         estimate D2E/DX2                !
 ! D8    D(2,3,5,13)           -37.8584         estimate D2E/DX2                !
 ! D9    D(4,3,5,6)             10.5696         estimate D2E/DX2                !
 ! D10   D(4,3,5,9)            -88.6178         estimate D2E/DX2                !
 ! D11   D(4,3,5,13)           143.8048         estimate D2E/DX2                !
 ! D12   D(3,5,6,7)           -114.8583         estimate D2E/DX2                !
 ! D13   D(3,5,6,14)            -0.1895         estimate D2E/DX2                !
 ! D14   D(3,5,6,15)           125.4658         estimate D2E/DX2                !
 ! D15   D(9,5,6,7)             -0.6442         estimate D2E/DX2                !
 ! D16   D(9,5,6,14)           114.0246         estimate D2E/DX2                !
 ! D17   D(9,5,6,15)          -120.32           estimate D2E/DX2                !
 ! D18   D(13,5,6,7)           116.2301         estimate D2E/DX2                !
 ! D19   D(13,5,6,14)         -129.1011         estimate D2E/DX2                !
 ! D20   D(13,5,6,15)           -3.4458         estimate D2E/DX2                !
 ! D21   D(3,5,9,7)            115.987          estimate D2E/DX2                !
 ! D22   D(3,5,9,8)            173.5544         estimate D2E/DX2                !
 ! D23   D(3,5,9,19)           -26.1873         estimate D2E/DX2                !
 ! D24   D(6,5,9,7)              0.6464         estimate D2E/DX2                !
 ! D25   D(6,5,9,8)             58.2137         estimate D2E/DX2                !
 ! D26   D(6,5,9,19)          -141.5279         estimate D2E/DX2                !
 ! D27   D(13,5,9,7)          -119.3127         estimate D2E/DX2                !
 ! D28   D(13,5,9,8)           -61.7453         estimate D2E/DX2                !
 ! D29   D(13,5,9,19)           98.513          estimate D2E/DX2                !
 ! D30   D(5,6,7,8)            -56.8063         estimate D2E/DX2                !
 ! D31   D(5,6,7,9)              0.6516         estimate D2E/DX2                !
 ! D32   D(5,6,7,16)           141.465          estimate D2E/DX2                !
 ! D33   D(14,6,7,8)          -168.5975         estimate D2E/DX2                !
 ! D34   D(14,6,7,9)          -111.1395         estimate D2E/DX2                !
 ! D35   D(14,6,7,16)           29.6739         estimate D2E/DX2                !
 ! D36   D(15,6,7,8)            62.8611         estimate D2E/DX2                !
 ! D37   D(15,6,7,9)           120.3191         estimate D2E/DX2                !
 ! D38   D(15,6,7,16)          -98.8675         estimate D2E/DX2                !
 ! D39   D(6,7,8,17)          -176.1622         estimate D2E/DX2                !
 ! D40   D(6,7,8,18)           -32.0837         estimate D2E/DX2                !
 ! D41   D(16,7,8,17)          -13.7114         estimate D2E/DX2                !
 ! D42   D(16,7,8,18)          130.3672         estimate D2E/DX2                !
 ! D43   D(6,7,9,5)             -0.6581         estimate D2E/DX2                !
 ! D44   D(6,7,9,19)           138.3007         estimate D2E/DX2                !
 ! D45   D(16,7,9,5)          -139.1608         estimate D2E/DX2                !
 ! D46   D(16,7,9,19)           -0.202          estimate D2E/DX2                !
 ! D47   D(17,8,9,5)           174.7496         estimate D2E/DX2                !
 ! D48   D(17,8,9,19)           13.9022         estimate D2E/DX2                !
 ! D49   D(18,8,9,5)            31.8946         estimate D2E/DX2                !
 ! D50   D(18,8,9,19)         -128.9528         estimate D2E/DX2                !
 --------------------------------------------------------------------------------
 Trust Radius=3.00D-01 FncErr=1.00D-07 GrdErr=1.00D-06
 Number of steps in this run=    114 maximum allowed number of steps=    114.
 GradGradGradGradGradGradGradGradGradGradGradGradGradGradGradGradGradGrad

                          Input orientation:                          
 ---------------------------------------------------------------------
 Center     Atomic      Atomic             Coordinates (Angstroms)
 Number     Number       Type             X           Y           Z
 ---------------------------------------------------------------------
      1          6           0        1.529715   -0.112250    0.206902
      2          8           0        0.172665   -0.379268    0.580340
      3          6           0       -0.492748    0.662232    1.123959
      4          8           0       -0.001762    1.752665    1.280658
      5          6           0       -1.887732    0.239425    1.525152
      6          6           0       -2.803833    1.426428    1.959304
      7          6           0       -2.860191    0.858004    3.381910
      8          6           0       -3.380373   -0.551399    3.358811
      9          6           0       -1.950036   -0.298953    2.972716
     10          1           0        2.116833    0.196236    1.075755
     11          1           0        1.914901   -1.046388   -0.202327
     12          1           0        1.574259    0.681188   -0.543550
     13          1           0       -2.277106   -0.452480    0.772915
     14          1           0       -2.253425    2.365775    1.894618
     15          1           0       -3.759769    1.520192    1.434600
     16          1           0       -2.843592    1.446308    4.290724
     17          1           0       -3.517208   -1.016237    4.330200
     18          1           0       -4.107143   -0.861155    2.610413
     19          1           0       -1.119348   -0.750629    3.501001
 ---------------------------------------------------------------------
                    Distance matrix (angstroms):
                    1          2          3          4          5
     1  C    0.000000
     2  O    1.432599   0.000000
     3  C    2.351844   1.350192   0.000000
     4  O    2.641265   2.250780   1.206095   0.000000
     5  C    3.679728   2.349614   1.511853   2.430340   0.000000
     6  C    4.921186   3.744545   2.573501   2.901480   1.560995
     7  C    5.503939   4.310204   3.277416   3.658729   2.185377
     8  C    5.851183   4.513713   3.847836   4.587204   2.493128
     9  C    4.448961   3.199340   2.542728   3.296660   1.545696
    10  H    1.093059   2.087207   2.651300   2.636836   4.029933
    11  H    1.090161   2.023117   3.236540   3.702369   4.370070
    12  H    1.093026   2.086183   2.655836   2.638113   4.057100
    13  H    3.863679   2.458419   2.133014   3.208996   1.093711
    14  H    4.827125   3.892107   2.568259   2.413055   2.188972
    15  H    5.670163   4.449916   3.392053   3.768336   2.270042
    16  H    6.183245   5.118348   4.021149   4.150946   3.165221
    17  H    6.579530   5.299278   4.716418   5.415246   3.478531
    18  H    6.173482   4.761319   4.194532   5.045241   2.704599
    19  H    4.275061   3.215193   2.835336   3.527804   2.339786
                    6          7          8          9         10
     6  C    0.000000
     7  C    1.533001   0.000000
     8  C    2.490546   1.502511   0.000000
     9  C    2.175526   1.527865   1.502884   0.000000
    10  H    5.148493   5.525130   5.999214   4.514765   0.000000
    11  H    5.749253   6.266975   6.400519   5.057400   1.793986
    12  H    5.097778   5.924935   6.426201   5.073998   1.775307
    13  H    2.283693   2.977283   2.813154   2.229275   4.451881
    14  H    1.090644   2.203083   3.453082   2.890521   4.947382
    15  H    1.094496   2.244939   2.852721   2.991692   6.034574
    16  H    2.331844   1.082737   2.268794   2.362525   6.041897
    17  H    3.478027   2.200842   1.085540   2.193921   6.618453
    18  H    2.712121   2.259559   1.088229   2.258416   6.497009
    19  H    3.154980   2.373272   2.274234   1.083115   4.153461
                   11         12         13         14         15
    11  H    0.000000
    12  H    1.793596   0.000000
    13  H    4.344738   4.225079   0.000000
    14  H    5.780568   4.840833   3.033370   0.000000
    15  H    6.439623   5.750553   2.554907   1.787652   0.000000
    16  H    7.003163   6.593408   4.037484   2.633447   3.000380
    17  H    7.074781   7.249671   3.809193   4.355136   3.857047
    18  H    6.649122   6.678669   2.625347   3.789685   2.678436
    19  H    4.796747   5.065966   2.978548   3.684911   4.049502
                   16         17         18         19
    16  H    0.000000
    17  H    2.553320   0.000000
    18  H    3.121601   1.824758   0.000000
    19  H    2.902277   2.551049   3.119660   0.000000
 Stoichiometry    C7H10O2
 Framework group  C1[X(C7H10O2)]
 Deg. of freedom    51
 Full point group                 C1      NOp   1
 Largest Abelian subgroup         C1      NOp   1
 Largest concise Abelian subgroup C1      NOp   1
                         Standard orientation:                         
 ---------------------------------------------------------------------
 Center     Atomic      Atomic             Coordinates (Angstroms)
 Number     Number       Type             X           Y           Z
 ---------------------------------------------------------------------
      1          6           0       -3.179002   -0.503724   -0.131667
      2          8           0       -1.843794   -0.704469    0.347142
      3          6           0       -0.980312    0.301149    0.089942
      4          8           0       -1.294035    1.311623   -0.489010
      5          6           0        0.400572   -0.053930    0.592714
      6          6           0        1.413710    1.132347    0.537910
      7          6           0        2.241999    0.372194   -0.504297
      8          6           0        2.651256   -0.969463    0.034225
      9          6           0        1.247852   -0.787540   -0.471761
     10          1           0       -3.185799   -0.374808   -1.217076
     11          1           0       -3.733792   -1.398823    0.150214
     12          1           0       -3.624245    0.382623    0.327520
     13          1           0        0.303842   -0.594560    1.538530
     14          1           0        0.926911    2.020612    0.133540
     15          1           0        1.921343    1.382101    1.474849
     16          1           0        2.735090    0.820089   -1.357861
     17          1           0        3.298177   -1.555713   -0.610909
     18          1           0        2.840988   -1.104994    1.097181
     19          1           0        0.843659   -1.379948   -1.283439
 ---------------------------------------------------------------------
 Rotational constants (GHZ):      4.1739102      1.0037734      0.8974746
 Standard basis: 6-31G(2df,p) (6D, 7F)
 There are   329 symmetry adapted cartesian basis functions of A   symmetry.
 There are   302 symmetry adapted basis functions of A   symmetry.
   302 basis functions,   466 primitive gaussians,   329 cartesian basis functions
    34 alpha electrons       34 beta electrons
       nuclear repulsion energy       453.4483208532 Hartrees.
 NAtoms=   19 NActive=   19 NUniq=   19 SFac= 1.00D+00 NAtFMM=   60 NAOKFM=F Big=F
 Integral buffers will be    131072 words long.
 Raffenetti 2 integral format.
 Two-electron integral symmetry is turned on.
 One-electron integrals computed using PRISM.
 NBasis=   302 RedAO= T EigKep=  3.86D-04  NBF=   302
 NBsUse=   302 1.00D-06 EigRej= -1.00D+00 NBFU=   302
 ExpMin= 1.61D-01 ExpMax= 5.48D+03 ExpMxC= 8.25D+02 IAcc=1 IRadAn=         1 AccDes= 0.00D+00
 Harris functional with IExCor=  402 and IRadAn=       1 diagonalized for initial guess.
 HarFok:  IExCor=  402 AccDes= 0.00D+00 IRadAn=         1 IDoV= 1 UseB2=F ITyADJ=14
 ICtDFT=  3500011 ScaDFX=  1.000000  1.000000  1.000000  1.000000
 FoFCou: FMM=F IPFlag=           0 FMFlag=      100000 FMFlg1=           0
         NFxFlg=           0 DoJE=T BraDBF=F KetDBF=T FulRan=T
         wScrn=  0.000000 ICntrl=     500 IOpCl=  0 I1Cent=   200000004 NGrid=           0
         NMat0=    1 NMatS0=      1 NMatT0=    0 NMatD0=    1 NMtDS0=    0 NMtDT0=    0
 Petite list used in FoFCou.
 Requested convergence on RMS density matrix=1.00D-08 within 128 cycles.
 Requested convergence on MAX density matrix=1.00D-06.
 Requested convergence on             energy=1.00D-06.
 No special actions if energy rises.
 Integral accuracy reduced to 1.0D-05 until final iterations.
 Initial convergence to 1.0D-05 achieved.  Increase integral accuracy.
 SCF Done:  E(RB3LYP) =  -423.187498695     A.U. after   14 cycles
            NFock= 14  Conv=0.52D-08     -V/T= 2.0075

 **********************************************************************

            Population analysis using the SCF density.

 **********************************************************************

 Orbital symmetries:
       Occupied  (A) (A) (A) (A) (A) (A) (A) (A) (A) (A) (A) (A)
                 (A) (A) (A) (A) (A) (A) (A) (A) (A) (A) (A) (A)
                 (A) (A) (A) (A) (A) (A) (A) (A) (A) (A)
       Virtual   (A) (A) (A) (A) (A) (A) (A) (A) (A) (A) (A) (A)
                 (A) (A) (A) (A) (A) (A) (A) (A) (A) (A) (A) (A)
                 (A) (A) (A) (A) (A) (A) (A) (A) (A) (A) (A) (A)
                 (A) (A) (A) (A) (A) (A) (A) (A) (A) (A) (A) (A)
                 (A) (A) (A) (A) (A) (A) (A) (A) (A) (A) (A) (A)
                 (A) (A) (A) (A) (A) (A) (A) (A) (A) (A) (A) (A)
                 (A) (A) (A) (A) (A) (A) (A) (A) (A) (A) (A) (A)
                 (A) (A) (A) (A) (A) (A) (A) (A) (A) (A) (A) (A)
                 (A) (A) (A) (A) (A) (A) (A) (A) (A) (A) (A) (A)
                 (A) (A) (A) (A) (A) (A) (A) (A) (A) (A) (A) (A)
                 (A) (A) (A) (A) (A) (A) (A) (A) (A) (A) (A) (A)
                 (A) (A) (A) (A) (A) (A) (A) (A) (A) (A) (A) (A)
                 (A) (A) (A) (A) (A) (A) (A) (A) (A) (A) (A) (A)
                 (A) (A) (A) (A) (A) (A) (A) (A) (A) (A) (A) (A)
                 (A) (A) (A) (A) (A) (A) (A) (A) (A) (A) (A) (A)
                 (A) (A) (A) (A) (A) (A) (A) (A) (A) (A) (A) (A)
                 (A) (A) (A) (A) (A) (A) (A) (A) (A) (A) (A) (A)
                 (A) (A) (A) (A) (A) (A) (A) (A) (A) (A) (A) (A)
                 (A) (A) (A) (A) (A) (A) (A) (A) (A) (A) (A) (A)
                 (A) (A) (A) (A) (A) (A) (A) (A) (A) (A) (A) (A)
                 (A) (A) (A) (A) (A) (A) (A) (A) (A) (A) (A) (A)
                 (A) (A) (A) (A) (A) (A) (A) (A) (A) (A) (A) (A)
                 (A) (A) (A) (A)
 The electronic state is 1-A.
 Alpha  occ. eigenvalues --  -19.18061 -19.12288 -10.29973 -10.23566 -10.19967
 Alpha  occ. eigenvalues --  -10.19836 -10.19243 -10.18823 -10.18304  -1.09842
 Alpha  occ. eigenvalues --   -1.01013  -0.89785  -0.75968  -0.71651  -0.66032
 Alpha  occ. eigenvalues --   -0.59244  -0.57055  -0.53169  -0.52176  -0.48435
 Alpha  occ. eigenvalues --   -0.47592  -0.46211  -0.44922  -0.43451  -0.39639
 Alpha  occ. eigenvalues --   -0.39239  -0.37335  -0.35412  -0.33471  -0.32427
 Alpha  occ. eigenvalues --   -0.29989  -0.29262  -0.26883  -0.26018
 Alpha virt. eigenvalues --    0.01365   0.09770   0.10779   0.11107   0.11876
 Alpha virt. eigenvalues --    0.13120   0.13916   0.15113   0.15804   0.16569
 Alpha virt. eigenvalues --    0.17137   0.17730   0.18815   0.21018   0.22084
 Alpha virt. eigenvalues --    0.24238   0.25845   0.28190   0.31391   0.33517
 Alpha virt. eigenvalues --    0.34512   0.42590   0.43368   0.44682   0.46443
 Alpha virt. eigenvalues --    0.49354   0.49935   0.50805   0.53354   0.53705
 Alpha virt. eigenvalues --    0.54708   0.56073   0.56589   0.57180   0.58661
 Alpha virt. eigenvalues --    0.60326   0.60640   0.62829   0.64404   0.65905
 Alpha virt. eigenvalues --    0.67682   0.71186   0.71487   0.72648   0.74520
 Alpha virt. eigenvalues --    0.75809   0.76294   0.77364   0.77930   0.78254
 Alpha virt. eigenvalues --    0.80344   0.81154   0.82906   0.85756   0.88022
 Alpha virt. eigenvalues --    0.88787   0.91237   0.91786   0.95725   0.96676
 Alpha virt. eigenvalues --    0.99371   1.02785   1.04385   1.05002   1.06997
 Alpha virt. eigenvalues --    1.08088   1.11242   1.13148   1.18241   1.19761
 Alpha virt. eigenvalues --    1.22547   1.22775   1.23629   1.26450   1.28654
 Alpha virt. eigenvalues --    1.33193   1.35453   1.37639   1.37927   1.40123
 Alpha virt. eigenvalues --    1.40859   1.43695   1.45195   1.46057   1.49132
 Alpha virt. eigenvalues --    1.50532   1.51160   1.53295   1.56438   1.58775
 Alpha virt. eigenvalues --    1.60224   1.62748   1.63635   1.64625   1.66596
 Alpha virt. eigenvalues --    1.70477   1.71708   1.74082   1.75603   1.77058
 Alpha virt. eigenvalues --    1.78300   1.83434   1.85387   1.86948   1.88013
 Alpha virt. eigenvalues --    1.92845   1.93912   2.01136   2.05720   2.12686
 Alpha virt. eigenvalues --    2.14873   2.17285   2.20150   2.23125   2.27571
 Alpha virt. eigenvalues --    2.30228   2.31792   2.34970   2.38177   2.40480
 Alpha virt. eigenvalues --    2.42109   2.42847   2.48566   2.51378   2.54835
 Alpha virt. eigenvalues --    2.62957   2.66762   2.69772   2.73224   2.74623
 Alpha virt. eigenvalues --    2.76840   2.78595   2.81312   2.81511   2.82705
 Alpha virt. eigenvalues --    2.87078   2.87583   2.88364   2.90934   2.92607
 Alpha virt. eigenvalues --    2.93405   2.96849   2.98441   3.01435   3.05077
 Alpha virt. eigenvalues --    3.05847   3.09372   3.10359   3.10999   3.13263
 Alpha virt. eigenvalues --    3.16387   3.16951   3.18181   3.20577   3.22035
 Alpha virt. eigenvalues --    3.25067   3.26550   3.29821   3.33903   3.34937
 Alpha virt. eigenvalues --    3.38944   3.40498   3.42630   3.45691   3.47740
 Alpha virt. eigenvalues --    3.49059   3.50803   3.52291   3.55312   3.58941
 Alpha virt. eigenvalues --    3.62183   3.65487   3.69513   3.72608   3.77131
 Alpha virt. eigenvalues --    3.80047   3.84980   3.87423   3.93279   3.95055
 Alpha virt. eigenvalues --    3.99189   4.01948   4.06324   4.12060   4.14569
 Alpha virt. eigenvalues --    4.17843   4.20363   4.21376   4.23312   4.24993
 Alpha virt. eigenvalues --    4.27432   4.28291   4.30522   4.32013   4.35771
 Alpha virt. eigenvalues --    4.36212   4.39956   4.40409   4.41375   4.44234
 Alpha virt. eigenvalues --    4.45950   4.47177   4.49036   4.52055   4.55291
 Alpha virt. eigenvalues --    4.55783   4.58308   4.58870   4.60785   4.66032
 Alpha virt. eigenvalues --    4.67770   4.70014   4.71440   4.73077   4.74730
 Alpha virt. eigenvalues --    4.76309   4.78781   4.78906   4.82205   4.83809
 Alpha virt. eigenvalues --    4.85412   4.87108   4.89904   4.91294   4.94596
 Alpha virt. eigenvalues --    5.04651   5.06005   5.06816   5.08454   5.10666
 Alpha virt. eigenvalues --    5.12228   5.13885   5.15609   5.20196   5.29418
 Alpha virt. eigenvalues --    5.30372   5.33272   5.40427   5.41353   5.43993
 Alpha virt. eigenvalues --    5.51566   5.54135   5.56385   5.60187   5.64218
 Alpha virt. eigenvalues --    5.71606   5.74240   5.83121   5.89702   5.92678
 Alpha virt. eigenvalues --    5.94895   6.10987   6.14831   6.31132   6.45356
 Alpha virt. eigenvalues --    6.69754   6.76320   7.09321   7.21164  10.56796
 Alpha virt. eigenvalues --   11.26541  11.38068  11.75387  11.92988  12.14096
 Alpha virt. eigenvalues --   12.86979  13.08992  13.54517
          Condensed to atoms (all electrons):
               1          2          3          4          5          6
     1  C    4.835817   0.323688  -0.064748   0.002176   0.007652  -0.000246
     2  O    0.323688   7.686440   0.409802  -0.060335  -0.054430   0.000908
     3  C   -0.064748   0.409802   4.181681   0.736289   0.352936  -0.009392
     4  O    0.002176  -0.060335   0.736289   7.703399  -0.043091  -0.011098
     5  C    0.007652  -0.054430   0.352936  -0.043091   4.993377   0.313707
     6  C   -0.000246   0.000908  -0.009392  -0.011098   0.313707   5.027352
     7  C    0.000006   0.000214  -0.002255   0.000006  -0.037362   0.370434
     8  C    0.000004   0.000057   0.000817   0.000081  -0.006986  -0.013265
     9  C   -0.000080  -0.000436  -0.007705  -0.001014   0.356723  -0.050656
    10  H    0.377160  -0.026586  -0.000683   0.006383   0.000389   0.000013
    11  H    0.379460  -0.020451   0.003894   0.000729  -0.000102   0.000000
    12  H    0.378793  -0.026601  -0.001181   0.006148   0.000079   0.000021
    13  H   -0.000199   0.002588  -0.028717   0.002277   0.342166  -0.037394
    14  H   -0.000048   0.000330  -0.006890   0.018518  -0.031428   0.358752
    15  H    0.000001  -0.000004   0.002257   0.000357  -0.019564   0.344861
    16  H    0.000000   0.000001   0.000807  -0.000084   0.008448  -0.045133
    17  H    0.000000   0.000000  -0.000083   0.000001   0.002008   0.003237
    18  H    0.000000  -0.000001   0.000470  -0.000003  -0.008107  -0.008788
    19  H   -0.000092   0.000531   0.000223  -0.000052  -0.052623   0.012844
               7          8          9         10         11         12
     1  C    0.000006   0.000004  -0.000080   0.377160   0.379460   0.378793
     2  O    0.000214   0.000057  -0.000436  -0.026586  -0.020451  -0.026601
     3  C   -0.002255   0.000817  -0.007705  -0.000683   0.003894  -0.001181
     4  O    0.000006   0.000081  -0.001014   0.006383   0.000729   0.006148
     5  C   -0.037362  -0.006986   0.356723   0.000389  -0.000102   0.000079
     6  C    0.370434  -0.013265  -0.050656   0.000013   0.000000   0.000021
     7  C    4.768302   0.346956   0.313633  -0.000007   0.000000   0.000002
     8  C    0.346956   4.976684   0.326879   0.000000   0.000000   0.000000
     9  C    0.313633   0.326879   4.799336   0.000009  -0.000005  -0.000004
    10  H   -0.000007   0.000000   0.000009   0.576811  -0.032933  -0.039712
    11  H    0.000000   0.000000  -0.000005  -0.032933   0.570439  -0.032868
    12  H    0.000002   0.000000  -0.000004  -0.039712  -0.032868   0.575120
    13  H    0.003278  -0.005462  -0.029302   0.000015  -0.000037  -0.000024
    14  H   -0.022021   0.003196   0.004934  -0.000004   0.000000  -0.000006
    15  H   -0.024560  -0.008505   0.003951   0.000000   0.000000   0.000000
    16  H    0.385340  -0.039967  -0.031312   0.000000   0.000000   0.000000
    17  H   -0.018641   0.371332  -0.013746   0.000000   0.000000   0.000000
    18  H   -0.021692   0.371893  -0.020760   0.000000   0.000000   0.000000
    19  H   -0.035268  -0.037168   0.384138   0.000006   0.000001   0.000002
              13         14         15         16         17         18
     1  C   -0.000199  -0.000048   0.000001   0.000000   0.000000   0.000000
     2  O    0.002588   0.000330  -0.000004   0.000001   0.000000  -0.000001
     3  C   -0.028717  -0.006890   0.002257   0.000807  -0.000083   0.000470
     4  O    0.002277   0.018518   0.000357  -0.000084   0.000001  -0.000003
     5  C    0.342166  -0.031428  -0.019564   0.008448   0.002008  -0.008107
     6  C   -0.037394   0.358752   0.344861  -0.045133   0.003237  -0.008788
     7  C    0.003278  -0.022021  -0.024560   0.385340  -0.018641  -0.021692
     8  C   -0.005462   0.003196  -0.008505  -0.039967   0.371332   0.371893
     9  C   -0.029302   0.004934   0.003951  -0.031312  -0.013746  -0.020760
    10  H    0.000015  -0.000004   0.000000   0.000000   0.000000   0.000000
    11  H   -0.000037   0.000000   0.000000   0.000000   0.000000   0.000000
    12  H   -0.000024  -0.000006   0.000000   0.000000   0.000000   0.000000
    13  H    0.653299   0.003706  -0.002750  -0.000505   0.000138   0.004006
    14  H    0.003706   0.575533  -0.035996  -0.003960  -0.000096   0.000012
    15  H   -0.002750  -0.035996   0.639697   0.002532   0.000126   0.004831
    16  H   -0.000505  -0.003960   0.002532   0.641568  -0.004469   0.001771
    17  H    0.000138  -0.000096   0.000126  -0.004469   0.590072  -0.039198
    18  H    0.004006   0.000012   0.004831   0.001771  -0.039198   0.608664
    19  H    0.001859  -0.000051  -0.000464  -0.003625  -0.003794   0.001625
              19
     1  C   -0.000092
     2  O    0.000531
     3  C    0.000223
     4  O   -0.000052
     5  C   -0.052623
     6  C    0.012844
     7  C   -0.035268
     8  C   -0.037168
     9  C    0.384138
    10  H    0.000006
    11  H    0.000001
    12  H    0.000002
    13  H    0.001859
    14  H   -0.000051
    15  H   -0.000464
    16  H   -0.003625
    17  H   -0.003794
    18  H    0.001625
    19  H    0.639231
 Mulliken charges:
               1
     1  C   -0.239344
     2  O   -0.235714
     3  C    0.432479
     4  O   -0.360686
     5  C   -0.123792
     6  C   -0.256158
     7  C   -0.026366
     8  C   -0.286545
     9  C   -0.034583
    10  H    0.139140
    11  H    0.131873
    12  H    0.140231
    13  H    0.091059
    14  H    0.135519
    15  H    0.093232
    16  H    0.088588
    17  H    0.113113
    18  H    0.105279
    19  H    0.092677
 Sum of Mulliken charges =   0.00000
 Mulliken charges with hydrogens summed into heavy atoms:
               1
     1  C    0.171900
     2  O   -0.235714
     3  C    0.432479
     4  O   -0.360686
     5  C   -0.032733
     6  C   -0.027408
     7  C    0.062222
     8  C   -0.068153
     9  C    0.058094
 Electronic spatial extent (au):  <R**2>=           1343.9561
 Charge=              0.0000 electrons
 Dipole moment (field-independent basis, Debye):
    X=             -0.0039    Y=             -1.4747    Z=              0.3023  Tot=              1.5053
 Quadrupole moment (field-independent basis, Debye-Ang):
   XX=            -46.7201   YY=            -56.1950   ZZ=            -51.8338
   XY=              2.3510   XZ=             -0.8332   YZ=              2.3741
 Traceless Quadrupole moment (field-independent basis, Debye-Ang):
   XX=              4.8629   YY=             -4.6120   ZZ=             -0.2509
   XY=              2.3510   XZ=             -0.8332   YZ=              2.3741
 Octapole moment (field-independent basis, Debye-Ang**2):
  XXX=            -41.4622  YYY=             -0.8040  ZZZ=             -0.6635  XYY=             -0.5502
  XXY=             -8.3446  XXZ=             -3.3497  XZZ=             -2.1397  YZZ=             -1.0182
  YYZ=              0.2539  XYZ=             -2.8728
 Hexadecapole moment (field-independent basis, Debye-Ang**3):
 XXXX=          -1235.2224 YYYY=           -294.7749 ZZZZ=           -141.8703 XXXY=              9.0251
 XXXZ=             -9.8325 YYYX=              9.6845 YYYZ=              0.4703 ZZZX=              2.2521
 ZZZY=             -2.6180 XXYY=           -263.2446 XXZZ=           -234.9600 YYZZ=            -70.8860
 XXYZ=              4.1486 YYXZ=             -6.3840 ZZXY=             -0.2835
 N-N= 4.534483208532D+02 E-N=-1.893496480723D+03  KE= 4.200307559609D+02
 Calling FoFJK, ICntrl=      2127 FMM=F ISym2X=0 I1Cent= 0 IOpClX= 0 NMat=1 NMatS=1 NMatT=0.
 ***** Axes restored to original set *****
 -------------------------------------------------------------------
 Center     Atomic                   Forces (Hartrees/Bohr)
 Number     Number              X              Y              Z
 -------------------------------------------------------------------
      1        6           0.000003527    0.000013149   -0.000004436
      2        8           0.000001876   -0.000005616    0.000009054
      3        6          -0.000002667    0.000019818   -0.000001662
      4        8          -0.000000083   -0.000000086    0.000001822
      5        6          -0.000009545    0.000005917   -0.000012699
      6        6          -0.000007039   -0.000009013    0.000003881
      7        6          -0.000004795   -0.000007304   -0.000010041
      8        6           0.000012872    0.000004902   -0.000010248
      9        6           0.000001934   -0.000008862    0.000008686
     10        1           0.000003364    0.000006845    0.000003160
     11        1           0.000004353    0.000011522    0.000000765
     12        1           0.000000543    0.000011206    0.000006079
     13        1           0.000004645   -0.000004224   -0.000000004
     14        1          -0.000002763   -0.000004527    0.000003761
     15        1          -0.000001401   -0.000005249   -0.000000055
     16        1          -0.000004398   -0.000008319    0.000003976
     17        1          -0.000002165   -0.000007616   -0.000001675
     18        1          -0.000001475   -0.000012655    0.000001130
     19        1           0.000003216    0.000000113   -0.000001491
 -------------------------------------------------------------------
 Cartesian Forces:  Max     0.000019818 RMS     0.000006794

 GradGradGradGradGradGradGradGradGradGradGradGradGradGradGradGradGradGrad
 Berny optimization.
 FormGI is forming the generalized inverse of G from B-inverse, IUseBI=4.
 Internal  Forces:  Max     0.000009206 RMS     0.000002394
 Search for a local minimum.
 Step number   1 out of a maximum of  114
 All quantities printed in internal units (Hartrees-Bohrs-Radians)
 Mixed Optimization -- En-DIIS/RFO-DIIS
 Second derivative matrix not updated -- first step.
 ITU=  0
     Eigenvalues ---    0.00545   0.00609   0.01023   0.01261   0.01651
     Eigenvalues ---    0.01694   0.02351   0.03082   0.03221   0.03352
     Eigenvalues ---    0.03962   0.04260   0.04882   0.05421   0.05786
     Eigenvalues ---    0.06111   0.06701   0.08562   0.09328   0.10169
     Eigenvalues ---    0.10171   0.10605   0.11033   0.16000   0.16000
     Eigenvalues ---    0.16000   0.16377   0.17509   0.21322   0.22379
     Eigenvalues ---    0.24993   0.25000   0.25000   0.25858   0.26260
     Eigenvalues ---    0.28666   0.31082   0.31165   0.34298   0.34387
     Eigenvalues ---    0.34461   0.34465   0.34738   0.34794   0.35018
     Eigenvalues ---    0.35333   0.35621   0.35666   0.40618   0.54980
     Eigenvalues ---    1.01819
 RFO step:  Lambda=-1.17669355D-08 EMin= 5.45118398D-03
 Linear search not attempted -- first point.
 Iteration  1 RMS(Cart)=  0.00015904 RMS(Int)=  0.00000001
 Iteration  2 RMS(Cart)=  0.00000002 RMS(Int)=  0.00000000
 Variable       Old X    -DE/DX   Delta X   Delta X   Delta X     New X
                                 (Linear)    (Quad)   (Total)
    R1        2.70722   0.00000   0.00000   0.00001   0.00001   2.70723
    R2        2.06558   0.00000   0.00000   0.00000   0.00000   2.06559
    R3        2.06010   0.00000   0.00000   0.00000   0.00000   2.06010
    R4        2.06552   0.00000   0.00000   0.00000   0.00000   2.06551
    R5        2.55149   0.00000   0.00000   0.00001   0.00001   2.55150
    R6        2.27919   0.00000   0.00000   0.00000   0.00000   2.27919
    R7        2.85699   0.00000   0.00000   0.00001   0.00001   2.85700
    R8        2.94985   0.00000   0.00000  -0.00001  -0.00001   2.94984
    R9        2.92094   0.00000   0.00000   0.00002   0.00002   2.92096
   R10        2.06681   0.00000   0.00000   0.00000   0.00000   2.06682
   R11        2.89695   0.00000   0.00000  -0.00002  -0.00002   2.89694
   R12        2.06102   0.00000   0.00000   0.00000   0.00000   2.06102
   R13        2.06830   0.00000   0.00000   0.00000   0.00000   2.06829
   R14        2.83933  -0.00001   0.00000  -0.00002  -0.00002   2.83931
   R15        2.88725   0.00000   0.00000   0.00000   0.00000   2.88725
   R16        2.04608   0.00000   0.00000   0.00001   0.00001   2.04608
   R17        2.84004   0.00000   0.00000  -0.00001  -0.00001   2.84003
   R18        2.05137   0.00000   0.00000   0.00000   0.00000   2.05138
   R19        2.05646   0.00000   0.00000   0.00000   0.00000   2.05646
   R20        2.04679   0.00000   0.00000   0.00000   0.00000   2.04679
    A1        1.93286   0.00000   0.00000   0.00001   0.00001   1.93287
    A2        1.84714   0.00000   0.00000  -0.00001  -0.00001   1.84713
    A3        1.93144   0.00000   0.00000   0.00000   0.00000   1.93144
    A4        1.92883   0.00000   0.00000  -0.00002  -0.00002   1.92881
    A5        1.89546   0.00000   0.00000   0.00000   0.00000   1.89546
    A6        1.92825   0.00000   0.00000   0.00001   0.00001   1.92826
    A7        2.01309   0.00000   0.00000  -0.00001  -0.00001   2.01308
    A8        2.15207   0.00000   0.00000  -0.00001  -0.00001   2.15206
    A9        1.92394  -0.00001   0.00000  -0.00004  -0.00004   1.92391
   A10        2.20680   0.00001   0.00000   0.00003   0.00003   2.20683
   A11        1.98521   0.00000   0.00000   0.00002   0.00002   1.98523
   A12        1.96397   0.00000   0.00000  -0.00005  -0.00005   1.96392
   A13        1.89959   0.00000   0.00000   0.00000   0.00000   1.89959
   A14        1.55153   0.00000   0.00000   0.00000   0.00000   1.55153
   A15        2.05264   0.00000   0.00000   0.00004   0.00004   2.05268
   A16        1.99261   0.00000   0.00000  -0.00002  -0.00002   1.99259
   A17        1.56851   0.00000   0.00000   0.00001   0.00001   1.56852
   A18        1.92012   0.00000   0.00000  -0.00003  -0.00003   1.92009
   A19        2.03128   0.00000   0.00000   0.00001   0.00001   2.03130
   A20        1.97463   0.00000   0.00000  -0.00003  -0.00003   1.97460
   A21        2.03145   0.00000   0.00000   0.00002   0.00002   2.03147
   A22        1.91618   0.00000   0.00000   0.00001   0.00001   1.91619
   A23        1.92439   0.00000   0.00000   0.00002   0.00002   1.92442
   A24        1.58114   0.00000   0.00000   0.00000   0.00000   1.58114
   A25        2.18571   0.00000   0.00000   0.00001   0.00001   2.18572
   A26        2.12691   0.00000   0.00000  -0.00003  -0.00003   2.12689
   A27        2.24864   0.00000   0.00000  -0.00002  -0.00002   2.24862
   A28        2.01701   0.00000   0.00000  -0.00003  -0.00003   2.01698
   A29        2.10458   0.00000   0.00000   0.00003   0.00003   2.10461
   A30        2.00621   0.00000   0.00000   0.00002   0.00002   2.00623
   A31        2.10220   0.00000   0.00000   0.00003   0.00003   2.10223
   A32        1.99252   0.00000   0.00000  -0.00004  -0.00004   1.99248
   A33        1.58187   0.00000   0.00000  -0.00001  -0.00001   1.58186
   A34        1.91502   0.00000   0.00000   0.00000   0.00000   1.91501
   A35        2.17866   0.00000   0.00000   0.00000   0.00000   2.17866
   A36        2.26793   0.00000   0.00000  -0.00001  -0.00001   2.26792
   A37        2.13480   0.00000   0.00000   0.00002   0.00002   2.13481
    D1        1.04441   0.00001   0.00000   0.00039   0.00039   1.04480
    D2        3.13525   0.00000   0.00000   0.00038   0.00038   3.13563
    D3       -1.05856   0.00000   0.00000   0.00039   0.00039  -1.05818
    D4        0.01244   0.00000   0.00000  -0.00010  -0.00010   0.01234
    D5       -3.10121   0.00000   0.00000   0.00016   0.00016  -3.10105
    D6       -2.98615   0.00000   0.00000  -0.00025  -0.00025  -2.98640
    D7        1.56589   0.00000   0.00000  -0.00024  -0.00024   1.56566
    D8       -0.66075   0.00000   0.00000  -0.00017  -0.00017  -0.66093
    D9        0.18447   0.00000   0.00000   0.00001   0.00001   0.18449
   D10       -1.54667   0.00000   0.00000   0.00003   0.00003  -1.54664
   D11        2.50987   0.00000   0.00000   0.00010   0.00010   2.50996
   D12       -2.00466   0.00000   0.00000   0.00003   0.00003  -2.00462
   D13       -0.00331   0.00000   0.00000   0.00000   0.00000  -0.00331
   D14        2.18979   0.00000   0.00000   0.00000   0.00000   2.18979
   D15       -0.01124   0.00000   0.00000  -0.00002  -0.00002  -0.01127
   D16        1.99011   0.00000   0.00000  -0.00005  -0.00005   1.99005
   D17       -2.09998   0.00000   0.00000  -0.00005  -0.00005  -2.10003
   D18        2.02860   0.00000   0.00000  -0.00004  -0.00004   2.02856
   D19       -2.25324   0.00000   0.00000  -0.00007  -0.00007  -2.25331
   D20       -0.06014   0.00000   0.00000  -0.00007  -0.00007  -0.06021
   D21        2.02436   0.00000   0.00000   0.00003   0.00003   2.02439
   D22        3.02910   0.00000   0.00000   0.00002   0.00002   3.02912
   D23       -0.45705   0.00000   0.00000   0.00006   0.00006  -0.45699
   D24        0.01128   0.00000   0.00000   0.00002   0.00002   0.01130
   D25        1.01602   0.00000   0.00000   0.00001   0.00001   1.01603
   D26       -2.47013   0.00000   0.00000   0.00005   0.00005  -2.47008
   D27       -2.08240   0.00000   0.00000  -0.00002  -0.00002  -2.08242
   D28       -1.07766   0.00000   0.00000  -0.00003  -0.00003  -1.07769
   D29        1.71938   0.00000   0.00000   0.00001   0.00001   1.71939
   D30       -0.99146   0.00000   0.00000   0.00003   0.00003  -0.99143
   D31        0.01137   0.00000   0.00000   0.00002   0.00002   0.01140
   D32        2.46903   0.00000   0.00000   0.00000   0.00000   2.46903
   D33       -2.94258   0.00000   0.00000   0.00006   0.00006  -2.94253
   D34       -1.93975   0.00000   0.00000   0.00005   0.00005  -1.93970
   D35        0.51791   0.00000   0.00000   0.00003   0.00003   0.51794
   D36        1.09713   0.00000   0.00000   0.00005   0.00005   1.09718
   D37        2.09996   0.00000   0.00000   0.00005   0.00005   2.10001
   D38       -1.72556   0.00000   0.00000   0.00003   0.00003  -1.72554
   D39       -3.07461   0.00000   0.00000   0.00003   0.00003  -3.07458
   D40       -0.55997   0.00000   0.00000  -0.00004  -0.00004  -0.56001
   D41       -0.23931   0.00000   0.00000   0.00006   0.00006  -0.23925
   D42        2.27534   0.00000   0.00000  -0.00002  -0.00002   2.27532
   D43       -0.01149   0.00000   0.00000  -0.00002  -0.00002  -0.01151
   D44        2.41380   0.00000   0.00000  -0.00005  -0.00005   2.41375
   D45       -2.42881   0.00000   0.00000  -0.00002  -0.00002  -2.42884
   D46       -0.00352   0.00000   0.00000  -0.00005  -0.00005  -0.00357
   D47        3.04996   0.00000   0.00000   0.00006   0.00006   3.05002
   D48        0.24264   0.00000   0.00000   0.00003   0.00003   0.24267
   D49        0.55667   0.00000   0.00000   0.00005   0.00005   0.55671
   D50       -2.25065   0.00000   0.00000   0.00001   0.00001  -2.25064
         Item               Value     Threshold  Converged?
 Maximum Force            0.000009     0.000450     YES
 RMS     Force            0.000002     0.000300     YES
 Maximum Displacement     0.000672     0.001800     YES
 RMS     Displacement     0.000159     0.001200     YES
 Predicted change in Energy=-5.883476D-09
 Optimization completed.
    -- Stationary point found.
                           ----------------------------
                           !   Optimized Parameters   !
                           ! (Angstroms and Degrees)  !
 --------------------------                            --------------------------
 ! Name  Definition              Value          Derivative Info.                !
 --------------------------------------------------------------------------------
 ! R1    R(1,2)                  1.4326         -DE/DX =    0.0                 !
 ! R2    R(1,10)                 1.0931         -DE/DX =    0.0                 !
 ! R3    R(1,11)                 1.0902         -DE/DX =    0.0                 !
 ! R4    R(1,12)                 1.093          -DE/DX =    0.0                 !
 ! R5    R(2,3)                  1.3502         -DE/DX =    0.0                 !
 ! R6    R(3,4)                  1.2061         -DE/DX =    0.0                 !
 ! R7    R(3,5)                  1.5119         -DE/DX =    0.0                 !
 ! R8    R(5,6)                  1.561          -DE/DX =    0.0                 !
 ! R9    R(5,9)                  1.5457         -DE/DX =    0.0                 !
 ! R10   R(5,13)                 1.0937         -DE/DX =    0.0                 !
 ! R11   R(6,7)                  1.533          -DE/DX =    0.0                 !
 ! R12   R(6,14)                 1.0906         -DE/DX =    0.0                 !
 ! R13   R(6,15)                 1.0945         -DE/DX =    0.0                 !
 ! R14   R(7,8)                  1.5025         -DE/DX =    0.0                 !
 ! R15   R(7,9)                  1.5279         -DE/DX =    0.0                 !
 ! R16   R(7,16)                 1.0827         -DE/DX =    0.0                 !
 ! R17   R(8,9)                  1.5029         -DE/DX =    0.0                 !
 ! R18   R(8,17)                 1.0855         -DE/DX =    0.0                 !
 ! R19   R(8,18)                 1.0882         -DE/DX =    0.0                 !
 ! R20   R(9,19)                 1.0831         -DE/DX =    0.0                 !
 ! A1    A(2,1,10)             110.7448         -DE/DX =    0.0                 !
 ! A2    A(2,1,11)             105.8332         -DE/DX =    0.0                 !
 ! A3    A(2,1,12)             110.6634         -DE/DX =    0.0                 !
 ! A4    A(10,1,11)            110.5138         -DE/DX =    0.0                 !
 ! A5    A(10,1,12)            108.6021         -DE/DX =    0.0                 !
 ! A6    A(11,1,12)            110.4804         -DE/DX =    0.0                 !
 ! A7    A(1,2,3)              115.3418         -DE/DX =    0.0                 !
 ! A8    A(2,3,4)              123.3042         -DE/DX =    0.0                 !
 ! A9    A(2,3,5)              110.2337         -DE/DX =    0.0                 !
 ! A10   A(4,3,5)              126.4402         -DE/DX =    0.0                 !
 ! A11   A(3,5,6)              113.7439         -DE/DX =    0.0                 !
 ! A12   A(3,5,9)              112.527          -DE/DX =    0.0                 !
 ! A13   A(3,5,13)             108.8383         -DE/DX =    0.0                 !
 ! A14   A(6,5,9)               88.8961         -DE/DX =    0.0                 !
 ! A15   A(6,5,13)             117.6075         -DE/DX =    0.0                 !
 ! A16   A(9,5,13)             114.1684         -DE/DX =    0.0                 !
 ! A17   A(5,6,7)               89.8692         -DE/DX =    0.0                 !
 ! A18   A(5,6,14)             110.0146         -DE/DX =    0.0                 !
 ! A19   A(5,6,15)             116.384          -DE/DX =    0.0                 !
 ! A20   A(7,6,14)             113.1379         -DE/DX =    0.0                 !
 ! A21   A(7,6,15)             116.3936         -DE/DX =    0.0                 !
 ! A22   A(14,6,15)            109.789          -DE/DX =    0.0                 !
 ! A23   A(6,7,8)              110.2597         -DE/DX =    0.0                 !
 ! A24   A(6,7,9)               90.5926         -DE/DX =    0.0                 !
 ! A25   A(6,7,16)             125.2321         -DE/DX =    0.0                 !
 ! A26   A(8,7,16)             121.863          -DE/DX =    0.0                 !
 ! A27   A(9,7,16)             128.8374         -DE/DX =    0.0                 !
 ! A28   A(7,8,17)             115.5664         -DE/DX =    0.0                 !
 ! A29   A(7,8,18)             120.5833         -DE/DX =    0.0                 !
 ! A30   A(9,8,17)             114.9473         -DE/DX =    0.0                 !
 ! A31   A(9,8,18)             120.4471         -DE/DX =    0.0                 !
 ! A32   A(17,8,18)            114.163          -DE/DX =    0.0                 !
 ! A33   A(5,9,7)               90.6347         -DE/DX =    0.0                 !
 ! A34   A(5,9,8)              109.7223         -DE/DX =    0.0                 !
 ! A35   A(5,9,19)             124.8281         -DE/DX =    0.0                 !
 ! A36   A(7,9,19)             129.9428         -DE/DX =    0.0                 !
 ! A37   A(8,9,19)             122.3148         -DE/DX =    0.0                 !
 ! D1    D(10,1,2,3)            59.8401         -DE/DX =    0.0                 !
 ! D2    D(11,1,2,3)           179.6366         -DE/DX =    0.0                 !
 ! D3    D(12,1,2,3)           -60.6512         -DE/DX =    0.0                 !
 ! D4    D(1,2,3,4)              0.7129         -DE/DX =    0.0                 !
 ! D5    D(1,2,3,5)           -177.6863         -DE/DX =    0.0                 !
 ! D6    D(2,3,5,6)           -171.0935         -DE/DX =    0.0                 !
 ! D7    D(2,3,5,9)             89.7191         -DE/DX =    0.0                 !
 ! D8    D(2,3,5,13)           -37.8584         -DE/DX =    0.0                 !
 ! D9    D(4,3,5,6)             10.5696         -DE/DX =    0.0                 !
 ! D10   D(4,3,5,9)            -88.6178         -DE/DX =    0.0                 !
 ! D11   D(4,3,5,13)           143.8048         -DE/DX =    0.0                 !
 ! D12   D(3,5,6,7)           -114.8583         -DE/DX =    0.0                 !
 ! D13   D(3,5,6,14)            -0.1895         -DE/DX =    0.0                 !
 ! D14   D(3,5,6,15)           125.4658         -DE/DX =    0.0                 !
 ! D15   D(9,5,6,7)             -0.6442         -DE/DX =    0.0                 !
 ! D16   D(9,5,6,14)           114.0246         -DE/DX =    0.0                 !
 ! D17   D(9,5,6,15)          -120.32           -DE/DX =    0.0                 !
 ! D18   D(13,5,6,7)           116.2301         -DE/DX =    0.0                 !
 ! D19   D(13,5,6,14)         -129.1011         -DE/DX =    0.0                 !
 ! D20   D(13,5,6,15)           -3.4458         -DE/DX =    0.0                 !
 ! D21   D(3,5,9,7)            115.987          -DE/DX =    0.0                 !
 ! D22   D(3,5,9,8)            173.5544         -DE/DX =    0.0                 !
 ! D23   D(3,5,9,19)           -26.1873         -DE/DX =    0.0                 !
 ! D24   D(6,5,9,7)              0.6464         -DE/DX =    0.0                 !
 ! D25   D(6,5,9,8)             58.2137         -DE/DX =    0.0                 !
 ! D26   D(6,5,9,19)          -141.5279         -DE/DX =    0.0                 !
 ! D27   D(13,5,9,7)          -119.3127         -DE/DX =    0.0                 !
 ! D28   D(13,5,9,8)           -61.7453         -DE/DX =    0.0                 !
 ! D29   D(13,5,9,19)           98.513          -DE/DX =    0.0                 !
 ! D30   D(5,6,7,8)            -56.8063         -DE/DX =    0.0                 !
 ! D31   D(5,6,7,9)              0.6516         -DE/DX =    0.0                 !
 ! D32   D(5,6,7,16)           141.465          -DE/DX =    0.0                 !
 ! D33   D(14,6,7,8)          -168.5975         -DE/DX =    0.0                 !
 ! D34   D(14,6,7,9)          -111.1395         -DE/DX =    0.0                 !
 ! D35   D(14,6,7,16)           29.6739         -DE/DX =    0.0                 !
 ! D36   D(15,6,7,8)            62.8611         -DE/DX =    0.0                 !
 ! D37   D(15,6,7,9)           120.3191         -DE/DX =    0.0                 !
 ! D38   D(15,6,7,16)          -98.8675         -DE/DX =    0.0                 !
 ! D39   D(6,7,8,17)          -176.1622         -DE/DX =    0.0                 !
 ! D40   D(6,7,8,18)           -32.0837         -DE/DX =    0.0                 !
 ! D41   D(16,7,8,17)          -13.7114         -DE/DX =    0.0                 !
 ! D42   D(16,7,8,18)          130.3672         -DE/DX =    0.0                 !
 ! D43   D(6,7,9,5)             -0.6581         -DE/DX =    0.0                 !
 ! D44   D(6,7,9,19)           138.3007         -DE/DX =    0.0                 !
 ! D45   D(16,7,9,5)          -139.1608         -DE/DX =    0.0                 !
 ! D46   D(16,7,9,19)           -0.202          -DE/DX =    0.0                 !
 ! D47   D(17,8,9,5)           174.7496         -DE/DX =    0.0                 !
 ! D48   D(17,8,9,19)           13.9022         -DE/DX =    0.0                 !
 ! D49   D(18,8,9,5)            31.8946         -DE/DX =    0.0                 !
 ! D50   D(18,8,9,19)         -128.9528         -DE/DX =    0.0                 !
 --------------------------------------------------------------------------------
 GradGradGradGradGradGradGradGradGradGradGradGradGradGradGradGradGradGrad

                          Input orientation:                          
 ---------------------------------------------------------------------
 Center     Atomic      Atomic             Coordinates (Angstroms)
 Number     Number       Type             X           Y           Z
 ---------------------------------------------------------------------
      1          6           0        1.529715   -0.112250    0.206902
      2          8           0        0.172665   -0.379268    0.580340
      3          6           0       -0.492748    0.662232    1.123959
      4          8           0       -0.001762    1.752665    1.280658
      5          6           0       -1.887732    0.239425    1.525152
      6          6           0       -2.803833    1.426428    1.959304
      7          6           0       -2.860191    0.858004    3.381910
      8          6           0       -3.380373   -0.551399    3.358811
      9          6           0       -1.950036   -0.298953    2.972716
     10          1           0        2.116833    0.196236    1.075755
     11          1           0        1.914901   -1.046388   -0.202327
     12          1           0        1.574259    0.681188   -0.543550
     13          1           0       -2.277106   -0.452480    0.772915
     14          1           0       -2.253425    2.365775    1.894618
     15          1           0       -3.759769    1.520192    1.434600
     16          1           0       -2.843592    1.446308    4.290724
     17          1           0       -3.517208   -1.016237    4.330200
     18          1           0       -4.107143   -0.861155    2.610413
     19          1           0       -1.119348   -0.750629    3.501001
 ---------------------------------------------------------------------
                    Distance matrix (angstroms):
                    1          2          3          4          5
     1  C    0.000000
     2  O    1.432599   0.000000
     3  C    2.351844   1.350192   0.000000
     4  O    2.641265   2.250780   1.206095   0.000000
     5  C    3.679728   2.349614   1.511853   2.430340   0.000000
     6  C    4.921186   3.744545   2.573501   2.901480   1.560995
     7  C    5.503939   4.310204   3.277416   3.658729   2.185377
     8  C    5.851183   4.513713   3.847836   4.587204   2.493128
     9  C    4.448961   3.199340   2.542728   3.296660   1.545696
    10  H    1.093059   2.087207   2.651300   2.636836   4.029933
    11  H    1.090161   2.023117   3.236540   3.702369   4.370070
    12  H    1.093026   2.086183   2.655836   2.638113   4.057100
    13  H    3.863679   2.458419   2.133014   3.208996   1.093711
    14  H    4.827125   3.892107   2.568259   2.413055   2.188972
    15  H    5.670163   4.449916   3.392053   3.768336   2.270042
    16  H    6.183245   5.118348   4.021149   4.150946   3.165221
    17  H    6.579530   5.299278   4.716418   5.415246   3.478531
    18  H    6.173482   4.761319   4.194532   5.045241   2.704599
    19  H    4.275061   3.215193   2.835336   3.527804   2.339786
                    6          7          8          9         10
     6  C    0.000000
     7  C    1.533001   0.000000
     8  C    2.490546   1.502511   0.000000
     9  C    2.175526   1.527865   1.502884   0.000000
    10  H    5.148493   5.525130   5.999214   4.514765   0.000000
    11  H    5.749253   6.266975   6.400519   5.057400   1.793986
    12  H    5.097778   5.924935   6.426201   5.073998   1.775307
    13  H    2.283693   2.977283   2.813154   2.229275   4.451881
    14  H    1.090644   2.203083   3.453082   2.890521   4.947382
    15  H    1.094496   2.244939   2.852721   2.991692   6.034574
    16  H    2.331844   1.082737   2.268794   2.362525   6.041897
    17  H    3.478027   2.200842   1.085540   2.193921   6.618453
    18  H    2.712121   2.259559   1.088229   2.258416   6.497009
    19  H    3.154980   2.373272   2.274234   1.083115   4.153461
                   11         12         13         14         15
    11  H    0.000000
    12  H    1.793596   0.000000
    13  H    4.344738   4.225079   0.000000
    14  H    5.780568   4.840833   3.033370   0.000000
    15  H    6.439623   5.750553   2.554907   1.787652   0.000000
    16  H    7.003163   6.593408   4.037484   2.633447   3.000380
    17  H    7.074781   7.249671   3.809193   4.355136   3.857047
    18  H    6.649122   6.678669   2.625347   3.789685   2.678436
    19  H    4.796747   5.065966   2.978548   3.684911   4.049502
                   16         17         18         19
    16  H    0.000000
    17  H    2.553320   0.000000
    18  H    3.121601   1.824758   0.000000
    19  H    2.902277   2.551049   3.119660   0.000000
 Stoichiometry    C7H10O2
 Framework group  C1[X(C7H10O2)]
 Deg. of freedom    51
 Full point group                 C1      NOp   1
 Largest Abelian subgroup         C1      NOp   1
 Largest concise Abelian subgroup C1      NOp   1
                         Standard orientation:                         
 ---------------------------------------------------------------------
 Center     Atomic      Atomic             Coordinates (Angstroms)
 Number     Number       Type             X           Y           Z
 ---------------------------------------------------------------------
      1          6           0       -3.179002   -0.503724   -0.131667
      2          8           0       -1.843794   -0.704469    0.347142
      3          6           0       -0.980312    0.301149    0.089942
      4          8           0       -1.294035    1.311623   -0.489010
      5          6           0        0.400572   -0.053930    0.592714
      6          6           0        1.413710    1.132347    0.537910
      7          6           0        2.241999    0.372194   -0.504297
      8          6           0        2.651256   -0.969463    0.034225
      9          6           0        1.247852   -0.787540   -0.471761
     10          1           0       -3.185799   -0.374808   -1.217076
     11          1           0       -3.733792   -1.398823    0.150214
     12          1           0       -3.624245    0.382623    0.327520
     13          1           0        0.303842   -0.594560    1.538530
     14          1           0        0.926911    2.020612    0.133540
     15          1           0        1.921343    1.382101    1.474849
     16          1           0        2.735090    0.820089   -1.357861
     17          1           0        3.298177   -1.555713   -0.610909
     18          1           0        2.840988   -1.104994    1.097181
     19          1           0        0.843659   -1.379948   -1.283439
 ---------------------------------------------------------------------
 Rotational constants (GHZ):      4.1739102      1.0037734      0.8974746
 1\1\GINC-ALCHEMY-KR\FOpt\RB3LYP\6-31G(2df,p)\C7H10O2\PUCK\28-Jan-2020\
 0\\# b3lyp 6-31G(2df,p) opt Freq\\titel\\0,1\C,1.5297146132,-0.1122498
 771,0.2069018489\O,0.1726649149,-0.3792682081,0.5803397805\C,-0.492747
 7771,0.662232227,1.123959418\O,-0.0017622633,1.7526651786,1.280657835\
 C,-1.8877315562,0.2394253607,1.525151738\C,-2.8038325439,1.4264283556,
 1.9593036778\C,-2.8601912463,0.8580044282,3.3819103814\C,-3.3803727031
 ,-0.5513988827,3.3588106829\C,-1.9500363607,-0.2989530334,2.9727157291
 \H,2.1168332965,0.196236318,1.0757553015\H,1.9149008019,-1.0463875498,
 -0.202327202\H,1.5742587296,0.6811877723,-0.543550226\H,-2.2771060919,
 -0.4524797143,0.7729154792\H,-2.2534248827,2.365774792,1.8946180829\H,
 -3.7597694285,1.520192068,1.4346001645\H,-2.8435923699,1.4463077895,4.
 2907240066\H,-3.517207871,-1.0162370967,4.3302003921\H,-4.1071425085,-
 0.8611553843,2.6104125774\H,-1.119348213,-0.7506288935,3.5010009023\\V
 ersion=ES64L-G09RevD.01\State=1-A\HF=-423.1874987\RMSD=5.194e-09\RMSF=
 6.794e-06\Dipole=-0.0139424,-0.5918926,-0.0150661\Quadrupole=2.2817591
 ,-3.8897165,1.6079575,-2.197915,-1.6383016,0.1019934\PG=C01 [X(C7H10O2
 )]\\@


 THE MOST SERIOUS THREAT TO THE SURVIVAL OF MANKIND IS NOT NOW
 IGNORANCE IN THE TRADITIONAL SENSE,
 BUT A MORALLY NEUTRAL, AN INSENSITIVE OR INHIBITED HUMAN INTELLIGENCE.

                     -- MARGO JEFFERSON IN NEWSWEEK, SEPTEMBER 2, 1974
 Job cpu time:       0 days  0 hours 16 minutes 26.9 seconds.
 File lengths (MBytes):  RWF=     52 Int=      0 D2E=      0 Chk=      7 Scr=      1
 Normal termination of Gaussian 09 at Tue Jan 28 08:20:30 2020.
 Link1:  Proceeding to internal job step number  2.
 ----------------------------------------------------------------------
 #N Geom=AllCheck Guess=TCheck SCRF=Check GenChk RB3LYP/6-31G(2df,p) Fr
 eq
 ----------------------------------------------------------------------
 1/10=4,29=7,30=1,38=1,40=1/1,3;
 2/12=2,40=1/2;
 3/5=1,6=6,7=104,11=2,14=-4,16=1,25=1,30=1,70=2,71=2,74=-5,116=1,140=1/1,2,3;
 4/5=101/1;
 5/5=2,98=1/2;
 8/6=4,10=90,11=11/1;
 11/6=1,8=1,9=11,15=111,16=1/1,2,10;
 10/6=1/2;
 6/7=2,8=2,9=2,10=2,18=1,28=1/1;
 7/8=1,10=1,25=1/1,2,3,16;
 1/10=4,30=1/3;
 99//99;
 Structure from the checkpoint file:  "/scratch/puck/g09_82081ab8-e3ca-4bac-acbc-3e2b90f81627/Gau-59700.chk"
 -----
 titel
 -----
 Charge =  0 Multiplicity = 1
 Redundant internal coordinates found in file.
 C,0,1.5297146132,-0.1122498771,0.2069018489
 O,0,0.1726649149,-0.3792682081,0.5803397805
 C,0,-0.4927477771,0.662232227,1.123959418
 O,0,-0.0017622633,1.7526651786,1.280657835
 C,0,-1.8877315562,0.2394253607,1.525151738
 C,0,-2.8038325439,1.4264283556,1.9593036778
 C,0,-2.8601912463,0.8580044282,3.3819103814
 C,0,-3.3803727031,-0.5513988827,3.3588106829
 C,0,-1.9500363607,-0.2989530334,2.9727157291
 H,0,2.1168332965,0.196236318,1.0757553015
 H,0,1.9149008019,-1.0463875498,-0.202327202
 H,0,1.5742587296,0.6811877723,-0.543550226
 H,0,-2.2771060919,-0.4524797143,0.7729154792
 H,0,-2.2534248827,2.365774792,1.8946180829
 H,0,-3.7597694285,1.520192068,1.4346001645
 H,0,-2.8435923699,1.4463077895,4.2907240066
 H,0,-3.517207871,-1.0162370967,4.3302003921
 H,0,-4.1071425085,-0.8611553843,2.6104125774
 H,0,-1.119348213,-0.7506288935,3.5010009023
 Recover connectivity data from disk.

 GradGradGradGradGradGradGradGradGradGradGradGradGradGradGradGradGradGrad
 Berny optimization.
 Initialization pass.
                           ----------------------------
                           !    Initial Parameters    !
                           ! (Angstroms and Degrees)  !
 --------------------------                            --------------------------
 ! Name  Definition              Value          Derivative Info.                !
 --------------------------------------------------------------------------------
 ! R1    R(1,2)                  1.4326         calculate D2E/DX2 analytically  !
 ! R2    R(1,10)                 1.0931         calculate D2E/DX2 analytically  !
 ! R3    R(1,11)                 1.0902         calculate D2E/DX2 analytically  !
 ! R4    R(1,12)                 1.093          calculate D2E/DX2 analytically  !
 ! R5    R(2,3)                  1.3502         calculate D2E/DX2 analytically  !
 ! R6    R(3,4)                  1.2061         calculate D2E/DX2 analytically  !
 ! R7    R(3,5)                  1.5119         calculate D2E/DX2 analytically  !
 ! R8    R(5,6)                  1.561          calculate D2E/DX2 analytically  !
 ! R9    R(5,9)                  1.5457         calculate D2E/DX2 analytically  !
 ! R10   R(5,13)                 1.0937         calculate D2E/DX2 analytically  !
 ! R11   R(6,7)                  1.533          calculate D2E/DX2 analytically  !
 ! R12   R(6,14)                 1.0906         calculate D2E/DX2 analytically  !
 ! R13   R(6,15)                 1.0945         calculate D2E/DX2 analytically  !
 ! R14   R(7,8)                  1.5025         calculate D2E/DX2 analytically  !
 ! R15   R(7,9)                  1.5279         calculate D2E/DX2 analytically  !
 ! R16   R(7,16)                 1.0827         calculate D2E/DX2 analytically  !
 ! R17   R(8,9)                  1.5029         calculate D2E/DX2 analytically  !
 ! R18   R(8,17)                 1.0855         calculate D2E/DX2 analytically  !
 ! R19   R(8,18)                 1.0882         calculate D2E/DX2 analytically  !
 ! R20   R(9,19)                 1.0831         calculate D2E/DX2 analytically  !
 ! A1    A(2,1,10)             110.7448         calculate D2E/DX2 analytically  !
 ! A2    A(2,1,11)             105.8332         calculate D2E/DX2 analytically  !
 ! A3    A(2,1,12)             110.6634         calculate D2E/DX2 analytically  !
 ! A4    A(10,1,11)            110.5138         calculate D2E/DX2 analytically  !
 ! A5    A(10,1,12)            108.6021         calculate D2E/DX2 analytically  !
 ! A6    A(11,1,12)            110.4804         calculate D2E/DX2 analytically  !
 ! A7    A(1,2,3)              115.3418         calculate D2E/DX2 analytically  !
 ! A8    A(2,3,4)              123.3042         calculate D2E/DX2 analytically  !
 ! A9    A(2,3,5)              110.2337         calculate D2E/DX2 analytically  !
 ! A10   A(4,3,5)              126.4402         calculate D2E/DX2 analytically  !
 ! A11   A(3,5,6)              113.7439         calculate D2E/DX2 analytically  !
 ! A12   A(3,5,9)              112.527          calculate D2E/DX2 analytically  !
 ! A13   A(3,5,13)             108.8383         calculate D2E/DX2 analytically  !
 ! A14   A(6,5,9)               88.8961         calculate D2E/DX2 analytically  !
 ! A15   A(6,5,13)             117.6075         calculate D2E/DX2 analytically  !
 ! A16   A(9,5,13)             114.1684         calculate D2E/DX2 analytically  !
 ! A17   A(5,6,7)               89.8692         calculate D2E/DX2 analytically  !
 ! A18   A(5,6,14)             110.0146         calculate D2E/DX2 analytically  !
 ! A19   A(5,6,15)             116.384          calculate D2E/DX2 analytically  !
 ! A20   A(7,6,14)             113.1379         calculate D2E/DX2 analytically  !
 ! A21   A(7,6,15)             116.3936         calculate D2E/DX2 analytically  !
 ! A22   A(14,6,15)            109.789          calculate D2E/DX2 analytically  !
 ! A23   A(6,7,8)              110.2597         calculate D2E/DX2 analytically  !
 ! A24   A(6,7,9)               90.5926         calculate D2E/DX2 analytically  !
 ! A25   A(6,7,16)             125.2321         calculate D2E/DX2 analytically  !
 ! A26   A(8,7,16)             121.863          calculate D2E/DX2 analytically  !
 ! A27   A(9,7,16)             128.8374         calculate D2E/DX2 analytically  !
 ! A28   A(7,8,17)             115.5664         calculate D2E/DX2 analytically  !
 ! A29   A(7,8,18)             120.5833         calculate D2E/DX2 analytically  !
 ! A30   A(9,8,17)             114.9473         calculate D2E/DX2 analytically  !
 ! A31   A(9,8,18)             120.4471         calculate D2E/DX2 analytically  !
 ! A32   A(17,8,18)            114.163          calculate D2E/DX2 analytically  !
 ! A33   A(5,9,7)               90.6347         calculate D2E/DX2 analytically  !
 ! A34   A(5,9,8)              109.7223         calculate D2E/DX2 analytically  !
 ! A35   A(5,9,19)             124.8281         calculate D2E/DX2 analytically  !
 ! A36   A(7,9,19)             129.9428         calculate D2E/DX2 analytically  !
 ! A37   A(8,9,19)             122.3148         calculate D2E/DX2 analytically  !
 ! D1    D(10,1,2,3)            59.8401         calculate D2E/DX2 analytically  !
 ! D2    D(11,1,2,3)           179.6366         calculate D2E/DX2 analytically  !
 ! D3    D(12,1,2,3)           -60.6512         calculate D2E/DX2 analytically  !
 ! D4    D(1,2,3,4)              0.7129         calculate D2E/DX2 analytically  !
 ! D5    D(1,2,3,5)           -177.6863         calculate D2E/DX2 analytically  !
 ! D6    D(2,3,5,6)           -171.0935         calculate D2E/DX2 analytically  !
 ! D7    D(2,3,5,9)             89.7191         calculate D2E/DX2 analytically  !
 ! D8    D(2,3,5,13)           -37.8584         calculate D2E/DX2 analytically  !
 ! D9    D(4,3,5,6)             10.5696         calculate D2E/DX2 analytically  !
 ! D10   D(4,3,5,9)            -88.6178         calculate D2E/DX2 analytically  !
 ! D11   D(4,3,5,13)           143.8048         calculate D2E/DX2 analytically  !
 ! D12   D(3,5,6,7)           -114.8583         calculate D2E/DX2 analytically  !
 ! D13   D(3,5,6,14)            -0.1895         calculate D2E/DX2 analytically  !
 ! D14   D(3,5,6,15)           125.4658         calculate D2E/DX2 analytically  !
 ! D15   D(9,5,6,7)             -0.6442         calculate D2E/DX2 analytically  !
 ! D16   D(9,5,6,14)           114.0246         calculate D2E/DX2 analytically  !
 ! D17   D(9,5,6,15)          -120.32           calculate D2E/DX2 analytically  !
 ! D18   D(13,5,6,7)           116.2301         calculate D2E/DX2 analytically  !
 ! D19   D(13,5,6,14)         -129.1011         calculate D2E/DX2 analytically  !
 ! D20   D(13,5,6,15)           -3.4458         calculate D2E/DX2 analytically  !
 ! D21   D(3,5,9,7)            115.987          calculate D2E/DX2 analytically  !
 ! D22   D(3,5,9,8)            173.5544         calculate D2E/DX2 analytically  !
 ! D23   D(3,5,9,19)           -26.1873         calculate D2E/DX2 analytically  !
 ! D24   D(6,5,9,7)              0.6464         calculate D2E/DX2 analytically  !
 ! D25   D(6,5,9,8)             58.2137         calculate D2E/DX2 analytically  !
 ! D26   D(6,5,9,19)          -141.5279         calculate D2E/DX2 analytically  !
 ! D27   D(13,5,9,7)          -119.3127         calculate D2E/DX2 analytically  !
 ! D28   D(13,5,9,8)           -61.7453         calculate D2E/DX2 analytically  !
 ! D29   D(13,5,9,19)           98.513          calculate D2E/DX2 analytically  !
 ! D30   D(5,6,7,8)            -56.8063         calculate D2E/DX2 analytically  !
 ! D31   D(5,6,7,9)              0.6516         calculate D2E/DX2 analytically  !
 ! D32   D(5,6,7,16)           141.465          calculate D2E/DX2 analytically  !
 ! D33   D(14,6,7,8)          -168.5975         calculate D2E/DX2 analytically  !
 ! D34   D(14,6,7,9)          -111.1395         calculate D2E/DX2 analytically  !
 ! D35   D(14,6,7,16)           29.6739         calculate D2E/DX2 analytically  !
 ! D36   D(15,6,7,8)            62.8611         calculate D2E/DX2 analytically  !
 ! D37   D(15,6,7,9)           120.3191         calculate D2E/DX2 analytically  !
 ! D38   D(15,6,7,16)          -98.8675         calculate D2E/DX2 analytically  !
 ! D39   D(6,7,8,17)          -176.1622         calculate D2E/DX2 analytically  !
 ! D40   D(6,7,8,18)           -32.0837         calculate D2E/DX2 analytically  !
 ! D41   D(16,7,8,17)          -13.7114         calculate D2E/DX2 analytically  !
 ! D42   D(16,7,8,18)          130.3672         calculate D2E/DX2 analytically  !
 ! D43   D(6,7,9,5)             -0.6581         calculate D2E/DX2 analytically  !
 ! D44   D(6,7,9,19)           138.3007         calculate D2E/DX2 analytically  !
 ! D45   D(16,7,9,5)          -139.1608         calculate D2E/DX2 analytically  !
 ! D46   D(16,7,9,19)           -0.202          calculate D2E/DX2 analytically  !
 ! D47   D(17,8,9,5)           174.7496         calculate D2E/DX2 analytically  !
 ! D48   D(17,8,9,19)           13.9022         calculate D2E/DX2 analytically  !
 ! D49   D(18,8,9,5)            31.8946         calculate D2E/DX2 analytically  !
 ! D50   D(18,8,9,19)         -128.9528         calculate D2E/DX2 analytically  !
 --------------------------------------------------------------------------------
 Trust Radius=3.00D-01 FncErr=1.00D-07 GrdErr=1.00D-07
 Number of steps in this run=      2 maximum allowed number of steps=      2.
 GradGradGradGradGradGradGradGradGradGradGradGradGradGradGradGradGradGrad

                          Input orientation:                          
 ---------------------------------------------------------------------
 Center     Atomic      Atomic             Coordinates (Angstroms)
 Number     Number       Type             X           Y           Z
 ---------------------------------------------------------------------
      1          6           0        1.529715   -0.112250    0.206902
      2          8           0        0.172665   -0.379268    0.580340
      3          6           0       -0.492748    0.662232    1.123959
      4          8           0       -0.001762    1.752665    1.280658
      5          6           0       -1.887732    0.239425    1.525152
      6          6           0       -2.803833    1.426428    1.959304
      7          6           0       -2.860191    0.858004    3.381910
      8          6           0       -3.380373   -0.551399    3.358811
      9          6           0       -1.950036   -0.298953    2.972716
     10          1           0        2.116833    0.196236    1.075755
     11          1           0        1.914901   -1.046388   -0.202327
     12          1           0        1.574259    0.681188   -0.543550
     13          1           0       -2.277106   -0.452480    0.772915
     14          1           0       -2.253425    2.365775    1.894618
     15          1           0       -3.759769    1.520192    1.434600
     16          1           0       -2.843592    1.446308    4.290724
     17          1           0       -3.517208   -1.016237    4.330200
     18          1           0       -4.107143   -0.861155    2.610413
     19          1           0       -1.119348   -0.750629    3.501001
 ---------------------------------------------------------------------
[...]
 0365965,-0.22934701,-0.24040037,-0.01920879,0.22012497,-0.01731037,-0.
 00295085,0.00691755,0.01013890,-0.09630110,-0.04147660,-0.24991619,-0.
 60503275,-0.06932510,0.27123191,0.71896128,-0.00692273,0.00055895,-0.0
 0389701,0.00275391,-0.04177515,0.01618235,-0.02234913,-0.07383846,-0.0
 9362301,0.01622842,0.11057603,0.05880729,0.00307114,0.00124621,0.00115
 306,-0.03228079,0.00312986,0.01732735,-0.16797032,-0.01844687,0.021486
 44,-0.01348431,-0.02098725,0.00593808,0.48424058,0.00210183,-0.0033218
 3,-0.00447572,0.02946387,0.00501184,-0.01294030,-0.02848547,-0.0776456
 7,0.00985500,-0.03638035,-0.02021645,0.00395573,0.04870774,0.46396660,
 -0.00006997,-0.00306685,0.00435080,0.02484918,-0.00544962,-0.00127151,
 0.00995645,0.00370939,-0.09044113,0.00108482,-0.00280648,0.02333700,-0
 .01157318,0.11736053,0.49720285,0.00039706,0.00089012,0.00071237,-0.00
 494725,-0.00104763,0.00192155,-0.01932016,0.02482597,0.00251423,0.0010
 1683,0.00159067,0.00161329,-0.10786575,0.02942697,0.00599827,0.5605066
 7,-0.00038827,0.00055119,0.00061222,-0.00437948,-0.00001897,0.00214675
 ,0.00604514,0.01179837,-0.00385567,-0.00201782,-0.00364748,-0.00013033
 ,0.03124716,-0.12210147,-0.02288240,0.05513689,0.54888091,0.00014290,-
 0.00029593,0.00051907,0.00145412,0.00070128,0.00074295,0.00985197,-0.0
 0639117,-0.00548369,-0.00237406,-0.00179146,0.00042912,0.01311201,-0.0
 3267676,-0.05181480,0.08728914,-0.05973280,0.41809637,-0.00005214,0.00
 005830,0.00002320,-0.00041537,-0.00007903,0.00022833,-0.00230389,0.002
 21251,0.00061414,0.00065006,0.00040765,-0.00050233,-0.00779750,0.01609
 354,0.02932624,-0.05305512,-0.01656092,-0.00846475,0.23029202,0.000041
 36,-0.00017823,0.00000522,0.00147316,0.00036641,-0.00014687,-0.0006186
 4,-0.00502180,-0.00168144,-0.00038105,0.00140165,0.00018855,0.01594438
 ,-0.00970467,-0.02004817,-0.02018012,-0.08025168,0.04701888,-0.0036787
 0,0.56333467,0.00032782,0.00007910,0.00003778,-0.00054353,0.00052701,0
 .00071836,0.00104966,-0.00190911,-0.00031901,-0.00100827,0.00052694,0.
 00012296,0.01535546,-0.02271664,-0.05801400,-0.00063650,0.03196417,-0.
 17563608,-0.01335174,0.13573563,0.62098707,-0.00009470,-0.00007325,0.0
 0009450,0.00054848,-0.00008025,-0.00004584,-0.00101950,-0.00117973,-0.
 00120009,0.00058049,0.00099625,0.00058141,-0.00440676,-0.00433062,0.00
 249365,0.00131197,0.00252111,-0.00278353,-0.03946158,-0.09371712,-0.01
 443795,0.48051927,0.00024098,0.00004132,-0.00009629,-0.00045894,0.0004
 1271,0.00001992,0.00261744,-0.00202994,0.00080706,-0.00143182,-0.00040
 624,-0.00013653,-0.00576570,-0.00226063,-0.00155337,-0.01425367,-0.015
 37962,0.00571716,-0.04167657,-0.19736738,-0.01101798,0.17615162,0.3943
 4722,-0.00031301,-0.00016539,0.00023629,0.00161513,-0.00117263,-0.0004
 2190,-0.00541503,0.00403833,-0.00488778,0.00302256,0.00044265,0.001241
 16,0.02893920,0.02013584,-0.00993623,0.02198528,0.02361600,-0.00183114
 ,-0.01164115,-0.00934912,-0.07439641,0.07702690,-0.08456661,0.62522952
 ,-0.00014482,0.00040390,-0.00119958,-0.00180709,0.00165785,-0.00090203
 ,0.00296416,-0.01814344,0.02986634,-0.00408102,0.00031277,-0.00279031,
 -0.06689460,-0.01091300,0.00130106,-0.01471051,0.02642616,-0.01089462,
 -0.08368283,0.10437068,0.01676022,-0.21447912,-0.05052098,0.01602159,0
 .61230310,-0.00064035,0.00002129,-0.00012855,0.00163171,-0.00025817,-0
 .00062456,-0.00099427,-0.00638595,0.01096926,-0.00144760,0.00003656,-0
 .00202303,-0.00849314,-0.05281066,0.03917155,0.03831523,-0.03942532,0.
 02874537,0.05296439,-0.11458840,-0.03479398,-0.00298997,-0.02247584,0.
 01459268,-0.15697361,0.32480266,0.00138830,0.00011087,-0.00003938,-0.0
 0407113,0.00248956,0.00179953,0.01619955,0.00829792,-0.00937534,-0.003
 60045,-0.00454019,-0.00091649,-0.01607899,0.04122386,-0.14979889,-0.01
 952629,0.01922219,-0.02169712,0.00920578,-0.04792418,-0.04708935,0.036
 12181,0.03018717,-0.07051373,0.06383558,-0.11092210,0.44585482,-0.1131
 4131,-0.03475222,-0.10437677,-0.03748134,-0.00823845,-0.01904793,0.002
 14146,-0.00946451,-0.00473287,0.00196820,0.00364129,0.00078236,-0.0001
 3362,-0.00027809,0.00097404,0.00002404,-0.00002538,0.00012939,-0.00001
 236,0.00009043,0.00002081,0.00006427,-0.00003956,0.00013046,-0.0002919
 3,0.00012028,-0.00025050,0.13628852,-0.03746883,-0.06990976,-0.0598388
 4,-0.00786183,-0.00130696,-0.00255909,0.00229448,0.00082662,0.00018839
 ,-0.00092379,0.00007185,0.00011208,-0.00026977,-0.00006615,-0.00024879
 ,0.00002638,-0.00002437,0.00001316,0.00000793,0.00000372,-0.00001435,0
 .00001037,-0.00003760,0.00004396,-0.00000283,0.00007568,-0.00015132,0.
 04579703,0.06918740,-0.11246992,-0.06017043,-0.22976074,0.00776835,0.0
 0333588,0.01462929,0.00054429,-0.00076133,0.00129673,0.00127515,0.0001
 0986,-0.00021641,-0.00022488,0.00038155,-0.00076172,-0.00005468,-0.000
 02105,-0.00002696,-0.00002217,-0.00000308,0.00001463,-0.00001586,0.000
 02468,-0.00006667,0.00019975,0.00004002,0.00001986,0.11837767,0.065216
 53,0.23941415,-0.07252159,0.07128575,0.02802877,-0.02770730,0.03186869
 ,0.01902110,-0.00469192,-0.00674108,-0.00034693,0.00244114,0.00091710,
 -0.00029477,-0.00045479,0.00151427,0.00074210,-0.00035518,-0.00028640,
 0.00005016,-0.00001284,0.00008954,-0.00006063,0.00003498,-0.00004431,0
 .00010999,-0.00010831,0.00002851,-0.00020401,0.00799411,-0.01397289,-0
 .00483859,0.09393258,0.08253493,-0.25872768,-0.08949499,-0.00464907,0.
 00982932,0.00434146,-0.00304458,-0.00176360,0.00047373,0.00210702,0.00
 097869,-0.00064292,-0.00016842,0.00036163,0.00005069,-0.00008324,-0.00
 005018,0.00002879,-0.00001461,0.00001995,0.00002378,-0.00000377,0.0000
 2279,-0.00003469,0.00005506,0.00000149,0.00005266,0.00232442,-0.005504
 49,-0.00068925,-0.08527238,0.27154973,0.03137923,-0.08574958,-0.088815
 90,0.00805263,-0.00784375,-0.00467617,0.00072353,0.00163881,0.00052496
 ,0.00008600,-0.00021207,0.00063718,0.00019925,-0.00047833,-0.00003888,
 0.00013601,0.00010214,-0.00000068,0.00000096,-0.00001745,0.00001769,-0
 .00000273,0.00002157,-0.00003245,0.00000324,-0.00002483,0.00008749,0.0
 0889904,-0.02238517,-0.00749913,-0.04128075,0.09589197,0.08968504,-0.0
 4844259,0.00511521,-0.00528409,-0.01762335,-0.02573305,0.03180040,0.00
 254332,-0.00776388,-0.00178782,0.00068073,0.00298190,0.00057127,-0.000
 57983,0.00054138,-0.00054409,-0.00016169,-0.00011219,-0.00008312,-0.00
 000907,0.00005218,-0.00003994,0.00002623,-0.00002189,0.00003276,0.0001
 4179,0.00012035,-0.00029216,0.00246591,0.01239272,-0.01053212,0.001533
 98,0.00614384,-0.00824250,0.05947523,-0.00085664,-0.19007849,0.1335238
 1,-0.00864112,-0.00112852,0.00338044,0.00190252,-0.00074533,-0.0019394
 7,0.00019290,0.00067771,0.00007877,0.00000462,-0.00006641,0.00052942,0
 .00001555,-0.00002451,0.00000224,0.00000225,0.00000220,-0.00003086,0.0
 0001067,-0.00002051,0.00004853,-0.00007053,0.00000699,-0.00011058,0.00
 056842,0.00674320,-0.00744041,0.00056994,-0.01679272,0.01907346,0.0062
 7363,0.20142038,0.00015499,0.13094138,-0.17443632,0.01015101,0.0033219
 8,-0.00545678,-0.00031744,0.00604641,0.00213774,-0.00215764,-0.0022287
 1,0.00043063,0.00010494,-0.00028005,-0.00015507,0.00008179,0.00004556,
 -0.00001431,0.00001922,-0.00003384,-0.00001351,-0.00000845,-0.00001186
 ,0.00002586,-0.00008171,-0.00003221,0.00003842,-0.00113084,0.01948770,
 -0.01702476,-0.00105651,-0.00998337,0.01019084,-0.00571455,-0.14712553
 ,0.18427109,0.00035326,-0.00000055,0.00025370,0.00018982,0.00127314,0.
 00209245,-0.00793289,-0.02124737,-0.02510509,-0.00595277,-0.00294338,0
 .00431419,-0.08567992,-0.05661418,-0.06414446,0.00911792,0.01025090,0.
 01053669,-0.00098986,0.00144847,0.00168942,0.00161687,0.00070374,0.001
 59740,0.00020483,-0.00048747,0.00108249,0.00021695,-0.00005318,-0.0000
 4710,0.00001922,0.00005318,0.00001244,0.00002997,0.00005091,-0.0001167
 0,0.08988662,-0.00025713,0.00003190,0.00072979,0.00210036,0.00070898,0
 .00004714,-0.00417546,-0.00983866,-0.00799532,-0.00263248,0.00071190,0
 .00125224,-0.05973215,-0.15559125,-0.11445953,-0.01233486,-0.01040380,
 -0.00943224,-0.00086094,0.00063756,0.00073653,0.00161124,0.00110261,-0
 .00150466,0.00631497,0.00980650,0.00870119,0.00024419,-0.00000031,-0.0
 0003800,-0.00000259,0.00001611,-0.00000678,-0.00005711,0.00001338,-0.0
 0005474,0.06736656,0.16270271,-0.00039159,0.00021036,0.00027530,0.0006
 3465,0.00074962,-0.00021127,0.00481499,0.00447321,0.00662278,0.0018788
 1,0.00192951,-0.00122486,-0.06686669,-0.11547342,-0.16092797,-0.000573
 92,0.00043005,-0.00152069,-0.00056563,-0.00055407,-0.00515060,-0.00226
 925,0.00040620,0.00302491,-0.00752611,-0.01528882,-0.02100072,0.000088
 97,0.00005872,0.00001609,-0.00004391,-0.00002222,0.00000340,0.00003625
 ,0.00000104,-0.00000823,0.06707627,0.12337673,0.18120580,-0.00036656,-
 0.00007526,0.00008874,0.00105753,-0.00183179,-0.00092970,0.00024495,0.
 00338674,0.00204294,-0.00170137,-0.00092662,0.00006279,0.00913128,0.01
 660622,-0.00115311,-0.11764086,-0.12273644,0.00439826,-0.00160534,-0.0
 0185343,0.00011602,-0.00002796,-0.00028670,0.00075519,-0.00136331,0.00
 005377,0.00123755,-0.00000420,0.00006604,-0.00001376,0.00003259,-0.000
 03116,-0.00002574,0.00001858,0.00005463,0.00003912,-0.00155292,0.00194
 452,0.00009119,0.12533418,0.00008334,0.00001945,-0.00000964,-0.0000732
 9,0.00093922,0.00031471,-0.00351056,-0.00377771,-0.00107461,-0.0011841
 1,0.00355532,0.00133056,-0.00717264,-0.02086547,-0.00061202,-0.1197813
 6,-0.24680074,0.01421610,-0.00340136,-0.00496787,0.00014405,0.00067522
 ,0.00131216,0.00115661,0.00158252,-0.00075393,-0.00175002,0.00004166,-
 0.00002618,0.00000109,-0.00000237,0.00004698,0.00002189,0.00002716,-0.
 00000661,-0.00003853,0.00163700,-0.00211156,0.00085288,0.12851805,0.26
 853737,0.00006733,0.00006783,0.00002962,-0.00036225,0.00034193,0.00046
 678,-0.00053180,-0.00098625,0.00127642,0.00008386,0.00077068,-0.001159
 54,-0.00787296,-0.01225864,-0.00073670,0.00420227,0.01320242,-0.047968
 38,0.01724122,0.02893944,0.00060849,-0.00011035,0.00150575,-0.00677086
 ,0.00065446,-0.00225764,0.00022647,0.00001250,-0.00001625,-0.00000647,
 -0.00002969,0.00001180,0.00000629,0.00001006,0.00000038,-0.00001019,0.
 00180368,-0.00179586,-0.00016942,-0.00781110,-0.01462186,0.05090134,0.
 00030087,0.00016374,0.00000798,-0.00130019,0.00031123,0.00059662,0.000
 36000,0.00103716,-0.00102081,-0.00083361,0.00051143,0.00055795,-0.0109
 9722,-0.00484871,-0.00623628,-0.25070610,0.01536255,-0.10444320,0.0054
 4337,0.00157473,0.00129648,0.00159840,0.00122802,-0.00017240,0.0005360
 0,-0.00090629,-0.00148187,-0.00001755,-0.00002282,0.00001076,-0.000096
 40,0.00001960,0.00004542,-0.00006896,-0.00004412,0.00001629,0.00097835
 ,-0.00005087,0.00024739,-0.01245893,0.00248591,-0.00732768,0.26692756,
 -0.00009590,-0.00011201,-0.00017905,0.00105913,0.00033868,-0.00053028,
 -0.00170792,-0.00438979,0.00145656,-0.00039348,0.00174406,0.00060061,0
 .01866117,0.00124085,0.00939034,0.01514068,-0.04934414,0.00564271,0.00
 666999,-0.00289134,0.00602670,0.00129449,0.00191975,0.00067040,0.00228
 423,-0.00223437,0.00272995,0.00001529,-0.00000874,0.00001121,0.0000817
 8,0.00002093,-0.00002816,0.00006938,0.00000549,-0.00003861,-0.00092690
 ,0.00137860,-0.00037055,-0.02324457,0.00447112,-0.01372983,-0.01838737
 ,0.04972833,-0.00006159,-0.00014100,-0.00018346,0.00099965,-0.00005129
 ,-0.00054947,0.00059246,-0.00200130,0.00048882,0.00022671,0.00012317,-
 0.00013318,0.01192884,0.00245592,0.00503341,-0.10667246,0.00690639,-0.
 10521702,-0.02449325,0.00210327,-0.01210373,0.00064650,-0.00329050,0.0
 0235477,-0.00185364,0.00145969,-0.00376936,0.00000921,0.00001185,0.000
 00747,0.00008540,0.00000201,-0.00003416,0.00004356,0.00000702,-0.00000
 608,-0.00085606,0.00069513,0.00048102,0.00179790,-0.00034670,0.0013413
 3,0.11823877,-0.01136802,0.11225583,0.00008686,0.00001067,-0.00006398,
 -0.00016719,-0.00005658,-0.00005366,0.00097141,0.00041685,0.00019015,-
 0.00031854,-0.00043889,-0.00019689,0.00083642,0.00258069,0.00417342,-0
 .00375328,-0.00132987,0.00159758,-0.03590379,-0.00099994,-0.00983367,-
 0.00225724,-0.00559432,-0.01725520,0.00662555,0.00525685,0.01797333,-0
 .00004401,-0.00000410,0.00000589,-0.00001134,0.00000231,0.00000140,-0.
 00001235,-0.00000498,0.00000722,-0.00059541,-0.00005475,0.00186278,0.0
 0057243,-0.00007785,0.00021280,-0.00032504,0.00016457,-0.00119002,0.03
 222868,-0.00006527,0.00002839,0.00005068,-0.00028764,0.00009097,0.0000
 8788,-0.00022386,0.00025088,0.00014837,0.00005033,0.00017806,0.0000256
 9,-0.00120482,-0.00109521,0.00133438,0.00114140,0.01055792,0.00914082,
 0.00013476,-0.13222685,-0.12994336,0.00290925,-0.01210154,-0.01618230,
 -0.00710418,-0.00776710,-0.00562822,0.00000113,-0.00000519,-0.00000195
 ,-0.00001897,-0.00000185,0.00000903,0.00000013,0.00000342,-0.00000395,
 -0.00012445,0.00077387,-0.00039832,0.00008408,0.00063329,-0.00129245,0
 .00005976,-0.00011329,0.00130562,0.00380174,0.13894894,-0.00015942,-0.
 00007533,0.00002799,0.00079791,-0.00002139,-0.00023057,-0.00113521,-0.
 00099684,-0.00018542,0.00047696,0.00029206,0.00011237,0.00082141,-0.00
 009932,-0.00424169,-0.00028215,-0.01354387,-0.00835209,-0.00663653,-0.
 13339624,-0.25866209,0.00110312,0.00430673,0.00413712,-0.00045209,0.00
 262723,-0.00059948,0.00005076,0.00001561,-0.00000243,0.00005180,-0.000
 00362,-0.00001728,0.00002991,0.00001242,-0.00000890,0.00095475,-0.0005
 5112,-0.00032134,-0.00012233,0.00018542,0.00145045,0.00043236,-0.00007
 228,-0.00164035,0.00391649,0.14117459,0.26668700,0.00015598,0.00003736
 ,-0.00010056,-0.00052233,0.00030884,0.00010602,0.00205353,-0.00086937,
 0.00118411,-0.00088669,-0.00039334,-0.00031469,-0.00511341,-0.00317168
 ,0.00045228,-0.00027862,0.00221044,0.00002200,-0.00225080,0.00160236,-
 0.00255196,-0.04805152,-0.02051750,0.02290061,-0.00222159,-0.01443857,
 0.02620352,-0.00004408,-0.00001587,0.00002231,-0.00003616,0.00001389,0
 .00001594,-0.00002201,-0.00001826,-0.00000158,-0.00009557,0.00050756,-
 0.00020963,0.00024922,0.00027418,-0.00028625,0.00029026,-0.00017324,0.
 00018554,0.00006449,-0.00101518,0.00032396,0.05110693,0.00001933,-0.00
 002003,0.00004046,0.00009172,-0.00002781,0.00009370,-0.00060989,0.0000
 6842,-0.00084095,0.00016937,0.00052215,0.00022233,0.00312191,0.0002829
 1,-0.00169014,-0.00463038,-0.00503462,-0.00122574,-0.00422950,-0.01073
 356,0.03017581,-0.02222291,-0.08993557,0.10883582,0.00130839,0.0019528
 0,-0.00950015,0.00001797,-0.00000051,-0.00000886,0.00000699,0.00000444
 ,-0.00000058,-0.00000287,-0.00000062,-0.00000123,0.00002806,0.00007442
 ,0.00036781,-0.00014069,-0.00021871,0.00208203,0.00027171,0.00007145,-
 0.00041506,0.00204389,0.00157076,-0.00067735,0.02390084,0.09774880,-0.
 00013343,-0.00002491,0.00005583,0.00038649,-0.00018611,-0.00013252,-0.
 00104055,0.00039540,-0.00014569,0.00055831,0.00024212,-0.00000030,0.00
 204555,0.00009885,0.00005278,-0.00100109,-0.00091763,0.00047925,-0.000
 48507,-0.00375925,0.00555776,0.02641194,0.11148347,-0.28044007,-0.0007
 6752,0.00399021,-0.00785792,0.00002909,0.00001549,-0.00000838,0.000026
 14,-0.00000902,-0.00001380,0.00001802,0.00001157,0.00000033,0.00000564
 ,0.00005902,0.00038703,-0.00004651,-0.00027608,0.00043081,0.00016014,-
 0.00011895,0.00005969,0.00082800,0.00021850,0.00067539,-0.03097583,-0.
 11937909,0.29419898,0.00004682,-0.00002068,-0.00004813,0.00001185,0.00
 003346,0.00007734,-0.00001870,0.00031054,-0.00039851,0.00036696,0.0002
 7398,0.00013612,0.00159673,0.00169536,-0.00182215,0.00061562,-0.000717
 05,-0.00010438,-0.00349786,-0.00141880,0.00548161,-0.16183833,-0.05185
 418,-0.12925979,-0.01674656,-0.00894514,-0.01849493,0.00001393,0.00000
 718,-0.00000065,-0.00000626,0.00000870,0.00000499,-0.00000563,-0.00000
 510,0.00000931,0.00019003,0.00007283,0.00156677,0.00001964,0.00001301,
 0.00019508,-0.00010571,-0.00047046,0.00047739,0.00086341,0.00137001,-0
 .00007980,0.00400192,0.00212296,0.00445851,0.17604731,0.00002036,0.000
 00874,-0.00002323,-0.00010297,0.00007643,-0.00001050,0.00015402,-0.000
 26029,0.00027088,0.00000937,-0.00001745,0.00002715,-0.00138269,0.00013
 386,0.00034625,0.00119494,0.00229059,-0.00241723,-0.01943255,-0.006748
 45,-0.02077064,-0.05165522,-0.06147642,-0.04919178,0.00150593,-0.00385
 663,0.00771347,-0.00000898,-0.00000481,0.00000479,-0.00000142,0.000002
 06,0.00000086,-0.00000138,-0.00000736,-0.00000097,-0.00024932,0.000050
 23,0.00007243,0.00042316,0.00012243,-0.00020581,0.00087005,-0.00015796
 ,0.00119283,-0.00375862,-0.00149666,0.00091140,0.00990613,0.00400779,0
 .00854748,0.06075284,0.06585208,0.00005354,0.00000518,-0.00002008,-0.0
 0021569,0.00007941,0.00006326,0.00051837,0.00007752,0.00013991,-0.0001
 3829,-0.00008330,-0.00013096,0.00052978,-0.00002336,0.00257102,0.00153
 974,0.00064273,0.00147967,-0.00009424,0.00247483,-0.00214695,-0.130833
 75,-0.05007081,-0.18772152,0.00911504,0.00233199,0.00689958,-0.0000162
 4,-0.00000399,0.00000422,-0.00001387,0.00000358,0.00000511,-0.00001046
 ,-0.00000306,0.00000436,-0.00071890,-0.00074697,0.00023130,0.00016542,
 -0.00000436,-0.00008113,-0.00054316,-0.00056150,0.00063798,-0.00105966
 ,-0.00018021,0.00029809,-0.01695031,-0.00854313,-0.01441394,0.13771247
 ,0.05387187,0.19238458,-0.00001035,0.00000184,-0.00003349,0.00030492,-
 0.00015526,-0.00022737,0.00113692,0.00048527,-0.00018484,-0.00000221,-
 0.00008783,-0.00016894,0.00478266,-0.00370977,0.00419171,-0.00019559,-
 0.00064655,0.00056345,-0.00533511,-0.00383948,0.00036671,-0.01466425,0
 .01152434,-0.01008047,-0.21624375,0.09782530,-0.10924761,-0.00000699,-
 0.00000622,0.00001557,0.00001350,0.00000428,-0.00000836,0.00000973,-0.
 00000529,0.00000152,-0.00000449,-0.00000389,0.00014865,0.00006104,-0.0
 0013452,-0.00015117,0.00047491,-0.00004088,-0.00010491,0.00113893,0.00
 049178,-0.00009189,0.00160045,-0.00126689,-0.00047783,-0.00155515,0.00
 175634,0.00096022,0.22849484,0.00000385,0.00005703,0.00015928,-0.00057
 266,0.00001963,0.00009828,0.00140124,0.00105831,0.00046798,-0.00052057
 ,-0.00026692,-0.00038229,0.00156037,-0.00525182,0.00092482,0.00460646,
 -0.00157207,0.00273681,0.01138287,-0.00108590,0.01525717,-0.00992739,0
 .00433274,-0.01141365,0.09750612,-0.08614759,0.05979794,-0.00005492,-0
 .00001340,0.00000873,-0.00002014,-0.00001357,-0.00001303,-0.00002552,-
 0.00000167,-0.00000942,-0.00016514,-0.00006317,-0.00082114,-0.00001056
 ,-0.00010857,0.00024235,0.00036427,-0.00166762,0.00135096,-0.00195765,
 0.00177121,-0.00008812,0.00185143,-0.00033253,-0.00039109,-0.00322946,
 0.00148182,0.00073358,-0.10219258,0.08780409,0.00008060,-0.00007092,-0
 .00016388,0.00097208,-0.00089905,0.00009193,-0.00419150,-0.00019412,0.
 00184267,0.00111270,0.00053333,0.00000168,-0.01632466,0.00595529,-0.00
 440927,0.00075313,0.00219313,-0.00218347,0.00959777,0.00044788,0.00546
 701,0.00722796,-0.00373576,0.00076913,-0.11128967,0.06216770,-0.122268
 37,0.00005086,0.00005432,-0.00002876,0.00005421,-0.00000037,-0.0000295
 3,-0.00001139,-0.00001920,0.00003488,-0.00043082,0.00098744,-0.0017125
 2,-0.00069288,0.00051050,0.00016468,-0.00038475,0.00046875,0.00097649,
 -0.00111597,0.00013518,0.00087325,-0.00002548,0.00046432,0.00111476,0.
 00008874,-0.00033926,-0.00020450,0.11452906,-0.06865915,0.11966383\\-0
 .00000342,-0.00001313,0.00000439,-0.00000189,0.00000545,-0.00000910,0.
 00000256,-0.00001985,0.00000171,0.00000019,0.00000028,-0.00000181,0.00
 000952,-0.00000591,0.00001256,0.00000701,0.00000908,-0.00000399,0.0000
 0470,0.00000742,0.00001016,-0.00001302,-0.00000500,0.00001027,-0.00000
 183,0.00000870,-0.00000864,-0.00000336,-0.00000684,-0.00000313,-0.0000
 0436,-0.00001154,-0.00000077,-0.00000056,-0.00001119,-0.00000609,-0.00
 000465,0.00000423,0.00000002,0.00000278,0.00000455,-0.00000375,0.00000
 141,0.00000524,0.00000007,0.00000441,0.00000834,-0.00000395,0.00000218
 ,0.00000763,0.00000167,0.00000150,0.00001267,-0.00000113,-0.00000318,-
 0.00000013,0.00000152\\\@


 Democracy is the recurrent suspicion that more than half of the people
 are right more than half of the time.
 -- E. B. White
 Job cpu time:       0 days  1 hours 47 minutes 53.3 seconds.
 File lengths (MBytes):  RWF=    152 Int=      0 D2E=      0 Chk=      8 Scr=      1
 Normal termination of Gaussian 09 at Tue Jan 28 10:08:39 2020.
