 Entering Gaussian System, Link 0=/home/puck/opt/gaussian_09/g09
 Input=dsC7O2H10nsd_6024.com
 Output=dsC7O2H10nsd_6024.log
 Initial command:
 /home/puck/opt/gaussian_09/l1.exe "/scratch/puck/g09_39f50981-cfba-4f84-8047-2a757ae2b773/Gau-98473.inp" -scrdir="/scratch/puck/g09_39f50981-cfba-4f84-8047-2a757ae2b773/"
 Entering Link 1 = /home/puck/opt/gaussian_09/l1.exe PID=     98569.
  
 Copyright (c) 1988,1990,1992,1993,1995,1998,2003,2009,2013,
            Gaussian, Inc.  All Rights Reserved.
  
 This is part of the Gaussian(R) 09 program.  It is based on
 the Gaussian(R) 03 system (copyright 2003, Gaussian, Inc.),
 the Gaussian(R) 98 system (copyright 1998, Gaussian, Inc.),
 the Gaussian(R) 94 system (copyright 1995, Gaussian, Inc.),
 the Gaussian 92(TM) system (copyright 1992, Gaussian, Inc.),
 the Gaussian 90(TM) system (copyright 1990, Gaussian, Inc.),
 the Gaussian 88(TM) system (copyright 1988, Gaussian, Inc.),
 the Gaussian 86(TM) system (copyright 1986, Carnegie Mellon
 University), and the Gaussian 82(TM) system (copyright 1983,
 Carnegie Mellon University). Gaussian is a federally registered
 trademark of Gaussian, Inc.
  
 This software contains proprietary and confidential information,
 including trade secrets, belonging to Gaussian, Inc.
  
 This software is provided under written license and may be
 used, copied, transmitted, or stored only in accord with that
 written license.
  
 The following legend is applicable only to US Government
 contracts under FAR:
  
                    RESTRICTED RIGHTS LEGEND
  
 Use, reproduction and disclosure by the US Government is
 subject to restrictions as set forth in subparagraphs (a)
 and (c) of the Commercial Computer Software - Restricted
 Rights clause in FAR 52.227-19.
  
 Gaussian, Inc.
 340 Quinnipiac St., Bldg. 40, Wallingford CT 06492
  
  
 ---------------------------------------------------------------
 Warning -- This program may not be used in any manner that
 competes with the business of Gaussian, Inc. or will provide
 assistance to any competitor of Gaussian, Inc.  The licensee
 of this program is prohibited from giving any competitor of
 Gaussian, Inc. access to this program.  By using this program,
 the user acknowledges that Gaussian, Inc. is engaged in the
 business of creating and licensing software in the field of
 computational chemistry and represents and warrants to the
 licensee that it is not a competitor of Gaussian, Inc. and that
 it will not use this program in any manner prohibited above.
 ---------------------------------------------------------------
  

 Cite this work as:
 Gaussian 09, Revision D.01,
 M. J. Frisch, G. W. Trucks, H. B. Schlegel, G. E. Scuseria, 
 M. A. Robb, J. R. Cheeseman, G. Scalmani, V. Barone, B. Mennucci, 
 G. A. Petersson, H. Nakatsuji, M. Caricato, X. Li, H. P. Hratchian, 
 A. F. Izmaylov, J. Bloino, G. Zheng, J. L. Sonnenberg, M. Hada, 
 M. Ehara, K. Toyota, R. Fukuda, J. Hasegawa, M. Ishida, T. Nakajima, 
 Y. Honda, O. Kitao, H. Nakai, T. Vreven, J. A. Montgomery, Jr., 
 J. E. Peralta, F. Ogliaro, M. Bearpark, J. J. Heyd, E. Brothers, 
 K. N. Kudin, V. N. Staroverov, T. Keith, R. Kobayashi, J. Normand, 
 K. Raghavachari, A. Rendell, J. C. Burant, S. S. Iyengar, J. Tomasi, 
 M. Cossi, N. Rega, J. M. Millam, M. Klene, J. E. Knox, J. B. Cross, 
 V. Bakken, C. Adamo, J. Jaramillo, R. Gomperts, R. E. Stratmann, 
 O. Yazyev, A. J. Austin, R. Cammi, C. Pomelli, J. W. Ochterski, 
 R. L. Martin, K. Morokuma, V. G. Zakrzewski, G. A. Voth, 
 P. Salvador, J. J. Dannenberg, S. Dapprich, A. D. Daniels, 
 O. Farkas, J. B. Foresman, J. V. Ortiz, J. Cioslowski, 
 and D. J. Fox, Gaussian, Inc., Wallingford CT, 2013.
 
 ******************************************
 Gaussian 09:  ES64L-G09RevD.01 24-Apr-2013
                28-Jan-2020 
 ******************************************
 -----------------------------
 # b3lyp 6-31G(2df,p) opt Freq
 -----------------------------
 1/14=-1,18=20,19=15,26=3,38=1/1,3;
 2/9=110,12=2,17=6,18=5,40=1/2;
 3/5=1,6=6,7=104,11=2,16=1,25=1,30=1,71=1,74=-5/1,2,3;
 4//1;
 5/5=2,38=5/2;
 6/7=2,8=2,9=2,10=2,28=1/1;
 7//1,2,3,16;
 1/14=-1,18=20,19=15,26=3/3(2);
 2/9=110/2;
 99//99;
 2/9=110/2;
 3/5=1,6=6,7=104,11=2,16=1,25=1,30=1,71=1,74=-5/1,2,3;
 4/5=5,16=3,69=1/1;
 5/5=2,38=5/2;
 7//1,2,3,16;
 1/14=-1,18=20,19=15,26=3/3(-5);
 2/9=110/2;
 6/7=2,8=2,9=2,10=2,19=2,28=1/1;
 99/9=1/99;
 -----
 titel
 -----
 Symbolic Z-matrix:
 Charge =  0 Multiplicity = 1
 O                     1.51463   0.93623  -0.02022 
 C                     0.19576   0.47726   0.23266 
 C                    -0.74912   1.25348  -0.67884 
 C                    -2.1961    0.80097  -0.55278 
 C                    -3.27684   1.73552  -1.20279 
 O                    -3.13704   2.61656  -0.03922 
 C                    -3.01668   1.34402   0.67653 
 C                    -4.3952    0.71035   0.42478 
 C                    -4.57506   0.98111  -0.87014 
 H                     2.11426   0.47016   0.56948 
 H                     0.10514  -0.60363   0.032 
 H                    -0.08489   0.63515   1.28688 
 H                    -0.67226   2.32115  -0.45618 
 H                    -0.41166   1.11136  -1.7134 
 H                    -2.31032  -0.26746  -0.76009 
 H                    -3.15053   2.22958  -2.16573 
 H                    -2.62365   1.42824   1.68926 
 H                    -5.01362   0.18172   1.13478 
 H                    -5.38492   0.7415   -1.54291 
 

 GradGradGradGradGradGradGradGradGradGradGradGradGradGradGradGradGradGrad
 Berny optimization.
 Initialization pass.
                           ----------------------------
                           !    Initial Parameters    !
                           ! (Angstroms and Degrees)  !
 --------------------------                            --------------------------
 ! Name  Definition              Value          Derivative Info.                !
 --------------------------------------------------------------------------------
 ! R1    R(1,2)                  1.4192         estimate D2E/DX2                !
 ! R2    R(1,10)                 0.9615         estimate D2E/DX2                !
 ! R3    R(2,3)                  1.5252         estimate D2E/DX2                !
 ! R4    R(2,11)                 1.1031         estimate D2E/DX2                !
 ! R5    R(2,12)                 1.1023         estimate D2E/DX2                !
 ! R6    R(3,4)                  1.5213         estimate D2E/DX2                !
 ! R7    R(3,13)                 1.0933         estimate D2E/DX2                !
 ! R8    R(3,14)                 1.0974         estimate D2E/DX2                !
 ! R9    R(4,5)                  1.5697         estimate D2E/DX2                !
 ! R10   R(4,7)                  1.5746         estimate D2E/DX2                !
 ! R11   R(4,15)                 1.0943         estimate D2E/DX2                !
 ! R12   R(5,6)                  1.4662         estimate D2E/DX2                !
 ! R13   R(5,9)                  1.5379         estimate D2E/DX2                !
 ! R14   R(5,16)                 1.0896         estimate D2E/DX2                !
 ! R15   R(6,7)                  1.465          estimate D2E/DX2                !
 ! R16   R(7,8)                  1.5379         estimate D2E/DX2                !
 ! R17   R(7,17)                 1.0896         estimate D2E/DX2                !
 ! R18   R(8,9)                  1.3351         estimate D2E/DX2                !
 ! R19   R(8,18)                 1.0798         estimate D2E/DX2                !
 ! R20   R(9,19)                 1.0798         estimate D2E/DX2                !
 ! A1    A(2,1,10)             108.2707         estimate D2E/DX2                !
 ! A2    A(1,2,3)              107.7371         estimate D2E/DX2                !
 ! A3    A(1,2,11)             111.1512         estimate D2E/DX2                !
 ! A4    A(1,2,12)             111.144          estimate D2E/DX2                !
 ! A5    A(3,2,11)             109.821          estimate D2E/DX2                !
 ! A6    A(3,2,12)             109.9338         estimate D2E/DX2                !
 ! A7    A(11,2,12)            107.0625         estimate D2E/DX2                !
 ! A8    A(2,3,4)              112.8519         estimate D2E/DX2                !
 ! A9    A(2,3,13)             109.3734         estimate D2E/DX2                !
 ! A10   A(2,3,14)             107.8777         estimate D2E/DX2                !
 ! A11   A(4,3,13)             109.9042         estimate D2E/DX2                !
 ! A12   A(4,3,14)             109.3936         estimate D2E/DX2                !
 ! A13   A(13,3,14)            107.2673         estimate D2E/DX2                !
 ! A14   A(3,4,5)              116.3252         estimate D2E/DX2                !
 ! A15   A(3,4,7)              117.2434         estimate D2E/DX2                !
 ! A16   A(3,4,15)             111.9613         estimate D2E/DX2                !
 ! A17   A(5,4,7)               76.0638         estimate D2E/DX2                !
 ! A18   A(5,4,15)             115.5297         estimate D2E/DX2                !
 ! A19   A(7,4,15)             115.4807         estimate D2E/DX2                !
 ! A20   A(4,5,6)               87.9073         estimate D2E/DX2                !
 ! A21   A(4,5,9)              101.5123         estimate D2E/DX2                !
 ! A22   A(4,5,16)             123.7857         estimate D2E/DX2                !
 ! A23   A(6,5,9)              101.7478         estimate D2E/DX2                !
 ! A24   A(6,5,16)             114.6967         estimate D2E/DX2                !
 ! A25   A(9,5,16)             120.7591         estimate D2E/DX2                !
 ! A26   A(5,6,7)               82.7382         estimate D2E/DX2                !
 ! A27   A(4,7,6)               87.7623         estimate D2E/DX2                !
 ! A28   A(4,7,8)              101.3746         estimate D2E/DX2                !
 ! A29   A(4,7,17)             124.3545         estimate D2E/DX2                !
 ! A30   A(6,7,8)              101.7876         estimate D2E/DX2                !
 ! A31   A(6,7,17)             114.6209         estimate D2E/DX2                !
 ! A32   A(8,7,17)             120.4854         estimate D2E/DX2                !
 ! A33   A(7,8,9)              101.3006         estimate D2E/DX2                !
 ! A34   A(7,8,18)             127.4039         estimate D2E/DX2                !
 ! A35   A(9,8,18)             131.2896         estimate D2E/DX2                !
 ! A36   A(5,9,8)              101.2771         estimate D2E/DX2                !
 ! A37   A(5,9,19)             127.3891         estimate D2E/DX2                !
 ! A38   A(8,9,19)             131.3267         estimate D2E/DX2                !
 ! D1    D(10,1,2,3)           178.3369         estimate D2E/DX2                !
 ! D2    D(10,1,2,11)          -61.3004         estimate D2E/DX2                !
 ! D3    D(10,1,2,12)           57.84           estimate D2E/DX2                !
 ! D4    D(1,2,3,4)            177.0829         estimate D2E/DX2                !
 ! D5    D(1,2,3,13)           -60.2465         estimate D2E/DX2                !
 ! D6    D(1,2,3,14)            56.1151         estimate D2E/DX2                !
 ! D7    D(11,2,3,4)            55.8858         estimate D2E/DX2                !
 ! D8    D(11,2,3,13)          178.5564         estimate D2E/DX2                !
 ! D9    D(11,2,3,14)          -65.082          estimate D2E/DX2                !
 ! D10   D(12,2,3,4)           -61.6619         estimate D2E/DX2                !
 ! D11   D(12,2,3,13)           61.0088         estimate D2E/DX2                !
 ! D12   D(12,2,3,14)          177.3703         estimate D2E/DX2                !
 ! D13   D(2,3,4,5)            167.0145         estimate D2E/DX2                !
 ! D14   D(2,3,4,7)             79.736          estimate D2E/DX2                !
 ! D15   D(2,3,4,15)           -57.0972         estimate D2E/DX2                !
 ! D16   D(13,3,4,5)            44.641          estimate D2E/DX2                !
 ! D17   D(13,3,4,7)           -42.6376         estimate D2E/DX2                !
 ! D18   D(13,3,4,15)         -179.4708         estimate D2E/DX2                !
 ! D19   D(14,3,4,5)           -72.8843         estimate D2E/DX2                !
 ! D20   D(14,3,4,7)          -160.1628         estimate D2E/DX2                !
 ! D21   D(14,3,4,15)           63.0039         estimate D2E/DX2                !
 ! D22   D(3,4,5,6)            -77.9181         estimate D2E/DX2                !
 ! D23   D(3,4,5,9)           -179.4832         estimate D2E/DX2                !
 ! D24   D(3,4,5,16)            40.6758         estimate D2E/DX2                !
 ! D25   D(7,4,5,6)             35.876          estimate D2E/DX2                !
 ! D26   D(7,4,5,9)            -65.6891         estimate D2E/DX2                !
 ! D27   D(7,4,5,16)           154.4699         estimate D2E/DX2                !
 ! D28   D(15,4,5,6)           147.7581         estimate D2E/DX2                !
 ! D29   D(15,4,5,9)            46.193          estimate D2E/DX2                !
 ! D30   D(15,4,5,16)          -93.648          estimate D2E/DX2                !
 ! D31   D(3,4,7,6)             76.8018         estimate D2E/DX2                !
 ! D32   D(3,4,7,8)            178.3783         estimate D2E/DX2                !
 ! D33   D(3,4,7,17)           -41.7737         estimate D2E/DX2                !
 ! D34   D(5,4,7,6)            -35.9138         estimate D2E/DX2                !
 ! D35   D(5,4,7,8)             65.6626         estimate D2E/DX2                !
 ! D36   D(5,4,7,17)          -154.4894         estimate D2E/DX2                !
 ! D37   D(15,4,7,6)          -147.8541         estimate D2E/DX2                !
 ! D38   D(15,4,7,8)           -46.2776         estimate D2E/DX2                !
 ! D39   D(15,4,7,17)           93.5704         estimate D2E/DX2                !
 ! D40   D(4,5,6,7)            -38.0465         estimate D2E/DX2                !
 ! D41   D(9,5,6,7)             63.2791         estimate D2E/DX2                !
 ! D42   D(16,5,6,7)          -164.6075         estimate D2E/DX2                !
 ! D43   D(4,5,9,8)             47.0987         estimate D2E/DX2                !
 ! D44   D(4,5,9,19)          -132.0156         estimate D2E/DX2                !
 ! D45   D(6,5,9,8)            -43.1473         estimate D2E/DX2                !
 ! D46   D(6,5,9,19)           137.7384         estimate D2E/DX2                !
 ! D47   D(16,5,9,8)          -171.4915         estimate D2E/DX2                !
 ! D48   D(16,5,9,19)            9.3942         estimate D2E/DX2                !
 ! D49   D(5,6,7,4)             37.9099         estimate D2E/DX2                !
 ! D50   D(5,6,7,8)            -63.2455         estimate D2E/DX2                !
 ! D51   D(5,6,7,17)           165.0176         estimate D2E/DX2                !
 ! D52   D(4,7,8,9)            -46.9943         estimate D2E/DX2                !
 ! D53   D(4,7,8,18)           132.2029         estimate D2E/DX2                !
 ! D54   D(6,7,8,9)             43.0799         estimate D2E/DX2                !
 ! D55   D(6,7,8,18)          -137.7229         estimate D2E/DX2                !
 ! D56   D(17,7,8,9)           171.1564         estimate D2E/DX2                !
 ! D57   D(17,7,8,18)           -9.6464         estimate D2E/DX2                !
 ! D58   D(7,8,9,5)              0.0621         estimate D2E/DX2                !
 ! D59   D(7,8,9,19)           179.125          estimate D2E/DX2                !
 ! D60   D(18,8,9,5)          -179.0892         estimate D2E/DX2                !
 ! D61   D(18,8,9,19)           -0.0263         estimate D2E/DX2                !
 --------------------------------------------------------------------------------
 Trust Radius=3.00D-01 FncErr=1.00D-07 GrdErr=1.00D-06
 Number of steps in this run=    114 maximum allowed number of steps=    114.
 GradGradGradGradGradGradGradGradGradGradGradGradGradGradGradGradGradGrad

                          Input orientation:                          
 ---------------------------------------------------------------------
 Center     Atomic      Atomic             Coordinates (Angstroms)
 Number     Number       Type             X           Y           Z
 ---------------------------------------------------------------------
      1          8           0        1.514629    0.936231   -0.020223
      2          6           0        0.195763    0.477262    0.232664
      3          6           0       -0.749118    1.253480   -0.678840
      4          6           0       -2.196101    0.800972   -0.552785
      5          6           0       -3.276844    1.735520   -1.202790
      6          8           0       -3.137045    2.616558   -0.039225
      7          6           0       -3.016684    1.344018    0.676529
      8          6           0       -4.395203    0.710352    0.424784
      9          6           0       -4.575061    0.981112   -0.870143
     10          1           0        2.114265    0.470162    0.569481
     11          1           0        0.105143   -0.603630    0.031996
     12          1           0       -0.084893    0.635150    1.286881
     13          1           0       -0.672257    2.321150   -0.456177
     14          1           0       -0.411665    1.111357   -1.713398
     15          1           0       -2.310318   -0.267463   -0.760086
     16          1           0       -3.150525    2.229583   -2.165732
     17          1           0       -2.623654    1.428235    1.689262
     18          1           0       -5.013621    0.181720    1.134781
     19          1           0       -5.384924    0.741497   -1.542912
 ---------------------------------------------------------------------
                    Distance matrix (angstroms):
                    1          2          3          4          5
     1  O    0.000000
     2  C    1.419159   0.000000
     3  C    2.378860   1.525174   0.000000
     4  C    3.751191   2.538254   1.521320   0.000000
     5  C    4.999555   3.962669   2.626079   1.569680   0.000000
     6  O    4.945900   3.969650   2.822992   2.108428   1.466171
     7  C    4.602668   3.356799   2.643308   1.574632   1.937214
     8  C    5.930866   4.600893   3.847976   2.408299   2.225016
     9  C    6.148878   4.922480   3.840393   2.406786   1.537905
    10  H    0.961527   1.947856   3.220380   4.466337   5.814304
    11  H    2.088193   1.103089   2.164234   2.758731   4.293502
    12  H    2.087497   1.102302   2.165083   2.805185   4.194977
    13  H    2.624981   2.151252   1.093345   2.154616   2.772051
    14  H    2.570627   2.134995   1.097445   2.151180   2.976500
    15  H    4.077560   2.796536   2.181104   1.094337   2.267620
    16  H    5.295247   4.474437   2.988375   2.356577   1.089638
    17  H    4.504420   3.312876   3.025282   2.367073   2.980780
    18  H    6.672434   5.295173   4.756457   3.342121   3.300747
    19  H    7.068263   5.862300   4.743359   3.339534   2.355370
                    6          7          8          9         10
     6  O    0.000000
     7  C    1.464974   0.000000
     8  C    2.330641   1.537928   0.000000
     9  C    2.330879   2.225406   1.335102   0.000000
    10  H    5.705593   5.205931   6.515505   6.861535   0.000000
    11  H    4.570171   3.735580   4.704673   5.022904   2.340617
    12  H    3.873004   3.077405   4.396321   4.993400   2.319090
    13  H    2.517200   2.781033   4.151035   4.147161   3.498976
    14  H    3.534994   3.542881   4.538855   4.249930   3.464533
    15  H    3.085562   2.271494   2.589746   2.588457   4.678543
    16  H    2.161473   2.980031   3.250855   2.294892   6.188293
    17  H    2.159478   1.089584   2.291865   3.249378   4.961823
    18  H    3.290633   2.355566   1.079810   2.202518   7.156083
    19  H    3.290880   3.301138   2.202804   1.079774   7.795746
                   11         12         13         14         15
    11  H    0.000000
    12  H    1.773535   0.000000
    13  H    3.065453   2.495164   0.000000
    14  H    2.500934   3.055361   1.764118   0.000000
    15  H    2.564148   3.155519   3.078395   2.532752   0.000000
    16  H    4.843189   4.884758   3.012105   2.992723   2.986139
    17  H    3.784354   2.690019   3.034495   4.070799   2.995476
    18  H    5.294776   4.951878   5.094679   5.491298   3.331687
    19  H    5.867754   6.009107   5.087782   4.989907   3.329267
                   16         17         18         19
    16  H    0.000000
    17  H    3.972497   0.000000
    18  H    4.307930   2.751944   0.000000
    19  H    2.755875   4.306178   2.760662   0.000000
 Stoichiometry    C7H10O2
 Framework group  C1[X(C7H10O2)]
 Deg. of freedom    51
 Full point group                 C1      NOp   1
 Largest Abelian subgroup         C1      NOp   1
 Largest concise Abelian subgroup C1      NOp   1
                         Standard orientation:                         
 ---------------------------------------------------------------------
 Center     Atomic      Atomic             Coordinates (Angstroms)
 Number     Number       Type             X           Y           Z
 ---------------------------------------------------------------------
      1          8           0       -3.562764   -0.094662    0.078439
      2          6           0       -2.316108    0.518384   -0.211450
      3          6           0       -1.242032   -0.562906   -0.153778
      4          6           0        0.140328   -0.042540   -0.518079
      5          6           0        1.349350   -0.987121   -0.186531
      6          8           0        1.228935   -0.561616    1.211361
      7          6           0        0.934650    0.735346    0.597005
      8          6           0        2.253830    1.044986   -0.130394
      9          6           0        2.540270   -0.142371   -0.669498
     10          1           0       -4.242363    0.585489    0.069942
     11          1           0       -2.324583    0.984223   -1.211314
     12          1           0       -2.086496    1.315284    0.514704
     13          1           0       -1.222613   -1.001794    0.847423
     14          1           0       -1.527631   -1.359096   -0.852992
     15          1           0        0.156968    0.413367   -1.512788
     16          1           0        1.334181   -2.066232   -0.336870
     17          1           0        0.490437    1.466771    1.271457
     18          1           0        2.769658    1.992407   -0.178389
     19          1           0        3.361348   -0.462852   -1.293225
 ---------------------------------------------------------------------
 Rotational constants (GHZ):      4.7093533      0.8706005      0.8496796
 Standard basis: 6-31G(2df,p) (6D, 7F)
 There are   329 symmetry adapted cartesian basis functions of A   symmetry.
 There are   302 symmetry adapted basis functions of A   symmetry.
   302 basis functions,   466 primitive gaussians,   329 cartesian basis functions
    34 alpha electrons       34 beta electrons
       nuclear repulsion energy       451.7911898817 Hartrees.
 NAtoms=   19 NActive=   19 NUniq=   19 SFac= 1.00D+00 NAtFMM=   60 NAOKFM=F Big=F
 Integral buffers will be    131072 words long.
 Raffenetti 2 integral format.
 Two-electron integral symmetry is turned on.
 One-electron integrals computed using PRISM.
 NBasis=   302 RedAO= T EigKep=  2.40D-04  NBF=   302
 NBsUse=   302 1.00D-06 EigRej= -1.00D+00 NBFU=   302
 ExpMin= 1.61D-01 ExpMax= 5.48D+03 ExpMxC= 8.25D+02 IAcc=1 IRadAn=         1 AccDes= 0.00D+00
 Harris functional with IExCor=  402 and IRadAn=       1 diagonalized for initial guess.
 HarFok:  IExCor=  402 AccDes= 0.00D+00 IRadAn=         1 IDoV= 1 UseB2=F ITyADJ=14
 ICtDFT=  3500011 ScaDFX=  1.000000  1.000000  1.000000  1.000000
 FoFCou: FMM=F IPFlag=           0 FMFlag=      100000 FMFlg1=           0
         NFxFlg=           0 DoJE=T BraDBF=F KetDBF=T FulRan=T
         wScrn=  0.000000 ICntrl=     500 IOpCl=  0 I1Cent=   200000004 NGrid=           0
         NMat0=    1 NMatS0=      1 NMatT0=    0 NMatD0=    1 NMtDS0=    0 NMtDT0=    0
 Petite list used in FoFCou.
 Requested convergence on RMS density matrix=1.00D-08 within 128 cycles.
 Requested convergence on MAX density matrix=1.00D-06.
 Requested convergence on             energy=1.00D-06.
 No special actions if energy rises.
 Integral accuracy reduced to 1.0D-05 until final iterations.
 Initial convergence to 1.0D-05 achieved.  Increase integral accuracy.
 SCF Done:  E(RB3LYP) =  -423.123510145     A.U. after   14 cycles
            NFock= 14  Conv=0.23D-08     -V/T= 2.0074

 **********************************************************************

            Population analysis using the SCF density.

 **********************************************************************

 Orbital symmetries:
       Occupied  (A) (A) (A) (A) (A) (A) (A) (A) (A) (A) (A) (A)
                 (A) (A) (A) (A) (A) (A) (A) (A) (A) (A) (A) (A)
                 (A) (A) (A) (A) (A) (A) (A) (A) (A) (A)
       Virtual   (A) (A) (A) (A) (A) (A) (A) (A) (A) (A) (A) (A)
                 (A) (A) (A) (A) (A) (A) (A) (A) (A) (A) (A) (A)
                 (A) (A) (A) (A) (A) (A) (A) (A) (A) (A) (A) (A)
                 (A) (A) (A) (A) (A) (A) (A) (A) (A) (A) (A) (A)
                 (A) (A) (A) (A) (A) (A) (A) (A) (A) (A) (A) (A)
                 (A) (A) (A) (A) (A) (A) (A) (A) (A) (A) (A) (A)
                 (A) (A) (A) (A) (A) (A) (A) (A) (A) (A) (A) (A)
                 (A) (A) (A) (A) (A) (A) (A) (A) (A) (A) (A) (A)
                 (A) (A) (A) (A) (A) (A) (A) (A) (A) (A) (A) (A)
                 (A) (A) (A) (A) (A) (A) (A) (A) (A) (A) (A) (A)
                 (A) (A) (A) (A) (A) (A) (A) (A) (A) (A) (A) (A)
                 (A) (A) (A) (A) (A) (A) (A) (A) (A) (A) (A) (A)
                 (A) (A) (A) (A) (A) (A) (A) (A) (A) (A) (A) (A)
                 (A) (A) (A) (A) (A) (A) (A) (A) (A) (A) (A) (A)
                 (A) (A) (A) (A) (A) (A) (A) (A) (A) (A) (A) (A)
                 (A) (A) (A) (A) (A) (A) (A) (A) (A) (A) (A) (A)
                 (A) (A) (A) (A) (A) (A) (A) (A) (A) (A) (A) (A)
                 (A) (A) (A) (A) (A) (A) (A) (A) (A) (A) (A) (A)
                 (A) (A) (A) (A) (A) (A) (A) (A) (A) (A) (A) (A)
                 (A) (A) (A) (A) (A) (A) (A) (A) (A) (A) (A) (A)
                 (A) (A) (A) (A) (A) (A) (A) (A) (A) (A) (A) (A)
                 (A) (A) (A) (A) (A) (A) (A) (A) (A) (A) (A) (A)
                 (A) (A) (A) (A)
 The electronic state is 1-A.
 Alpha  occ. eigenvalues --  -19.13209 -19.12758 -10.24053 -10.24020 -10.22689
 Alpha  occ. eigenvalues --  -10.19756 -10.18617 -10.18529 -10.17571  -1.04500
 Alpha  occ. eigenvalues --   -1.01314  -0.80658  -0.77363  -0.69178  -0.68513
 Alpha  occ. eigenvalues --   -0.60467  -0.54436  -0.54160  -0.52787  -0.49737
 Alpha  occ. eigenvalues --   -0.48660  -0.44987  -0.41797  -0.40344  -0.39258
 Alpha  occ. eigenvalues --   -0.38150  -0.36339  -0.35502  -0.33410  -0.32113
 Alpha  occ. eigenvalues --   -0.30479  -0.26629  -0.25149  -0.23572
 Alpha virt. eigenvalues --    0.00053   0.07784   0.09862   0.10229   0.12043
 Alpha virt. eigenvalues --    0.12942   0.14339   0.15237   0.15613   0.16202
 Alpha virt. eigenvalues --    0.17355   0.18677   0.20521   0.21176   0.21726
 Alpha virt. eigenvalues --    0.22196   0.25521   0.27149   0.28802   0.29790
 Alpha virt. eigenvalues --    0.36483   0.40841   0.42535   0.45218   0.47011
 Alpha virt. eigenvalues --    0.48484   0.48658   0.50775   0.51514   0.53478
 Alpha virt. eigenvalues --    0.55004   0.55868   0.59119   0.59889   0.61113
 Alpha virt. eigenvalues --    0.62820   0.63925   0.66019   0.68354   0.69857
 Alpha virt. eigenvalues --    0.70806   0.71909   0.74111   0.75448   0.76074
 Alpha virt. eigenvalues --    0.77346   0.77612   0.78400   0.78780   0.81375
 Alpha virt. eigenvalues --    0.83421   0.84728   0.86945   0.87415   0.89385
 Alpha virt. eigenvalues --    0.89898   0.90705   0.91509   0.92729   0.94313
 Alpha virt. eigenvalues --    0.96822   0.98386   1.02378   1.04038   1.05853
 Alpha virt. eigenvalues --    1.10742   1.12464   1.14827   1.16662   1.18415
 Alpha virt. eigenvalues --    1.22696   1.24226   1.25003   1.28146   1.30066
 Alpha virt. eigenvalues --    1.33791   1.34438   1.37365   1.39879   1.41344
 Alpha virt. eigenvalues --    1.42113   1.42768   1.45687   1.47350   1.48907
 Alpha virt. eigenvalues --    1.50049   1.52680   1.53504   1.56868   1.58151
 Alpha virt. eigenvalues --    1.58886   1.60643   1.61708   1.64167   1.64680
 Alpha virt. eigenvalues --    1.67543   1.68046   1.73462   1.74048   1.76368
 Alpha virt. eigenvalues --    1.79587   1.81741   1.88291   1.91702   1.93419
 Alpha virt. eigenvalues --    1.95925   2.00534   2.03706   2.08300   2.14380
 Alpha virt. eigenvalues --    2.16048   2.17308   2.27516   2.30883   2.34180
 Alpha virt. eigenvalues --    2.36336   2.38777   2.41848   2.43171   2.48037
 Alpha virt. eigenvalues --    2.49577   2.51862   2.54210   2.55642   2.59825
 Alpha virt. eigenvalues --    2.60477   2.61670   2.68940   2.70217   2.75841
 Alpha virt. eigenvalues --    2.77292   2.77793   2.79575   2.81180   2.82326
 Alpha virt. eigenvalues --    2.83532   2.84482   2.86148   2.89269   2.89581
 Alpha virt. eigenvalues --    2.93005   2.95596   2.95922   2.98774   3.00629
 Alpha virt. eigenvalues --    3.03149   3.04355   3.06527   3.07881   3.10658
 Alpha virt. eigenvalues --    3.12710   3.14199   3.20913   3.21884   3.22972
 Alpha virt. eigenvalues --    3.26236   3.27228   3.30041   3.31468   3.31927
 Alpha virt. eigenvalues --    3.36701   3.38081   3.41551   3.44542   3.45123
 Alpha virt. eigenvalues --    3.47167   3.51030   3.52206   3.54805   3.59230
 Alpha virt. eigenvalues --    3.59988   3.64910   3.66896   3.74206   3.76922
 Alpha virt. eigenvalues --    3.77117   3.82439   3.82574   3.88913   3.95670
 Alpha virt. eigenvalues --    4.01410   4.03045   4.07470   4.10094   4.12577
 Alpha virt. eigenvalues --    4.14545   4.17178   4.24579   4.25478   4.29968
 Alpha virt. eigenvalues --    4.31084   4.34499   4.36992   4.41748   4.42390
 Alpha virt. eigenvalues --    4.43429   4.44975   4.45589   4.49508   4.50066
 Alpha virt. eigenvalues --    4.52158   4.52630   4.54252   4.54982   4.55962
 Alpha virt. eigenvalues --    4.57380   4.57689   4.59911   4.62595   4.62999
 Alpha virt. eigenvalues --    4.66266   4.68315   4.69434   4.71323   4.71555
 Alpha virt. eigenvalues --    4.72976   4.77149   4.77701   4.78359   4.84318
 Alpha virt. eigenvalues --    4.85945   4.87281   4.90360   4.92580   4.96479
 Alpha virt. eigenvalues --    4.97698   5.02286   5.03763   5.10005   5.14736
 Alpha virt. eigenvalues --    5.17319   5.23206   5.23894   5.26212   5.33228
 Alpha virt. eigenvalues --    5.35797   5.37073   5.38817   5.46348   5.47800
 Alpha virt. eigenvalues --    5.50594   5.55179   5.59586   5.62978   5.66354
 Alpha virt. eigenvalues --    5.75671   5.82921   5.84082   5.89489   5.93500
 Alpha virt. eigenvalues --    5.99181   6.00912   6.01679   6.11570   6.15004
 Alpha virt. eigenvalues --    6.51901   7.03388   7.10889   7.12890  10.34906
 Alpha virt. eigenvalues --   11.20294  11.23859  11.56711  12.18831  12.47974
 Alpha virt. eigenvalues --   12.59371  13.18520  13.48970
          Condensed to atoms (all electrons):
               1          2          3          4          5          6
     1  O    7.843468   0.359433  -0.034481   0.001506  -0.000017   0.000000
     2  C    0.359433   4.738969   0.406773  -0.027195   0.001591  -0.000173
     3  C   -0.034481   0.406773   4.960841   0.323168  -0.018012  -0.000934
     4  C    0.001506  -0.027195   0.323168   4.994443   0.336980  -0.110046
     5  C   -0.000017   0.001591  -0.018012   0.336980   4.839023   0.305349
     6  O    0.000000  -0.000173  -0.000934  -0.110046   0.305349   7.904820
     7  C    0.000019  -0.003777  -0.018158   0.330476  -0.121750   0.309186
     8  C    0.000000  -0.000039   0.002568  -0.037246   0.010630  -0.051528
     9  C    0.000000  -0.000039   0.004120  -0.041339   0.338762  -0.047223
    10  H    0.303597  -0.049496   0.006389  -0.000394   0.000001   0.000000
    11  H   -0.030497   0.355304  -0.040101   0.003839  -0.000035  -0.000012
    12  H   -0.030001   0.358310  -0.036413   0.000816  -0.000010   0.000093
    13  H    0.002517  -0.029166   0.349384  -0.020038  -0.003310   0.014454
    14  H    0.003005  -0.033115   0.351958  -0.024022  -0.002239   0.000252
    15  H   -0.000003  -0.004594  -0.046033   0.336480  -0.028858   0.007143
    16  H    0.000000  -0.000014  -0.000866  -0.044370   0.372970  -0.025091
    17  H   -0.000009   0.000551  -0.000375  -0.044627   0.008872  -0.025226
    18  H    0.000000  -0.000005  -0.000107   0.003116   0.007418   0.001847
    19  H    0.000000   0.000002  -0.000068   0.003058  -0.046558   0.001902
               7          8          9         10         11         12
     1  O    0.000019   0.000000   0.000000   0.303597  -0.030497  -0.030001
     2  C   -0.003777  -0.000039  -0.000039  -0.049496   0.355304   0.358310
     3  C   -0.018158   0.002568   0.004120   0.006389  -0.040101  -0.036413
     4  C    0.330476  -0.037246  -0.041339  -0.000394   0.003839   0.000816
     5  C   -0.121750   0.010630   0.338762   0.000001  -0.000035  -0.000010
     6  O    0.309186  -0.051528  -0.047223   0.000000  -0.000012   0.000093
     7  C    4.847417   0.330490   0.011869   0.000001  -0.000439   0.002599
     8  C    0.330490   4.914381   0.629361   0.000000  -0.000033   0.000026
     9  C    0.011869   0.629361   4.904687   0.000000   0.000008  -0.000009
    10  H    0.000001   0.000000   0.000000   0.461978  -0.003226  -0.003886
    11  H   -0.000439  -0.000033   0.000008  -0.003226   0.690841  -0.062136
    12  H    0.002599   0.000026  -0.000009  -0.003886  -0.062136   0.684727
    13  H   -0.007380   0.000449   0.000458  -0.000053   0.006424  -0.007442
    14  H    0.003534   0.000031  -0.000286  -0.000047  -0.007557   0.007215
    15  H   -0.033095   0.003154   0.003252  -0.000001   0.006009  -0.000391
    16  H    0.009255   0.009042  -0.055125   0.000000   0.000003   0.000004
    17  H    0.372112  -0.054968   0.009099   0.000003  -0.000059   0.001654
    18  H   -0.047454   0.377397  -0.051532   0.000000   0.000001   0.000005
    19  H    0.007563  -0.051645   0.377096   0.000000   0.000000   0.000000
              13         14         15         16         17         18
     1  O    0.002517   0.003005  -0.000003   0.000000  -0.000009   0.000000
     2  C   -0.029166  -0.033115  -0.004594  -0.000014   0.000551  -0.000005
     3  C    0.349384   0.351958  -0.046033  -0.000866  -0.000375  -0.000107
     4  C   -0.020038  -0.024022   0.336480  -0.044370  -0.044627   0.003116
     5  C   -0.003310  -0.002239  -0.028858   0.372970   0.008872   0.007418
     6  O    0.014454   0.000252   0.007143  -0.025091  -0.025226   0.001847
     7  C   -0.007380   0.003534  -0.033095   0.009255   0.372112  -0.047454
     8  C    0.000449   0.000031   0.003154   0.009042  -0.054968   0.377397
     9  C    0.000458  -0.000286   0.003252  -0.055125   0.009099  -0.051532
    10  H   -0.000053  -0.000047  -0.000001   0.000000   0.000003   0.000000
    11  H    0.006424  -0.007557   0.006009   0.000003  -0.000059   0.000001
    12  H   -0.007442   0.007215  -0.000391   0.000004   0.001654   0.000005
    13  H    0.599659  -0.036913   0.006408  -0.000303  -0.000328  -0.000003
    14  H   -0.036913   0.635932  -0.003308   0.001951  -0.000091   0.000002
    15  H    0.006408  -0.003308   0.680988   0.001576   0.001606  -0.000015
    16  H   -0.000303   0.001951   0.001576   0.653761  -0.000707  -0.000119
    17  H   -0.000328  -0.000091   0.001606  -0.000707   0.655325  -0.001553
    18  H   -0.000003   0.000002  -0.000015  -0.000119  -0.001553   0.604071
    19  H   -0.000003  -0.000007  -0.000018  -0.001485  -0.000118  -0.002979
              19
     1  O    0.000000
     2  C    0.000002
     3  C   -0.000068
     4  C    0.003058
     5  C   -0.046558
     6  O    0.001902
     7  C    0.007563
     8  C   -0.051645
     9  C    0.377096
    10  H    0.000000
    11  H    0.000000
    12  H    0.000000
    13  H   -0.000003
    14  H   -0.000007
    15  H   -0.000018
    16  H   -0.001485
    17  H   -0.000118
    18  H   -0.002979
    19  H    0.602331
 Mulliken charges:
               1
     1  O   -0.418537
     2  C   -0.073317
     3  C   -0.209653
     4  C    0.015393
     5  C   -0.000806
     6  O   -0.284814
     7  C    0.007532
     8  C   -0.082071
     9  C   -0.083160
    10  H    0.285135
    11  H    0.081666
    12  H    0.084840
    13  H    0.125187
    14  H    0.103707
    15  H    0.069700
    16  H    0.079518
    17  H    0.078838
    18  H    0.109913
    19  H    0.110929
 Sum of Mulliken charges =   0.00000
 Mulliken charges with hydrogens summed into heavy atoms:
               1
     1  O   -0.133402
     2  C    0.093188
     3  C    0.019240
     4  C    0.085094
     5  C    0.078712
     6  O   -0.284814
     7  C    0.086371
     8  C    0.027842
     9  C    0.027770
 Electronic spatial extent (au):  <R**2>=           1400.1168
 Charge=              0.0000 electrons
 Dipole moment (field-independent basis, Debye):
    X=             -0.1749    Y=              1.9673    Z=             -1.8294  Tot=              2.6921
 Quadrupole moment (field-independent basis, Debye-Ang):
   XX=            -50.8861   YY=            -49.6954   ZZ=            -55.6131
   XY=             -4.9950   XZ=             -2.7231   YZ=              2.8388
 Traceless Quadrupole moment (field-independent basis, Debye-Ang):
   XX=              1.1788   YY=              2.3694   ZZ=             -3.5482
   XY=             -4.9950   XZ=             -2.7231   YZ=              2.8388
 Octapole moment (field-independent basis, Debye-Ang**2):
  XXX=            -28.3280  YYY=             -2.2540  ZZZ=              2.1268  XYY=             -1.3038
  XXY=             24.2261  XXZ=             -8.1276  XZZ=             -7.4378  YZZ=              1.3417
  YYZ=              1.8653  XYZ=              3.0711
 Hexadecapole moment (field-independent basis, Debye-Ang**3):
 XXXX=          -1197.8400 YYYY=           -218.2570 ZZZZ=           -178.0908 XXXY=            -99.9001
 XXXZ=            -19.9855 YYYX=             -0.3200 YYYZ=              0.9177 ZZZX=             -0.0855
 ZZZY=              3.0656 XXYY=           -242.0644 XXZZ=           -261.0528 YYZZ=            -67.5170
 XXYZ=              6.9750 YYXZ=              0.1997 ZZXY=             -1.3058
 N-N= 4.517911898817D+02 E-N=-1.890777060330D+03  KE= 4.200304623722D+02
 Calling FoFJK, ICntrl=      2127 FMM=F ISym2X=0 I1Cent= 0 IOpClX= 0 NMat=1 NMatS=1 NMatT=0.
 ***** Axes restored to original set *****
 -------------------------------------------------------------------
 Center     Atomic                   Forces (Hartrees/Bohr)
 Number     Number              X              Y              Z
 -------------------------------------------------------------------
      1        8          -0.000007526   -0.000006741   -0.000001182
      2        6           0.000012044   -0.000001888   -0.000001979
      3        6          -0.000001590    0.000003194   -0.000002760
      4        6          -0.000006301   -0.000007274    0.000001244
      5        6          -0.000002964    0.000010647    0.000003463
      6        8           0.000002186   -0.000000979    0.000004677
      7        6           0.000002529    0.000002943    0.000002670
      8        6          -0.000001069   -0.000001378   -0.000003941
      9        6           0.000000767   -0.000000085    0.000007674
     10        1          -0.000000996   -0.000003360   -0.000006503
     11        1           0.000000387   -0.000001144   -0.000006582
     12        1           0.000000479   -0.000004316   -0.000002892
     13        1           0.000001109   -0.000000144    0.000001566
     14        1          -0.000002420    0.000005565   -0.000001934
     15        1           0.000001445    0.000002127   -0.000003347
     16        1           0.000000752    0.000005472    0.000005934
     17        1           0.000003373   -0.000004354    0.000000125
     18        1           0.000000211   -0.000002844    0.000000968
     19        1          -0.000002413    0.000004557    0.000002800
 -------------------------------------------------------------------
 Cartesian Forces:  Max     0.000012044 RMS     0.000004105

 GradGradGradGradGradGradGradGradGradGradGradGradGradGradGradGradGradGrad
 Berny optimization.
 FormGI is forming the generalized inverse of G from B-inverse, IUseBI=4.
 Internal  Forces:  Max     0.000010168 RMS     0.000001454
 Search for a local minimum.
 Step number   1 out of a maximum of  114
 All quantities printed in internal units (Hartrees-Bohrs-Radians)
 Mixed Optimization -- En-DIIS/RFO-DIIS
 Second derivative matrix not updated -- first step.
 ITU=  0
     Eigenvalues ---    0.00433   0.00484   0.00980   0.01413   0.01438
     Eigenvalues ---    0.01869   0.02187   0.02575   0.02942   0.03561
     Eigenvalues ---    0.03611   0.04921   0.05140   0.05343   0.05977
     Eigenvalues ---    0.06566   0.07119   0.07611   0.07656   0.08388
     Eigenvalues ---    0.09839   0.11069   0.12233   0.13630   0.14958
     Eigenvalues ---    0.14980   0.15993   0.15997   0.16000   0.20598
     Eigenvalues ---    0.21940   0.21941   0.22688   0.25758   0.27735
     Eigenvalues ---    0.28520   0.29874   0.30240   0.32383   0.33343
     Eigenvalues ---    0.33429   0.33966   0.34316   0.34429   0.34854
     Eigenvalues ---    0.34861   0.36017   0.36022   0.42587   0.52071
     Eigenvalues ---    0.55146
 RFO step:  Lambda= 0.00000000D+00 EMin= 4.32949440D-03
 Linear search not attempted -- first point.
 Iteration  1 RMS(Cart)=  0.00001977 RMS(Int)=  0.00000000
 Iteration  2 RMS(Cart)=  0.00000000 RMS(Int)=  0.00000000
 Variable       Old X    -DE/DX   Delta X   Delta X   Delta X     New X
                                 (Linear)    (Quad)   (Total)
    R1        2.68182  -0.00001   0.00000  -0.00002  -0.00002   2.68180
    R2        1.81702   0.00000   0.00000   0.00000   0.00000   1.81702
    R3        2.88216   0.00000   0.00000   0.00002   0.00002   2.88218
    R4        2.08454   0.00000   0.00000   0.00000   0.00000   2.08454
    R5        2.08305   0.00000   0.00000   0.00000   0.00000   2.08305
    R6        2.87488   0.00000   0.00000   0.00001   0.00001   2.87488
    R7        2.06612   0.00000   0.00000   0.00000   0.00000   2.06612
    R8        2.07387   0.00000   0.00000   0.00000   0.00000   2.07387
    R9        2.96626   0.00000   0.00000   0.00001   0.00001   2.96627
   R10        2.97562   0.00000   0.00000   0.00000   0.00000   2.97562
   R11        2.06800   0.00000   0.00000   0.00000   0.00000   2.06799
   R12        2.77066   0.00000   0.00000  -0.00001  -0.00001   2.77065
   R13        2.90622   0.00000   0.00000   0.00001   0.00001   2.90623
   R14        2.05912   0.00000   0.00000   0.00000   0.00000   2.05911
   R15        2.76840   0.00000   0.00000   0.00000   0.00000   2.76840
   R16        2.90626   0.00000   0.00000   0.00001   0.00001   2.90627
   R17        2.05902   0.00000   0.00000   0.00000   0.00000   2.05901
   R18        2.52298   0.00000   0.00000  -0.00001  -0.00001   2.52297
   R19        2.04054   0.00000   0.00000   0.00000   0.00000   2.04055
   R20        2.04048   0.00000   0.00000   0.00000   0.00000   2.04048
    A1        1.88968   0.00000   0.00000  -0.00001  -0.00001   1.88967
    A2        1.88037   0.00000   0.00000   0.00001   0.00001   1.88037
    A3        1.93996   0.00000   0.00000  -0.00001  -0.00001   1.93995
    A4        1.93983   0.00000   0.00000   0.00000   0.00000   1.93983
    A5        1.91674   0.00000   0.00000   0.00000   0.00000   1.91674
    A6        1.91871   0.00000   0.00000  -0.00001  -0.00001   1.91870
    A7        1.86859   0.00000   0.00000   0.00000   0.00000   1.86860
    A8        1.96964   0.00000   0.00000  -0.00001  -0.00001   1.96963
    A9        1.90893   0.00000   0.00000   0.00000   0.00000   1.90892
   A10        1.88282   0.00000   0.00000   0.00002   0.00002   1.88284
   A11        1.91819   0.00000   0.00000   0.00000   0.00000   1.91819
   A12        1.90928   0.00000   0.00000   0.00000   0.00000   1.90928
   A13        1.87217   0.00000   0.00000  -0.00001  -0.00001   1.87215
   A14        2.03026   0.00000   0.00000  -0.00001  -0.00001   2.03025
   A15        2.04628   0.00000   0.00000  -0.00001  -0.00001   2.04627
   A16        1.95409   0.00000   0.00000  -0.00001  -0.00001   1.95408
   A17        1.32756   0.00000   0.00000   0.00000   0.00000   1.32756
   A18        2.01637   0.00000   0.00000   0.00002   0.00002   2.01639
   A19        2.01552   0.00000   0.00000   0.00002   0.00002   2.01554
   A20        1.53427   0.00000   0.00000   0.00000   0.00000   1.53428
   A21        1.77172   0.00000   0.00000  -0.00002  -0.00002   1.77170
   A22        2.16047   0.00000   0.00000  -0.00001  -0.00001   2.16046
   A23        1.77583   0.00000   0.00000   0.00001   0.00001   1.77585
   A24        2.00184   0.00000   0.00000   0.00000   0.00000   2.00183
   A25        2.10764   0.00000   0.00000   0.00002   0.00002   2.10766
   A26        1.44405   0.00000   0.00000   0.00000   0.00000   1.44405
   A27        1.53174   0.00000   0.00000   0.00001   0.00001   1.53175
   A28        1.76932   0.00000   0.00000  -0.00002  -0.00002   1.76931
   A29        2.17040   0.00000   0.00000  -0.00001  -0.00001   2.17039
   A30        1.77653   0.00000   0.00000   0.00001   0.00001   1.77654
   A31        2.00051   0.00000   0.00000  -0.00001  -0.00001   2.00051
   A32        2.10287   0.00000   0.00000   0.00001   0.00001   2.10288
   A33        1.76803   0.00000   0.00000   0.00000   0.00000   1.76803
   A34        2.22362   0.00000   0.00000   0.00000   0.00000   2.22362
   A35        2.29144   0.00000   0.00000   0.00000   0.00000   2.29143
   A36        1.76762   0.00000   0.00000   0.00000   0.00000   1.76762
   A37        2.22336   0.00000   0.00000   0.00000   0.00000   2.22336
   A38        2.29208   0.00000   0.00000  -0.00001  -0.00001   2.29208
    D1        3.11257   0.00000   0.00000   0.00000   0.00000   3.11256
    D2       -1.06989   0.00000   0.00000   0.00000   0.00000  -1.06989
    D3        1.00950   0.00000   0.00000   0.00000   0.00000   1.00950
    D4        3.09068   0.00000   0.00000   0.00000   0.00000   3.09068
    D5       -1.05150   0.00000   0.00000   0.00000   0.00000  -1.05150
    D6        0.97939   0.00000   0.00000  -0.00001  -0.00001   0.97939
    D7        0.97539   0.00000   0.00000   0.00000   0.00000   0.97540
    D8        3.11640   0.00000   0.00000   0.00000   0.00000   3.11640
    D9       -1.13590   0.00000   0.00000   0.00000   0.00000  -1.13590
   D10       -1.07620   0.00000   0.00000   0.00000   0.00000  -1.07620
   D11        1.06480   0.00000   0.00000   0.00000   0.00000   1.06481
   D12        3.09570   0.00000   0.00000   0.00000   0.00000   3.09569
   D13        2.91495   0.00000   0.00000   0.00001   0.00001   2.91497
   D14        1.39166   0.00000   0.00000   0.00003   0.00003   1.39168
   D15       -0.99653   0.00000   0.00000   0.00002   0.00002  -0.99651
   D16        0.77913   0.00000   0.00000   0.00002   0.00002   0.77915
   D17       -0.74417   0.00000   0.00000   0.00003   0.00003  -0.74413
   D18       -3.13236   0.00000   0.00000   0.00003   0.00003  -3.13233
   D19       -1.27207   0.00000   0.00000   0.00003   0.00003  -1.27204
   D20       -2.79537   0.00000   0.00000   0.00005   0.00005  -2.79532
   D21        1.09963   0.00000   0.00000   0.00004   0.00004   1.09967
   D22       -1.35993   0.00000   0.00000   0.00001   0.00001  -1.35992
   D23       -3.13257   0.00000   0.00000   0.00000   0.00000  -3.13258
   D24        0.70993   0.00000   0.00000   0.00001   0.00001   0.70993
   D25        0.62615   0.00000   0.00000   0.00000   0.00000   0.62615
   D26       -1.14649   0.00000   0.00000  -0.00002  -0.00002  -1.14651
   D27        2.69601   0.00000   0.00000  -0.00001  -0.00001   2.69600
   D28        2.57887   0.00000   0.00000   0.00001   0.00001   2.57888
   D29        0.80622   0.00000   0.00000   0.00000   0.00000   0.80622
   D30       -1.63447   0.00000   0.00000   0.00001   0.00001  -1.63446
   D31        1.34044   0.00000   0.00000   0.00000   0.00000   1.34044
   D32        3.11329   0.00000   0.00000   0.00001   0.00001   3.11330
   D33       -0.72909   0.00000   0.00000   0.00000   0.00000  -0.72909
   D34       -0.62681   0.00000   0.00000   0.00001   0.00001  -0.62681
   D35        1.14603   0.00000   0.00000   0.00002   0.00002   1.14605
   D36       -2.69635   0.00000   0.00000   0.00001   0.00001  -2.69634
   D37       -2.58054   0.00000   0.00000  -0.00001  -0.00001  -2.58055
   D38       -0.80770   0.00000   0.00000   0.00000   0.00000  -0.80769
   D39        1.63311   0.00000   0.00000   0.00000   0.00000   1.63311
   D40       -0.66404   0.00000   0.00000   0.00001   0.00001  -0.66403
   D41        1.10443   0.00000   0.00000  -0.00001  -0.00001   1.10442
   D42       -2.87294   0.00000   0.00000   0.00002   0.00002  -2.87292
   D43        0.82203   0.00000   0.00000   0.00001   0.00001   0.82204
   D44       -2.30411   0.00000   0.00000   0.00002   0.00002  -2.30409
   D45       -0.75306   0.00000   0.00000   0.00001   0.00001  -0.75305
   D46        2.40399   0.00000   0.00000   0.00001   0.00001   2.40400
   D47       -2.99309   0.00000   0.00000  -0.00001  -0.00001  -2.99310
   D48        0.16396   0.00000   0.00000  -0.00001  -0.00001   0.16395
   D49        0.66165   0.00000   0.00000   0.00000   0.00000   0.66165
   D50       -1.10384   0.00000   0.00000   0.00001   0.00001  -1.10383
   D51        2.88010   0.00000   0.00000  -0.00001  -0.00001   2.88009
   D52       -0.82021   0.00000   0.00000  -0.00001  -0.00001  -0.82021
   D53        2.30738   0.00000   0.00000  -0.00002  -0.00002   2.30736
   D54        0.75189   0.00000   0.00000   0.00000   0.00000   0.75189
   D55       -2.40372   0.00000   0.00000  -0.00001  -0.00001  -2.40373
   D56        2.98724   0.00000   0.00000   0.00001   0.00001   2.98725
   D57       -0.16836   0.00000   0.00000   0.00000   0.00000  -0.16836
   D58        0.00108   0.00000   0.00000  -0.00001  -0.00001   0.00108
   D59        3.12632   0.00000   0.00000  -0.00001  -0.00001   3.12631
   D60       -3.12570   0.00000   0.00000   0.00000   0.00000  -3.12569
   D61       -0.00046   0.00000   0.00000   0.00000   0.00000  -0.00046
         Item               Value     Threshold  Converged?
 Maximum Force            0.000010     0.000450     YES
 RMS     Force            0.000001     0.000300     YES
 Maximum Displacement     0.000087     0.001800     YES
 RMS     Displacement     0.000020     0.001200     YES
 Predicted change in Energy=-6.031374D-10
 Optimization completed.
    -- Stationary point found.
                           ----------------------------
                           !   Optimized Parameters   !
                           ! (Angstroms and Degrees)  !
 --------------------------                            --------------------------
 ! Name  Definition              Value          Derivative Info.                !
 --------------------------------------------------------------------------------
 ! R1    R(1,2)                  1.4192         -DE/DX =    0.0                 !
 ! R2    R(1,10)                 0.9615         -DE/DX =    0.0                 !
 ! R3    R(2,3)                  1.5252         -DE/DX =    0.0                 !
 ! R4    R(2,11)                 1.1031         -DE/DX =    0.0                 !
 ! R5    R(2,12)                 1.1023         -DE/DX =    0.0                 !
 ! R6    R(3,4)                  1.5213         -DE/DX =    0.0                 !
 ! R7    R(3,13)                 1.0933         -DE/DX =    0.0                 !
 ! R8    R(3,14)                 1.0974         -DE/DX =    0.0                 !
 ! R9    R(4,5)                  1.5697         -DE/DX =    0.0                 !
 ! R10   R(4,7)                  1.5746         -DE/DX =    0.0                 !
 ! R11   R(4,15)                 1.0943         -DE/DX =    0.0                 !
 ! R12   R(5,6)                  1.4662         -DE/DX =    0.0                 !
 ! R13   R(5,9)                  1.5379         -DE/DX =    0.0                 !
 ! R14   R(5,16)                 1.0896         -DE/DX =    0.0                 !
 ! R15   R(6,7)                  1.465          -DE/DX =    0.0                 !
 ! R16   R(7,8)                  1.5379         -DE/DX =    0.0                 !
 ! R17   R(7,17)                 1.0896         -DE/DX =    0.0                 !
 ! R18   R(8,9)                  1.3351         -DE/DX =    0.0                 !
 ! R19   R(8,18)                 1.0798         -DE/DX =    0.0                 !
 ! R20   R(9,19)                 1.0798         -DE/DX =    0.0                 !
 ! A1    A(2,1,10)             108.2707         -DE/DX =    0.0                 !
 ! A2    A(1,2,3)              107.7371         -DE/DX =    0.0                 !
 ! A3    A(1,2,11)             111.1512         -DE/DX =    0.0                 !
 ! A4    A(1,2,12)             111.144          -DE/DX =    0.0                 !
 ! A5    A(3,2,11)             109.821          -DE/DX =    0.0                 !
 ! A6    A(3,2,12)             109.9338         -DE/DX =    0.0                 !
 ! A7    A(11,2,12)            107.0625         -DE/DX =    0.0                 !
 ! A8    A(2,3,4)              112.8519         -DE/DX =    0.0                 !
 ! A9    A(2,3,13)             109.3734         -DE/DX =    0.0                 !
 ! A10   A(2,3,14)             107.8777         -DE/DX =    0.0                 !
 ! A11   A(4,3,13)             109.9042         -DE/DX =    0.0                 !
 ! A12   A(4,3,14)             109.3936         -DE/DX =    0.0                 !
 ! A13   A(13,3,14)            107.2673         -DE/DX =    0.0                 !
 ! A14   A(3,4,5)              116.3252         -DE/DX =    0.0                 !
 ! A15   A(3,4,7)              117.2434         -DE/DX =    0.0                 !
 ! A16   A(3,4,15)             111.9613         -DE/DX =    0.0                 !
 ! A17   A(5,4,7)               76.0638         -DE/DX =    0.0                 !
 ! A18   A(5,4,15)             115.5297         -DE/DX =    0.0                 !
 ! A19   A(7,4,15)             115.4807         -DE/DX =    0.0                 !
 ! A20   A(4,5,6)               87.9073         -DE/DX =    0.0                 !
 ! A21   A(4,5,9)              101.5123         -DE/DX =    0.0                 !
 ! A22   A(4,5,16)             123.7857         -DE/DX =    0.0                 !
 ! A23   A(6,5,9)              101.7478         -DE/DX =    0.0                 !
 ! A24   A(6,5,16)             114.6967         -DE/DX =    0.0                 !
 ! A25   A(9,5,16)             120.7591         -DE/DX =    0.0                 !
 ! A26   A(5,6,7)               82.7382         -DE/DX =    0.0                 !
 ! A27   A(4,7,6)               87.7623         -DE/DX =    0.0                 !
 ! A28   A(4,7,8)              101.3746         -DE/DX =    0.0                 !
 ! A29   A(4,7,17)             124.3545         -DE/DX =    0.0                 !
 ! A30   A(6,7,8)              101.7876         -DE/DX =    0.0                 !
 ! A31   A(6,7,17)             114.6209         -DE/DX =    0.0                 !
 ! A32   A(8,7,17)             120.4854         -DE/DX =    0.0                 !
 ! A33   A(7,8,9)              101.3006         -DE/DX =    0.0                 !
 ! A34   A(7,8,18)             127.4039         -DE/DX =    0.0                 !
 ! A35   A(9,8,18)             131.2896         -DE/DX =    0.0                 !
 ! A36   A(5,9,8)              101.2771         -DE/DX =    0.0                 !
 ! A37   A(5,9,19)             127.3891         -DE/DX =    0.0                 !
 ! A38   A(8,9,19)             131.3267         -DE/DX =    0.0                 !
 ! D1    D(10,1,2,3)           178.3369         -DE/DX =    0.0                 !
 ! D2    D(10,1,2,11)          -61.3004         -DE/DX =    0.0                 !
 ! D3    D(10,1,2,12)           57.84           -DE/DX =    0.0                 !
 ! D4    D(1,2,3,4)            177.0829         -DE/DX =    0.0                 !
 ! D5    D(1,2,3,13)           -60.2465         -DE/DX =    0.0                 !
 ! D6    D(1,2,3,14)            56.1151         -DE/DX =    0.0                 !
 ! D7    D(11,2,3,4)            55.8858         -DE/DX =    0.0                 !
 ! D8    D(11,2,3,13)          178.5564         -DE/DX =    0.0                 !
 ! D9    D(11,2,3,14)          -65.082          -DE/DX =    0.0                 !
 ! D10   D(12,2,3,4)           -61.6619         -DE/DX =    0.0                 !
 ! D11   D(12,2,3,13)           61.0088         -DE/DX =    0.0                 !
 ! D12   D(12,2,3,14)          177.3703         -DE/DX =    0.0                 !
 ! D13   D(2,3,4,5)            167.0145         -DE/DX =    0.0                 !
 ! D14   D(2,3,4,7)             79.736          -DE/DX =    0.0                 !
 ! D15   D(2,3,4,15)           -57.0972         -DE/DX =    0.0                 !
 ! D16   D(13,3,4,5)            44.641          -DE/DX =    0.0                 !
 ! D17   D(13,3,4,7)           -42.6376         -DE/DX =    0.0                 !
 ! D18   D(13,3,4,15)         -179.4708         -DE/DX =    0.0                 !
 ! D19   D(14,3,4,5)           -72.8843         -DE/DX =    0.0                 !
 ! D20   D(14,3,4,7)          -160.1628         -DE/DX =    0.0                 !
 ! D21   D(14,3,4,15)           63.0039         -DE/DX =    0.0                 !
 ! D22   D(3,4,5,6)            -77.9181         -DE/DX =    0.0                 !
 ! D23   D(3,4,5,9)           -179.4832         -DE/DX =    0.0                 !
 ! D24   D(3,4,5,16)            40.6758         -DE/DX =    0.0                 !
 ! D25   D(7,4,5,6)             35.876          -DE/DX =    0.0                 !
 ! D26   D(7,4,5,9)            -65.6891         -DE/DX =    0.0                 !
 ! D27   D(7,4,5,16)           154.4699         -DE/DX =    0.0                 !
 ! D28   D(15,4,5,6)           147.7581         -DE/DX =    0.0                 !
 ! D29   D(15,4,5,9)            46.193          -DE/DX =    0.0                 !
 ! D30   D(15,4,5,16)          -93.648          -DE/DX =    0.0                 !
 ! D31   D(3,4,7,6)             76.8018         -DE/DX =    0.0                 !
 ! D32   D(3,4,7,8)            178.3783         -DE/DX =    0.0                 !
 ! D33   D(3,4,7,17)           -41.7737         -DE/DX =    0.0                 !
 ! D34   D(5,4,7,6)            -35.9138         -DE/DX =    0.0                 !
 ! D35   D(5,4,7,8)             65.6626         -DE/DX =    0.0                 !
 ! D36   D(5,4,7,17)          -154.4894         -DE/DX =    0.0                 !
 ! D37   D(15,4,7,6)          -147.8541         -DE/DX =    0.0                 !
 ! D38   D(15,4,7,8)           -46.2776         -DE/DX =    0.0                 !
 ! D39   D(15,4,7,17)           93.5704         -DE/DX =    0.0                 !
 ! D40   D(4,5,6,7)            -38.0465         -DE/DX =    0.0                 !
 ! D41   D(9,5,6,7)             63.2791         -DE/DX =    0.0                 !
 ! D42   D(16,5,6,7)          -164.6075         -DE/DX =    0.0                 !
 ! D43   D(4,5,9,8)             47.0987         -DE/DX =    0.0                 !
 ! D44   D(4,5,9,19)          -132.0156         -DE/DX =    0.0                 !
 ! D45   D(6,5,9,8)            -43.1473         -DE/DX =    0.0                 !
 ! D46   D(6,5,9,19)           137.7384         -DE/DX =    0.0                 !
 ! D47   D(16,5,9,8)          -171.4915         -DE/DX =    0.0                 !
 ! D48   D(16,5,9,19)            9.3942         -DE/DX =    0.0                 !
 ! D49   D(5,6,7,4)             37.9099         -DE/DX =    0.0                 !
 ! D50   D(5,6,7,8)            -63.2455         -DE/DX =    0.0                 !
 ! D51   D(5,6,7,17)           165.0176         -DE/DX =    0.0                 !
 ! D52   D(4,7,8,9)            -46.9943         -DE/DX =    0.0                 !
 ! D53   D(4,7,8,18)           132.2029         -DE/DX =    0.0                 !
 ! D54   D(6,7,8,9)             43.0799         -DE/DX =    0.0                 !
 ! D55   D(6,7,8,18)          -137.7229         -DE/DX =    0.0                 !
 ! D56   D(17,7,8,9)           171.1564         -DE/DX =    0.0                 !
 ! D57   D(17,7,8,18)           -9.6464         -DE/DX =    0.0                 !
 ! D58   D(7,8,9,5)              0.0621         -DE/DX =    0.0                 !
 ! D59   D(7,8,9,19)           179.125          -DE/DX =    0.0                 !
 ! D60   D(18,8,9,5)          -179.0892         -DE/DX =    0.0                 !
 ! D61   D(18,8,9,19)           -0.0263         -DE/DX =    0.0                 !
 --------------------------------------------------------------------------------
 GradGradGradGradGradGradGradGradGradGradGradGradGradGradGradGradGradGrad

                          Input orientation:                          
 ---------------------------------------------------------------------
 Center     Atomic      Atomic             Coordinates (Angstroms)
 Number     Number       Type             X           Y           Z
 ---------------------------------------------------------------------
      1          8           0        1.514629    0.936231   -0.020223
      2          6           0        0.195763    0.477262    0.232664
      3          6           0       -0.749118    1.253480   -0.678840
      4          6           0       -2.196101    0.800972   -0.552785
      5          6           0       -3.276844    1.735520   -1.202790
      6          8           0       -3.137045    2.616558   -0.039225
      7          6           0       -3.016684    1.344018    0.676529
      8          6           0       -4.395203    0.710352    0.424784
      9          6           0       -4.575061    0.981112   -0.870143
     10          1           0        2.114265    0.470162    0.569481
     11          1           0        0.105143   -0.603630    0.031996
     12          1           0       -0.084893    0.635150    1.286881
     13          1           0       -0.672257    2.321150   -0.456177
     14          1           0       -0.411665    1.111357   -1.713398
     15          1           0       -2.310318   -0.267463   -0.760086
     16          1           0       -3.150525    2.229583   -2.165732
     17          1           0       -2.623654    1.428235    1.689262
     18          1           0       -5.013621    0.181720    1.134781
     19          1           0       -5.384924    0.741497   -1.542912
 ---------------------------------------------------------------------
                    Distance matrix (angstroms):
                    1          2          3          4          5
     1  O    0.000000
     2  C    1.419159   0.000000
     3  C    2.378860   1.525174   0.000000
     4  C    3.751191   2.538254   1.521320   0.000000
     5  C    4.999555   3.962669   2.626079   1.569680   0.000000
     6  O    4.945900   3.969650   2.822992   2.108428   1.466171
     7  C    4.602668   3.356799   2.643308   1.574632   1.937214
     8  C    5.930866   4.600893   3.847976   2.408299   2.225016
     9  C    6.148878   4.922480   3.840393   2.406786   1.537905
    10  H    0.961527   1.947856   3.220380   4.466337   5.814304
    11  H    2.088193   1.103089   2.164234   2.758731   4.293502
    12  H    2.087497   1.102302   2.165083   2.805185   4.194977
    13  H    2.624981   2.151252   1.093345   2.154616   2.772051
    14  H    2.570627   2.134995   1.097445   2.151180   2.976500
    15  H    4.077560   2.796536   2.181104   1.094337   2.267620
    16  H    5.295247   4.474437   2.988375   2.356577   1.089638
    17  H    4.504420   3.312876   3.025282   2.367073   2.980780
    18  H    6.672434   5.295173   4.756457   3.342121   3.300747
    19  H    7.068263   5.862300   4.743359   3.339534   2.355370
                    6          7          8          9         10
     6  O    0.000000
     7  C    1.464974   0.000000
     8  C    2.330641   1.537928   0.000000
     9  C    2.330879   2.225406   1.335102   0.000000
    10  H    5.705593   5.205931   6.515505   6.861535   0.000000
    11  H    4.570171   3.735580   4.704673   5.022904   2.340617
    12  H    3.873004   3.077405   4.396321   4.993400   2.319090
    13  H    2.517200   2.781033   4.151035   4.147161   3.498976
    14  H    3.534994   3.542881   4.538855   4.249930   3.464533
    15  H    3.085562   2.271494   2.589746   2.588457   4.678543
    16  H    2.161473   2.980031   3.250855   2.294892   6.188293
    17  H    2.159478   1.089584   2.291865   3.249378   4.961823
    18  H    3.290633   2.355566   1.079810   2.202518   7.156083
    19  H    3.290880   3.301138   2.202804   1.079774   7.795746
                   11         12         13         14         15
    11  H    0.000000
    12  H    1.773535   0.000000
    13  H    3.065453   2.495164   0.000000
    14  H    2.500934   3.055361   1.764118   0.000000
    15  H    2.564148   3.155519   3.078395   2.532752   0.000000
    16  H    4.843189   4.884758   3.012105   2.992723   2.986139
    17  H    3.784354   2.690019   3.034495   4.070799   2.995476
    18  H    5.294776   4.951878   5.094679   5.491298   3.331687
    19  H    5.867754   6.009107   5.087782   4.989907   3.329267
                   16         17         18         19
    16  H    0.000000
    17  H    3.972497   0.000000
    18  H    4.307930   2.751944   0.000000
    19  H    2.755875   4.306178   2.760662   0.000000
 Stoichiometry    C7H10O2
 Framework group  C1[X(C7H10O2)]
 Deg. of freedom    51
 Full point group                 C1      NOp   1
 Largest Abelian subgroup         C1      NOp   1
 Largest concise Abelian subgroup C1      NOp   1
                         Standard orientation:                         
 ---------------------------------------------------------------------
 Center     Atomic      Atomic             Coordinates (Angstroms)
 Number     Number       Type             X           Y           Z
 ---------------------------------------------------------------------
      1          8           0       -3.562764   -0.094662    0.078439
      2          6           0       -2.316108    0.518384   -0.211450
      3          6           0       -1.242032   -0.562906   -0.153778
      4          6           0        0.140328   -0.042540   -0.518079
      5          6           0        1.349350   -0.987121   -0.186531
      6          8           0        1.228935   -0.561616    1.211361
      7          6           0        0.934650    0.735346    0.597005
      8          6           0        2.253830    1.044986   -0.130394
      9          6           0        2.540270   -0.142371   -0.669498
     10          1           0       -4.242363    0.585489    0.069942
     11          1           0       -2.324583    0.984223   -1.211314
     12          1           0       -2.086496    1.315284    0.514704
     13          1           0       -1.222613   -1.001794    0.847423
     14          1           0       -1.527631   -1.359096   -0.852992
     15          1           0        0.156968    0.413367   -1.512788
     16          1           0        1.334181   -2.066232   -0.336870
     17          1           0        0.490437    1.466771    1.271457
     18          1           0        2.769658    1.992407   -0.178389
     19          1           0        3.361348   -0.462852   -1.293225
 ---------------------------------------------------------------------
 Rotational constants (GHZ):      4.7093533      0.8706005      0.8496796
 1\1\GINC-ALCHEMY-AS\FOpt\RB3LYP\6-31G(2df,p)\C7H10O2\PUCK\28-Jan-2020\
 0\\# b3lyp 6-31G(2df,p) opt Freq\\titel\\0,1\O,1.5146293121,0.93623085
 57,-0.0202230901\C,0.1957634842,0.4772618156,0.2326636829\C,-0.7491175
 013,1.2534804883,-0.6788399634\C,-2.1961007784,0.8009722736,-0.5527846
 735\C,-3.2768442364,1.7355203253,-1.2027903035\O,-3.1370446792,2.61655
 79259,-0.0392245857\C,-3.0166837029,1.3440179314,0.6765285541\C,-4.395
 20324,0.7103523028,0.4247843261\C,-4.5750606422,0.9811123355,-0.870142
 9754\H,2.1142645455,0.4701615097,0.5694806814\H,0.1051428597,-0.603629
 917,0.0319963173\H,-0.0848928975,0.6351500796,1.286880931\H,-0.6722568
 918,2.3211495878,-0.4561773825\H,-0.4116649186,1.1113566864,-1.7133984
 157\H,-2.3103179671,-0.2674627388,-0.7600860783\H,-3.1505254982,2.2295
 830075,-2.1657322072\H,-2.6236540896,1.4282351521,1.6892620637\H,-5.01
 36214775,0.1817196549,1.1347808151\H,-5.3849244509,0.7414966838,-1.542
 9115861\\Version=ES64L-G09RevD.01\State=1-A\HF=-423.1235101\RMSD=2.304
 e-09\RMSF=4.105e-06\Dipole=-0.0511236,-1.0356754,0.215828\Quadrupole=0
 .2398798,-3.0260981,2.7862184,-0.7720554,3.9127547,-1.834437\PG=C01 [X
 (C7H10O2)]\\@


 My opinions may have changed, but not the fact that I am right.
                       -- Ashleigh Brilliant
 Job cpu time:       0 days  0 hours  6 minutes 54.0 seconds.
 File lengths (MBytes):  RWF=     52 Int=      0 D2E=      0 Chk=      7 Scr=      1
 Normal termination of Gaussian 09 at Tue Jan 28 14:14:54 2020.
 Link1:  Proceeding to internal job step number  2.
 ----------------------------------------------------------------------
 #N Geom=AllCheck Guess=TCheck SCRF=Check GenChk RB3LYP/6-31G(2df,p) Fr
 eq
 ----------------------------------------------------------------------
 1/10=4,29=7,30=1,38=1,40=1/1,3;
 2/12=2,40=1/2;
 3/5=1,6=6,7=104,11=2,14=-4,16=1,25=1,30=1,70=2,71=2,74=-5,116=1,140=1/1,2,3;
 4/5=101/1;
 5/5=2,98=1/2;
 8/6=4,10=90,11=11/1;
 11/6=1,8=1,9=11,15=111,16=1/1,2,10;
 10/6=1/2;
 6/7=2,8=2,9=2,10=2,18=1,28=1/1;
 7/8=1,10=1,25=1/1,2,3,16;
 1/10=4,30=1/3;
 99//99;
 Structure from the checkpoint file:  "/scratch/puck/g09_39f50981-cfba-4f84-8047-2a757ae2b773/Gau-98569.chk"
 -----
 titel
 -----
 Charge =  0 Multiplicity = 1
 Redundant internal coordinates found in file.
 O,0,1.5146293121,0.9362308557,-0.0202230901
 C,0,0.1957634842,0.4772618156,0.2326636829
 C,0,-0.7491175013,1.2534804883,-0.6788399634
 C,0,-2.1961007784,0.8009722736,-0.5527846735
 C,0,-3.2768442364,1.7355203253,-1.2027903035
 O,0,-3.1370446792,2.6165579259,-0.0392245857
 C,0,-3.0166837029,1.3440179314,0.6765285541
 C,0,-4.39520324,0.7103523028,0.4247843261
 C,0,-4.5750606422,0.9811123355,-0.8701429754
 H,0,2.1142645455,0.4701615097,0.5694806814
 H,0,0.1051428597,-0.603629917,0.0319963173
 H,0,-0.0848928975,0.6351500796,1.286880931
 H,0,-0.6722568918,2.3211495878,-0.4561773825
 H,0,-0.4116649186,1.1113566864,-1.7133984157
 H,0,-2.3103179671,-0.2674627388,-0.7600860783
 H,0,-3.1505254982,2.2295830075,-2.1657322072
 H,0,-2.6236540896,1.4282351521,1.6892620637
 H,0,-5.0136214775,0.1817196549,1.1347808151
 H,0,-5.3849244509,0.7414966838,-1.5429115861
 Recover connectivity data from disk.

 GradGradGradGradGradGradGradGradGradGradGradGradGradGradGradGradGradGrad
 Berny optimization.
 Initialization pass.
                           ----------------------------
                           !    Initial Parameters    !
                           ! (Angstroms and Degrees)  !
 --------------------------                            --------------------------
 ! Name  Definition              Value          Derivative Info.                !
 --------------------------------------------------------------------------------
 ! R1    R(1,2)                  1.4192         calculate D2E/DX2 analytically  !
 ! R2    R(1,10)                 0.9615         calculate D2E/DX2 analytically  !
 ! R3    R(2,3)                  1.5252         calculate D2E/DX2 analytically  !
 ! R4    R(2,11)                 1.1031         calculate D2E/DX2 analytically  !
 ! R5    R(2,12)                 1.1023         calculate D2E/DX2 analytically  !
 ! R6    R(3,4)                  1.5213         calculate D2E/DX2 analytically  !
 ! R7    R(3,13)                 1.0933         calculate D2E/DX2 analytically  !
 ! R8    R(3,14)                 1.0974         calculate D2E/DX2 analytically  !
 ! R9    R(4,5)                  1.5697         calculate D2E/DX2 analytically  !
 ! R10   R(4,7)                  1.5746         calculate D2E/DX2 analytically  !
 ! R11   R(4,15)                 1.0943         calculate D2E/DX2 analytically  !
 ! R12   R(5,6)                  1.4662         calculate D2E/DX2 analytically  !
 ! R13   R(5,9)                  1.5379         calculate D2E/DX2 analytically  !
 ! R14   R(5,16)                 1.0896         calculate D2E/DX2 analytically  !
 ! R15   R(6,7)                  1.465          calculate D2E/DX2 analytically  !
 ! R16   R(7,8)                  1.5379         calculate D2E/DX2 analytically  !
 ! R17   R(7,17)                 1.0896         calculate D2E/DX2 analytically  !
 ! R18   R(8,9)                  1.3351         calculate D2E/DX2 analytically  !
 ! R19   R(8,18)                 1.0798         calculate D2E/DX2 analytically  !
 ! R20   R(9,19)                 1.0798         calculate D2E/DX2 analytically  !
 ! A1    A(2,1,10)             108.2707         calculate D2E/DX2 analytically  !
 ! A2    A(1,2,3)              107.7371         calculate D2E/DX2 analytically  !
 ! A3    A(1,2,11)             111.1512         calculate D2E/DX2 analytically  !
 ! A4    A(1,2,12)             111.144          calculate D2E/DX2 analytically  !
 ! A5    A(3,2,11)             109.821          calculate D2E/DX2 analytically  !
 ! A6    A(3,2,12)             109.9338         calculate D2E/DX2 analytically  !
 ! A7    A(11,2,12)            107.0625         calculate D2E/DX2 analytically  !
 ! A8    A(2,3,4)              112.8519         calculate D2E/DX2 analytically  !
 ! A9    A(2,3,13)             109.3734         calculate D2E/DX2 analytically  !
 ! A10   A(2,3,14)             107.8777         calculate D2E/DX2 analytically  !
 ! A11   A(4,3,13)             109.9042         calculate D2E/DX2 analytically  !
 ! A12   A(4,3,14)             109.3936         calculate D2E/DX2 analytically  !
 ! A13   A(13,3,14)            107.2673         calculate D2E/DX2 analytically  !
 ! A14   A(3,4,5)              116.3252         calculate D2E/DX2 analytically  !
 ! A15   A(3,4,7)              117.2434         calculate D2E/DX2 analytically  !
 ! A16   A(3,4,15)             111.9613         calculate D2E/DX2 analytically  !
 ! A17   A(5,4,7)               76.0638         calculate D2E/DX2 analytically  !
 ! A18   A(5,4,15)             115.5297         calculate D2E/DX2 analytically  !
 ! A19   A(7,4,15)             115.4807         calculate D2E/DX2 analytically  !
 ! A20   A(4,5,6)               87.9073         calculate D2E/DX2 analytically  !
 ! A21   A(4,5,9)              101.5123         calculate D2E/DX2 analytically  !
 ! A22   A(4,5,16)             123.7857         calculate D2E/DX2 analytically  !
 ! A23   A(6,5,9)              101.7478         calculate D2E/DX2 analytically  !
 ! A24   A(6,5,16)             114.6967         calculate D2E/DX2 analytically  !
 ! A25   A(9,5,16)             120.7591         calculate D2E/DX2 analytically  !
 ! A26   A(5,6,7)               82.7382         calculate D2E/DX2 analytically  !
 ! A27   A(4,7,6)               87.7623         calculate D2E/DX2 analytically  !
 ! A28   A(4,7,8)              101.3746         calculate D2E/DX2 analytically  !
 ! A29   A(4,7,17)             124.3545         calculate D2E/DX2 analytically  !
 ! A30   A(6,7,8)              101.7876         calculate D2E/DX2 analytically  !
 ! A31   A(6,7,17)             114.6209         calculate D2E/DX2 analytically  !
 ! A32   A(8,7,17)             120.4854         calculate D2E/DX2 analytically  !
 ! A33   A(7,8,9)              101.3006         calculate D2E/DX2 analytically  !
 ! A34   A(7,8,18)             127.4039         calculate D2E/DX2 analytically  !
 ! A35   A(9,8,18)             131.2896         calculate D2E/DX2 analytically  !
 ! A36   A(5,9,8)              101.2771         calculate D2E/DX2 analytically  !
 ! A37   A(5,9,19)             127.3891         calculate D2E/DX2 analytically  !
 ! A38   A(8,9,19)             131.3267         calculate D2E/DX2 analytically  !
 ! D1    D(10,1,2,3)           178.3369         calculate D2E/DX2 analytically  !
 ! D2    D(10,1,2,11)          -61.3004         calculate D2E/DX2 analytically  !
 ! D3    D(10,1,2,12)           57.84           calculate D2E/DX2 analytically  !
 ! D4    D(1,2,3,4)            177.0829         calculate D2E/DX2 analytically  !
 ! D5    D(1,2,3,13)           -60.2465         calculate D2E/DX2 analytically  !
 ! D6    D(1,2,3,14)            56.1151         calculate D2E/DX2 analytically  !
 ! D7    D(11,2,3,4)            55.8858         calculate D2E/DX2 analytically  !
 ! D8    D(11,2,3,13)          178.5564         calculate D2E/DX2 analytically  !
 ! D9    D(11,2,3,14)          -65.082          calculate D2E/DX2 analytically  !
 ! D10   D(12,2,3,4)           -61.6619         calculate D2E/DX2 analytically  !
 ! D11   D(12,2,3,13)           61.0088         calculate D2E/DX2 analytically  !
 ! D12   D(12,2,3,14)          177.3703         calculate D2E/DX2 analytically  !
 ! D13   D(2,3,4,5)            167.0145         calculate D2E/DX2 analytically  !
 ! D14   D(2,3,4,7)             79.736          calculate D2E/DX2 analytically  !
 ! D15   D(2,3,4,15)           -57.0972         calculate D2E/DX2 analytically  !
 ! D16   D(13,3,4,5)            44.641          calculate D2E/DX2 analytically  !
 ! D17   D(13,3,4,7)           -42.6376         calculate D2E/DX2 analytically  !
 ! D18   D(13,3,4,15)         -179.4708         calculate D2E/DX2 analytically  !
 ! D19   D(14,3,4,5)           -72.8843         calculate D2E/DX2 analytically  !
 ! D20   D(14,3,4,7)          -160.1628         calculate D2E/DX2 analytically  !
 ! D21   D(14,3,4,15)           63.0039         calculate D2E/DX2 analytically  !
 ! D22   D(3,4,5,6)            -77.9181         calculate D2E/DX2 analytically  !
 ! D23   D(3,4,5,9)           -179.4832         calculate D2E/DX2 analytically  !
 ! D24   D(3,4,5,16)            40.6758         calculate D2E/DX2 analytically  !
 ! D25   D(7,4,5,6)             35.876          calculate D2E/DX2 analytically  !
 ! D26   D(7,4,5,9)            -65.6891         calculate D2E/DX2 analytically  !
 ! D27   D(7,4,5,16)           154.4699         calculate D2E/DX2 analytically  !
 ! D28   D(15,4,5,6)           147.7581         calculate D2E/DX2 analytically  !
 ! D29   D(15,4,5,9)            46.193          calculate D2E/DX2 analytically  !
 ! D30   D(15,4,5,16)          -93.648          calculate D2E/DX2 analytically  !
 ! D31   D(3,4,7,6)             76.8018         calculate D2E/DX2 analytically  !
 ! D32   D(3,4,7,8)            178.3783         calculate D2E/DX2 analytically  !
 ! D33   D(3,4,7,17)           -41.7737         calculate D2E/DX2 analytically  !
 ! D34   D(5,4,7,6)            -35.9138         calculate D2E/DX2 analytically  !
 ! D35   D(5,4,7,8)             65.6626         calculate D2E/DX2 analytically  !
 ! D36   D(5,4,7,17)          -154.4894         calculate D2E/DX2 analytically  !
 ! D37   D(15,4,7,6)          -147.8541         calculate D2E/DX2 analytically  !
 ! D38   D(15,4,7,8)           -46.2776         calculate D2E/DX2 analytically  !
 ! D39   D(15,4,7,17)           93.5704         calculate D2E/DX2 analytically  !
 ! D40   D(4,5,6,7)            -38.0465         calculate D2E/DX2 analytically  !
 ! D41   D(9,5,6,7)             63.2791         calculate D2E/DX2 analytically  !
[...]
 03461501,-0.10047949,0.00223988,0.01264535,0.61758810,-0.00432550,0.00
 236891,-0.00312335,-0.01732762,-0.00962710,0.00400720,0.00739092,0.001
 69860,-0.07890382,-0.02019617,0.05990644,0.32309829,-0.00088485,0.0010
 3668,-0.00096106,-0.00210827,-0.00412283,0.00237439,-0.02069829,0.0129
 7442,-0.01725610,-0.08824489,0.01786049,-0.01963935,0.34628885,-0.0017
 0771,0.00047553,-0.00093410,-0.00222802,-0.00217620,0.00112224,-0.0027
 5933,0.00803829,-0.00640984,0.02540805,-0.08150501,0.03608192,0.038327
 31,0.38590179,0.00081256,0.00001585,0.00020458,0.00041371,-0.00000790,
 -0.00035543,0.00301373,-0.00425327,0.00198083,-0.01743600,0.03214767,-
 0.05679244,-0.03600374,-0.17359965,0.65192260,-0.00043301,-0.00026067,
 0.00020437,0.00082428,0.00164966,0.00046025,-0.00209175,0.00022651,-0.
 00000831,-0.00297135,0.05555439,0.01117688,-0.05724128,-0.01010678,-0.
 00008551,0.14784238,0.00075856,0.00044171,0.00017467,-0.00017509,-0.00
 036757,-0.00004092,-0.00158987,-0.00204886,0.00015044,0.02934184,-0.09
 476849,-0.02217394,0.00094034,-0.10125386,-0.02353130,-0.00271730,0.37
 853451,-0.00006702,0.00013607,0.00057132,0.00039582,0.00014565,-0.0009
 5761,-0.00014675,-0.00033962,-0.00104185,0.00503899,-0.02503767,-0.016
 75555,0.00964483,-0.05368594,-0.10792095,0.00982648,0.03187813,0.23049
 358,0.00048317,-0.00003185,-0.00035478,0.00083250,-0.00021753,0.000982
 84,-0.01366424,0.00403208,0.02643449,-0.07460988,-0.00190514,0.0213341
 8,0.00622878,0.00543648,-0.01076729,-0.06217849,0.01248001,-0.01523406
 ,0.39052313,-0.00044791,-0.00007815,-0.00005974,0.00072969,-0.00024240
 ,0.00018198,-0.00018509,0.00345334,0.00811185,0.00426222,-0.05199210,-
 0.03499962,0.00750528,0.00315314,0.02383680,0.00651500,-0.13129350,0.0
 4397766,0.02995894,0.30517199,-0.00047490,0.00024728,-0.00111307,-0.00
 079102,-0.00048101,0.00382790,0.00324638,0.00420080,-0.00120015,0.0209
 6127,-0.02883095,-0.09468679,-0.02373457,0.02904839,-0.12073412,-0.009
 31802,0.01171387,-0.07388463,0.13947793,0.01815467,0.68427571,-0.00013
 922,0.00012594,-0.00029614,-0.00012999,-0.00027222,0.00082847,-0.00135
 403,0.00188635,0.00145837,-0.04044896,-0.00907499,0.01645263,-0.000724
 64,-0.01058917,0.02994805,-0.00537619,-0.02561680,0.00528093,-0.132107
 40,-0.03296406,-0.01314624,0.42813485,0.00019412,0.00009243,-0.0001042
 7,-0.00059137,0.00007571,0.00023588,-0.00040643,0.00146447,-0.00305856
 ,0.00720241,0.00279548,0.00534790,-0.01281211,-0.01056734,0.02244536,-
 0.03488681,-0.03284278,0.01832993,-0.03022069,-0.06936000,-0.00483131,
 0.17122106,0.28603211,0.00016093,-0.00010390,0.00031512,-0.00019723,0.
 00052163,-0.00080385,-0.00029364,-0.00112670,-0.00141784,0.00968534,0.
 00858772,-0.00099820,0.03326706,0.02474099,-0.02453907,0.00490537,0.00
 549094,-0.00508442,-0.01455168,-0.00417296,-0.08706022,-0.06943641,-0.
 22424417,0.79460105,-0.00050489,0.00018008,-0.00014059,-0.00026340,-0.
 00062456,0.00038911,-0.00175543,0.00272571,-0.00107967,-0.04430948,-0.
 00598905,-0.00729330,-0.12529810,-0.03436089,0.01042984,-0.01145360,-0
 .02320542,-0.01534278,-0.02002246,-0.00200530,-0.03632610,-0.09571949,
 -0.00227143,-0.06262188,0.51208849,0.00053926,-0.00014864,0.00032748,0
 .00018275,0.00071713,-0.00065579,0.00048780,-0.00056005,0.00318543,0.0
 0695320,0.00743072,-0.00453432,-0.03290135,-0.07907045,0.01901673,-0.0
 3474266,-0.02257628,-0.01695233,-0.00235795,0.00471224,-0.01153063,-0.
 00431422,-0.08178630,0.08916219,0.13082881,0.21699972,-0.00021624,0.00
 006965,0.00002288,0.00008640,-0.00038357,-0.00008348,0.00094036,0.0006
 7823,0.00101770,0.00453588,-0.00403315,-0.00226310,0.01319325,0.018866
 71,-0.08422213,-0.01932934,-0.00705478,-0.00910356,-0.04004132,-0.0142
 4182,-0.02008465,-0.05594555,0.09408032,-0.49038231,0.23163031,-0.0581
 5073,0.77927552,-0.21349858,0.12018726,-0.16201756,-0.02859209,0.02169
 138,-0.02707950,-0.00743617,-0.00429553,0.00291061,-0.00045919,0.00173
 917,-0.00155769,-0.00043214,-0.00048893,0.00006446,0.00016585,-0.00000
 065,0.00013585,-0.00001273,0.00001117,-0.00029713,-0.00010644,-0.00006
 848,0.00005264,-0.00010350,0.00009857,0.00002683,0.24598777,0.15793142
 ,-0.13914163,0.17050570,-0.01567802,0.00419513,-0.00904286,-0.00102715
 ,-0.00061626,0.00013145,-0.00057693,0.00073481,0.00004486,-0.00017187,
 0.00001429,0.00004104,0.00002760,-0.00007558,-0.00006479,0.00002934,0.
 00005145,0.00010027,0.00000921,-0.00003677,-0.00002619,-0.00001545,-0.
 00000091,-0.00003193,-0.13906211,0.13418081,-0.20170120,0.16409654,-0.
 20829485,0.01204984,-0.00267000,0.00288083,0.00026917,-0.00036024,-0.0
 0003045,0.00033871,0.00039481,0.00062952,0.00016142,-0.00000885,0.0000
 7261,0.00001520,-0.00004060,-0.00006962,-0.00009840,-0.00005656,0.0001
 1877,-0.00005113,0.00000571,-0.00005659,-0.00005507,-0.00006688,0.0000
 2438,0.18712828,-0.16166069,0.20364590,-0.01944159,-0.04030744,-0.0025
 2593,-0.04897460,-0.00426840,-0.00175065,0.00091981,0.02087914,0.00423
 036,0.00158761,0.00113055,0.00040498,0.00022116,0.00002908,0.00009296,
 -0.00038499,-0.00026468,0.00005158,-0.00012021,0.00013162,-0.00001079,
 -0.00005246,-0.00002364,0.00004641,-0.00005896,-0.00002712,-0.00000848
 ,0.00190713,-0.00083983,0.00064707,0.06277808,-0.01449178,-0.00806473,
 0.00100353,-0.00639558,-0.27083903,-0.04758221,0.00113381,-0.01821795,
 -0.00394620,-0.00157135,-0.00068311,-0.00042887,0.00040927,0.00002854,
 0.00003075,0.00010046,0.00067518,0.00028102,0.00019499,-0.00004193,-0.
 00009330,0.00007261,0.00002124,-0.00007530,0.00011985,-0.00001139,0.00
 004246,-0.00032047,0.00050036,0.00074281,0.01713084,0.30114348,0.00161
 488,0.00916948,0.00575062,-0.00098836,-0.04991313,-0.06548272,-0.00085
 215,0.02133245,0.00401502,0.00101671,0.00007960,0.00043025,0.00018176,
 0.00014472,-0.00000268,-0.00037182,-0.00011198,0.00008124,-0.00002627,
 0.00001001,-0.00047636,-0.00007178,-0.00004600,0.00011762,0.00003884,0
 .00001785,0.00004625,-0.00062308,-0.00061835,-0.00015211,0.00185535,0.
 04903931,0.06284866,-0.02650889,-0.00251809,0.03567404,-0.05894391,0.0
 0978148,0.04462409,0.00540699,-0.00331279,-0.02044548,0.00149435,-0.00
 037554,0.00016410,0.00024564,-0.00001478,0.00007453,-0.00002154,0.0000
 5283,0.00010224,-0.00040585,0.00027651,-0.00005718,-0.00010560,-0.0001
 3285,0.00000825,0.00002033,-0.00001022,0.00008617,0.00184596,-0.000500
 78,0.00112911,0.00372749,0.00148697,0.00010206,0.07592844,-0.00786026,
 0.00463457,0.01450156,0.00947588,-0.06210535,-0.04292077,-0.00249881,0
 .00297551,0.01791667,-0.00063848,0.00004264,-0.00018236,-0.00003770,-0
 .00001190,0.00005606,-0.00015167,0.00003007,-0.00005157,0.00019947,0.0
 0009828,-0.00022600,0.00002443,0.00004502,-0.00004365,-0.00002753,-0.0
 0002009,-0.00003052,0.00107098,-0.00000908,-0.00032919,0.00615943,-0.0
 0598024,-0.03100039,-0.00719647,0.06001509,0.01078734,0.00291610,-0.00
 034377,0.04691171,-0.03992738,-0.26607844,0.00300109,-0.00397103,-0.02
 031909,0.00119669,0.00010529,-0.00060742,-0.00014188,-0.00027236,0.000
 07631,0.00005788,-0.00001421,0.00072536,-0.00056532,0.00004087,-0.0009
 2019,-0.00021529,-0.00011051,0.00035635,0.00007911,0.00019503,0.000088
 87,0.00043887,0.00073547,0.00089001,0.00048994,-0.00209435,-0.00698478
 ,-0.05959332,0.03967050,0.29224690,0.00163528,-0.00102641,0.00043025,0
 .00007267,0.02155969,0.00385487,-0.04692862,-0.01660504,-0.00321695,-0
 .00219691,-0.03323941,-0.00773525,0.00011733,-0.00104109,-0.00152710,-
 0.00035839,0.00191543,0.00049116,0.00063354,-0.00122598,0.00104642,0.0
 0054928,0.00058235,-0.00009973,0.00055828,0.00050161,0.00016694,0.0003
 8497,-0.00021638,0.00009475,-0.00243676,0.00181449,-0.00257315,0.00067
 756,-0.00096807,0.00044897,0.05278041,-0.00037904,0.00196642,-0.000555
 37,-0.00098705,-0.01891067,-0.00296384,-0.01806101,-0.29656232,-0.0546
 2425,-0.00264750,-0.01033764,-0.00183498,0.00008880,-0.00078307,-0.000
 16467,0.00336983,0.00113678,-0.00032986,0.00019034,-0.00115942,-0.0002
 9108,-0.00014824,0.00012001,0.00015364,-0.00013233,0.00027813,0.000017
 82,-0.00015502,0.00035791,-0.00000843,0.00184833,-0.00036961,0.0024046
 2,-0.00030328,0.00101146,0.00013511,0.01915038,0.32567436,0.00141153,-
 0.00163927,0.00058386,0.00090553,0.02370214,0.00365681,-0.00429334,-0.
 05676105,-0.06309811,-0.00014742,0.00288046,-0.00050510,0.00001979,-0.
 00094164,0.00038779,0.00071080,0.00013449,-0.00039300,0.00007014,0.000
 77140,0.00031754,0.00005012,0.00018058,0.00001769,-0.00022690,-0.00018
 508,-0.00017723,0.00039757,0.00004261,-0.00005108,-0.00342916,0.002736
 66,-0.00177363,0.00100753,-0.00016755,0.00119935,0.00582657,0.05840048
 ,0.06532028,0.00178659,-0.00029075,0.00115432,0.00488357,-0.00207068,-
 0.02172527,-0.06828039,0.01009045,0.07428488,-0.01219688,0.00630111,0.
 03127153,0.00172857,0.00003508,0.00109635,0.00016674,-0.00008777,-0.00
 031058,-0.00423387,-0.00325578,-0.00094155,-0.00041921,0.00085048,0.00
 070655,-0.00034291,-0.00040536,-0.00046047,0.00045046,-0.00002622,0.00
 015395,0.00064736,-0.00054614,0.00086347,-0.00284690,0.00205565,-0.002
 71743,0.00042432,-0.00012887,-0.00259285,0.07779562,-0.00108869,0.0003
 8166,-0.00176739,-0.00453951,0.00137365,0.01990792,0.01076198,-0.05472
 204,-0.03588204,-0.00355309,0.00094605,0.01075922,-0.00006671,0.000611
 71,-0.00077272,0.00121457,0.00035061,-0.00083605,-0.00140170,-0.001340
 40,0.00021960,-0.00001393,0.00009969,0.00038145,0.00018185,0.00009497,
 -0.00002547,-0.00035498,-0.00013723,0.00000691,-0.00099846,0.00096844,
 -0.00018331,0.00258820,-0.00082365,0.00245956,0.00941198,-0.00312820,-
 0.02962364,-0.01263447,0.05499301,0.00054655,-0.00070782,0.00254205,0.
 00605759,-0.00216054,-0.02463273,0.07204122,-0.03501294,-0.27020958,0.
 00121474,-0.00057594,-0.00200296,0.00016298,-0.00025759,0.00052266,0.0
 0017483,0.00018749,0.00023335,-0.00115021,0.00091962,0.00132702,0.0001
 9543,-0.00009360,0.00013879,0.00017917,0.00006440,0.00004459,0.0002761
 4,-0.00004019,0.00049290,0.00012577,0.00019245,0.00122027,-0.00308333,
 0.00287628,-0.00129107,0.00182214,-0.00067152,-0.00635921,-0.07946190,
 0.03516732,0.29749199,0.00005984,0.00067823,0.00006790,0.00125281,-0.0
 0218063,0.00056405,-0.00382409,-0.02982518,-0.00654634,-0.05116457,-0.
 03357387,-0.00697558,0.00095780,0.01178770,0.00561285,-0.00306292,0.00
 987967,0.00365554,-0.00108203,0.00896512,-0.00118730,0.00017376,0.0009
 4767,0.00123941,0.00005982,0.00179647,-0.00088240,-0.00002535,0.000115
 68,-0.00006623,-0.00035363,0.00095473,-0.00013376,-0.00007149,0.000187
 76,-0.00012655,-0.00576799,-0.00137432,0.00048852,0.00102412,0.0006270
 1,0.00039818,0.06236921,0.00016248,0.00053205,-0.00000587,0.00040800,-
 0.00042543,0.00029987,-0.00022266,-0.00800157,-0.00192468,-0.02601709,
 -0.29291821,-0.04698245,-0.00581342,-0.00951626,-0.00587509,0.00646419
 ,-0.00712700,-0.00413098,-0.00306276,-0.00539214,0.00392213,-0.0011743
 8,0.00236943,-0.00060294,-0.00114661,0.00115498,0.00206805,-0.00012492
 ,-0.00001829,-0.00007726,-0.00051677,0.00082834,-0.00029133,-0.0000205
 4,0.00006693,0.00005562,-0.00132450,0.00053465,0.00044908,-0.00033014,
 0.00027149,0.00038312,0.03123666,0.31806426,0.00014849,0.00023138,-0.0
 0004936,0.00003503,-0.00063486,-0.00001933,0.00085433,0.00326749,0.001
 35509,-0.00574974,-0.04605879,-0.06183339,0.00290069,0.01088248,0.0004
 4241,0.00306338,-0.00473680,0.00709364,-0.00461808,-0.01685370,-0.0015
 8190,-0.00142366,-0.00091207,-0.00142236,0.00058454,0.00157284,-0.0000
 9288,-0.00005219,-0.00005546,-0.00004072,-0.00020899,0.00010328,0.0001
 2452,-0.00001600,-0.00000471,0.00001130,0.00080907,0.00020302,0.001142
 98,-0.00062916,0.00007364,0.00031911,0.00398592,0.05285467,0.05538995,
 -0.00014558,-0.00002389,0.00000197,0.00006557,0.00002768,0.00012907,0.
 00220346,-0.00037522,0.00036836,0.00585052,0.00592313,-0.01487072,-0.0
 5556151,-0.01466033,0.02874882,-0.00024046,0.00063579,-0.00410070,-0.0
 0265051,0.00007548,-0.00216926,-0.00453176,-0.00338494,0.00169938,0.00
 319198,-0.00808103,0.02069419,0.00000508,0.00000014,-0.00000218,0.0000
 3639,-0.00009572,0.00002697,0.00006088,-0.00004727,0.00011498,-0.00017
 157,-0.00018607,-0.00008334,-0.00026285,0.00000847,0.00055832,-0.00031
 399,0.00055238,-0.00063793,0.05027844,0.00016628,0.00000858,0.00000965
 ,-0.00002911,-0.00002667,-0.00011749,-0.00094223,0.00044418,-0.0004436
 6,-0.00769403,-0.00249305,0.01036538,-0.01618487,-0.11610867,0.1172538
 2,0.00188919,0.01318094,-0.02006402,0.00138753,-0.00518699,-0.00013152
 ,-0.00214891,-0.00034126,0.00231775,0.00411589,-0.00198417,0.00860248,
 0.00000328,0.,0.00000800,-0.00003778,0.00005641,-0.00001238,-0.0000495
 1,0.00002286,-0.00008048,0.00031003,0.00016065,-0.00003755,0.00046810,
 0.00007185,-0.00024633,0.00013640,-0.00035285,0.00060289,0.01922543,0.
 11012922,-0.00015906,-0.00000043,0.00002467,-0.00000329,-0.00006449,-0
 .00004309,0.00004312,0.00012087,0.00039897,0.00145886,0.00088180,-0.00
 147169,0.03157158,0.10860523,-0.25697728,0.00030072,0.00937503,-0.0179
 1500,-0.00139182,-0.00297517,-0.00567153,-0.00090062,0.00049453,0.0005
 2906,-0.00086869,0.00036254,0.00187494,0.00000488,-0.00000837,-0.00001
 016,0.00002477,-0.00004044,0.00003837,0.00004778,-0.00002626,0.0001140
 3,-0.00001427,-0.00007875,-0.00017100,-0.00054686,0.00007334,0.0000436
 0,-0.00021208,0.00020073,-0.00020170,-0.03031868,-0.11847359,0.2802566
 1,0.00015118,-0.00003672,-0.00021627,-0.00018632,0.00010438,0.00036755
 ,0.00114651,-0.00004766,-0.00100917,0.00913224,-0.00007979,0.01171326,
 -0.00189085,0.00034174,0.00146305,-0.00020165,-0.00113702,-0.00014404,
 -0.08789243,-0.00845923,-0.08993701,-0.00230393,0.00057168,-0.02185315
 ,-0.00474475,-0.00273021,-0.00166715,-0.00004552,0.00001817,-0.0000019
 8,0.00004038,-0.00008233,-0.00007060,-0.00050716,0.00027983,-0.0001492
 6,-0.00020897,-0.00017805,-0.00006863,-0.00001499,-0.00012346,-0.00010
 245,-0.00007173,0.00021710,0.00074865,0.00158594,-0.00070050,0.0003086
 8,0.08584479,-0.00010372,-0.00007362,0.00018350,0.00011925,0.00017948,
 -0.00035056,-0.00024310,0.00027724,0.00060957,-0.00844761,0.00128064,-
 0.00557479,0.00090562,-0.00643142,-0.00030097,0.00924859,0.00455572,0.
 02847537,-0.01089717,-0.05666338,-0.03211905,0.00081687,0.00205154,-0.
 01044842,-0.00310743,0.00052322,-0.00159148,0.00005364,-0.00000650,-0.
 00000391,-0.00001370,-0.00001982,-0.00000511,0.00022690,0.00002317,0.0
 0019660,0.00031613,0.00006352,0.00008835,0.00002842,-0.00000993,-0.000
 00588,-0.00010054,-0.00002084,-0.00053239,-0.00016649,0.00208815,0.001
 39810,0.01111179,0.05159568,-0.00020612,-0.00010761,0.00054888,0.00038
 892,0.00026067,-0.00132556,-0.00053330,-0.00028949,0.00068909,-0.00808
 422,0.00022369,-0.00710384,0.00095532,0.00288405,-0.00520862,-0.002051
 89,0.00063740,-0.00962924,-0.09417977,-0.02373827,-0.28377946,0.002498
 56,-0.00038878,0.00300146,0.00103389,0.00027204,-0.00016180,0.00015310
 ,-0.00005734,-0.00005184,-0.00003172,0.00009008,0.00018986,0.00013724,
 -0.00002564,0.00077108,0.00018873,0.00022039,-0.00008265,0.00007503,0.
 00008336,0.00009346,0.00012248,-0.00017766,-0.00086469,-0.00118129,0.0
 0000553,-0.00087746,0.10137406,0.02034175,0.30356946,-0.00006232,0.000
 03434,-0.00003677,0.00011981,-0.00007596,0.00013505,-0.00003379,0.0003
 2625,0.00095512,-0.00187935,-0.00069876,-0.00031921,0.00061227,-0.0052
 2017,-0.00388164,-0.00142537,-0.00139366,0.00247270,-0.00109918,-0.004
 22756,0.01438035,-0.14913866,-0.09435100,0.11299076,0.00807008,0.00313
 427,-0.00772893,-0.00000595,-0.00000620,-0.00000772,-0.00002998,0.0000
 4902,0.00001114,0.00001114,-0.00002315,-0.00001392,0.00012552,0.000018
 57,-0.00003092,-0.00036545,-0.00004641,0.00002366,-0.00007304,0.000352
 99,0.00019078,0.00043496,0.00014650,0.00006206,0.00018145,0.00029597,-
 0.00066687,0.14529970,-0.00010878,-0.00002241,-0.00000369,0.00012714,0
 .00002247,0.00000026,0.00029732,-0.00008065,0.00007393,0.00003628,-0.0
 0050100,-0.00171073,-0.00386795,0.00642012,0.00163339,-0.00091459,-0.0
 0340868,0.00228186,0.00002135,0.00073509,0.00592323,-0.09347869,-0.107
 18761,0.10391880,-0.00419205,0.00366619,-0.00059863,0.00001488,0.00000
 710,0.00001096,-0.00000842,0.00000493,-0.00001134,0.00000991,-0.000002
 87,-0.00000304,0.00003452,-0.00002572,-0.00000043,-0.00005874,-0.00005
 450,-0.00004556,-0.00011094,-0.00007376,0.00013920,0.00021445,0.000346
 28,-0.00016759,0.00002976,-0.00003808,-0.00029786,0.09971138,0.1037639
 2,-0.00001461,-0.00001395,-0.00000145,0.00003656,0.00003097,0.00002286
 ,0.00001588,0.00008144,0.00033340,-0.00140899,-0.00026967,-0.00070187,
 -0.00302903,0.00288338,-0.00654216,-0.00149934,-0.00349748,0.00186427,
 -0.00437449,-0.00310229,0.00753421,0.10775241,0.10106717,-0.18156813,0
 .01974252,0.01347605,-0.00678437,0.00000599,0.00000496,0.00000308,-0.0
 0000039,-0.00000316,-0.00000403,0.00001727,-0.00000847,0.00000820,0.00
 005262,-0.00002997,-0.00002103,-0.00015498,-0.00002432,0.00001480,0.00
 000515,-0.00004280,0.00014202,0.00168207,0.00076103,0.00026623,0.00064
 836,0.00036757,-0.00019411,-0.11966707,-0.11020090,0.18513461,-0.00017
 737,0.00006863,-0.00005890,-0.00010845,-0.00020244,0.00015717,-0.00025
 893,0.00063679,-0.00073534,-0.00139650,-0.00072244,0.00033193,-0.00331
 559,0.00181175,-0.01206963,-0.00155827,0.00018378,-0.00175018,0.001378
 16,-0.00566011,-0.00072131,0.00380008,-0.00242004,0.00429160,-0.219412
 00,-0.05895260,-0.14508045,-0.00002956,-0.00001062,-0.00000358,-0.0000
 1223,0.00003631,-0.00000022,-0.00000743,-0.00000402,-0.00000360,0.0001
 1004,0.00001453,-0.00001553,0.00005612,0.00002734,0.00002117,-0.000086
 53,0.00035999,0.00001486,0.00016499,-0.00006169,0.00059292,-0.00001419
 ,-0.00004343,0.00000785,-0.00074184,0.00224317,0.00019008,0.22160948,-
 0.00012933,0.00001075,-0.00005638,0.00004726,-0.00012951,0.00013893,0.
 00024056,0.00010499,-0.00025191,-0.00018435,-0.00130742,0.00147594,-0.
 00406942,0.00278077,-0.00797190,-0.00247952,-0.00314292,-0.00401288,-0
 .00383573,0.00537486,0.00500461,0.00563915,0.00695493,0.00556914,-0.06
 107412,-0.04941904,-0.03828363,0.00000076,0.00000040,0.00001685,-0.000
 00277,0.00000090,-0.00000473,0.00001206,-0.00001243,-0.00003677,0.0000
 5026,-0.00002725,-0.00003004,0.00000564,0.00005281,0.00002722,-0.00014
 761,0.00002421,-0.00014213,0.00035797,-0.00001545,0.00032292,0.0009005
 1,0.00062524,0.00006369,0.00197356,-0.00357082,-0.00147959,0.06269511,
 0.04169498,0.00002780,-0.00003117,0.00006847,0.00015004,0.00007373,-0.
 00015511,0.00025633,-0.00041849,0.00038352,0.00173411,0.00030983,-0.00
 041575,0.00633265,0.00084985,0.00768510,0.00176804,0.00145954,0.001692
 66,-0.00094609,0.00419526,-0.00620808,-0.02297816,-0.00839812,-0.00574
 413,-0.14015232,-0.03557681,-0.16903960,0.00003192,-0.00000021,-0.0000
 0056,-0.00000308,0.00000147,0.00001364,0.00002090,-0.00000398,0.000057
 03,-0.00006604,0.00001765,0.00000574,-0.00006502,-0.00001736,0.0000109
 8,-0.00000976,-0.00012219,0.00008530,-0.00066004,-0.00031952,-0.000207
 59,-0.00140389,-0.00072826,0.00041599,0.00113144,-0.00094186,0.0004934
 8,0.15483118,0.03965065,0.17085891\\0.00000750,0.00000673,0.00000118,-
 0.00001205,0.00000187,0.00000200,0.00000166,-0.00000319,0.00000278,0.0
 0000630,0.00000723,-0.00000127,0.00000295,-0.00001058,-0.00000347,-0.0
 0000218,0.00000097,-0.00000470,-0.00000254,-0.00000291,-0.00000261,0.0
 0000104,0.00000135,0.00000397,-0.00000078,0.00000008,-0.00000769,0.000
 00101,0.00000336,0.00000651,-0.00000038,0.00000116,0.00000658,-0.00000
 047,0.00000432,0.00000287,-0.00000112,0.00000015,-0.00000157,0.0000024
 2,-0.00000556,0.00000191,-0.00000144,-0.00000214,0.00000334,-0.0000007
 5,-0.00000548,-0.00000594,-0.00000337,0.00000435,-0.00000013,-0.000000
 20,0.00000285,-0.00000097,0.00000241,-0.00000456,-0.00000281\\\@


 ... SUBJECTS WHICH DISCLOSE THEIR FULL POWER, MEANING AND BEAUTY AS SOON
 AS THEY ARE PRESENTED TO THE MIND HAVE VERY LITTLE OF THOSE QUALITIES
 TO DISCLOSE.
                           -- CHARLES DUTTON (1882)
 Job cpu time:       0 days  0 hours 45 minutes  8.4 seconds.
 File lengths (MBytes):  RWF=    152 Int=      0 D2E=      0 Chk=      8 Scr=      1
 Normal termination of Gaussian 09 at Tue Jan 28 15:00:00 2020.
