 Entering Gaussian System, Link 0=/home/puck/opt/gaussian_09/g09
 Input=dsC7O2H10nsd_2654.com
 Output=dsC7O2H10nsd_2654.log
 Initial command:
 /home/puck/opt/gaussian_09/l1.exe "/scratch/puck/g09_36dab433-8068-40b3-ad35-0368962be24e/Gau-72863.inp" -scrdir="/scratch/puck/g09_36dab433-8068-40b3-ad35-0368962be24e/"
 Entering Link 1 = /home/puck/opt/gaussian_09/l1.exe PID=     72866.
  
 Copyright (c) 1988,1990,1992,1993,1995,1998,2003,2009,2013,
            Gaussian, Inc.  All Rights Reserved.
  
 This is part of the Gaussian(R) 09 program.  It is based on
 the Gaussian(R) 03 system (copyright 2003, Gaussian, Inc.),
 the Gaussian(R) 98 system (copyright 1998, Gaussian, Inc.),
 the Gaussian(R) 94 system (copyright 1995, Gaussian, Inc.),
 the Gaussian 92(TM) system (copyright 1992, Gaussian, Inc.),
 the Gaussian 90(TM) system (copyright 1990, Gaussian, Inc.),
 the Gaussian 88(TM) system (copyright 1988, Gaussian, Inc.),
 the Gaussian 86(TM) system (copyright 1986, Carnegie Mellon
 University), and the Gaussian 82(TM) system (copyright 1983,
 Carnegie Mellon University). Gaussian is a federally registered
 trademark of Gaussian, Inc.
  
 This software contains proprietary and confidential information,
 including trade secrets, belonging to Gaussian, Inc.
  
 This software is provided under written license and may be
 used, copied, transmitted, or stored only in accord with that
 written license.
  
 The following legend is applicable only to US Government
 contracts under FAR:
  
                    RESTRICTED RIGHTS LEGEND
  
 Use, reproduction and disclosure by the US Government is
 subject to restrictions as set forth in subparagraphs (a)
 and (c) of the Commercial Computer Software - Restricted
 Rights clause in FAR 52.227-19.
  
 Gaussian, Inc.
 340 Quinnipiac St., Bldg. 40, Wallingford CT 06492
  
  
 ---------------------------------------------------------------
 Warning -- This program may not be used in any manner that
 competes with the business of Gaussian, Inc. or will provide
 assistance to any competitor of Gaussian, Inc.  The licensee
 of this program is prohibited from giving any competitor of
 Gaussian, Inc. access to this program.  By using this program,
 the user acknowledges that Gaussian, Inc. is engaged in the
 business of creating and licensing software in the field of
 computational chemistry and represents and warrants to the
 licensee that it is not a competitor of Gaussian, Inc. and that
 it will not use this program in any manner prohibited above.
 ---------------------------------------------------------------
  

 Cite this work as:
 Gaussian 09, Revision D.01,
 M. J. Frisch, G. W. Trucks, H. B. Schlegel, G. E. Scuseria, 
 M. A. Robb, J. R. Cheeseman, G. Scalmani, V. Barone, B. Mennucci, 
 G. A. Petersson, H. Nakatsuji, M. Caricato, X. Li, H. P. Hratchian, 
 A. F. Izmaylov, J. Bloino, G. Zheng, J. L. Sonnenberg, M. Hada, 
 M. Ehara, K. Toyota, R. Fukuda, J. Hasegawa, M. Ishida, T. Nakajima, 
 Y. Honda, O. Kitao, H. Nakai, T. Vreven, J. A. Montgomery, Jr., 
 J. E. Peralta, F. Ogliaro, M. Bearpark, J. J. Heyd, E. Brothers, 
 K. N. Kudin, V. N. Staroverov, T. Keith, R. Kobayashi, J. Normand, 
 K. Raghavachari, A. Rendell, J. C. Burant, S. S. Iyengar, J. Tomasi, 
 M. Cossi, N. Rega, J. M. Millam, M. Klene, J. E. Knox, J. B. Cross, 
 V. Bakken, C. Adamo, J. Jaramillo, R. Gomperts, R. E. Stratmann, 
 O. Yazyev, A. J. Austin, R. Cammi, C. Pomelli, J. W. Ochterski, 
 R. L. Martin, K. Morokuma, V. G. Zakrzewski, G. A. Voth, 
 P. Salvador, J. J. Dannenberg, S. Dapprich, A. D. Daniels, 
 O. Farkas, J. B. Foresman, J. V. Ortiz, J. Cioslowski, 
 and D. J. Fox, Gaussian, Inc., Wallingford CT, 2013.
 
 ******************************************
 Gaussian 09:  ES64L-G09RevD.01 24-Apr-2013
                27-Jan-2020 
 ******************************************
 -----------------------------
 # b3lyp 6-31G(2df,p) opt Freq
 -----------------------------
 1/14=-1,18=20,19=15,26=3,38=1/1,3;
 2/9=110,12=2,17=6,18=5,40=1/2;
 3/5=1,6=6,7=104,11=2,16=1,25=1,30=1,71=1,74=-5/1,2,3;
 4//1;
 5/5=2,38=5/2;
 6/7=2,8=2,9=2,10=2,28=1/1;
 7//1,2,3,16;
 1/14=-1,18=20,19=15,26=3/3(2);
 2/9=110/2;
 99//99;
 2/9=110/2;
 3/5=1,6=6,7=104,11=2,16=1,25=1,30=1,71=1,74=-5/1,2,3;
 4/5=5,16=3,69=1/1;
 5/5=2,38=5/2;
 7//1,2,3,16;
 1/14=-1,18=20,19=15,26=3/3(-5);
 2/9=110/2;
 6/7=2,8=2,9=2,10=2,19=2,28=1/1;
 99/9=1/99;
 -----
 titel
 -----
 Symbolic Z-matrix:
 Charge =  0 Multiplicity = 1
 C                    -2.52009   2.7842    1.22917 
 C                    -1.19358   2.45428   0.58266 
 C                    -1.05821   2.35179  -0.91851 
 C                     0.18166   2.83022  -1.64225 
 C                    -1.01568   1.10381  -0.07383 
 O                    -2.02984   0.08939  -0.08807 
 C                    -1.06167  -0.96912   0.11277 
 C                     0.06024   0.08553   0.12003 
 O                     1.25138   0.09079   0.23264 
 H                    -2.54714   2.43994   2.26794 
 H                    -2.69586   3.86503   1.2267 
 H                    -3.34467   2.29966   0.69981 
 H                    -0.30981   2.80878   1.11004 
 H                    -1.99561   2.45446  -1.46215 
 H                     1.08437   2.59075  -1.07315 
 H                     0.27356   2.35641  -2.62493 
 H                     0.14911   3.91487  -1.79216 
 H                    -1.20929  -1.50443   1.05764 
 H                    -1.03543  -1.68024  -0.72057 
 

 GradGradGradGradGradGradGradGradGradGradGradGradGradGradGradGradGradGrad
 Berny optimization.
 Initialization pass.
                           ----------------------------
                           !    Initial Parameters    !
                           ! (Angstroms and Degrees)  !
 --------------------------                            --------------------------
 ! Name  Definition              Value          Derivative Info.                !
 --------------------------------------------------------------------------------
 ! R1    R(1,2)                  1.5121         estimate D2E/DX2                !
 ! R2    R(1,10)                 1.0947         estimate D2E/DX2                !
 ! R3    R(1,11)                 1.095          estimate D2E/DX2                !
 ! R4    R(1,12)                 1.0931         estimate D2E/DX2                !
 ! R5    R(2,3)                  1.5107         estimate D2E/DX2                !
 ! R6    R(2,5)                  1.5121         estimate D2E/DX2                !
 ! R7    R(2,13)                 1.0885         estimate D2E/DX2                !
 ! R8    R(3,4)                  1.5133         estimate D2E/DX2                !
 ! R9    R(3,5)                  1.5076         estimate D2E/DX2                !
 ! R10   R(3,14)                 1.0885         estimate D2E/DX2                !
 ! R11   R(4,15)                 1.0937         estimate D2E/DX2                !
 ! R12   R(4,16)                 1.0948         estimate D2E/DX2                !
 ! R13   R(4,17)                 1.0955         estimate D2E/DX2                !
 ! R14   R(5,6)                  1.4345         estimate D2E/DX2                !
 ! R15   R(5,8)                  1.494          estimate D2E/DX2                !
 ! R16   R(6,7)                  1.4485         estimate D2E/DX2                !
 ! R17   R(7,8)                  1.5398         estimate D2E/DX2                !
 ! R18   R(7,18)                 1.096          estimate D2E/DX2                !
 ! R19   R(7,19)                 1.0958         estimate D2E/DX2                !
 ! R20   R(8,9)                  1.1965         estimate D2E/DX2                !
 ! A1    A(2,1,10)             111.0254         estimate D2E/DX2                !
 ! A2    A(2,1,11)             110.8061         estimate D2E/DX2                !
 ! A3    A(2,1,12)             110.9766         estimate D2E/DX2                !
 ! A4    A(10,1,11)            107.974          estimate D2E/DX2                !
 ! A5    A(10,1,12)            107.5472         estimate D2E/DX2                !
 ! A6    A(11,1,12)            108.3812         estimate D2E/DX2                !
 ! A7    A(1,2,3)              121.2154         estimate D2E/DX2                !
 ! A8    A(1,2,5)              118.9279         estimate D2E/DX2                !
 ! A9    A(1,2,13)             115.7252         estimate D2E/DX2                !
 ! A10   A(3,2,13)             115.5162         estimate D2E/DX2                !
 ! A11   A(5,2,13)             113.9343         estimate D2E/DX2                !
 ! A12   A(2,3,4)              121.8168         estimate D2E/DX2                !
 ! A13   A(2,3,14)             114.3755         estimate D2E/DX2                !
 ! A14   A(4,3,5)              120.4358         estimate D2E/DX2                !
 ! A15   A(4,3,14)             115.9074         estimate D2E/DX2                !
 ! A16   A(5,3,14)             112.4707         estimate D2E/DX2                !
 ! A17   A(3,4,15)             110.9889         estimate D2E/DX2                !
 ! A18   A(3,4,16)             111.1763         estimate D2E/DX2                !
 ! A19   A(3,4,17)             110.7411         estimate D2E/DX2                !
 ! A20   A(15,4,16)            107.6388         estimate D2E/DX2                !
 ! A21   A(15,4,17)            108.2122         estimate D2E/DX2                !
 ! A22   A(16,4,17)            107.9489         estimate D2E/DX2                !
 ! A23   A(2,5,6)              123.5533         estimate D2E/DX2                !
 ! A24   A(2,5,8)              129.5773         estimate D2E/DX2                !
 ! A25   A(3,5,6)              124.0483         estimate D2E/DX2                !
 ! A26   A(3,5,8)              131.0895         estimate D2E/DX2                !
 ! A27   A(6,5,8)               91.6295         estimate D2E/DX2                !
 ! A28   A(5,6,7)               92.4562         estimate D2E/DX2                !
 ! A29   A(6,7,8)               89.2624         estimate D2E/DX2                !
 ! A30   A(6,7,18)             112.7337         estimate D2E/DX2                !
 ! A31   A(6,7,19)             112.6303         estimate D2E/DX2                !
 ! A32   A(8,7,18)             115.3794         estimate D2E/DX2                !
 ! A33   A(8,7,19)             115.5059         estimate D2E/DX2                !
 ! A34   A(18,7,19)            109.9926         estimate D2E/DX2                !
 ! A35   A(5,8,7)               86.6468         estimate D2E/DX2                !
 ! A36   A(5,8,9)              136.5656         estimate D2E/DX2                !
 ! A37   A(7,8,9)              136.7873         estimate D2E/DX2                !
 ! D1    D(10,1,2,3)           157.5646         estimate D2E/DX2                !
 ! D2    D(10,1,2,5)            87.2271         estimate D2E/DX2                !
 ! D3    D(10,1,2,13)          -54.1067         estimate D2E/DX2                !
 ! D4    D(11,1,2,3)           -82.4543         estimate D2E/DX2                !
 ! D5    D(11,1,2,5)          -152.7917         estimate D2E/DX2                !
 ! D6    D(11,1,2,13)           65.8745         estimate D2E/DX2                !
 ! D7    D(12,1,2,3)            38.0077         estimate D2E/DX2                !
 ! D8    D(12,1,2,5)           -32.3298         estimate D2E/DX2                !
 ! D9    D(12,1,2,13)         -173.6636         estimate D2E/DX2                !
 ! D10   D(1,2,3,4)            143.0873         estimate D2E/DX2                !
 ! D11   D(1,2,3,14)            -4.651          estimate D2E/DX2                !
 ! D12   D(13,2,3,4)            -5.3032         estimate D2E/DX2                !
 ! D13   D(13,2,3,14)         -153.0415         estimate D2E/DX2                !
 ! D14   D(1,2,5,6)             -1.8267         estimate D2E/DX2                !
 ! D15   D(1,2,5,8)           -128.1609         estimate D2E/DX2                !
 ! D16   D(13,2,5,6)           140.1624         estimate D2E/DX2                !
 ! D17   D(13,2,5,8)            13.8283         estimate D2E/DX2                !
 ! D18   D(2,3,4,15)            38.9398         estimate D2E/DX2                !
 ! D19   D(2,3,4,16)           158.7201         estimate D2E/DX2                !
 ! D20   D(2,3,4,17)           -81.2738         estimate D2E/DX2                !
 ! D21   D(5,3,4,15)           -32.6824         estimate D2E/DX2                !
 ! D22   D(5,3,4,16)            87.0978         estimate D2E/DX2                !
 ! D23   D(5,3,4,17)          -152.8961         estimate D2E/DX2                !
 ! D24   D(14,3,4,15)         -173.7797         estimate D2E/DX2                !
 ! D25   D(14,3,4,16)          -53.9995         estimate D2E/DX2                !
 ! D26   D(14,3,4,17)           66.0066         estimate D2E/DX2                !
 ! D27   D(4,3,5,6)           -136.0653         estimate D2E/DX2                !
 ! D28   D(4,3,5,8)             -6.6601         estimate D2E/DX2                !
 ! D29   D(14,3,5,6)             6.2512         estimate D2E/DX2                !
 ! D30   D(14,3,5,8)           135.6564         estimate D2E/DX2                !
 ! D31   D(2,5,6,7)           -141.0393         estimate D2E/DX2                !
 ! D32   D(3,5,6,7)            144.9269         estimate D2E/DX2                !
 ! D33   D(8,5,6,7)              0.5597         estimate D2E/DX2                !
 ! D34   D(2,5,8,7)            137.2812         estimate D2E/DX2                !
 ! D35   D(2,5,8,9)            -42.5614         estimate D2E/DX2                !
 ! D36   D(3,5,8,7)           -140.7            estimate D2E/DX2                !
 ! D37   D(3,5,8,9)             39.4574         estimate D2E/DX2                !
 ! D38   D(6,5,8,7)             -0.527          estimate D2E/DX2                !
 ! D39   D(6,5,8,9)            179.6304         estimate D2E/DX2                !
 ! D40   D(5,6,7,8)             -0.5429         estimate D2E/DX2                !
 ! D41   D(5,6,7,18)           116.8027         estimate D2E/DX2                !
 ! D42   D(5,6,7,19)          -118.0071         estimate D2E/DX2                !
 ! D43   D(6,7,8,5)              0.5217         estimate D2E/DX2                !
 ! D44   D(6,7,8,9)           -179.6363         estimate D2E/DX2                !
 ! D45   D(18,7,8,5)          -114.4176         estimate D2E/DX2                !
 ! D46   D(18,7,8,9)            65.4244         estimate D2E/DX2                !
 ! D47   D(19,7,8,5)           115.3705         estimate D2E/DX2                !
 ! D48   D(19,7,8,9)           -64.7875         estimate D2E/DX2                !
 --------------------------------------------------------------------------------
 Trust Radius=3.00D-01 FncErr=1.00D-07 GrdErr=1.00D-06
 Number of steps in this run=    114 maximum allowed number of steps=    114.
 GradGradGradGradGradGradGradGradGradGradGradGradGradGradGradGradGradGrad

                          Input orientation:                          
 ---------------------------------------------------------------------
 Center     Atomic      Atomic             Coordinates (Angstroms)
 Number     Number       Type             X           Y           Z
 ---------------------------------------------------------------------
      1          6           0       -2.520092    2.784203    1.229169
      2          6           0       -1.193580    2.454283    0.582662
      3          6           0       -1.058209    2.351791   -0.918506
      4          6           0        0.181656    2.830217   -1.642246
      5          6           0       -1.015679    1.103813   -0.073831
      6          8           0       -2.029836    0.089394   -0.088074
      7          6           0       -1.061670   -0.969123    0.112769
      8          6           0        0.060240    0.085528    0.120030
      9          8           0        1.251377    0.090792    0.232641
     10          1           0       -2.547139    2.439939    2.267940
     11          1           0       -2.695860    3.865034    1.226701
     12          1           0       -3.344672    2.299664    0.699813
     13          1           0       -0.309809    2.808778    1.110036
     14          1           0       -1.995609    2.454458   -1.462147
     15          1           0        1.084369    2.590749   -1.073154
     16          1           0        0.273558    2.356412   -2.624934
     17          1           0        0.149107    3.914873   -1.792158
     18          1           0       -1.209285   -1.504428    1.057640
     19          1           0       -1.035427   -1.680237   -0.720573
 ---------------------------------------------------------------------
                    Distance matrix (angstroms):
                    1          2          3          4          5
     1  C    0.000000
     2  C    1.512101   0.000000
     3  C    2.633740   1.510740   0.000000
     4  C    3.942915   2.642502   1.513260   0.000000
     5  C    2.604760   1.512085   1.507559   2.621832   0.000000
     6  O    3.039321   2.596518   2.598484   3.849449   1.434490
     7  C    4.178612   3.458020   3.477357   4.365881   2.081826
     8  C    3.895015   2.719760   2.732295   3.263997   1.494018
     9  O    4.740412   3.418541   3.430954   3.487686   2.501935
    10  H    1.094667   2.161594   3.518256   4.784161   3.100725
    11  H    1.095032   2.159131   3.094142   4.193066   3.484068
    12  H    1.093127   2.159821   2.801712   4.266347   2.729981
    13  H    2.213627   1.088505   2.209960   2.795900   2.192419
    14  H    2.761702   2.196473   1.088488   2.216780   2.170697
    15  H    4.281385   2.819469   2.161402   1.093665   2.760403
    16  H    4.779287   3.528561   2.164606   1.094811   3.120778
    17  H    4.187057   3.094495   2.159653   1.095450   3.494485
    18  H    4.487760   3.987135   4.335713   5.292755   2.849673
    19  H    5.092832   4.337935   4.036948   4.761824   2.858251
                    6          7          8          9         10
     6  O    0.000000
     7  C    1.448496   0.000000
     8  C    2.100414   1.539813   0.000000
     9  O    3.296849   2.547151   1.196460   0.000000
    10  H    3.368006   4.298033   4.117669   4.908122   0.000000
    11  H    4.053107   5.223073   4.806815   5.551012   1.771212
    12  H    2.689768   4.030097   4.102679   5.120648   1.764868
    13  H    3.433512   3.978991   2.921154   3.254931   2.546061
    14  H    2.735466   3.882462   3.513066   4.359145   3.770670
    15  H    4.114053   4.322567   2.957814   2.825381   4.936953
    16  H    4.108606   4.509659   3.568927   3.775565   5.648320
    17  H    4.720803   5.380348   4.281150   4.465244   5.092108
    18  H    2.127495   1.095958   2.240261   3.046344   4.337362
    19  H    2.126146   1.095824   2.241657   3.045428   5.309645
                   11         12         13         14         15
    11  H    0.000000
    12  H    1.774528   0.000000
    13  H    2.611996   3.104492   0.000000
    14  H    3.116084   2.553038   3.095738   0.000000
    15  H    4.604701   4.779597   2.599537   3.107436   0.000000
    16  H    5.092001   4.914137   3.807224   2.551627   1.766451
    17  H    4.148473   4.585336   3.139551   2.615631   1.773411
    18  H    5.574012   4.377103   4.406308   4.758194   5.154766
    19  H    6.107286   4.815571   4.901929   4.309012   4.781126
                   16         17         18         19
    16  H    0.000000
    17  H    1.771385   0.000000
    18  H    5.537712   6.271794   0.000000
    19  H    4.651297   5.818648   1.795321   0.000000
 Stoichiometry    C7H10O2
 Framework group  C1[X(C7H10O2)]
 Deg. of freedom    51
 Full point group                 C1      NOp   1
 Largest Abelian subgroup         C1      NOp   1
 Largest concise Abelian subgroup C1      NOp   1
                         Standard orientation:                         
 ---------------------------------------------------------------------
 Center     Atomic      Atomic             Coordinates (Angstroms)
 Number     Number       Type             X           Y           Z
 ---------------------------------------------------------------------
      1          6           0       -2.037522   -1.526829    0.574373
      2          6           0       -1.242992   -0.240982    0.616451
      3          6           0       -1.112462    0.639036   -0.604559
      4          6           0       -1.100964    2.148794   -0.502307
      5          6           0        0.069671   -0.167534   -0.130490
      6          8           0        0.632241   -1.270219   -0.855310
      7          6           0        1.977511   -0.946083   -0.427147
      8          6           0        1.417751    0.257389    0.353461
      9          8           0        1.858428    1.133501    1.038842
     10          1           0       -1.717806   -2.212135    1.365848
     11          1           0       -3.105849   -1.328555    0.710245
     12          1           0       -1.900974   -2.040120   -0.381040
     13          1           0       -1.236829    0.279535    1.572415
     14          1           0       -1.562921    0.226812   -1.505649
     15          1           0       -0.536277    2.477746    0.374632
     16          1           0       -0.636971    2.601421   -1.384605
     17          1           0       -2.120882    2.539781   -0.419197
     18          1           0        2.428535   -1.734831    0.185698
     19          1           0        2.638664   -0.698662   -1.265294
 ---------------------------------------------------------------------
 Rotational constants (GHZ):      2.0967019      1.5389927      1.1224295
 Standard basis: 6-31G(2df,p) (6D, 7F)
 There are   329 symmetry adapted cartesian basis functions of A   symmetry.
 There are   302 symmetry adapted basis functions of A   symmetry.
   302 basis functions,   466 primitive gaussians,   329 cartesian basis functions
    34 alpha electrons       34 beta electrons
       nuclear repulsion energy       457.3132393033 Hartrees.
 NAtoms=   19 NActive=   19 NUniq=   19 SFac= 1.00D+00 NAtFMM=   60 NAOKFM=F Big=F
 Integral buffers will be    131072 words long.
 Raffenetti 2 integral format.
 Two-electron integral symmetry is turned on.
 One-electron integrals computed using PRISM.
 NBasis=   302 RedAO= T EigKep=  5.75D-04  NBF=   302
 NBsUse=   302 1.00D-06 EigRej= -1.00D+00 NBFU=   302
 ExpMin= 1.61D-01 ExpMax= 5.48D+03 ExpMxC= 8.25D+02 IAcc=1 IRadAn=         1 AccDes= 0.00D+00
 Harris functional with IExCor=  402 and IRadAn=       1 diagonalized for initial guess.
 HarFok:  IExCor=  402 AccDes= 0.00D+00 IRadAn=         1 IDoV= 1 UseB2=F ITyADJ=14
 ICtDFT=  3500011 ScaDFX=  1.000000  1.000000  1.000000  1.000000
 FoFCou: FMM=F IPFlag=           0 FMFlag=      100000 FMFlg1=           0
         NFxFlg=           0 DoJE=T BraDBF=F KetDBF=T FulRan=T
         wScrn=  0.000000 ICntrl=     500 IOpCl=  0 I1Cent=   200000004 NGrid=           0
         NMat0=    1 NMatS0=      1 NMatT0=    0 NMatD0=    1 NMtDS0=    0 NMtDT0=    0
 Petite list used in FoFCou.
 Requested convergence on RMS density matrix=1.00D-08 within 128 cycles.
 Requested convergence on MAX density matrix=1.00D-06.
 Requested convergence on             energy=1.00D-06.
 No special actions if energy rises.
 Integral accuracy reduced to 1.0D-05 until final iterations.
 Initial convergence to 1.0D-05 achieved.  Increase integral accuracy.
 SCF Done:  E(RB3LYP) =  -423.173394051     A.U. after   14 cycles
            NFock= 14  Conv=0.40D-08     -V/T= 2.0075

 **********************************************************************

            Population analysis using the SCF density.

 **********************************************************************

 Orbital symmetries:
       Occupied  (A) (A) (A) (A) (A) (A) (A) (A) (A) (A) (A) (A)
                 (A) (A) (A) (A) (A) (A) (A) (A) (A) (A) (A) (A)
                 (A) (A) (A) (A) (A) (A) (A) (A) (A) (A)
       Virtual   (A) (A) (A) (A) (A) (A) (A) (A) (A) (A) (A) (A)
                 (A) (A) (A) (A) (A) (A) (A) (A) (A) (A) (A) (A)
                 (A) (A) (A) (A) (A) (A) (A) (A) (A) (A) (A) (A)
                 (A) (A) (A) (A) (A) (A) (A) (A) (A) (A) (A) (A)
                 (A) (A) (A) (A) (A) (A) (A) (A) (A) (A) (A) (A)
                 (A) (A) (A) (A) (A) (A) (A) (A) (A) (A) (A) (A)
                 (A) (A) (A) (A) (A) (A) (A) (A) (A) (A) (A) (A)
                 (A) (A) (A) (A) (A) (A) (A) (A) (A) (A) (A) (A)
                 (A) (A) (A) (A) (A) (A) (A) (A) (A) (A) (A) (A)
                 (A) (A) (A) (A) (A) (A) (A) (A) (A) (A) (A) (A)
                 (A) (A) (A) (A) (A) (A) (A) (A) (A) (A) (A) (A)
                 (A) (A) (A) (A) (A) (A) (A) (A) (A) (A) (A) (A)
                 (A) (A) (A) (A) (A) (A) (A) (A) (A) (A) (A) (A)
                 (A) (A) (A) (A) (A) (A) (A) (A) (A) (A) (A) (A)
                 (A) (A) (A) (A) (A) (A) (A) (A) (A) (A) (A) (A)
                 (A) (A) (A) (A) (A) (A) (A) (A) (A) (A) (A) (A)
                 (A) (A) (A) (A) (A) (A) (A) (A) (A) (A) (A) (A)
                 (A) (A) (A) (A) (A) (A) (A) (A) (A) (A) (A) (A)
                 (A) (A) (A) (A) (A) (A) (A) (A) (A) (A) (A) (A)
                 (A) (A) (A) (A) (A) (A) (A) (A) (A) (A) (A) (A)
                 (A) (A) (A) (A) (A) (A) (A) (A) (A) (A) (A) (A)
                 (A) (A) (A) (A) (A) (A) (A) (A) (A) (A) (A) (A)
                 (A) (A) (A) (A)
 The electronic state is 1-A.
 Alpha  occ. eigenvalues --  -19.15173 -19.14623 -10.27799 -10.24481 -10.24230
 Alpha  occ. eigenvalues --  -10.20473 -10.20447 -10.18512 -10.18357  -1.06778
 Alpha  occ. eigenvalues --   -1.04263  -0.87273  -0.73763  -0.71639  -0.70094
 Alpha  occ. eigenvalues --   -0.64165  -0.57790  -0.51138  -0.49883  -0.48145
 Alpha  occ. eigenvalues --   -0.46788  -0.44326  -0.43427  -0.41764  -0.41194
 Alpha  occ. eigenvalues --   -0.39584  -0.38577  -0.37833  -0.36058  -0.34465
 Alpha  occ. eigenvalues --   -0.33718  -0.30316  -0.24914  -0.24166
 Alpha virt. eigenvalues --   -0.02780   0.06500   0.10630   0.11366   0.11892
 Alpha virt. eigenvalues --    0.12786   0.14241   0.14904   0.17082   0.17135
 Alpha virt. eigenvalues --    0.17387   0.17827   0.18249   0.20810   0.22096
 Alpha virt. eigenvalues --    0.23741   0.25331   0.27404   0.28241   0.31233
 Alpha virt. eigenvalues --    0.33481   0.41700   0.43281   0.44368   0.45780
 Alpha virt. eigenvalues --    0.46193   0.48428   0.48682   0.49880   0.51956
 Alpha virt. eigenvalues --    0.52381   0.55202   0.57141   0.59223   0.61787
 Alpha virt. eigenvalues --    0.62271   0.64430   0.65433   0.65518   0.68130
 Alpha virt. eigenvalues --    0.68728   0.71366   0.71654   0.73091   0.73284
 Alpha virt. eigenvalues --    0.73988   0.75698   0.77305   0.77612   0.79278
 Alpha virt. eigenvalues --    0.80281   0.80695   0.82220   0.84327   0.85594
 Alpha virt. eigenvalues --    0.88230   0.93432   0.93758   0.96231   0.97023
 Alpha virt. eigenvalues --    0.97954   0.98306   1.01460   1.03319   1.05416
 Alpha virt. eigenvalues --    1.08409   1.10701   1.14809   1.16914   1.20305
 Alpha virt. eigenvalues --    1.21377   1.24837   1.26203   1.28996   1.30202
 Alpha virt. eigenvalues --    1.31548   1.33592   1.34128   1.36450   1.38491
 Alpha virt. eigenvalues --    1.40251   1.40608   1.41531   1.45253   1.48555
 Alpha virt. eigenvalues --    1.50780   1.52357   1.54054   1.56143   1.57851
 Alpha virt. eigenvalues --    1.59423   1.60744   1.64979   1.66562   1.67058
 Alpha virt. eigenvalues --    1.71067   1.73739   1.76761   1.77514   1.78935
 Alpha virt. eigenvalues --    1.81927   1.85172   1.89769   1.90599   1.93315
 Alpha virt. eigenvalues --    1.96346   1.96603   1.96914   2.00054   2.00782
 Alpha virt. eigenvalues --    2.09877   2.11949   2.14036   2.23575   2.26534
 Alpha virt. eigenvalues --    2.27535   2.32259   2.35446   2.35902   2.38594
 Alpha virt. eigenvalues --    2.42170   2.43810   2.45462   2.46306   2.54642
 Alpha virt. eigenvalues --    2.59207   2.64597   2.67237   2.68868   2.69383
 Alpha virt. eigenvalues --    2.75522   2.76324   2.78872   2.81143   2.82268
 Alpha virt. eigenvalues --    2.82988   2.85166   2.86881   2.88002   2.90697
 Alpha virt. eigenvalues --    2.90905   2.93663   2.97964   2.99766   3.01606
 Alpha virt. eigenvalues --    3.05494   3.06825   3.08319   3.11459   3.13504
 Alpha virt. eigenvalues --    3.15758   3.17822   3.20503   3.22693   3.24207
 Alpha virt. eigenvalues --    3.26118   3.30379   3.31704   3.33690   3.36299
 Alpha virt. eigenvalues --    3.37913   3.38951   3.41044   3.45319   3.47332
 Alpha virt. eigenvalues --    3.49100   3.51960   3.54813   3.58070   3.60398
 Alpha virt. eigenvalues --    3.63195   3.65692   3.67722   3.68890   3.70341
 Alpha virt. eigenvalues --    3.73655   3.74613   3.79407   3.83582   3.87515
 Alpha virt. eigenvalues --    3.91513   3.93134   3.96895   3.99222   4.03974
 Alpha virt. eigenvalues --    4.05606   4.11763   4.16389   4.18306   4.24056
 Alpha virt. eigenvalues --    4.24770   4.29896   4.32135   4.34156   4.35619
 Alpha virt. eigenvalues --    4.37503   4.39567   4.42703   4.43605   4.46978
 Alpha virt. eigenvalues --    4.47729   4.48338   4.49666   4.51260   4.52492
 Alpha virt. eigenvalues --    4.56921   4.58005   4.61733   4.63097   4.63995
 Alpha virt. eigenvalues --    4.66329   4.68962   4.71137   4.72351   4.74287
 Alpha virt. eigenvalues --    4.74713   4.76059   4.77755   4.78434   4.79942
 Alpha virt. eigenvalues --    4.81693   4.84271   4.88258   4.88806   4.93023
 Alpha virt. eigenvalues --    4.95435   4.99331   4.99908   5.03419   5.06427
 Alpha virt. eigenvalues --    5.08516   5.14481   5.20437   5.22767   5.26810
 Alpha virt. eigenvalues --    5.34165   5.41983   5.44015   5.45241   5.50676
 Alpha virt. eigenvalues --    5.51704   5.53671   5.59798   5.62934   5.65874
 Alpha virt. eigenvalues --    5.67343   5.79794   5.81750   5.86104   5.97306
 Alpha virt. eigenvalues --    6.02369   6.05818   6.19191   6.25219   6.28233
 Alpha virt. eigenvalues --    6.57530   6.81908   6.90574   7.15730  10.85442
 Alpha virt. eigenvalues --   11.27494  11.55471  11.68232  11.95130  12.40846
 Alpha virt. eigenvalues --   12.58876  13.19271  13.60576
          Condensed to atoms (all electrons):
               1          2          3          4          5          6
     1  C    4.979523   0.386938  -0.018857   0.002784  -0.004410  -0.001316
     2  C    0.386938   4.894399   0.316169  -0.017668   0.270977  -0.027143
     3  C   -0.018857   0.316169   4.831017   0.397389   0.327669  -0.027976
     4  C    0.002784  -0.017668   0.397389   5.008298  -0.013855   0.001228
     5  C   -0.004410   0.270977   0.327669  -0.013855   4.925098   0.325824
     6  O   -0.001316  -0.027143  -0.027976   0.001228   0.325824   7.796363
     7  C   -0.000189   0.013388   0.011127   0.000201  -0.307416   0.334818
     8  C    0.001964  -0.019273  -0.022465  -0.006406   0.317958  -0.048007
     9  O    0.000021  -0.001247  -0.002179  -0.001574  -0.067286   0.003681
    10  H    0.373194  -0.024113   0.003184  -0.000107  -0.000934   0.000475
    11  H    0.372251  -0.023597  -0.002944   0.000116   0.001851   0.000135
    12  H    0.372744  -0.017578  -0.004113  -0.000046  -0.009363   0.005011
    13  H   -0.047242   0.377371  -0.026546  -0.008928  -0.040610   0.001199
    14  H   -0.008485  -0.026565   0.373683  -0.048068  -0.030931  -0.001492
    15  H   -0.000040  -0.002955  -0.013995   0.368951  -0.015911   0.000004
    16  H   -0.000097   0.003284  -0.022996   0.371924  -0.000964   0.000058
    17  H    0.000092  -0.003281  -0.023887   0.369278   0.002724  -0.000029
    18  H   -0.000045   0.000303  -0.000484   0.000006   0.005172  -0.022360
    19  H    0.000020  -0.000582  -0.000020  -0.000012   0.005296  -0.022137
               7          8          9         10         11         12
     1  C   -0.000189   0.001964   0.000021   0.373194   0.372251   0.372744
     2  C    0.013388  -0.019273  -0.001247  -0.024113  -0.023597  -0.017578
     3  C    0.011127  -0.022465  -0.002179   0.003184  -0.002944  -0.004113
     4  C    0.000201  -0.006406  -0.001574  -0.000107   0.000116  -0.000046
     5  C   -0.307416   0.317958  -0.067286  -0.000934   0.001851  -0.009363
     6  O    0.334818  -0.048007   0.003681   0.000475   0.000135   0.005011
     7  C    5.173566   0.329199  -0.055402  -0.000131   0.000005  -0.000073
     8  C    0.329199   4.395166   0.777100   0.000177  -0.000060  -0.000059
     9  O   -0.055402   0.777100   7.641588  -0.000001   0.000000  -0.000003
    10  H   -0.000131   0.000177  -0.000001   0.590605  -0.034456  -0.029726
    11  H    0.000005  -0.000060   0.000000  -0.034456   0.593785  -0.029923
    12  H   -0.000073  -0.000059  -0.000003  -0.029726  -0.029923   0.568319
    13  H    0.000763  -0.003188   0.001854  -0.002983  -0.000570   0.005010
    14  H   -0.000044   0.001097  -0.000064   0.000014   0.001112   0.003665
    15  H    0.000448   0.004583   0.006400   0.000001   0.000018   0.000003
    16  H   -0.000111   0.000945  -0.000080   0.000002  -0.000006   0.000002
    17  H    0.000002   0.000127   0.000027  -0.000005  -0.000005   0.000020
    18  H    0.344696  -0.003668   0.000085   0.000023  -0.000001  -0.000007
    19  H    0.345551  -0.004524   0.000285   0.000002   0.000000   0.000004
              13         14         15         16         17         18
     1  C   -0.047242  -0.008485  -0.000040  -0.000097   0.000092  -0.000045
     2  C    0.377371  -0.026565  -0.002955   0.003284  -0.003281   0.000303
     3  C   -0.026546   0.373683  -0.013995  -0.022996  -0.023887  -0.000484
     4  C   -0.008928  -0.048068   0.368951   0.371924   0.369278   0.000006
     5  C   -0.040610  -0.030931  -0.015911  -0.000964   0.002724   0.005172
     6  O    0.001199  -0.001492   0.000004   0.000058  -0.000029  -0.022360
     7  C    0.000763  -0.000044   0.000448  -0.000111   0.000002   0.344696
     8  C   -0.003188   0.001097   0.004583   0.000945   0.000127  -0.003668
     9  O    0.001854  -0.000064   0.006400  -0.000080   0.000027   0.000085
    10  H   -0.002983   0.000014   0.000001   0.000002  -0.000005   0.000023
    11  H   -0.000570   0.001112   0.000018  -0.000006  -0.000005  -0.000001
    12  H    0.005010   0.003665   0.000003   0.000002   0.000020  -0.000007
    13  H    0.631678   0.003849   0.003369  -0.000066   0.001502  -0.000038
    14  H    0.003849   0.627734   0.004789  -0.002430  -0.001428   0.000011
    15  H    0.003369   0.004789   0.560101  -0.030615  -0.028950  -0.000002
    16  H   -0.000066  -0.002430  -0.030615   0.591037  -0.034000   0.000001
    17  H    0.001502  -0.001428  -0.028950  -0.034000   0.597054   0.000000
    18  H   -0.000038   0.000011  -0.000002   0.000001   0.000000   0.587364
    19  H    0.000001   0.000002  -0.000009   0.000007   0.000000  -0.045721
              19
     1  C    0.000020
     2  C   -0.000582
     3  C   -0.000020
     4  C   -0.000012
     5  C    0.005296
     6  O   -0.022137
     7  C    0.345551
     8  C   -0.004524
     9  O    0.000285
    10  H    0.000002
    11  H    0.000000
    12  H    0.000004
    13  H    0.000001
    14  H    0.000002
    15  H   -0.000009
    16  H    0.000007
    17  H    0.000000
    18  H   -0.045721
    19  H    0.587020
 Mulliken charges:
               1
     1  C   -0.408850
     2  C   -0.098828
     3  C   -0.093779
     4  C   -0.423511
     5  C    0.309110
     6  O   -0.318336
     7  C   -0.190400
     8  C    0.279336
     9  O   -0.303206
    10  H    0.124778
    11  H    0.122290
    12  H    0.136112
    13  H    0.103573
    14  H    0.103553
    15  H    0.143809
    16  H    0.124105
    17  H    0.120760
    18  H    0.134666
    19  H    0.134816
 Sum of Mulliken charges =   0.00000
 Mulliken charges with hydrogens summed into heavy atoms:
               1
     1  C   -0.025669
     2  C    0.004745
     3  C    0.009774
     4  C   -0.034837
     5  C    0.309110
     6  O   -0.318336
     7  C    0.079082
     8  C    0.279336
     9  O   -0.303206
 Electronic spatial extent (au):  <R**2>=           1178.0523
 Charge=              0.0000 electrons
 Dipole moment (field-independent basis, Debye):
    X=             -1.1316    Y=             -0.6749    Z=             -0.5661  Tot=              1.4341
 Quadrupole moment (field-independent basis, Debye-Ang):
   XX=            -51.2800   YY=            -55.3170   ZZ=            -54.0983
   XY=             -4.1603   XZ=             -3.0495   YZ=             -3.9384
 Traceless Quadrupole moment (field-independent basis, Debye-Ang):
   XX=              2.2851   YY=             -1.7519   ZZ=             -0.5332
   XY=             -4.1603   XZ=             -3.0495   YZ=             -3.9384
 Octapole moment (field-independent basis, Debye-Ang**2):
  XXX=              9.4884  YYY=             -0.5898  ZZZ=             -0.2309  XYY=             -0.3774
  XXY=            -11.9674  XXZ=             -8.5508  XZZ=             -0.6142  YZZ=             -0.8266
  YYZ=              0.3896  XYZ=             -4.6590
 Hexadecapole moment (field-independent basis, Debye-Ang**3):
 XXXX=           -755.6486 YYYY=           -557.5053 ZZZZ=           -204.5194 XXXY=            -21.1683
 XXXZ=            -15.1485 YYYX=             -3.9877 YYYZ=             -0.5646 ZZZX=              0.6813
 ZZZY=              3.3430 XXYY=           -219.5031 XXZZ=           -162.0375 YYZZ=           -127.6577
 XXYZ=             -4.7929 YYXZ=             -0.9859 ZZXY=             -2.0206
 N-N= 4.573132393033D+02 E-N=-1.900996812923D+03  KE= 4.200164260197D+02
 Calling FoFJK, ICntrl=      2127 FMM=F ISym2X=0 I1Cent= 0 IOpClX= 0 NMat=1 NMatS=1 NMatT=0.
 ***** Axes restored to original set *****
 -------------------------------------------------------------------
 Center     Atomic                   Forces (Hartrees/Bohr)
 Number     Number              X              Y              Z
 -------------------------------------------------------------------
      1        6           0.000018850   -0.000004518   -0.000006768
      2        6          -0.000028969    0.000015201    0.000018396
      3        6          -0.000005015    0.000016465   -0.000018318
      4        6          -0.000005312   -0.000006840    0.000012643
      5        6           0.000036186   -0.000024504   -0.000003419
      6        8          -0.000003338   -0.000008492   -0.000004171
      7        6          -0.000010932    0.000028417   -0.000009202
      8        6           0.000009460   -0.000018567    0.000015824
      9        8          -0.000008829    0.000010855    0.000002197
     10        1          -0.000009832   -0.000002119   -0.000001643
     11        1          -0.000005805   -0.000000110   -0.000003336
     12        1          -0.000006474   -0.000000020   -0.000005805
     13        1           0.000004012    0.000001587   -0.000005892
     14        1          -0.000000001   -0.000000764   -0.000000050
     15        1           0.000003763    0.000000654    0.000004381
     16        1           0.000007443    0.000000284    0.000000286
     17        1           0.000005444    0.000001342    0.000001470
     18        1          -0.000000598   -0.000003852    0.000001031
     19        1          -0.000000052   -0.000005018    0.000002379
 -------------------------------------------------------------------
 Cartesian Forces:  Max     0.000036186 RMS     0.000011133

 GradGradGradGradGradGradGradGradGradGradGradGradGradGradGradGradGradGrad
 Berny optimization.
 FormGI is forming the generalized inverse of G from B-inverse, IUseBI=4.
 Internal  Forces:  Max     0.000014493 RMS     0.000004164
 Search for a local minimum.
 Step number   1 out of a maximum of  114
 All quantities printed in internal units (Hartrees-Bohrs-Radians)
 Mixed Optimization -- En-DIIS/RFO-DIIS
 Second derivative matrix not updated -- first step.
 ITU=  0
     Eigenvalues ---    0.00534   0.00591   0.00606   0.00853   0.01811
     Eigenvalues ---    0.01948   0.02542   0.02784   0.03997   0.04504
     Eigenvalues ---    0.05671   0.05687   0.05688   0.05704   0.06324
     Eigenvalues ---    0.06461   0.09022   0.09562   0.10291   0.10547
     Eigenvalues ---    0.13075   0.14840   0.16000   0.16000   0.16000
     Eigenvalues ---    0.16000   0.16000   0.16000   0.16983   0.19163
     Eigenvalues ---    0.24779   0.25000   0.26307   0.27491   0.30968
     Eigenvalues ---    0.31025   0.31140   0.31342   0.34133   0.34148
     Eigenvalues ---    0.34190   0.34237   0.34263   0.34279   0.34393
     Eigenvalues ---    0.34454   0.34986   0.34988   0.36774   0.38172
     Eigenvalues ---    1.06622
 RFO step:  Lambda=-1.21059752D-08 EMin= 5.33984096D-03
 Linear search not attempted -- first point.
 Iteration  1 RMS(Cart)=  0.00005905 RMS(Int)=  0.00000000
 Iteration  2 RMS(Cart)=  0.00000000 RMS(Int)=  0.00000000
 Variable       Old X    -DE/DX   Delta X   Delta X   Delta X     New X
                                 (Linear)    (Quad)   (Total)
    R1        2.85746  -0.00001   0.00000  -0.00004  -0.00004   2.85742
    R2        2.06862   0.00000   0.00000   0.00001   0.00001   2.06863
    R3        2.06931   0.00000   0.00000   0.00000   0.00000   2.06931
    R4        2.06571   0.00000   0.00000   0.00001   0.00001   2.06572
    R5        2.85488   0.00001   0.00000   0.00001   0.00001   2.85490
    R6        2.85743   0.00001   0.00000   0.00004   0.00004   2.85747
    R7        2.05698   0.00000   0.00000   0.00001   0.00001   2.05698
    R8        2.85965  -0.00001   0.00000  -0.00002  -0.00002   2.85963
    R9        2.84887   0.00001   0.00000   0.00004   0.00004   2.84891
   R10        2.05694   0.00000   0.00000   0.00000   0.00000   2.05695
   R11        2.06673   0.00000   0.00000   0.00000   0.00000   2.06673
   R12        2.06889   0.00000   0.00000   0.00001   0.00001   2.06890
   R13        2.07010   0.00000   0.00000   0.00000   0.00000   2.07010
   R14        2.71079   0.00000   0.00000   0.00001   0.00001   2.71080
   R15        2.82328   0.00000   0.00000   0.00000   0.00000   2.82328
   R16        2.73726  -0.00001   0.00000  -0.00004  -0.00004   2.73722
   R17        2.90983   0.00000   0.00000   0.00000   0.00000   2.90983
   R18        2.07106   0.00000   0.00000   0.00001   0.00001   2.07107
   R19        2.07081   0.00000   0.00000   0.00000   0.00000   2.07081
   R20        2.26098  -0.00001   0.00000  -0.00001  -0.00001   2.26097
    A1        1.93776   0.00000   0.00000   0.00003   0.00003   1.93779
    A2        1.93393   0.00000   0.00000   0.00001   0.00001   1.93394
    A3        1.93691   0.00000   0.00000   0.00001   0.00001   1.93691
    A4        1.88450   0.00000   0.00000   0.00000   0.00000   1.88450
    A5        1.87705   0.00000   0.00000  -0.00003  -0.00003   1.87703
    A6        1.89161   0.00000   0.00000  -0.00003  -0.00003   1.89158
    A7        2.11561   0.00000   0.00000   0.00003   0.00003   2.11564
    A8        2.07568   0.00000   0.00000  -0.00001  -0.00001   2.07567
    A9        2.01979   0.00000   0.00000   0.00004   0.00004   2.01982
   A10        2.01614   0.00000   0.00000  -0.00007  -0.00007   2.01607
   A11        1.98853  -0.00001   0.00000  -0.00001  -0.00001   1.98852
   A12        2.12610   0.00000   0.00000  -0.00001  -0.00001   2.12609
   A13        1.99623   0.00000   0.00000  -0.00001  -0.00001   1.99622
   A14        2.10200  -0.00001   0.00000  -0.00005  -0.00005   2.10195
   A15        2.02297   0.00001   0.00000   0.00004   0.00004   2.02300
   A16        1.96298   0.00000   0.00000   0.00001   0.00001   1.96299
   A17        1.93712   0.00000   0.00000   0.00000   0.00000   1.93712
   A18        1.94039   0.00000   0.00000   0.00002   0.00002   1.94041
   A19        1.93280   0.00000   0.00000   0.00002   0.00002   1.93282
   A20        1.87865   0.00000   0.00000  -0.00001  -0.00001   1.87864
   A21        1.88866   0.00000   0.00000  -0.00001  -0.00001   1.88864
   A22        1.88406   0.00000   0.00000  -0.00001  -0.00001   1.88405
   A23        2.15641   0.00000   0.00000  -0.00003  -0.00003   2.15638
   A24        2.26155   0.00000   0.00000  -0.00001  -0.00001   2.26154
   A25        2.16505  -0.00001   0.00000  -0.00006  -0.00006   2.16499
   A26        2.28794   0.00001   0.00000   0.00008   0.00008   2.28803
   A27        1.59924   0.00000   0.00000   0.00002   0.00002   1.59925
   A28        1.61367   0.00000   0.00000  -0.00002  -0.00002   1.61365
   A29        1.55792   0.00001   0.00000   0.00003   0.00003   1.55795
   A30        1.96757   0.00000   0.00000   0.00001   0.00001   1.96758
   A31        1.96577   0.00000   0.00000   0.00001   0.00001   1.96578
   A32        2.01375   0.00000   0.00000  -0.00002  -0.00002   2.01373
   A33        2.01596   0.00000   0.00000   0.00003   0.00003   2.01599
   A34        1.91973   0.00000   0.00000  -0.00004  -0.00004   1.91969
   A35        1.51227  -0.00001   0.00000  -0.00003  -0.00003   1.51225
   A36        2.38352  -0.00001   0.00000  -0.00003  -0.00003   2.38349
   A37        2.38739   0.00001   0.00000   0.00006   0.00006   2.38745
    D1        2.75002   0.00000   0.00000  -0.00011  -0.00011   2.74991
    D2        1.52240   0.00000   0.00000  -0.00013  -0.00013   1.52227
    D3       -0.94434   0.00000   0.00000  -0.00015  -0.00015  -0.94449
    D4       -1.43910   0.00000   0.00000  -0.00009  -0.00009  -1.43919
    D5       -2.66672   0.00000   0.00000  -0.00010  -0.00010  -2.66682
    D6        1.14973   0.00000   0.00000  -0.00012  -0.00012   1.14961
    D7        0.66336   0.00000   0.00000  -0.00011  -0.00011   0.66325
    D8       -0.56426   0.00000   0.00000  -0.00012  -0.00012  -0.56438
    D9       -3.03100   0.00000   0.00000  -0.00014  -0.00014  -3.03114
   D10        2.49734   0.00000   0.00000   0.00008   0.00008   2.49742
   D11       -0.08117   0.00000   0.00000   0.00003   0.00003  -0.08114
   D12       -0.09256   0.00000   0.00000   0.00008   0.00008  -0.09248
   D13       -2.67108   0.00000   0.00000   0.00004   0.00004  -2.67104
   D14       -0.03188   0.00000   0.00000   0.00012   0.00012  -0.03177
   D15       -2.23683   0.00000   0.00000   0.00015   0.00015  -2.23668
   D16        2.44630   0.00001   0.00000   0.00015   0.00015   2.44645
   D17        0.24135   0.00001   0.00000   0.00018   0.00018   0.24153
   D18        0.67963   0.00000   0.00000   0.00000   0.00000   0.67962
   D19        2.77019   0.00000   0.00000  -0.00001  -0.00001   2.77018
   D20       -1.41850   0.00000   0.00000   0.00000   0.00000  -1.41849
   D21       -0.57042   0.00000   0.00000   0.00002   0.00002  -0.57040
   D22        1.52014   0.00000   0.00000   0.00001   0.00001   1.52016
   D23       -2.66854   0.00000   0.00000   0.00002   0.00002  -2.66852
   D24       -3.03303   0.00000   0.00000   0.00002   0.00002  -3.03301
   D25       -0.94247   0.00000   0.00000   0.00002   0.00002  -0.94245
   D26        1.15203   0.00000   0.00000   0.00003   0.00003   1.15206
   D27       -2.37479   0.00000   0.00000  -0.00002  -0.00002  -2.37480
   D28       -0.11624   0.00000   0.00000   0.00004   0.00004  -0.11620
   D29        0.10910   0.00000   0.00000  -0.00001  -0.00001   0.10910
   D30        2.36765   0.00000   0.00000   0.00005   0.00005   2.36770
   D31       -2.46160   0.00000   0.00000   0.00001   0.00001  -2.46159
   D32        2.52945   0.00001   0.00000   0.00007   0.00007   2.52952
   D33        0.00977   0.00000   0.00000  -0.00001  -0.00001   0.00975
   D34        2.39601   0.00000   0.00000  -0.00002  -0.00002   2.39598
   D35       -0.74284   0.00000   0.00000  -0.00007  -0.00007  -0.74291
   D36       -2.45568   0.00000   0.00000   0.00001   0.00001  -2.45567
   D37        0.68866   0.00000   0.00000  -0.00004  -0.00004   0.68863
   D38       -0.00920   0.00000   0.00000   0.00001   0.00001  -0.00918
   D39        3.13514   0.00000   0.00000  -0.00003  -0.00003   3.13511
   D40       -0.00948   0.00000   0.00000   0.00001   0.00001  -0.00946
   D41        2.03859   0.00000   0.00000   0.00001   0.00001   2.03860
   D42       -2.05961   0.00000   0.00000  -0.00004  -0.00004  -2.05965
   D43        0.00911   0.00000   0.00000  -0.00001  -0.00001   0.00909
   D44       -3.13525   0.00000   0.00000   0.00003   0.00003  -3.13521
   D45       -1.99696   0.00000   0.00000  -0.00003  -0.00003  -1.99700
   D46        1.14187   0.00000   0.00000   0.00001   0.00001   1.14188
   D47        2.01360   0.00000   0.00000   0.00002   0.00002   2.01361
   D48       -1.13076   0.00000   0.00000   0.00006   0.00006  -1.13069
         Item               Value     Threshold  Converged?
 Maximum Force            0.000014     0.000450     YES
 RMS     Force            0.000004     0.000300     YES
 Maximum Displacement     0.000273     0.001800     YES
 RMS     Displacement     0.000059     0.001200     YES
 Predicted change in Energy=-6.052940D-09
 Optimization completed.
    -- Stationary point found.
                           ----------------------------
                           !   Optimized Parameters   !
                           ! (Angstroms and Degrees)  !
 --------------------------                            --------------------------
 ! Name  Definition              Value          Derivative Info.                !
 --------------------------------------------------------------------------------
 ! R1    R(1,2)                  1.5121         -DE/DX =    0.0                 !
 ! R2    R(1,10)                 1.0947         -DE/DX =    0.0                 !
 ! R3    R(1,11)                 1.095          -DE/DX =    0.0                 !
 ! R4    R(1,12)                 1.0931         -DE/DX =    0.0                 !
 ! R5    R(2,3)                  1.5107         -DE/DX =    0.0                 !
 ! R6    R(2,5)                  1.5121         -DE/DX =    0.0                 !
 ! R7    R(2,13)                 1.0885         -DE/DX =    0.0                 !
 ! R8    R(3,4)                  1.5133         -DE/DX =    0.0                 !
 ! R9    R(3,5)                  1.5076         -DE/DX =    0.0                 !
 ! R10   R(3,14)                 1.0885         -DE/DX =    0.0                 !
 ! R11   R(4,15)                 1.0937         -DE/DX =    0.0                 !
 ! R12   R(4,16)                 1.0948         -DE/DX =    0.0                 !
 ! R13   R(4,17)                 1.0955         -DE/DX =    0.0                 !
 ! R14   R(5,6)                  1.4345         -DE/DX =    0.0                 !
 ! R15   R(5,8)                  1.494          -DE/DX =    0.0                 !
 ! R16   R(6,7)                  1.4485         -DE/DX =    0.0                 !
 ! R17   R(7,8)                  1.5398         -DE/DX =    0.0                 !
 ! R18   R(7,18)                 1.096          -DE/DX =    0.0                 !
 ! R19   R(7,19)                 1.0958         -DE/DX =    0.0                 !
 ! R20   R(8,9)                  1.1965         -DE/DX =    0.0                 !
 ! A1    A(2,1,10)             111.0254         -DE/DX =    0.0                 !
 ! A2    A(2,1,11)             110.8061         -DE/DX =    0.0                 !
 ! A3    A(2,1,12)             110.9766         -DE/DX =    0.0                 !
 ! A4    A(10,1,11)            107.974          -DE/DX =    0.0                 !
 ! A5    A(10,1,12)            107.5472         -DE/DX =    0.0                 !
 ! A6    A(11,1,12)            108.3812         -DE/DX =    0.0                 !
 ! A7    A(1,2,3)              121.2154         -DE/DX =    0.0                 !
 ! A8    A(1,2,5)              118.9279         -DE/DX =    0.0                 !
 ! A9    A(1,2,13)             115.7252         -DE/DX =    0.0                 !
 ! A10   A(3,2,13)             115.5162         -DE/DX =    0.0                 !
 ! A11   A(5,2,13)             113.9343         -DE/DX =    0.0                 !
 ! A12   A(2,3,4)              121.8168         -DE/DX =    0.0                 !
 ! A13   A(2,3,14)             114.3755         -DE/DX =    0.0                 !
 ! A14   A(4,3,5)              120.4358         -DE/DX =    0.0                 !
 ! A15   A(4,3,14)             115.9074         -DE/DX =    0.0                 !
 ! A16   A(5,3,14)             112.4707         -DE/DX =    0.0                 !
 ! A17   A(3,4,15)             110.9889         -DE/DX =    0.0                 !
 ! A18   A(3,4,16)             111.1763         -DE/DX =    0.0                 !
 ! A19   A(3,4,17)             110.7411         -DE/DX =    0.0                 !
 ! A20   A(15,4,16)            107.6388         -DE/DX =    0.0                 !
 ! A21   A(15,4,17)            108.2122         -DE/DX =    0.0                 !
 ! A22   A(16,4,17)            107.9489         -DE/DX =    0.0                 !
 ! A23   A(2,5,6)              123.5533         -DE/DX =    0.0                 !
 ! A24   A(2,5,8)              129.5773         -DE/DX =    0.0                 !
 ! A25   A(3,5,6)              124.0483         -DE/DX =    0.0                 !
 ! A26   A(3,5,8)              131.0895         -DE/DX =    0.0                 !
 ! A27   A(6,5,8)               91.6295         -DE/DX =    0.0                 !
 ! A28   A(5,6,7)               92.4562         -DE/DX =    0.0                 !
 ! A29   A(6,7,8)               89.2624         -DE/DX =    0.0                 !
 ! A30   A(6,7,18)             112.7337         -DE/DX =    0.0                 !
 ! A31   A(6,7,19)             112.6303         -DE/DX =    0.0                 !
 ! A32   A(8,7,18)             115.3794         -DE/DX =    0.0                 !
 ! A33   A(8,7,19)             115.5059         -DE/DX =    0.0                 !
 ! A34   A(18,7,19)            109.9926         -DE/DX =    0.0                 !
 ! A35   A(5,8,7)               86.6468         -DE/DX =    0.0                 !
 ! A36   A(5,8,9)              136.5656         -DE/DX =    0.0                 !
 ! A37   A(7,8,9)              136.7873         -DE/DX =    0.0                 !
 ! D1    D(10,1,2,3)           157.5646         -DE/DX =    0.0                 !
 ! D2    D(10,1,2,5)            87.2271         -DE/DX =    0.0                 !
 ! D3    D(10,1,2,13)          -54.1067         -DE/DX =    0.0                 !
 ! D4    D(11,1,2,3)           -82.4543         -DE/DX =    0.0                 !
 ! D5    D(11,1,2,5)          -152.7917         -DE/DX =    0.0                 !
 ! D6    D(11,1,2,13)           65.8745         -DE/DX =    0.0                 !
 ! D7    D(12,1,2,3)            38.0077         -DE/DX =    0.0                 !
 ! D8    D(12,1,2,5)           -32.3298         -DE/DX =    0.0                 !
 ! D9    D(12,1,2,13)         -173.6636         -DE/DX =    0.0                 !
 ! D10   D(1,2,3,4)            143.0873         -DE/DX =    0.0                 !
 ! D11   D(1,2,3,14)            -4.651          -DE/DX =    0.0                 !
 ! D12   D(13,2,3,4)            -5.3032         -DE/DX =    0.0                 !
 ! D13   D(13,2,3,14)         -153.0415         -DE/DX =    0.0                 !
 ! D14   D(1,2,5,6)             -1.8267         -DE/DX =    0.0                 !
 ! D15   D(1,2,5,8)           -128.1609         -DE/DX =    0.0                 !
 ! D16   D(13,2,5,6)           140.1624         -DE/DX =    0.0                 !
 ! D17   D(13,2,5,8)            13.8283         -DE/DX =    0.0                 !
 ! D18   D(2,3,4,15)            38.9398         -DE/DX =    0.0                 !
 ! D19   D(2,3,4,16)           158.7201         -DE/DX =    0.0                 !
 ! D20   D(2,3,4,17)           -81.2738         -DE/DX =    0.0                 !
 ! D21   D(5,3,4,15)           -32.6824         -DE/DX =    0.0                 !
 ! D22   D(5,3,4,16)            87.0978         -DE/DX =    0.0                 !
 ! D23   D(5,3,4,17)          -152.8961         -DE/DX =    0.0                 !
 ! D24   D(14,3,4,15)         -173.7797         -DE/DX =    0.0                 !
 ! D25   D(14,3,4,16)          -53.9995         -DE/DX =    0.0                 !
 ! D26   D(14,3,4,17)           66.0066         -DE/DX =    0.0                 !
 ! D27   D(4,3,5,6)           -136.0653         -DE/DX =    0.0                 !
 ! D28   D(4,3,5,8)             -6.6601         -DE/DX =    0.0                 !
 ! D29   D(14,3,5,6)             6.2512         -DE/DX =    0.0                 !
 ! D30   D(14,3,5,8)           135.6564         -DE/DX =    0.0                 !
 ! D31   D(2,5,6,7)           -141.0393         -DE/DX =    0.0                 !
 ! D32   D(3,5,6,7)            144.9269         -DE/DX =    0.0                 !
 ! D33   D(8,5,6,7)              0.5597         -DE/DX =    0.0                 !
 ! D34   D(2,5,8,7)            137.2812         -DE/DX =    0.0                 !
 ! D35   D(2,5,8,9)            -42.5614         -DE/DX =    0.0                 !
 ! D36   D(3,5,8,7)           -140.7            -DE/DX =    0.0                 !
 ! D37   D(3,5,8,9)             39.4574         -DE/DX =    0.0                 !
 ! D38   D(6,5,8,7)             -0.527          -DE/DX =    0.0                 !
 ! D39   D(6,5,8,9)            179.6304         -DE/DX =    0.0                 !
 ! D40   D(5,6,7,8)             -0.5429         -DE/DX =    0.0                 !
 ! D41   D(5,6,7,18)           116.8027         -DE/DX =    0.0                 !
 ! D42   D(5,6,7,19)          -118.0071         -DE/DX =    0.0                 !
 ! D43   D(6,7,8,5)              0.5217         -DE/DX =    0.0                 !
 ! D44   D(6,7,8,9)           -179.6363         -DE/DX =    0.0                 !
 ! D45   D(18,7,8,5)          -114.4176         -DE/DX =    0.0                 !
 ! D46   D(18,7,8,9)            65.4244         -DE/DX =    0.0                 !
 ! D47   D(19,7,8,5)           115.3705         -DE/DX =    0.0                 !
 ! D48   D(19,7,8,9)           -64.7875         -DE/DX =    0.0                 !
 --------------------------------------------------------------------------------
 GradGradGradGradGradGradGradGradGradGradGradGradGradGradGradGradGradGrad

                          Input orientation:                          
 ---------------------------------------------------------------------
 Center     Atomic      Atomic             Coordinates (Angstroms)
 Number     Number       Type             X           Y           Z
 ---------------------------------------------------------------------
      1          6           0       -2.520092    2.784203    1.229169
      2          6           0       -1.193580    2.454283    0.582662
      3          6           0       -1.058209    2.351791   -0.918506
      4          6           0        0.181656    2.830217   -1.642246
      5          6           0       -1.015679    1.103813   -0.073831
      6          8           0       -2.029836    0.089394   -0.088074
      7          6           0       -1.061670   -0.969123    0.112769
      8          6           0        0.060240    0.085528    0.120030
      9          8           0        1.251377    0.090792    0.232641
     10          1           0       -2.547139    2.439939    2.267940
     11          1           0       -2.695860    3.865034    1.226701
     12          1           0       -3.344672    2.299664    0.699813
     13          1           0       -0.309809    2.808778    1.110036
     14          1           0       -1.995609    2.454458   -1.462147
     15          1           0        1.084369    2.590749   -1.073154
     16          1           0        0.273558    2.356412   -2.624934
     17          1           0        0.149107    3.914873   -1.792158
     18          1           0       -1.209285   -1.504428    1.057640
     19          1           0       -1.035427   -1.680237   -0.720573
 ---------------------------------------------------------------------
                    Distance matrix (angstroms):
                    1          2          3          4          5
     1  C    0.000000
     2  C    1.512101   0.000000
     3  C    2.633740   1.510740   0.000000
     4  C    3.942915   2.642502   1.513260   0.000000
     5  C    2.604760   1.512085   1.507559   2.621832   0.000000
     6  O    3.039321   2.596518   2.598484   3.849449   1.434490
     7  C    4.178612   3.458020   3.477357   4.365881   2.081826
     8  C    3.895015   2.719760   2.732295   3.263997   1.494018
     9  O    4.740412   3.418541   3.430954   3.487686   2.501935
    10  H    1.094667   2.161594   3.518256   4.784161   3.100725
    11  H    1.095032   2.159131   3.094142   4.193066   3.484068
    12  H    1.093127   2.159821   2.801712   4.266347   2.729981
    13  H    2.213627   1.088505   2.209960   2.795900   2.192419
    14  H    2.761702   2.196473   1.088488   2.216780   2.170697
    15  H    4.281385   2.819469   2.161402   1.093665   2.760403
    16  H    4.779287   3.528561   2.164606   1.094811   3.120778
    17  H    4.187057   3.094495   2.159653   1.095450   3.494485
    18  H    4.487760   3.987135   4.335713   5.292755   2.849673
    19  H    5.092832   4.337935   4.036948   4.761824   2.858251
                    6          7          8          9         10
     6  O    0.000000
     7  C    1.448496   0.000000
     8  C    2.100414   1.539813   0.000000
     9  O    3.296849   2.547151   1.196460   0.000000
    10  H    3.368006   4.298033   4.117669   4.908122   0.000000
    11  H    4.053107   5.223073   4.806815   5.551012   1.771212
    12  H    2.689768   4.030097   4.102679   5.120648   1.764868
    13  H    3.433512   3.978991   2.921154   3.254931   2.546061
    14  H    2.735466   3.882462   3.513066   4.359145   3.770670
    15  H    4.114053   4.322567   2.957814   2.825381   4.936953
    16  H    4.108606   4.509659   3.568927   3.775565   5.648320
    17  H    4.720803   5.380348   4.281150   4.465244   5.092108
    18  H    2.127495   1.095958   2.240261   3.046344   4.337362
    19  H    2.126146   1.095824   2.241657   3.045428   5.309645
                   11         12         13         14         15
    11  H    0.000000
    12  H    1.774528   0.000000
    13  H    2.611996   3.104492   0.000000
    14  H    3.116084   2.553038   3.095738   0.000000
    15  H    4.604701   4.779597   2.599537   3.107436   0.000000
    16  H    5.092001   4.914137   3.807224   2.551627   1.766451
    17  H    4.148473   4.585336   3.139551   2.615631   1.773411
    18  H    5.574012   4.377103   4.406308   4.758194   5.154766
    19  H    6.107286   4.815571   4.901929   4.309012   4.781126
                   16         17         18         19
    16  H    0.000000
    17  H    1.771385   0.000000
    18  H    5.537712   6.271794   0.000000
    19  H    4.651297   5.818648   1.795321   0.000000
 Stoichiometry    C7H10O2
 Framework group  C1[X(C7H10O2)]
 Deg. of freedom    51
 Full point group                 C1      NOp   1
 Largest Abelian subgroup         C1      NOp   1
 Largest concise Abelian subgroup C1      NOp   1
                         Standard orientation:                         
 ---------------------------------------------------------------------
 Center     Atomic      Atomic             Coordinates (Angstroms)
 Number     Number       Type             X           Y           Z
 ---------------------------------------------------------------------
      1          6           0       -2.037522   -1.526829    0.574373
      2          6           0       -1.242992   -0.240982    0.616451
      3          6           0       -1.112462    0.639036   -0.604559
      4          6           0       -1.100964    2.148794   -0.502307
      5          6           0        0.069671   -0.167534   -0.130490
      6          8           0        0.632241   -1.270219   -0.855310
      7          6           0        1.977511   -0.946083   -0.427147
      8          6           0        1.417751    0.257389    0.353461
      9          8           0        1.858428    1.133501    1.038842
     10          1           0       -1.717806   -2.212135    1.365848
     11          1           0       -3.105849   -1.328555    0.710245
     12          1           0       -1.900974   -2.040120   -0.381040
     13          1           0       -1.236829    0.279535    1.572415
     14          1           0       -1.562921    0.226812   -1.505649
     15          1           0       -0.536277    2.477746    0.374632
     16          1           0       -0.636971    2.601421   -1.384605
     17          1           0       -2.120882    2.539781   -0.419197
     18          1           0        2.428535   -1.734831    0.185698
     19          1           0        2.638664   -0.698662   -1.265294
 ---------------------------------------------------------------------
 Rotational constants (GHZ):      2.0967019      1.5389927      1.1224295
 1\1\GINC-ALCHEMY-N\FOpt\RB3LYP\6-31G(2df,p)\C7H10O2\PUCK\27-Jan-2020\0
 \\# b3lyp 6-31G(2df,p) opt Freq\\titel\\0,1\C,-2.5200915728,2.78420270
 28,1.2291686882\C,-1.1935804551,2.4542826051,0.5826616279\C,-1.0582089
 32,2.3517914781,-0.9185060074\C,0.1816556054,2.8302167014,-1.642246415
 5\C,-1.0156789223,1.10381293,-0.0738314841\O,-2.0298356258,0.089394136
 ,-0.0880735038\C,-1.0616704784,-0.9691229773,0.1127686752\C,0.06024021
 64,0.0855280026,0.1200303825\O,1.251376959,0.0907916646,0.2326406667\H
 ,-2.5471390194,2.4399391604,2.2679401516\H,-2.6958597551,3.8650335768,
 1.2267011853\H,-3.3446718221,2.2996640394,0.6998133556\H,-0.3098091997
 ,2.8087778937,1.1100363711\H,-1.9956092962,2.4544577846,-1.4621474458\
 H,1.0843693367,2.5907488644,-1.073154243\H,0.2735575418,2.3564115274,-
 2.6249335864\H,0.1491065611,3.9148727481,-1.7921578013\H,-1.2092851409
 ,-1.5044282202,1.057640343\H,-1.0354269606,-1.6802368779,-0.7205727897
 \\Version=ES64L-G09RevD.01\State=1-A\HF=-423.1733941\RMSD=4.013e-09\RM
 SF=1.113e-05\Dipole=-0.4847107,0.2844264,-0.0499054\Quadrupole=-5.5854
 648,3.5961357,1.9893291,0.8864277,-0.9025893,-0.0868037\PG=C01 [X(C7H1
 0O2)]\\@


 Boundary, n.  In political geography, an imaginary
 line between two nations, separating the imaginary
 rights of one from the imaginary rights of another.
                               -- Ambrose Bierce
 Job cpu time:       0 days  0 hours  6 minutes 21.2 seconds.
 File lengths (MBytes):  RWF=     52 Int=      0 D2E=      0 Chk=      7 Scr=      1
 Normal termination of Gaussian 09 at Mon Jan 27 22:03:39 2020.
 Link1:  Proceeding to internal job step number  2.
 ----------------------------------------------------------------------
 #N Geom=AllCheck Guess=TCheck SCRF=Check GenChk RB3LYP/6-31G(2df,p) Fr
 eq
 ----------------------------------------------------------------------
 1/10=4,29=7,30=1,38=1,40=1/1,3;
 2/12=2,40=1/2;
 3/5=1,6=6,7=104,11=2,14=-4,16=1,25=1,30=1,70=2,71=2,74=-5,116=1,140=1/1,2,3;
 4/5=101/1;
 5/5=2,98=1/2;
 8/6=4,10=90,11=11/1;
 11/6=1,8=1,9=11,15=111,16=1/1,2,10;
 10/6=1/2;
 6/7=2,8=2,9=2,10=2,18=1,28=1/1;
 7/8=1,10=1,25=1/1,2,3,16;
 1/10=4,30=1/3;
 99//99;
 Structure from the checkpoint file:  "/scratch/puck/g09_36dab433-8068-40b3-ad35-0368962be24e/Gau-72866.chk"
 -----
 titel
 -----
 Charge =  0 Multiplicity = 1
 Redundant internal coordinates found in file.
 C,0,-2.5200915728,2.7842027028,1.2291686882
 C,0,-1.1935804551,2.4542826051,0.5826616279
 C,0,-1.058208932,2.3517914781,-0.9185060074
 C,0,0.1816556054,2.8302167014,-1.6422464155
 C,0,-1.0156789223,1.10381293,-0.0738314841
 O,0,-2.0298356258,0.089394136,-0.0880735038
 C,0,-1.0616704784,-0.9691229773,0.1127686752
 C,0,0.0602402164,0.0855280026,0.1200303825
 O,0,1.251376959,0.0907916646,0.2326406667
 H,0,-2.5471390194,2.4399391604,2.2679401516
 H,0,-2.6958597551,3.8650335768,1.2267011853
 H,0,-3.3446718221,2.2996640394,0.6998133556
 H,0,-0.3098091997,2.8087778937,1.1100363711
 H,0,-1.9956092962,2.4544577846,-1.4621474458
 H,0,1.0843693367,2.5907488644,-1.073154243
 H,0,0.2735575418,2.3564115274,-2.6249335864
 H,0,0.1491065611,3.9148727481,-1.7921578013
 H,0,-1.2092851409,-1.5044282202,1.057640343
 H,0,-1.0354269606,-1.6802368779,-0.7205727897
 Recover connectivity data from disk.

 GradGradGradGradGradGradGradGradGradGradGradGradGradGradGradGradGradGrad
 Berny optimization.
 Initialization pass.
                           ----------------------------
                           !    Initial Parameters    !
                           ! (Angstroms and Degrees)  !
 --------------------------                            --------------------------
 ! Name  Definition              Value          Derivative Info.                !
 --------------------------------------------------------------------------------
 ! R1    R(1,2)                  1.5121         calculate D2E/DX2 analytically  !
 ! R2    R(1,10)                 1.0947         calculate D2E/DX2 analytically  !
 ! R3    R(1,11)                 1.095          calculate D2E/DX2 analytically  !
 ! R4    R(1,12)                 1.0931         calculate D2E/DX2 analytically  !
 ! R5    R(2,3)                  1.5107         calculate D2E/DX2 analytically  !
 ! R6    R(2,5)                  1.5121         calculate D2E/DX2 analytically  !
 ! R7    R(2,13)                 1.0885         calculate D2E/DX2 analytically  !
 ! R8    R(3,4)                  1.5133         calculate D2E/DX2 analytically  !
 ! R9    R(3,5)                  1.5076         calculate D2E/DX2 analytically  !
 ! R10   R(3,14)                 1.0885         calculate D2E/DX2 analytically  !
 ! R11   R(4,15)                 1.0937         calculate D2E/DX2 analytically  !
 ! R12   R(4,16)                 1.0948         calculate D2E/DX2 analytically  !
 ! R13   R(4,17)                 1.0955         calculate D2E/DX2 analytically  !
 ! R14   R(5,6)                  1.4345         calculate D2E/DX2 analytically  !
 ! R15   R(5,8)                  1.494          calculate D2E/DX2 analytically  !
 ! R16   R(6,7)                  1.4485         calculate D2E/DX2 analytically  !
 ! R17   R(7,8)                  1.5398         calculate D2E/DX2 analytically  !
 ! R18   R(7,18)                 1.096          calculate D2E/DX2 analytically  !
 ! R19   R(7,19)                 1.0958         calculate D2E/DX2 analytically  !
 ! R20   R(8,9)                  1.1965         calculate D2E/DX2 analytically  !
 ! A1    A(2,1,10)             111.0254         calculate D2E/DX2 analytically  !
 ! A2    A(2,1,11)             110.8061         calculate D2E/DX2 analytically  !
 ! A3    A(2,1,12)             110.9766         calculate D2E/DX2 analytically  !
 ! A4    A(10,1,11)            107.974          calculate D2E/DX2 analytically  !
 ! A5    A(10,1,12)            107.5472         calculate D2E/DX2 analytically  !
 ! A6    A(11,1,12)            108.3812         calculate D2E/DX2 analytically  !
 ! A7    A(1,2,3)              121.2154         calculate D2E/DX2 analytically  !
 ! A8    A(1,2,5)              118.9279         calculate D2E/DX2 analytically  !
 ! A9    A(1,2,13)             115.7252         calculate D2E/DX2 analytically  !
 ! A10   A(3,2,13)             115.5162         calculate D2E/DX2 analytically  !
 ! A11   A(5,2,13)             113.9343         calculate D2E/DX2 analytically  !
 ! A12   A(2,3,4)              121.8168         calculate D2E/DX2 analytically  !
 ! A13   A(2,3,14)             114.3755         calculate D2E/DX2 analytically  !
 ! A14   A(4,3,5)              120.4358         calculate D2E/DX2 analytically  !
 ! A15   A(4,3,14)             115.9074         calculate D2E/DX2 analytically  !
 ! A16   A(5,3,14)             112.4707         calculate D2E/DX2 analytically  !
 ! A17   A(3,4,15)             110.9889         calculate D2E/DX2 analytically  !
 ! A18   A(3,4,16)             111.1763         calculate D2E/DX2 analytically  !
 ! A19   A(3,4,17)             110.7411         calculate D2E/DX2 analytically  !
 ! A20   A(15,4,16)            107.6388         calculate D2E/DX2 analytically  !
 ! A21   A(15,4,17)            108.2122         calculate D2E/DX2 analytically  !
 ! A22   A(16,4,17)            107.9489         calculate D2E/DX2 analytically  !
 ! A23   A(2,5,6)              123.5533         calculate D2E/DX2 analytically  !
 ! A24   A(2,5,8)              129.5773         calculate D2E/DX2 analytically  !
 ! A25   A(3,5,6)              124.0483         calculate D2E/DX2 analytically  !
 ! A26   A(3,5,8)              131.0895         calculate D2E/DX2 analytically  !
 ! A27   A(6,5,8)               91.6295         calculate D2E/DX2 analytically  !
 ! A28   A(5,6,7)               92.4562         calculate D2E/DX2 analytically  !
 ! A29   A(6,7,8)               89.2624         calculate D2E/DX2 analytically  !
 ! A30   A(6,7,18)             112.7337         calculate D2E/DX2 analytically  !
 ! A31   A(6,7,19)             112.6303         calculate D2E/DX2 analytically  !
 ! A32   A(8,7,18)             115.3794         calculate D2E/DX2 analytically  !
 ! A33   A(8,7,19)             115.5059         calculate D2E/DX2 analytically  !
 ! A34   A(18,7,19)            109.9926         calculate D2E/DX2 analytically  !
 ! A35   A(5,8,7)               86.6468         calculate D2E/DX2 analytically  !
 ! A36   A(5,8,9)              136.5656         calculate D2E/DX2 analytically  !
 ! A37   A(7,8,9)              136.7873         calculate D2E/DX2 analytically  !
 ! D1    D(10,1,2,3)           157.5646         calculate D2E/DX2 analytically  !
 ! D2    D(10,1,2,5)            87.2271         calculate D2E/DX2 analytically  !
 ! D3    D(10,1,2,13)          -54.1067         calculate D2E/DX2 analytically  !
 ! D4    D(11,1,2,3)           -82.4543         calculate D2E/DX2 analytically  !
 ! D5    D(11,1,2,5)          -152.7917         calculate D2E/DX2 analytically  !
 ! D6    D(11,1,2,13)           65.8745         calculate D2E/DX2 analytically  !
 ! D7    D(12,1,2,3)            38.0077         calculate D2E/DX2 analytically  !
 ! D8    D(12,1,2,5)           -32.3298         calculate D2E/DX2 analytically  !
 ! D9    D(12,1,2,13)         -173.6636         calculate D2E/DX2 analytically  !
 ! D10   D(1,2,3,4)            143.0873         calculate D2E/DX2 analytically  !
 ! D11   D(1,2,3,14)            -4.651          calculate D2E/DX2 analytically  !
 ! D12   D(13,2,3,4)            -5.3032         calculate D2E/DX2 analytically  !
 ! D13   D(13,2,3,14)         -153.0415         calculate D2E/DX2 analytically  !
 ! D14   D(1,2,5,6)             -1.8267         calculate D2E/DX2 analytically  !
 ! D15   D(1,2,5,8)           -128.1609         calculate D2E/DX2 analytically  !
 ! D16   D(13,2,5,6)           140.1624         calculate D2E/DX2 analytically  !
 ! D17   D(13,2,5,8)            13.8283         calculate D2E/DX2 analytically  !
 ! D18   D(2,3,4,15)            38.9398         calculate D2E/DX2 analytically  !
 ! D19   D(2,3,4,16)           158.7201         calculate D2E/DX2 analytically  !
 ! D20   D(2,3,4,17)           -81.2738         calculate D2E/DX2 analytically  !
 ! D21   D(5,3,4,15)           -32.6824         calculate D2E/DX2 analytically  !
 ! D22   D(5,3,4,16)            87.0978         calculate D2E/DX2 analytically  !
 ! D23   D(5,3,4,17)          -152.8961         calculate D2E/DX2 analytically  !
 ! D24   D(14,3,4,15)         -173.7797         calculate D2E/DX2 analytically  !
 ! D25   D(14,3,4,16)          -53.9995         calculate D2E/DX2 analytically  !
 ! D26   D(14,3,4,17)           66.0066         calculate D2E/DX2 analytically  !
 ! D27   D(4,3,5,6)           -136.0653         calculate D2E/DX2 analytically  !
 ! D28   D(4,3,5,8)             -6.6601         calculate D2E/DX2 analytically  !
 ! D29   D(14,3,5,6)             6.2512         calculate D2E/DX2 analytically  !
 ! D30   D(14,3,5,8)           135.6564         calculate D2E/DX2 analytically  !
 ! D31   D(2,5,6,7)           -141.0393         calculate D2E/DX2 analytically  !
 ! D32   D(3,5,6,7)            144.9269         calculate D2E/DX2 analytically  !
 ! D33   D(8,5,6,7)              0.5597         calculate D2E/DX2 analytically  !
 ! D34   D(2,5,8,7)            137.2812         calculate D2E/DX2 analytically  !
 ! D35   D(2,5,8,9)            -42.5614         calculate D2E/DX2 analytically  !
 ! D36   D(3,5,8,7)           -140.7            calculate D2E/DX2 analytically  !
 ! D37   D(3,5,8,9)             39.4574         calculate D2E/DX2 analytically  !
 ! D38   D(6,5,8,7)             -0.527          calculate D2E/DX2 analytically  !
 ! D39   D(6,5,8,9)            179.6304         calculate D2E/DX2 analytically  !
 ! D40   D(5,6,7,8)             -0.5429         calculate D2E/DX2 analytically  !
 ! D41   D(5,6,7,18)           116.8027         calculate D2E/DX2 analytically  !
 ! D42   D(5,6,7,19)          -118.0071         calculate D2E/DX2 analytically  !
 ! D43   D(6,7,8,5)              0.5217         calculate D2E/DX2 analytically  !
 ! D44   D(6,7,8,9)           -179.6363         calculate D2E/DX2 analytically  !
 ! D45   D(18,7,8,5)          -114.4176         calculate D2E/DX2 analytically  !
 ! D46   D(18,7,8,9)            65.4244         calculate D2E/DX2 analytically  !
 ! D47   D(19,7,8,5)           115.3705         calculate D2E/DX2 analytically  !
 ! D48   D(19,7,8,9)           -64.7875         calculate D2E/DX2 analytically  !
 --------------------------------------------------------------------------------
 Trust Radius=3.00D-01 FncErr=1.00D-07 GrdErr=1.00D-07
 Number of steps in this run=      2 maximum allowed number of steps=      2.
 GradGradGradGradGradGradGradGradGradGradGradGradGradGradGradGradGradGrad

                          Input orientation:                          
 ---------------------------------------------------------------------
 Center     Atomic      Atomic             Coordinates (Angstroms)
 Number     Number       Type             X           Y           Z
 ---------------------------------------------------------------------
      1          6           0       -2.520092    2.784203    1.229169
      2          6           0       -1.193580    2.454283    0.582662
      3          6           0       -1.058209    2.351791   -0.918506
      4          6           0        0.181656    2.830217   -1.642246
      5          6           0       -1.015679    1.103813   -0.073831
      6          8           0       -2.029836    0.089394   -0.088074
      7          6           0       -1.061670   -0.969123    0.112769
      8          6           0        0.060240    0.085528    0.120030
      9          8           0        1.251377    0.090792    0.232641
     10          1           0       -2.547139    2.439939    2.267940
     11          1           0       -2.695860    3.865034    1.226701
     12          1           0       -3.344672    2.299664    0.699813
     13          1           0       -0.309809    2.808778    1.110036
     14          1           0       -1.995609    2.454458   -1.462147
     15          1           0        1.084369    2.590749   -1.073154
     16          1           0        0.273558    2.356412   -2.624934
     17          1           0        0.149107    3.914873   -1.792158
     18          1           0       -1.209285   -1.504428    1.057640
     19          1           0       -1.035427   -1.680237   -0.720573
 ---------------------------------------------------------------------
                    Distance matrix (angstroms):
                    1          2          3          4          5
     1  C    0.000000
     2  C    1.512101   0.000000
     3  C    2.633740   1.510740   0.000000
     4  C    3.942915   2.642502   1.513260   0.000000
     5  C    2.604760   1.512085   1.507559   2.621832   0.000000
     6  O    3.039321   2.596518   2.598484   3.849449   1.434490
     7  C    4.178612   3.458020   3.477357   4.365881   2.081826
     8  C    3.895015   2.719760   2.732295   3.263997   1.494018
     9  O    4.740412   3.418541   3.430954   3.487686   2.501935
    10  H    1.094667   2.161594   3.518256   4.784161   3.100725
[...]
 00424191,0.01662829,0.00287563,-0.00186023,-0.03506137,-0.08264645,0.0
 2018888,-0.02626675,0.54911138,-0.00155835,0.00343306,-0.00286836,0.02
 321026,0.00848341,-0.01524320,0.04758389,0.01964776,-0.10352141,0.0387
 5088,0.01135488,0.54605338,-0.00106647,0.03564300,-0.00170687,-0.07023
 879,-0.00261480,0.01725733,-0.06768273,-0.00420724,-0.02056979,0.00076
 755,-0.02440581,0.00219003,0.43808757,0.00682530,-0.01571882,-0.001937
 16,0.02330510,-0.13694527,-0.09534720,0.00816897,-0.12356472,0.1112858
 5,-0.00195842,-0.01147825,0.00588350,-0.02757598,0.60834811,0.00539678
 ,-0.01705476,-0.00524145,0.01579634,-0.03937389,-0.04534204,-0.0221214
 9,0.05224613,-0.07399848,0.00313698,0.01184712,-0.00816269,0.02140508,
 -0.03916240,0.21904055,-0.00161091,-0.00185536,0.00075551,0.00239202,0
 .00489818,-0.00979613,-0.00095716,0.00662876,0.00742510,0.00119777,-0.
 00199200,0.00013895,-0.13977601,-0.05093811,-0.00505611,0.38676423,-0.
 00211282,0.00299853,0.00034048,-0.01905241,-0.01587500,-0.00516947,-0.
 01633781,-0.01065013,0.00272069,0.00278325,-0.00470629,-0.00207439,-0.
 09497358,-0.11041838,-0.00416059,0.00357313,0.32160108,0.00031240,0.00
 334656,0.00066368,-0.01934383,-0.00534225,0.00372004,0.02026226,0.0066
 9018,0.00760820,-0.00126383,0.00450268,0.00070016,-0.00009522,0.001488
 43,-0.05447051,0.03260650,-0.02070978,0.08129437,-0.00073321,0.0005684
 5,0.00016022,-0.00242999,-0.00017121,-0.00082346,-0.00421382,0.0000317
 1,0.00027393,0.00068509,-0.00120447,-0.00051811,0.00364101,0.00280229,
 -0.00401730,-0.11528512,0.07967538,-0.01307323,0.33096365,-0.00023675,
 -0.00028146,-0.00002153,0.00338863,-0.00293356,0.00402630,0.00528833,-
 0.00388860,-0.00251989,-0.00057708,0.00160593,0.00005506,-0.00682255,-
 0.11067923,0.01384680,0.03565825,-0.11473173,0.00782893,0.02693512,0.5
 6393872,-0.00006606,0.00198022,-0.00013593,-0.00672266,-0.00325854,-0.
 00363473,0.00687314,0.00402630,-0.00148597,-0.00049822,0.00056677,-0.0
 0045276,-0.00301000,0.01361386,0.04139536,-0.00888165,0.01277469,-0.06
 758535,-0.02425130,0.00313775,0.55167534,-0.00144556,-0.00498867,0.000
 57917,0.00247571,0.01183214,-0.00333541,0.01037724,0.00965386,0.003486
 94,0.00422201,-0.00094831,0.00081314,-0.10471687,0.01377669,-0.0030690
 8,-0.13965280,0.00268452,-0.01505838,-0.07548292,-0.01035653,0.0018505
 0,1.10426223,0.00113681,0.00242629,0.00006714,0.00634502,-0.02177179,0
 .00749248,0.00218640,-0.02013376,-0.00448384,-0.00029591,0.00177648,0.
 00053096,0.10291010,-0.09861456,0.01425007,-0.00044516,-0.04267617,0.0
 0496949,-0.08243240,-0.09984726,-0.00713155,-0.00832139,0.39802827,-0.
 00138183,-0.00682530,0.00094683,0.02592281,-0.00406791,0.00084989,-0.0
 2583549,0.00940353,-0.00353484,0.00062007,-0.00279405,0.00161462,-0.01
 228748,0.00490072,-0.07858579,-0.01560136,0.00503046,0.01013409,0.0090
 6747,0.00048131,-0.08603912,0.08648072,-0.01904012,0.22077939,0.000989
 67,0.00308374,-0.00054565,-0.00124276,-0.00867677,0.00172425,-0.003615
 40,-0.00766694,-0.00161702,-0.00234561,0.00062812,-0.00040254,-0.04005
 184,0.03625198,-0.00810837,0.00142556,0.00028370,-0.00020433,-0.032359
 52,-0.02186048,-0.00268637,-0.80700926,-0.00577975,-0.07059169,0.88516
 670,-0.00028222,-0.00028637,0.00027442,0.00016145,0.00249348,-0.000184
 83,0.00049900,0.00162087,0.00051882,-0.00124499,-0.00042454,-0.0003609
 7,0.00888345,0.00981477,0.00040490,-0.00011478,0.01622847,-0.00140739,
 -0.00703482,0.01141286,0.00037078,-0.00252988,-0.10856231,0.00404815,0
 .00022477,0.06673709,0.00046791,0.00134240,-0.00010114,-0.00466698,-0.
 00046728,0.00005588,0.00444893,-0.00113043,0.00026665,0.00020814,0.000
 78521,-0.00003013,-0.00565574,0.00352566,0.01692443,0.00016822,-0.0013
 4300,0.00161116,-0.00408439,-0.00172261,0.01699074,-0.07159821,0.00445
 546,-0.06839433,0.08215417,-0.00437707,0.03300795,-0.04645513,-0.00078
 429,0.00096232,-0.00161863,-0.00846022,0.03161995,-0.00524043,-0.00025
 445,0.00031154,0.00042074,0.00129280,0.00140199,0.00119762,-0.00060863
 ,-0.00096431,0.00019511,0.00076766,0.00007657,0.00012770,-0.00004649,0
 .00013533,0.00026593,-0.00024783,0.00000727,-0.00020648,0.00005246,-0.
 00008546,0.05079815,-0.00089083,-0.07388937,0.08000135,-0.00028622,0.0
 0173665,-0.00870755,0.00207543,0.00072942,-0.00142643,0.00002380,-0.00
 051069,-0.00039444,-0.00117938,0.00152011,0.00022260,-0.00011984,-0.00
 029327,0.00039269,-0.00000079,-0.00005300,-0.00012878,0.00032437,0.000
 01767,0.00010015,-0.00017453,-0.00002219,-0.00002381,-0.00055850,0.075
 69311,0.00202997,0.07941424,-0.28206373,0.00105551,0.00261713,-0.01366
 207,0.00281421,0.00094961,0.00114685,-0.00015940,-0.00100303,-0.000545
 75,-0.00005981,0.00028669,0.00011530,-0.00027810,-0.00090106,0.0004873
 7,-0.00014932,-0.00008709,-0.00017776,-0.00032487,0.00045146,-0.000207
 69,0.00024024,-0.00013296,0.00010931,-0.00563830,-0.08705912,0.3073507
 9,-0.05086473,0.03771655,-0.00134042,-0.00679809,0.03136797,0.00277918
 ,0.00193272,-0.00107716,-0.00102579,0.00004632,-0.00005717,-0.00017440
 ,-0.00751566,0.00115275,0.00063370,0.00149895,-0.00007357,-0.00075949,
 0.00020524,0.00011586,-0.00065337,0.00162366,-0.00125200,0.00206329,-0
 .00102787,0.00026628,-0.00041709,-0.00075172,0.00002811,-0.00055508,0.
 05623028,0.03699811,-0.30254407,0.00274478,0.00227224,-0.00571707,-0.0
 0145393,-0.00039235,0.00066156,-0.00063472,-0.00008441,-0.00013274,-0.
 00013438,0.00095675,0.00124730,0.00126794,0.00018169,0.00005009,-0.000
 02618,-0.00010572,0.00022408,0.00011085,-0.00042192,0.00030958,-0.0003
 9597,0.00031028,-0.00005662,0.00005103,0.00064392,-0.00967863,-0.00022
 590,-0.04350930,0.32860761,-0.00156470,0.00309176,-0.04663040,0.003266
 74,-0.01536623,-0.00189652,-0.00129163,0.00016596,0.00151765,0.0000237
 4,0.00013182,0.00021706,0.00378300,-0.00177960,-0.00028649,-0.00018419
 ,0.00018635,0.00032540,0.00005616,-0.00000524,0.00029704,-0.00094024,0
 .00028296,-0.00120878,0.00063895,-0.00005332,0.00021724,-0.00438002,0.
 03115948,0.00051222,-0.00226791,-0.00195601,0.04728757,-0.19565455,-0.
 08817296,-0.09628391,-0.02444318,-0.01170670,-0.01375617,0.00064425,-0
 .00055441,-0.00174674,0.00015201,-0.00016460,0.00043226,-0.00128554,-0
 .00158588,-0.00140673,0.00161961,0.00017481,0.00037199,0.00006443,0.00
 039550,-0.00028887,-0.00028564,-0.00052959,-0.00007436,0.00038679,0.00
 024341,0.00006471,0.00070415,0.00078395,0.00036224,0.00445004,0.002364
 88,0.00331363,0.21640538,-0.09052676,-0.09983632,-0.05975227,0.0065629
 9,0.00315353,0.00483522,-0.00037467,0.00036546,-0.00004258,0.00018597,
 -0.00017965,0.00007531,0.00063222,0.00093643,0.00041997,-0.00006492,-0
 .00019148,-0.00053190,0.00019607,-0.00058480,0.00023024,0.00019113,0.0
 0012544,0.00029989,-0.00036151,-0.00010112,-0.00013316,0.00911549,0.00
 448980,0.00545421,-0.02401634,-0.01300683,-0.01627869,0.09698115,0.104
 56343,-0.09891532,-0.05906646,-0.11224166,0.01189227,0.00730152,0.0064
 9412,0.00058406,0.00058152,0.00148351,0.00008569,0.00006149,-0.0001166
 8,-0.00035284,-0.00016092,0.00086284,0.00044913,-0.00059611,-0.0007614
 0,0.00000370,0.00013219,-0.00003501,0.00001714,-0.00007170,0.00022366,
 0.00000291,0.00001259,-0.00006668,-0.02281743,-0.01466854,-0.01431700,
 0.00173343,0.00116223,-0.00018890,0.10485888,0.06600028,0.11974496,-0.
 01894151,-0.00957854,-0.01314038,-0.23219866,-0.07391592,-0.10858049,0
 .00113753,0.00111543,0.00207717,0.00081101,-0.00013831,0.00095042,0.00
 200666,0.00186989,0.00151835,0.00061678,0.00076060,0.00078119,-0.00009
 310,-0.00005066,0.00022090,0.00097450,0.00057388,-0.00057103,0.0002762
 6,-0.00072396,-0.00008485,0.00109032,-0.00027273,0.00024334,0.00064931
 ,0.00046518,-0.00024946,-0.00372141,0.00183385,0.00271567,0.24637512,0
 .00710518,0.00392168,0.00472866,-0.07367529,-0.06964001,-0.04710195,0.
 01282776,0.00203334,0.00315475,-0.00029896,0.00073001,-0.00171635,-0.0
 2178373,-0.01000180,-0.01232842,-0.00102712,-0.00528033,-0.00352307,-0
 .00117784,0.00164623,-0.00151466,-0.00398245,0.00189837,0.00247450,0.0
 0234740,0.00069904,0.00024600,-0.00044303,0.00015622,-0.00011173,-0.00
 061326,0.00017672,0.00055084,0.00172597,0.00006688,-0.00086828,0.07804
 148,0.07307004,0.01261821,0.00568547,0.00786309,-0.10752114,-0.0466000
 7,-0.10874838,-0.02326260,-0.00987187,-0.01529352,-0.00197773,0.001915
 25,0.00309570,0.00271423,-0.00251808,-0.00401094,0.00000286,0.00185409
 ,0.00096135,0.00020488,-0.00021748,-0.00019854,-0.00167119,0.00014443,
 0.00028286,0.00097318,0.00014033,-0.00007661,-0.00080434,0.00039269,0.
 00077876,-0.00063309,-0.00007771,0.00019346,0.00329496,-0.00090444,-0.
 00077191,0.11348733,0.05362829,0.11963007,0.00076429,0.00033701,0.0007
 4055,0.00384493,-0.00039560,0.00285329,-0.25423848,0.02220133,-0.12023
 656,-0.01875876,0.00371516,-0.01239479,-0.00357092,-0.00021343,-0.0013
 9407,0.00123441,-0.00020970,0.00028358,0.00007962,-0.00004204,0.000194
 06,-0.00053181,-0.00061090,0.00001316,0.00045527,0.00028394,-0.0000751
 8,0.00003026,0.00004600,0.00006334,0.00018639,0.00020856,-0.00012403,0
 .00055059,-0.00019512,-0.00011030,0.00034213,-0.00000781,0.00133125,0.
 27074256,-0.00004766,-0.00003306,0.00239721,-0.01526562,-0.00034076,-0
 .00771837,0.02182913,-0.04015552,0.01631359,-0.00873796,0.00236716,-0.
 00599264,0.03087378,-0.00861482,0.02058066,-0.00205231,0.00310359,-0.0
 0422823,0.00081780,-0.00115341,-0.00189680,-0.00521381,0.00305122,0.00
 462086,0.00269689,-0.00057918,-0.00062840,-0.00025402,0.00001651,0.000
 33023,-0.00007191,-0.00017831,-0.00007294,0.00016673,0.00004834,0.0002
 2038,0.00004108,0.00081541,-0.00372298,-0.02301213,0.04115049,-0.00173
 141,-0.00183366,0.00288114,-0.02229104,0.00428731,-0.01670267,-0.11794
 010,0.01823238,-0.11305034,0.01514688,-0.00253900,0.00935157,-0.003647
 63,-0.00013042,-0.00591900,0.00030125,0.00087872,0.00076816,0.00034314
 ,-0.00020082,-0.00002106,0.00092552,-0.00193353,-0.00047167,-0.0005630
 9,0.00024214,0.00021021,-0.00003580,0.00021601,0.00058512,0.00052341,-
 0.00037301,-0.00034731,0.00081577,0.00039766,-0.00019817,0.00062278,0.
 00282978,-0.00377308,0.12581607,-0.02098961,0.12684394,0.00008255,0.00
 023344,0.00037903,0.00050778,0.00040919,-0.00185322,-0.02445229,0.0047
 8417,-0.01341414,-0.22476341,0.04791469,-0.11364171,0.00038219,0.00036
 697,-0.00134126,0.00029858,-0.00023771,-0.00003429,-0.00007474,0.00009
 639,-0.00003715,-0.00148155,-0.00059178,0.00060691,0.00098108,0.000944
 71,-0.00039756,-0.00000858,0.00002656,0.00008694,-0.00000550,-0.000011
 49,-0.00001931,0.00026940,0.00002666,-0.00009440,0.00049784,-0.0000186
 1,0.00097840,-0.00284571,-0.00186178,0.00330180,0.24789302,-0.00011498
 ,-0.00021484,0.00001688,0.00055176,0.00055695,-0.00025521,-0.01053462,
 0.00140414,-0.00648518,0.05055134,-0.06015786,0.03242590,-0.00042376,0
 .00025612,-0.00078029,0.00035254,-0.00027375,0.00008244,0.00001811,0.0
 0018627,0.00006709,-0.00288214,-0.00043269,0.00010936,0.00185113,0.000
 34768,-0.00032484,0.00000240,0.00003249,0.00002635,0.00006788,-0.00000
 914,-0.00001430,0.00001034,0.00004518,-0.00000388,0.00025100,-0.000067
 97,-0.00021783,-0.00213435,-0.00014534,0.00151368,-0.05126582,0.061703
 18,0.00013170,-0.00002880,-0.00009843,0.00052717,-0.00026773,0.0016756
 2,0.01512767,-0.00406740,0.00833641,-0.11646106,0.03152738,-0.12253875
 ,-0.00016480,-0.00020720,0.00084605,-0.00010287,-0.00007471,-0.0000731
 2,-0.00009997,0.00004335,0.00027690,0.00012737,0.00024253,-0.00006108,
 -0.00013406,0.00018246,-0.00062621,-0.00004847,-0.00001011,-0.00002919
 ,-0.00001561,0.00001754,-0.00000045,-0.00009938,-0.00003547,-0.0000908
 3,-0.00000978,-0.00020269,-0.00014828,0.00297291,0.00115711,-0.0012468
 0,0.12362310,-0.03588523,0.13084815,0.00058272,-0.00089852,0.00137668,
 -0.00450791,-0.00054223,-0.00001971,-0.00310286,0.01216267,0.02807242,
 -0.04756278,0.00784480,0.01521446,0.00164797,-0.00032682,-0.00072580,-
 0.00008969,-0.00005684,-0.00018694,0.00001987,-0.00007587,0.00002933,-
 0.00058617,0.00002218,-0.00004742,0.00046645,0.00008821,0.00016872,-0.
 00056591,0.00015221,0.00029985,0.00001983,0.00005240,-0.00007020,-0.00
 001466,-0.00001376,-0.00003977,-0.00005386,0.00017091,0.00002822,0.000
 85278,0.00041717,-0.00077434,0.00275947,-0.01288405,-0.02359573,0.0511
 5710,0.00015837,-0.00054180,0.00069461,-0.00266687,0.00067417,0.001564
 65,-0.00058602,0.00459978,0.01208778,0.00835986,-0.09821750,-0.1039810
 7,0.00112330,0.00113849,-0.00083525,-0.00001601,0.00023461,-0.00021611
 ,0.00002967,-0.00001675,0.00012901,0.00003129,-0.00015355,0.00003625,0
 .00006974,-0.00004131,-0.00002651,-0.00024306,0.00008016,0.00013360,0.
 00001230,0.00001056,-0.00001062,-0.00001808,0.00002441,-0.00001079,-0.
 00002844,-0.00002696,-0.00016132,0.00042582,0.00019778,-0.00049075,-0.
 00094055,0.00284602,0.00760034,-0.00728318,0.10272264,-0.00035149,0.00
 097171,-0.00077433,0.00312521,-0.00032332,0.00127648,0.00152829,-0.005
 48613,-0.01489657,0.01605424,-0.10318200,-0.25639487,-0.00139854,0.000
 32234,0.00009731,0.00013032,0.00049040,0.00012339,0.00019931,-0.000056
 46,-0.00015012,0.00090712,-0.00024338,-0.00019566,-0.00056362,0.000177
 94,0.00019804,0.00036052,-0.00010231,-0.00017381,-0.00007024,-0.000028
 98,0.00005917,0.00009647,-0.00001325,-0.00002147,0.00008586,-0.0002128
 0,0.00062736,0.00018604,0.00022146,0.00073002,0.00164719,-0.00769111,-
 0.01462602,-0.02115359,0.11292101,0.27942919,0.00003407,0.00006890,-0.
 00021675,0.00179664,0.00125925,-0.00081122,-0.00009552,-0.03005647,0.0
 0648935,-0.04653174,0.01222199,-0.00218621,-0.00314084,-0.00142588,0.0
 0001084,-0.00070503,-0.00192576,0.00123950,-0.00048221,0.00049516,0.00
 010009,-0.00229357,0.00074907,-0.00039110,0.00150300,0.00048320,-0.000
 25432,0.00003145,-0.00001055,-0.00006757,-0.00005481,0.00004848,0.0000
 8562,-0.00000757,-0.00005982,-0.00000884,0.00021339,0.00034441,0.00046
 933,0.00070130,0.00048902,-0.00076219,-0.00011780,0.02647747,-0.001770
 97,-0.00097534,0.00161037,-0.00081158,0.04998119,0.00013332,-0.0000694
 1,0.00013338,0.00046872,0.00091261,0.00094528,-0.00119870,-0.00993026,
 0.00299197,0.01241105,-0.30199337,0.03304131,-0.00108494,0.00170855,-0
 .00169648,-0.00048699,-0.00075416,0.00052100,-0.00027040,0.00027792,-0
 .00003251,-0.00020929,0.00062658,-0.00041869,0.00016411,-0.00013678,0.
 00018061,-0.00005837,0.00000770,0.00002139,-0.00007790,0.00006677,0.00
 004524,0.00000829,-0.00002433,-0.00001706,-0.00021996,-0.00004221,0.00
 047226,-0.00035514,0.00014975,-0.00007449,0.00014587,-0.00609340,0.000
 02322,0.00123458,-0.01352466,0.00210120,-0.01064631,0.32888536,0.00002
 817,-0.00006972,0.00021584,-0.00138612,-0.00052764,0.00116722,0.000331
 64,0.01721988,-0.00452141,-0.00244183,0.03265782,-0.05124333,0.0025003
 7,0.00127568,0.00063434,0.00035373,0.00089870,-0.00107031,0.00029688,-
 0.00023268,-0.00000833,0.00033129,-0.00061543,0.00047388,-0.00029471,0
 .00028374,-0.00018701,-0.00006383,0.00000439,0.00004668,0.00010095,-0.
 00002981,-0.00005495,-0.00001606,0.00000674,-0.00000203,-0.00007693,-0
 .00013141,-0.00042035,-0.00008637,-0.00059299,0.00034453,0.00019007,0.
 01742093,-0.00243081,0.00144291,-0.02940812,0.00466087,-0.00116506,-0.
 03827270,0.05241772,-0.00000971,-0.00064069,0.00016073,0.00117635,0.00
 055959,0.00009608,0.00069409,0.00063076,-0.00005799,0.00000559,0.00030
 216,0.00020795,-0.00364053,-0.00534962,-0.00606715,0.00235695,0.020304
 97,-0.02074513,-0.05640949,-0.02498553,0.04533056,0.00223394,-0.004168
 81,0.02529966,-0.00152713,-0.00055771,-0.00387542,-0.00001092,0.000038
 20,0.00003208,0.00012457,-0.00001334,-0.00010768,0.00002204,-0.0000154
 0,-0.00003601,-0.00006151,0.00016742,-0.00008222,0.00018693,-0.0002555
 3,0.00002382,0.00005557,0.00004277,-0.00003352,-0.00003884,-0.00002605
 ,0.00001190,0.00009637,0.00004345,-0.00005762,0.05117393,-0.00005225,-
 0.00006279,0.00018863,0.00009792,-0.00040221,0.00082793,-0.00067095,-0
 .00224104,-0.00008498,0.00014486,-0.00005061,-0.00011135,0.00229129,0.
 00035014,-0.00221058,0.00220406,-0.01765513,0.01793775,-0.01934722,-0.
 09939635,0.10631240,-0.00062265,-0.00688444,0.01355541,-0.00155185,0.0
 0028507,-0.00138596,0.00005395,-0.00003413,-0.00011694,0.00007423,-0.0
 0000432,-0.00007922,-0.00002383,0.00004162,0.00001715,-0.00003759,-0.0
 0003909,0.00003790,-0.00007946,0.00036789,0.00000806,-0.00001160,-0.00
 000985,-0.00002117,-0.00001722,-0.00000245,0.00004707,-0.00006330,-0.0
 0004917,0.00004381,0.01468138,0.11524150,-0.00001971,-0.00011059,0.000
 02851,0.00027742,0.00009707,0.00009019,0.00003544,0.00017225,-0.000018
 26,-0.00004063,0.00006274,0.00004281,-0.00041728,-0.00231451,-0.002223
 59,-0.00411952,0.00556576,0.00417743,0.03639166,0.10274834,-0.24426634
 ,-0.00052410,-0.00084304,0.00289344,0.00026226,0.00011383,-0.00029737,
 -0.00001489,0.00001233,0.00000654,0.00003850,0.00000697,-0.00001621,0.
 00004751,-0.00003568,0.00000161,0.00000739,0.00006706,0.00001591,-0.00
 000050,-0.00003776,0.00001458,0.00001401,-0.00000609,-0.00000307,-0.00
 001262,-0.00001664,0.00002309,0.00004079,0.00004412,-0.00001554,-0.038
 32190,-0.11724737,0.25990305,0.00005670,-0.00008227,-0.00004291,0.0006
 1201,0.00071568,0.00009550,0.00151717,0.00038785,0.00021849,-0.0001690
 3,0.00014355,-0.00001811,-0.00504436,-0.00453717,0.00637359,-0.0015232
 3,0.02397218,0.01483067,-0.04822250,-0.00731926,-0.00763827,0.00705092
 ,-0.00924794,-0.02329960,-0.00226492,0.00035748,0.00351440,-0.00000361
 ,-0.00000526,0.00000472,0.00005108,0.00003604,0.00003152,0.00014385,-0
 .00009722,0.00003201,0.00007922,0.00029757,-0.00015053,-0.00002578,-0.
 00055889,-0.00007482,0.00002211,0.00006297,0.00002632,-0.00000818,-0.0
 0001247,0.00001658,0.00004701,-0.00000139,0.00001252,0.00357179,0.0029
 3020,0.00635617,0.04410974,-0.00009892,0.00031149,0.00007214,-0.000509
 67,-0.00222098,0.00009867,0.00035799,-0.00033720,-0.00071794,0.0000488
 5,-0.00008491,-0.00016556,0.00175787,0.00071584,0.00251649,0.00561599,
 -0.02071052,-0.01177524,0.00067026,-0.14572585,-0.12935714,0.00198304,
 -0.00918339,-0.01151856,-0.00184001,0.00057108,0.00097670,0.00003020,0
 .00000145,-0.00004707,-0.00005331,-0.00002654,0.00000177,-0.00009898,0
 .00006402,-0.00002560,0.00001373,-0.00011558,0.00002107,0.00003786,-0.
 00006775,-0.00004047,-0.00000932,0.00002682,0.00000655,-0.00004664,-0.
 00000362,0.00008659,-0.00005924,-0.00001751,0.00006881,-0.00075804,0.0
 1054535,0.01172120,-0.00704166,0.16625780,0.00001262,-0.00006548,0.000
 00743,0.00017615,0.00028483,-0.00000886,-0.00005344,0.00009866,0.00013
 336,-0.00002171,0.00001818,0.00004264,-0.00048404,0.00097477,-0.001675
 22,0.00168836,0.00428877,0.01138587,0.00001971,-0.12723623,-0.20644436
 ,0.00100257,0.00147560,0.00050030,-0.00028450,-0.00025357,0.00018788,-
 0.00002263,0.00001939,0.00003804,0.00004002,-0.00002476,0.00000320,0.0
 0001380,0.00000791,0.00000103,0.00000251,0.00003146,-0.00000695,-0.000
 03243,0.00003924,0.00000082,0.00000557,0.00000133,-0.00001008,-0.00000
 647,-0.00001010,0.00000792,0.00001029,-0.00000906,-0.00000703,-0.00177
 814,-0.01771855,-0.02035677,-0.00028826,0.13807759,0.21620078\\-0.0000
 1887,0.00000448,0.00000675,0.00002894,-0.00001525,-0.00001837,0.000004
 99,-0.00001652,0.00001833,0.00000537,0.00000685,-0.00001268,-0.0000362
 8,0.00002445,0.00000342,0.00000343,0.00000861,0.00000418,0.00001087,-0
 .00002847,0.00000920,-0.00000960,0.00001867,-0.00001585,0.00000901,-0.
 00001087,-0.00000218,0.00000984,0.00000212,0.00000163,0.00000581,0.000
 00012,0.00000334,0.00000650,0.00000004,0.00000582,-0.00000399,-0.00000
 157,0.00000589,0.,0.00000077,0.00000005,-0.00000377,-0.00000065,-0.000
 00438,-0.00000745,-0.00000028,-0.00000027,-0.00000545,-0.00000133,-0.0
 0000147,0.00000060,0.00000383,-0.00000100,0.00000006,0.00000500,-0.000
 00240\\\@


 GARLIC THEN HAVE POWER TO SAVE FROM DEATH
 BEAR WITH IT THOUGH IT MAKETH UNSAVORY BREATH,
 AND SCORN NOT GARLIC LIKE SOME THAT THINK
 IT ONLY MAKETH MEN WINK AND DRINK AND STINK.
   --  SIR JOHN HARRINGTON,
       "THE ENGLISHMAN'S DOCTOR", 1609
 Job cpu time:       0 days  0 hours 42 minutes 45.5 seconds.
 File lengths (MBytes):  RWF=    152 Int=      0 D2E=      0 Chk=      8 Scr=      1
 Normal termination of Gaussian 09 at Mon Jan 27 22:46:23 2020.
