 Entering Gaussian System, Link 0=/home/puck/opt/gaussian_09/g09
 Input=dsC7O2H10nsd_1743.com
 Output=dsC7O2H10nsd_1743.log
 Initial command:
 /home/puck/opt/gaussian_09/l1.exe "/scratch/puck/g09_3d5d0c63-edf2-45ce-adae-9ee688f84b09/Gau-48790.inp" -scrdir="/scratch/puck/g09_3d5d0c63-edf2-45ce-adae-9ee688f84b09/"
 Entering Link 1 = /home/puck/opt/gaussian_09/l1.exe PID=     48794.
  
 Copyright (c) 1988,1990,1992,1993,1995,1998,2003,2009,2013,
            Gaussian, Inc.  All Rights Reserved.
  
 This is part of the Gaussian(R) 09 program.  It is based on
 the Gaussian(R) 03 system (copyright 2003, Gaussian, Inc.),
 the Gaussian(R) 98 system (copyright 1998, Gaussian, Inc.),
 the Gaussian(R) 94 system (copyright 1995, Gaussian, Inc.),
 the Gaussian 92(TM) system (copyright 1992, Gaussian, Inc.),
 the Gaussian 90(TM) system (copyright 1990, Gaussian, Inc.),
 the Gaussian 88(TM) system (copyright 1988, Gaussian, Inc.),
 the Gaussian 86(TM) system (copyright 1986, Carnegie Mellon
 University), and the Gaussian 82(TM) system (copyright 1983,
 Carnegie Mellon University). Gaussian is a federally registered
 trademark of Gaussian, Inc.
  
 This software contains proprietary and confidential information,
 including trade secrets, belonging to Gaussian, Inc.
  
 This software is provided under written license and may be
 used, copied, transmitted, or stored only in accord with that
 written license.
  
 The following legend is applicable only to US Government
 contracts under FAR:
  
                    RESTRICTED RIGHTS LEGEND
  
 Use, reproduction and disclosure by the US Government is
 subject to restrictions as set forth in subparagraphs (a)
 and (c) of the Commercial Computer Software - Restricted
 Rights clause in FAR 52.227-19.
  
 Gaussian, Inc.
 340 Quinnipiac St., Bldg. 40, Wallingford CT 06492
  
  
 ---------------------------------------------------------------
 Warning -- This program may not be used in any manner that
 competes with the business of Gaussian, Inc. or will provide
 assistance to any competitor of Gaussian, Inc.  The licensee
 of this program is prohibited from giving any competitor of
 Gaussian, Inc. access to this program.  By using this program,
 the user acknowledges that Gaussian, Inc. is engaged in the
 business of creating and licensing software in the field of
 computational chemistry and represents and warrants to the
 licensee that it is not a competitor of Gaussian, Inc. and that
 it will not use this program in any manner prohibited above.
 ---------------------------------------------------------------
  

 Cite this work as:
 Gaussian 09, Revision D.01,
 M. J. Frisch, G. W. Trucks, H. B. Schlegel, G. E. Scuseria, 
 M. A. Robb, J. R. Cheeseman, G. Scalmani, V. Barone, B. Mennucci, 
 G. A. Petersson, H. Nakatsuji, M. Caricato, X. Li, H. P. Hratchian, 
 A. F. Izmaylov, J. Bloino, G. Zheng, J. L. Sonnenberg, M. Hada, 
 M. Ehara, K. Toyota, R. Fukuda, J. Hasegawa, M. Ishida, T. Nakajima, 
 Y. Honda, O. Kitao, H. Nakai, T. Vreven, J. A. Montgomery, Jr., 
 J. E. Peralta, F. Ogliaro, M. Bearpark, J. J. Heyd, E. Brothers, 
 K. N. Kudin, V. N. Staroverov, T. Keith, R. Kobayashi, J. Normand, 
 K. Raghavachari, A. Rendell, J. C. Burant, S. S. Iyengar, J. Tomasi, 
 M. Cossi, N. Rega, J. M. Millam, M. Klene, J. E. Knox, J. B. Cross, 
 V. Bakken, C. Adamo, J. Jaramillo, R. Gomperts, R. E. Stratmann, 
 O. Yazyev, A. J. Austin, R. Cammi, C. Pomelli, J. W. Ochterski, 
 R. L. Martin, K. Morokuma, V. G. Zakrzewski, G. A. Voth, 
 P. Salvador, J. J. Dannenberg, S. Dapprich, A. D. Daniels, 
 O. Farkas, J. B. Foresman, J. V. Ortiz, J. Cioslowski, 
 and D. J. Fox, Gaussian, Inc., Wallingford CT, 2013.
 
 ******************************************
 Gaussian 09:  ES64L-G09RevD.01 24-Apr-2013
                27-Jan-2020 
 ******************************************
 -----------------------------
 # b3lyp 6-31G(2df,p) opt Freq
 -----------------------------
 1/14=-1,18=20,19=15,26=3,38=1/1,3;
 2/9=110,12=2,17=6,18=5,40=1/2;
 3/5=1,6=6,7=104,11=2,16=1,25=1,30=1,71=1,74=-5/1,2,3;
 4//1;
 5/5=2,38=5/2;
 6/7=2,8=2,9=2,10=2,28=1/1;
 7//1,2,3,16;
 1/14=-1,18=20,19=15,26=3/3(2);
 2/9=110/2;
 99//99;
 2/9=110/2;
 3/5=1,6=6,7=104,11=2,16=1,25=1,30=1,71=1,74=-5/1,2,3;
 4/5=5,16=3,69=1/1;
 5/5=2,38=5/2;
 7//1,2,3,16;
 1/14=-1,18=20,19=15,26=3/3(-5);
 2/9=110/2;
 6/7=2,8=2,9=2,10=2,19=2,28=1/1;
 99/9=1/99;
 -----
 titel
 -----
 Symbolic Z-matrix:
 Charge =  0 Multiplicity = 1
 C                     4.57288   0.96218  -1.20422 
 C                     3.09942   0.73793  -1.25995 
 C                     1.972     1.24078  -2.08997 
 O                     1.44486  -0.04675  -2.43008 
 C                     2.1707   -0.54073  -1.27217 
 C                     1.39952   0.05599  -0.04759 
 C                    -0.09228  -0.20271   0.06049 
 O                     2.087    -0.23787   1.16204 
 C                     1.91056   1.39883  -0.55851 
 H                     4.98866   0.58839  -0.26259 
 H                     5.08901   0.4608   -2.03062 
 H                     4.80169   2.03155  -1.26689 
 H                     1.88001   2.05358  -2.79908 
 H                     2.44985  -1.59271  -1.33186 
 H                    -0.54128   0.45023   0.81542 
 H                    -0.57617  -0.02688  -0.90231 
 H                    -0.28778  -1.24275   0.35357 
 H                     1.83256  -1.12808   1.42932 
 H                     1.87014   2.36047  -0.06143 
 

 GradGradGradGradGradGradGradGradGradGradGradGradGradGradGradGradGradGrad
 Berny optimization.
 Initialization pass.
                           ----------------------------
                           !    Initial Parameters    !
                           ! (Angstroms and Degrees)  !
 --------------------------                            --------------------------
 ! Name  Definition              Value          Derivative Info.                !
 --------------------------------------------------------------------------------
 ! R1    R(1,2)                  1.4915         estimate D2E/DX2                !
 ! R2    R(1,10)                 1.0951         estimate D2E/DX2                !
 ! R3    R(1,11)                 1.0958         estimate D2E/DX2                !
 ! R4    R(1,12)                 1.0954         estimate D2E/DX2                !
 ! R5    R(2,3)                  1.4876         estimate D2E/DX2                !
 ! R6    R(2,5)                  1.5804         estimate D2E/DX2                !
 ! R7    R(2,9)                  1.5304         estimate D2E/DX2                !
 ! R8    R(3,4)                  1.4322         estimate D2E/DX2                !
 ! R9    R(3,9)                  1.5408         estimate D2E/DX2                !
 ! R10   R(3,13)                 1.0826         estimate D2E/DX2                !
 ! R11   R(4,5)                  1.4531         estimate D2E/DX2                !
 ! R12   R(5,6)                  1.5654         estimate D2E/DX2                !
 ! R13   R(5,14)                 1.09           estimate D2E/DX2                !
 ! R14   R(6,7)                  1.5179         estimate D2E/DX2                !
 ! R15   R(6,8)                  1.422          estimate D2E/DX2                !
 ! R16   R(6,9)                  1.5249         estimate D2E/DX2                !
 ! R17   R(7,15)                 1.0945         estimate D2E/DX2                !
 ! R18   R(7,16)                 1.0918         estimate D2E/DX2                !
 ! R19   R(7,17)                 1.0981         estimate D2E/DX2                !
 ! R20   R(8,18)                 0.9637         estimate D2E/DX2                !
 ! R21   R(9,19)                 1.0833         estimate D2E/DX2                !
 ! A1    A(2,1,10)             110.8486         estimate D2E/DX2                !
 ! A2    A(2,1,11)             111.6144         estimate D2E/DX2                !
 ! A3    A(2,1,12)             110.5492         estimate D2E/DX2                !
 ! A4    A(10,1,11)            108.2681         estimate D2E/DX2                !
 ! A5    A(10,1,12)            107.6444         estimate D2E/DX2                !
 ! A6    A(11,1,12)            107.768          estimate D2E/DX2                !
 ! A7    A(1,2,3)              135.9524         estimate D2E/DX2                !
 ! A8    A(1,2,5)              134.6274         estimate D2E/DX2                !
 ! A9    A(1,2,9)              133.2656         estimate D2E/DX2                !
 ! A10   A(3,2,5)               79.8519         estimate D2E/DX2                !
 ! A11   A(5,2,9)               84.056          estimate D2E/DX2                !
 ! A12   A(2,3,4)               96.1747         estimate D2E/DX2                !
 ! A13   A(2,3,13)             133.1328         estimate D2E/DX2                !
 ! A14   A(4,3,9)              108.2739         estimate D2E/DX2                !
 ! A15   A(4,3,13)             119.2178         estimate D2E/DX2                !
 ! A16   A(9,3,13)             124.7954         estimate D2E/DX2                !
 ! A17   A(3,4,5)               86.1313         estimate D2E/DX2                !
 ! A18   A(2,5,4)               91.4128         estimate D2E/DX2                !
 ! A19   A(2,5,6)               88.5695         estimate D2E/DX2                !
 ! A20   A(2,5,14)             129.1067         estimate D2E/DX2                !
 ! A21   A(4,5,6)              104.3412         estimate D2E/DX2                !
 ! A22   A(4,5,14)             114.3533         estimate D2E/DX2                !
 ! A23   A(6,5,14)             122.4728         estimate D2E/DX2                !
 ! A24   A(5,6,7)              118.3534         estimate D2E/DX2                !
 ! A25   A(5,6,8)              110.3957         estimate D2E/DX2                !
 ! A26   A(5,6,9)               84.7489         estimate D2E/DX2                !
 ! A27   A(7,6,8)              112.2923         estimate D2E/DX2                !
 ! A28   A(7,6,9)              120.2185         estimate D2E/DX2                !
 ! A29   A(8,6,9)              107.7557         estimate D2E/DX2                !
 ! A30   A(6,7,15)             110.5259         estimate D2E/DX2                !
 ! A31   A(6,7,16)             110.202          estimate D2E/DX2                !
 ! A32   A(6,7,17)             110.8184         estimate D2E/DX2                !
 ! A33   A(15,7,16)            109.2908         estimate D2E/DX2                !
 ! A34   A(15,7,17)            107.9333         estimate D2E/DX2                !
 ! A35   A(16,7,17)            107.9979         estimate D2E/DX2                !
 ! A36   A(6,8,18)             107.4082         estimate D2E/DX2                !
 ! A37   A(2,9,6)               91.9264         estimate D2E/DX2                !
 ! A38   A(2,9,19)             128.5107         estimate D2E/DX2                !
 ! A39   A(3,9,6)              104.8356         estimate D2E/DX2                !
 ! A40   A(3,9,19)             123.2732         estimate D2E/DX2                !
 ! A41   A(6,9,19)             127.9857         estimate D2E/DX2                !
 ! D1    D(10,1,2,3)           164.8322         estimate D2E/DX2                !
 ! D2    D(10,1,2,5)           -63.534          estimate D2E/DX2                !
 ! D3    D(10,1,2,9)            73.2881         estimate D2E/DX2                !
 ! D4    D(11,1,2,3)           -74.3914         estimate D2E/DX2                !
 ! D5    D(11,1,2,5)            57.2424         estimate D2E/DX2                !
 ! D6    D(11,1,2,9)          -165.9355         estimate D2E/DX2                !
 ! D7    D(12,1,2,3)            45.5476         estimate D2E/DX2                !
 ! D8    D(12,1,2,5)           177.1814         estimate D2E/DX2                !
 ! D9    D(12,1,2,9)           -45.9965         estimate D2E/DX2                !
 ! D10   D(1,2,3,4)            128.5044         estimate D2E/DX2                !
 ! D11   D(1,2,3,13)           -12.2231         estimate D2E/DX2                !
 ! D12   D(5,2,3,4)            -18.7864         estimate D2E/DX2                !
 ! D13   D(5,2,3,13)          -159.5139         estimate D2E/DX2                !
 ! D14   D(1,2,5,4)           -129.7357         estimate D2E/DX2                !
 ! D15   D(1,2,5,6)            125.9505         estimate D2E/DX2                !
 ! D16   D(1,2,5,14)            -6.2573         estimate D2E/DX2                !
 ! D17   D(3,2,5,4)             18.4008         estimate D2E/DX2                !
 ! D18   D(3,2,5,6)            -85.913          estimate D2E/DX2                !
 ! D19   D(3,2,5,14)           141.8793         estimate D2E/DX2                !
 ! D20   D(9,2,5,4)             80.3282         estimate D2E/DX2                !
 ! D21   D(9,2,5,6)            -23.9857         estimate D2E/DX2                !
 ! D22   D(9,2,5,14)          -156.1934         estimate D2E/DX2                !
 ! D23   D(1,2,9,6)           -126.0144         estimate D2E/DX2                !
 ! D24   D(1,2,9,19)            18.4499         estimate D2E/DX2                !
 ! D25   D(5,2,9,6)             24.6702         estimate D2E/DX2                !
 ! D26   D(5,2,9,19)           169.1344         estimate D2E/DX2                !
 ! D27   D(2,3,4,5)             20.2154         estimate D2E/DX2                !
 ! D28   D(9,3,4,5)            -40.9042         estimate D2E/DX2                !
 ! D29   D(13,3,4,5)           168.2577         estimate D2E/DX2                !
 ! D30   D(4,3,9,6)              3.9892         estimate D2E/DX2                !
 ! D31   D(4,3,9,19)          -155.2947         estimate D2E/DX2                !
 ! D32   D(13,3,9,6)           152.7988         estimate D2E/DX2                !
 ! D33   D(13,3,9,19)           -6.485          estimate D2E/DX2                !
 ! D34   D(3,4,5,2)            -18.8728         estimate D2E/DX2                !
 ! D35   D(3,4,5,6)             70.0116         estimate D2E/DX2                !
 ! D36   D(3,4,5,14)          -153.6013         estimate D2E/DX2                !
 ! D37   D(2,5,6,7)            145.6965         estimate D2E/DX2                !
 ! D38   D(2,5,6,8)            -82.964          estimate D2E/DX2                !
 ! D39   D(2,5,6,9)             24.0471         estimate D2E/DX2                !
 ! D40   D(4,5,6,7)             54.6037         estimate D2E/DX2                !
 ! D41   D(4,5,6,8)           -174.0568         estimate D2E/DX2                !
 ! D42   D(4,5,6,9)            -67.0458         estimate D2E/DX2                !
 ! D43   D(14,5,6,7)           -77.2485         estimate D2E/DX2                !
 ! D44   D(14,5,6,8)            54.091          estimate D2E/DX2                !
 ! D45   D(14,5,6,9)           161.102          estimate D2E/DX2                !
 ! D46   D(5,6,7,15)          -166.868          estimate D2E/DX2                !
 ! D47   D(5,6,7,16)           -45.9607         estimate D2E/DX2                !
 ! D48   D(5,6,7,17)            73.5211         estimate D2E/DX2                !
 ! D49   D(8,6,7,15)            62.6479         estimate D2E/DX2                !
 ! D50   D(8,6,7,16)          -176.4448         estimate D2E/DX2                !
 ! D51   D(8,6,7,17)           -56.963          estimate D2E/DX2                !
 ! D52   D(9,6,7,15)           -65.6837         estimate D2E/DX2                !
 ! D53   D(9,6,7,16)            55.2235         estimate D2E/DX2                !
 ! D54   D(9,6,7,17)           174.7053         estimate D2E/DX2                !
 ! D55   D(5,6,8,18)           -82.9767         estimate D2E/DX2                !
 ! D56   D(7,6,8,18)            51.4529         estimate D2E/DX2                !
 ! D57   D(9,6,8,18)          -173.924          estimate D2E/DX2                !
 ! D58   D(5,6,9,2)            -24.8914         estimate D2E/DX2                !
 ! D59   D(5,6,9,3)             32.3894         estimate D2E/DX2                !
 ! D60   D(5,6,9,19)          -169.6496         estimate D2E/DX2                !
 ! D61   D(7,6,9,2)           -144.784          estimate D2E/DX2                !
 ! D62   D(7,6,9,3)            -87.5033         estimate D2E/DX2                !
 ! D63   D(7,6,9,19)            70.4577         estimate D2E/DX2                !
 ! D64   D(8,6,9,2)             84.8664         estimate D2E/DX2                !
 ! D65   D(8,6,9,3)            142.1471         estimate D2E/DX2                !
 ! D66   D(8,6,9,19)           -59.8918         estimate D2E/DX2                !
 --------------------------------------------------------------------------------
 Trust Radius=3.00D-01 FncErr=1.00D-07 GrdErr=1.00D-06
 Number of steps in this run=    114 maximum allowed number of steps=    114.
 GradGradGradGradGradGradGradGradGradGradGradGradGradGradGradGradGradGrad

                          Input orientation:                          
 ---------------------------------------------------------------------
 Center     Atomic      Atomic             Coordinates (Angstroms)
 Number     Number       Type             X           Y           Z
 ---------------------------------------------------------------------
      1          6           0        4.572880    0.962180   -1.204220
      2          6           0        3.099415    0.737930   -1.259950
      3          6           0        1.972001    1.240783   -2.089973
      4          8           0        1.444862   -0.046748   -2.430082
      5          6           0        2.170699   -0.540725   -1.272172
      6          6           0        1.399521    0.055995   -0.047595
      7          6           0       -0.092278   -0.202710    0.060493
      8          8           0        2.086999   -0.237872    1.162044
      9          6           0        1.910564    1.398831   -0.558514
     10          1           0        4.988663    0.588394   -0.262594
     11          1           0        5.089013    0.460796   -2.030622
     12          1           0        4.801688    2.031555   -1.266888
     13          1           0        1.880009    2.053580   -2.799081
     14          1           0        2.449853   -1.592711   -1.331859
     15          1           0       -0.541283    0.450227    0.815417
     16          1           0       -0.576171   -0.026877   -0.902313
     17          1           0       -0.287785   -1.242752    0.353566
     18          1           0        1.832556   -1.128080    1.429319
     19          1           0        1.870139    2.360468   -0.061429
 ---------------------------------------------------------------------
                    Distance matrix (angstroms):
                    1          2          3          4          5
     1  C    0.000000
     2  C    1.491473   0.000000
     3  C    2.761657   1.487570   0.000000
     4  O    3.507872   2.173126   1.432231   0.000000
     5  C    2.834398   1.580387   1.970292   1.453137   0.000000
     6  C    3.497022   2.196470   2.429561   2.385132   1.565369
     7  C    4.971938   3.579844   3.312013   2.930885   2.647890
     8  O    3.635785   2.800576   3.574249   3.654071   2.454411
     9  C    2.774081   1.530415   1.540819   2.410258   2.082992
    10  H    1.095103   2.141573   3.586805   4.202372   3.199230
    11  H    1.095773   2.151566   3.213668   3.700946   3.177239
    12  H    1.095373   2.138047   3.051215   4.115901   3.679504
    13  H    3.314557   2.363644   1.082560   2.176441   3.024297
    14  H    3.324304   2.420535   2.971829   2.146183   1.090029
    15  H    5.522290   4.200548   3.922100   3.837320   3.562985
    16  H    5.251867   3.771309   3.083939   2.533585   2.818889
    17  H    5.560079   4.242601   4.152766   3.490156   3.029853
    18  H    4.337521   3.509857   4.244570   4.026731   2.785208
    19  H    3.250536   2.362245   2.319280   3.403831   3.158030
                    6          7          8          9         10
     6  C    0.000000
     7  C    1.517918   0.000000
     8  O    1.422044   2.442109   0.000000
     9  C    1.524930   2.638083   2.381227   0.000000
    10  H    3.634779   5.152300   3.336460   3.196728   0.000000
    11  H    4.208160   5.626614   4.437718   3.626230   1.775464
    12  H    4.118768   5.541190   4.291799   3.043145   1.768129
    13  H    3.433933   4.142213   4.580841   2.334475   4.271330
    14  H    2.338966   3.214526   2.861259   3.136593   3.513701
    15  H    2.160307   1.094460   2.738885   2.966326   5.635734
    16  H    2.154244   1.091817   3.376175   2.886987   5.635173
    17  H    2.166719   1.098090   2.702409   3.555642   5.619043
    18  H    1.941862   2.536726   0.963664   3.216029   3.971129
    19  H    2.352078   3.230453   2.880153   1.083269   3.592479
                   11         12         13         14         15
    11  H    0.000000
    12  H    1.770064   0.000000
    13  H    3.664041   3.299137   0.000000
    14  H    3.416186   4.320954   3.971511   0.000000
    15  H    6.308746   5.948439   4.636593   4.210853   0.000000
    16  H    5.797001   5.769872   3.736155   3.434119   1.783099
    17  H    6.123429   6.264957   5.050181   3.233851   1.773061
    18  H    5.010013   5.105739   5.291936   2.867237   2.915996
    19  H    4.224644   3.186737   2.754816   4.192575   3.198880
                   16         17         18         19
    16  H    0.000000
    17  H    1.771652   0.000000
    18  H    3.528615   2.380386   0.000000
    19  H    3.520075   4.220432   3.793904   0.000000
 Stoichiometry    C7H10O2
 Framework group  C1[X(C7H10O2)]
 Deg. of freedom    51
 Full point group                 C1      NOp   1
 Largest Abelian subgroup         C1      NOp   1
 Largest concise Abelian subgroup C1      NOp   1
                         Standard orientation:                         
 ---------------------------------------------------------------------
 Center     Atomic      Atomic             Coordinates (Angstroms)
 Number     Number       Type             X           Y           Z
 ---------------------------------------------------------------------
      1          6           0       -2.461226    0.892420   -0.105117
      2          6           0       -1.198328    0.108570    0.018007
      3          6           0       -0.813055   -1.218714    0.568229
      4          8           0       -0.124365   -1.676260   -0.601234
      5          6           0       -0.028485   -0.274766   -0.973025
      6          6           0        0.986647    0.330156    0.053599
      7          6           0        2.351767   -0.320196    0.186135
      8          8           0        1.074328    1.740229   -0.108309
      9          6           0       -0.101606    0.047108    1.083649
     10          1           0       -2.248046    1.940593   -0.339929
     11          1           0       -3.111220    0.489900   -0.890105
     12          1           0       -3.020849    0.870239    0.836251
     13          1           0       -1.325930   -1.937458    1.194569
     14          1           0        0.049161   -0.098650   -2.045926
     15          1           0        2.864717    0.043400    1.081972
     16          1           0        2.248232   -1.405485    0.245239
     17          1           0        2.981507   -0.086245   -0.682482
     18          1           0        1.692923    1.909943   -0.827465
     19          1           0       -0.144485    0.374544    2.115356
 ---------------------------------------------------------------------
 Rotational constants (GHZ):      2.6813801      1.7069401      1.3137270
 Standard basis: 6-31G(2df,p) (6D, 7F)
 There are   329 symmetry adapted cartesian basis functions of A   symmetry.
 There are   302 symmetry adapted basis functions of A   symmetry.
   302 basis functions,   466 primitive gaussians,   329 cartesian basis functions
    34 alpha electrons       34 beta electrons
       nuclear repulsion energy       480.2915334416 Hartrees.
 NAtoms=   19 NActive=   19 NUniq=   19 SFac= 1.00D+00 NAtFMM=   60 NAOKFM=F Big=F
 Integral buffers will be    131072 words long.
 Raffenetti 2 integral format.
 Two-electron integral symmetry is turned on.
 One-electron integrals computed using PRISM.
 NBasis=   302 RedAO= T EigKep=  2.12D-04  NBF=   302
 NBsUse=   302 1.00D-06 EigRej= -1.00D+00 NBFU=   302
 ExpMin= 1.61D-01 ExpMax= 5.48D+03 ExpMxC= 8.25D+02 IAcc=1 IRadAn=         1 AccDes= 0.00D+00
 Harris functional with IExCor=  402 and IRadAn=       1 diagonalized for initial guess.
 HarFok:  IExCor=  402 AccDes= 0.00D+00 IRadAn=         1 IDoV= 1 UseB2=F ITyADJ=14
 ICtDFT=  3500011 ScaDFX=  1.000000  1.000000  1.000000  1.000000
 FoFCou: FMM=F IPFlag=           0 FMFlag=      100000 FMFlg1=           0
         NFxFlg=           0 DoJE=T BraDBF=F KetDBF=T FulRan=T
         wScrn=  0.000000 ICntrl=     500 IOpCl=  0 I1Cent=   200000004 NGrid=           0
         NMat0=    1 NMatS0=      1 NMatT0=    0 NMatD0=    1 NMtDS0=    0 NMtDT0=    0
 Petite list used in FoFCou.
 Requested convergence on RMS density matrix=1.00D-08 within 128 cycles.
 Requested convergence on MAX density matrix=1.00D-06.
 Requested convergence on             energy=1.00D-06.
 No special actions if energy rises.
 Integral accuracy reduced to 1.0D-05 until final iterations.
 Initial convergence to 1.0D-05 achieved.  Increase integral accuracy.
 SCF Done:  E(RB3LYP) =  -423.119368603     A.U. after   12 cycles
            NFock= 12  Conv=0.83D-08     -V/T= 2.0074

 **********************************************************************

            Population analysis using the SCF density.

 **********************************************************************

 Orbital symmetries:
       Occupied  (A) (A) (A) (A) (A) (A) (A) (A) (A) (A) (A) (A)
                 (A) (A) (A) (A) (A) (A) (A) (A) (A) (A) (A) (A)
                 (A) (A) (A) (A) (A) (A) (A) (A) (A) (A)
       Virtual   (A) (A) (A) (A) (A) (A) (A) (A) (A) (A) (A) (A)
                 (A) (A) (A) (A) (A) (A) (A) (A) (A) (A) (A) (A)
                 (A) (A) (A) (A) (A) (A) (A) (A) (A) (A) (A) (A)
                 (A) (A) (A) (A) (A) (A) (A) (A) (A) (A) (A) (A)
                 (A) (A) (A) (A) (A) (A) (A) (A) (A) (A) (A) (A)
                 (A) (A) (A) (A) (A) (A) (A) (A) (A) (A) (A) (A)
                 (A) (A) (A) (A) (A) (A) (A) (A) (A) (A) (A) (A)
                 (A) (A) (A) (A) (A) (A) (A) (A) (A) (A) (A) (A)
                 (A) (A) (A) (A) (A) (A) (A) (A) (A) (A) (A) (A)
                 (A) (A) (A) (A) (A) (A) (A) (A) (A) (A) (A) (A)
                 (A) (A) (A) (A) (A) (A) (A) (A) (A) (A) (A) (A)
                 (A) (A) (A) (A) (A) (A) (A) (A) (A) (A) (A) (A)
                 (A) (A) (A) (A) (A) (A) (A) (A) (A) (A) (A) (A)
                 (A) (A) (A) (A) (A) (A) (A) (A) (A) (A) (A) (A)
                 (A) (A) (A) (A) (A) (A) (A) (A) (A) (A) (A) (A)
                 (A) (A) (A) (A) (A) (A) (A) (A) (A) (A) (A) (A)
                 (A) (A) (A) (A) (A) (A) (A) (A) (A) (A) (A) (A)
                 (A) (A) (A) (A) (A) (A) (A) (A) (A) (A) (A) (A)
                 (A) (A) (A) (A) (A) (A) (A) (A) (A) (A) (A) (A)
                 (A) (A) (A) (A) (A) (A) (A) (A) (A) (A) (A) (A)
                 (A) (A) (A) (A) (A) (A) (A) (A) (A) (A) (A) (A)
                 (A) (A) (A) (A) (A) (A) (A) (A) (A) (A) (A) (A)
                 (A) (A) (A) (A)
 The electronic state is 1-A.
 Alpha  occ. eigenvalues --  -19.13710 -19.13592 -10.23838 -10.23649 -10.23440
 Alpha  occ. eigenvalues --  -10.19805 -10.18739 -10.18379 -10.17027  -1.06192
 Alpha  occ. eigenvalues --   -1.01821  -0.85432  -0.74987  -0.71736  -0.68585
 Alpha  occ. eigenvalues --   -0.61643  -0.55360  -0.53743  -0.51838  -0.46307
 Alpha  occ. eigenvalues --   -0.45806  -0.44575  -0.42482  -0.40739  -0.40060
 Alpha  occ. eigenvalues --   -0.39064  -0.38048  -0.36419  -0.36063  -0.31618
 Alpha  occ. eigenvalues --   -0.29724  -0.27664  -0.24835  -0.22408
 Alpha virt. eigenvalues --    0.07327   0.08312   0.11144   0.11193   0.12648
 Alpha virt. eigenvalues --    0.13278   0.15089   0.15623   0.16110   0.16473
 Alpha virt. eigenvalues --    0.17341   0.18128   0.19782   0.21658   0.22588
 Alpha virt. eigenvalues --    0.24022   0.25351   0.26587   0.28468   0.33845
 Alpha virt. eigenvalues --    0.35323   0.38150   0.40731   0.43845   0.45851
 Alpha virt. eigenvalues --    0.47318   0.48496   0.50162   0.51473   0.52237
 Alpha virt. eigenvalues --    0.55368   0.57593   0.59597   0.60848   0.61427
 Alpha virt. eigenvalues --    0.63931   0.64352   0.65006   0.67820   0.69980
 Alpha virt. eigenvalues --    0.70895   0.71984   0.73148   0.73924   0.74134
 Alpha virt. eigenvalues --    0.74666   0.76442   0.76805   0.77694   0.79386
 Alpha virt. eigenvalues --    0.82594   0.84485   0.85544   0.87882   0.89933
 Alpha virt. eigenvalues --    0.90070   0.93565   0.95091   0.97393   0.99586
 Alpha virt. eigenvalues --    1.00931   1.04643   1.05505   1.07057   1.11987
 Alpha virt. eigenvalues --    1.15280   1.17460   1.20242   1.21109   1.24136
 Alpha virt. eigenvalues --    1.25574   1.27809   1.31006   1.32502   1.34435
 Alpha virt. eigenvalues --    1.36497   1.38432   1.39651   1.40222   1.43580
 Alpha virt. eigenvalues --    1.45511   1.46575   1.48132   1.49843   1.50925
 Alpha virt. eigenvalues --    1.52300   1.53961   1.56197   1.58717   1.59428
 Alpha virt. eigenvalues --    1.62729   1.64827   1.65610   1.69450   1.72043
 Alpha virt. eigenvalues --    1.73060   1.74580   1.76909   1.78662   1.81957
 Alpha virt. eigenvalues --    1.83865   1.87763   1.90177   1.92456   1.94840
 Alpha virt. eigenvalues --    1.95289   1.96651   2.00959   2.07090   2.10337
 Alpha virt. eigenvalues --    2.15032   2.18565   2.25269   2.26151   2.31728
 Alpha virt. eigenvalues --    2.33501   2.34937   2.37612   2.45442   2.45503
 Alpha virt. eigenvalues --    2.47855   2.50587   2.54515   2.57033   2.57839
 Alpha virt. eigenvalues --    2.62382   2.63167   2.65870   2.72440   2.74565
 Alpha virt. eigenvalues --    2.76157   2.77005   2.78789   2.81387   2.82049
 Alpha virt. eigenvalues --    2.86329   2.86516   2.90110   2.91779   2.92970
 Alpha virt. eigenvalues --    2.95408   2.96463   2.96857   2.98696   3.00096
 Alpha virt. eigenvalues --    3.02673   3.04228   3.07861   3.10032   3.12824
 Alpha virt. eigenvalues --    3.14411   3.17432   3.21830   3.23136   3.25984
 Alpha virt. eigenvalues --    3.29925   3.31922   3.32732   3.34589   3.39269
 Alpha virt. eigenvalues --    3.40790   3.43113   3.45745   3.46801   3.51319
 Alpha virt. eigenvalues --    3.52672   3.60740   3.62276   3.65124   3.66956
 Alpha virt. eigenvalues --    3.68638   3.73478   3.75220   3.79035   3.82692
 Alpha virt. eigenvalues --    3.83287   3.85244   3.90359   3.94944   3.96680
 Alpha virt. eigenvalues --    4.00570   4.01600   4.04576   4.13694   4.15754
 Alpha virt. eigenvalues --    4.16786   4.21063   4.22729   4.23360   4.25300
 Alpha virt. eigenvalues --    4.31017   4.34794   4.36792   4.38737   4.40267
 Alpha virt. eigenvalues --    4.42966   4.45218   4.47455   4.49104   4.52084
 Alpha virt. eigenvalues --    4.54155   4.56114   4.56356   4.58799   4.59967
 Alpha virt. eigenvalues --    4.61471   4.62622   4.64109   4.64784   4.66536
 Alpha virt. eigenvalues --    4.69187   4.70267   4.73511   4.74648   4.77962
 Alpha virt. eigenvalues --    4.79889   4.81213   4.82367   4.83316   4.84928
 Alpha virt. eigenvalues --    4.89076   4.90442   4.92205   4.97280   4.98896
 Alpha virt. eigenvalues --    5.03012   5.06494   5.07911   5.11408   5.15968
 Alpha virt. eigenvalues --    5.22348   5.25080   5.26482   5.34892   5.37769
 Alpha virt. eigenvalues --    5.42432   5.44785   5.47923   5.50864   5.54906
 Alpha virt. eigenvalues --    5.56699   5.65196   5.69537   5.74084   5.78809
 Alpha virt. eigenvalues --    5.81327   5.87087   5.93665   5.97060   6.00495
 Alpha virt. eigenvalues --    6.05141   6.06589   6.15749   6.19859   6.41239
 Alpha virt. eigenvalues --    6.52675   7.13517   7.31104   7.37785  10.81258
 Alpha virt. eigenvalues --   11.46536  11.52185  11.85878  12.28336  12.43228
 Alpha virt. eigenvalues --   12.87815  13.56753  13.62926
          Condensed to atoms (all electrons):
               1          2          3          4          5          6
     1  C    5.235208   0.383077  -0.058635   0.004746  -0.053745   0.007165
     2  C    0.383077   4.570461   0.307585  -0.038523   0.316792   0.034650
     3  C   -0.058635   0.307585   4.964570   0.325702  -0.144174  -0.008878
     4  O    0.004746  -0.038523   0.325702   7.824487   0.275593  -0.035281
     5  C   -0.053745   0.316792  -0.144174   0.275593   5.202780   0.216985
     6  C    0.007165   0.034650  -0.008878  -0.035281   0.216985   4.533583
     7  C   -0.000429  -0.001718   0.020337  -0.004072  -0.071660   0.363088
     8  O   -0.001353   0.006363   0.002050   0.001622  -0.042667   0.360356
     9  C   -0.046945   0.255649   0.222019  -0.025131  -0.026357   0.317176
    10  H    0.356553  -0.012701   0.004865  -0.000147  -0.001337  -0.001420
    11  H    0.358373  -0.016745  -0.001154   0.000399  -0.001530   0.000006
    12  H    0.356488  -0.007582  -0.003800  -0.000139   0.003441   0.000397
    13  H   -0.002663  -0.035157   0.376963  -0.024532   0.009862   0.001488
    14  H   -0.001789  -0.038066   0.011758  -0.026401   0.360824  -0.058779
    15  H    0.000005   0.000110  -0.000666   0.000218   0.004482  -0.011719
    16  H   -0.000012   0.001741  -0.001836   0.013382  -0.001281  -0.013471
    17  H    0.000006  -0.000053  -0.000133   0.000289  -0.001259  -0.015807
    18  H   -0.000009   0.000026  -0.000579   0.000035  -0.000515  -0.079072
    19  H   -0.002774  -0.026835  -0.036729   0.001046   0.013646  -0.036979
               7          8          9         10         11         12
     1  C   -0.000429  -0.001353  -0.046945   0.356553   0.358373   0.356488
     2  C   -0.001718   0.006363   0.255649  -0.012701  -0.016745  -0.007582
     3  C    0.020337   0.002050   0.222019   0.004865  -0.001154  -0.003800
     4  O   -0.004072   0.001622  -0.025131  -0.000147   0.000399  -0.000139
     5  C   -0.071660  -0.042667  -0.026357  -0.001337  -0.001530   0.003441
     6  C    0.363088   0.360356   0.317176  -0.001420   0.000006   0.000397
     7  C    5.260495  -0.052177  -0.089543  -0.000007   0.000007   0.000012
     8  O   -0.052177   7.894141  -0.011572   0.002038  -0.000001   0.000001
     9  C   -0.089543  -0.011572   5.263713  -0.001901   0.004456  -0.004242
    10  H   -0.000007   0.002038  -0.001901   0.583749  -0.035641  -0.030139
    11  H    0.000007  -0.000001   0.004456  -0.035641   0.597889  -0.031765
    12  H    0.000012   0.000001  -0.004242  -0.030139  -0.031765   0.591611
    13  H    0.000505  -0.000011  -0.046401  -0.000069   0.000445   0.000911
    14  H   -0.000407   0.000862   0.011678   0.000481   0.000466  -0.000077
    15  H    0.358178   0.000980  -0.003308   0.000001   0.000000   0.000000
    16  H    0.349246   0.003144  -0.000939   0.000000   0.000000   0.000000
    17  H    0.346202  -0.001174   0.005346   0.000001   0.000000   0.000000
    18  H   -0.005996   0.317580   0.011044   0.000012   0.000001  -0.000001
    19  H   -0.001677  -0.000633   0.368323   0.000469  -0.000082   0.000853
              13         14         15         16         17         18
     1  C   -0.002663  -0.001789   0.000005  -0.000012   0.000006  -0.000009
     2  C   -0.035157  -0.038066   0.000110   0.001741  -0.000053   0.000026
     3  C    0.376963   0.011758  -0.000666  -0.001836  -0.000133  -0.000579
     4  O   -0.024532  -0.026401   0.000218   0.013382   0.000289   0.000035
     5  C    0.009862   0.360824   0.004482  -0.001281  -0.001259  -0.000515
     6  C    0.001488  -0.058779  -0.011719  -0.013471  -0.015807  -0.079072
     7  C    0.000505  -0.000407   0.358178   0.349246   0.346202  -0.005996
     8  O   -0.000011   0.000862   0.000980   0.003144  -0.001174   0.317580
     9  C   -0.046401   0.011678  -0.003308  -0.000939   0.005346   0.011044
    10  H   -0.000069   0.000481   0.000001   0.000000   0.000001   0.000012
    11  H    0.000445   0.000466   0.000000   0.000000   0.000000   0.000001
    12  H    0.000911  -0.000077   0.000000   0.000000   0.000000  -0.000001
    13  H    0.612807  -0.000364  -0.000025  -0.000040  -0.000004   0.000003
    14  H   -0.000364   0.660206  -0.000125   0.000243   0.001313   0.002854
    15  H   -0.000025  -0.000125   0.589886  -0.027568  -0.032820  -0.000227
    16  H   -0.000040   0.000243  -0.027568   0.563376  -0.026005  -0.000089
    17  H   -0.000004   0.001313  -0.032820  -0.026005   0.619184   0.005847
    18  H    0.000003   0.002854  -0.000227  -0.000089   0.005847   0.474100
    19  H   -0.001959  -0.000310   0.001450   0.000154  -0.000077  -0.000114
              19
     1  C   -0.002774
     2  C   -0.026835
     3  C   -0.036729
     4  O    0.001046
     5  C    0.013646
     6  C   -0.036979
     7  C   -0.001677
     8  O   -0.000633
     9  C    0.368323
    10  H    0.000469
    11  H   -0.000082
    12  H    0.000853
    13  H   -0.001959
    14  H   -0.000310
    15  H    0.001450
    16  H    0.000154
    17  H   -0.000077
    18  H   -0.000114
    19  H    0.634288
 Mulliken charges:
               1
     1  C   -0.533265
     2  C    0.300926
     3  C    0.020738
     4  O   -0.293293
     5  C   -0.059880
     6  C    0.426509
     7  C   -0.470385
     8  O   -0.479549
     9  C   -0.203066
    10  H    0.135194
    11  H    0.124877
    12  H    0.124032
    13  H    0.108241
    14  H    0.075635
    15  H    0.121149
    16  H    0.139954
    17  H    0.099145
    18  H    0.275100
    19  H    0.087938
 Sum of Mulliken charges =   0.00000
 Mulliken charges with hydrogens summed into heavy atoms:
               1
     1  C   -0.149161
     2  C    0.300926
     3  C    0.128979
     4  O   -0.293293
     5  C    0.015754
     6  C    0.426509
     7  C   -0.110137
     8  O   -0.204449
     9  C   -0.115128
 Electronic spatial extent (au):  <R**2>=           1032.6809
 Charge=              0.0000 electrons
 Dipole moment (field-independent basis, Debye):
    X=             -0.0729    Y=              0.7351    Z=             -0.1225  Tot=              0.7488
 Quadrupole moment (field-independent basis, Debye-Ang):
   XX=            -49.0671   YY=            -57.9808   ZZ=            -49.6565
   XY=              1.3908   XZ=             -3.0694   YZ=             -4.4367
 Traceless Quadrupole moment (field-independent basis, Debye-Ang):
   XX=              3.1677   YY=             -5.7460   ZZ=              2.5783
   XY=              1.3908   XZ=             -3.0694   YZ=             -4.4367
 Octapole moment (field-independent basis, Debye-Ang**2):
  XXX=              6.0970  YYY=              3.3463  ZZZ=             -4.3577  XYY=              1.0639
  XXY=              4.5868  XXZ=             -3.5782  XZZ=              2.5135  YZZ=              3.6437
  YYZ=             -0.0970  XYZ=             -2.3091
 Hexadecapole moment (field-independent basis, Debye-Ang**3):
 XXXX=           -755.9348 YYYY=           -382.7763 ZZZZ=           -184.6810 XXXY=             23.2928
 XXXZ=             -9.5703 YYYX=             17.1914 YYYZ=            -21.0370 ZZZX=             -5.5388
 ZZZY=              2.1340 XXYY=           -180.2643 XXZZ=           -150.3627 YYZZ=            -93.1815
 XXYZ=             -8.2219 YYXZ=            -12.6459 ZZXY=              9.4770
 N-N= 4.802915334416D+02 E-N=-1.947583329942D+03  KE= 4.200315296813D+02
 Calling FoFJK, ICntrl=      2127 FMM=F ISym2X=0 I1Cent= 0 IOpClX= 0 NMat=1 NMatS=1 NMatT=0.
 ***** Axes restored to original set *****
 -------------------------------------------------------------------
 Center     Atomic                   Forces (Hartrees/Bohr)
 Number     Number              X              Y              Z
 -------------------------------------------------------------------
      1        6           0.000064426   -0.000026028    0.000007497
      2        6          -0.000014330   -0.000025051   -0.000037108
      3        6          -0.000042883    0.000075147    0.000013721
      4        8           0.000018737   -0.000027754   -0.000050055
      5        6          -0.000015293   -0.000039313    0.000022926
      6        6           0.000044811   -0.000036702   -0.000053926
      7        6          -0.000038920    0.000023309    0.000017763
      8        8           0.000019374    0.000028373    0.000038791
      9        6          -0.000006199    0.000088996   -0.000002456
     10        1          -0.000018033   -0.000017068   -0.000003342
     11        1          -0.000019145   -0.000009206   -0.000008582
     12        1          -0.000003775   -0.000010673   -0.000003231
     13        1           0.000022655    0.000002720    0.000033530
     14        1          -0.000016550    0.000023505    0.000012384
     15        1           0.000016660   -0.000004335    0.000012706
     16        1          -0.000000604    0.000007617    0.000004380
     17        1           0.000006937    0.000001256   -0.000010325
     18        1          -0.000006771   -0.000024253   -0.000003028
     19        1          -0.000011096   -0.000030539    0.000008355
 -------------------------------------------------------------------
 Cartesian Forces:  Max     0.000088996 RMS     0.000028520

 GradGradGradGradGradGradGradGradGradGradGradGradGradGradGradGradGradGrad
 Berny optimization.
 FormGI is forming the generalized inverse of G from B-inverse, IUseBI=4.
 Internal  Forces:  Max     0.000048223 RMS     0.000012961
 Search for a local minimum.
 Step number   1 out of a maximum of  114
 All quantities printed in internal units (Hartrees-Bohrs-Radians)
 Mixed Optimization -- En-DIIS/RFO-DIIS
 Second derivative matrix not updated -- first step.
 ITU=  0
     Eigenvalues ---    0.00529   0.00879   0.01197   0.01400   0.01520
     Eigenvalues ---    0.01987   0.02761   0.03093   0.03476   0.03594
     Eigenvalues ---    0.04827   0.05374   0.05704   0.05736   0.05801
     Eigenvalues ---    0.05930   0.06710   0.07137   0.07569   0.09356
     Eigenvalues ---    0.10392   0.15484   0.16000   0.16000   0.16000
     Eigenvalues ---    0.16000   0.16000   0.16000   0.16000   0.16622
     Eigenvalues ---    0.18053   0.20068   0.22841   0.24251   0.26836
     Eigenvalues ---    0.28689   0.30568   0.33137   0.33289   0.33894
     Eigenvalues ---    0.34154   0.34199   0.34230   0.34302   0.34603
     Eigenvalues ---    0.34809   0.35602   0.35687   0.36144   0.42154
     Eigenvalues ---    0.54693
 RFO step:  Lambda=-2.40863004D-07 EMin= 5.28922866D-03
 Linear search not attempted -- first point.
 Iteration  1 RMS(Cart)=  0.00043278 RMS(Int)=  0.00000012
 Iteration  2 RMS(Cart)=  0.00000014 RMS(Int)=  0.00000002
 Variable       Old X    -DE/DX   Delta X   Delta X   Delta X     New X
                                 (Linear)    (Quad)   (Total)
    R1        2.81847   0.00001   0.00000   0.00004   0.00004   2.81852
    R2        2.06944   0.00000   0.00000  -0.00001  -0.00001   2.06943
    R3        2.07071   0.00000   0.00000  -0.00001  -0.00001   2.07070
    R4        2.06996   0.00000   0.00000  -0.00001  -0.00001   2.06994
    R5        2.81110   0.00001   0.00000   0.00004   0.00004   2.81114
    R6        2.98650  -0.00002   0.00000  -0.00005  -0.00005   2.98645
    R7        2.89206   0.00002   0.00000   0.00017   0.00017   2.89223
    R8        2.70652   0.00005   0.00000   0.00011   0.00011   2.70663
    R9        2.91173  -0.00001   0.00000  -0.00010  -0.00010   2.91163
   R10        2.04574  -0.00002   0.00000  -0.00007  -0.00007   2.04568
   R11        2.74603   0.00002   0.00000   0.00009   0.00009   2.74612
   R12        2.95812  -0.00001   0.00000  -0.00007  -0.00007   2.95804
   R13        2.05986  -0.00003   0.00000  -0.00007  -0.00007   2.05978
   R14        2.86845   0.00001   0.00000   0.00004   0.00004   2.86849
   R15        2.68727   0.00004   0.00000   0.00009   0.00009   2.68737
   R16        2.88170   0.00002   0.00000   0.00002   0.00002   2.88172
   R17        2.06823  -0.00001   0.00000  -0.00002  -0.00002   2.06821
   R18        2.06324   0.00000   0.00000   0.00000   0.00000   2.06323
   R19        2.07509   0.00000   0.00000   0.00000   0.00000   2.07509
   R20        1.82106   0.00002   0.00000   0.00003   0.00003   1.82110
   R21        2.04708  -0.00002   0.00000  -0.00007  -0.00007   2.04701
    A1        1.93467  -0.00002   0.00000  -0.00014  -0.00014   1.93453
    A2        1.94804  -0.00002   0.00000  -0.00011  -0.00011   1.94792
    A3        1.92945   0.00000   0.00000  -0.00002  -0.00002   1.92943
    A4        1.88963   0.00002   0.00000   0.00011   0.00011   1.88974
    A5        1.87875   0.00002   0.00000   0.00011   0.00011   1.87886
    A6        1.88091   0.00001   0.00000   0.00007   0.00007   1.88098
    A7        2.37282   0.00001   0.00000   0.00015   0.00015   2.37296
    A8        2.34969  -0.00003   0.00000  -0.00022  -0.00022   2.34947
    A9        2.32592   0.00001   0.00000   0.00007   0.00007   2.32600
   A10        1.39368   0.00002   0.00000   0.00011   0.00011   1.39379
   A11        1.46705   0.00001   0.00000   0.00005   0.00005   1.46710
   A12        1.67857  -0.00003   0.00000  -0.00020  -0.00020   1.67837
   A13        2.32361   0.00001   0.00000  -0.00016  -0.00016   2.32345
   A14        1.88974   0.00000   0.00000   0.00013   0.00013   1.88987
   A15        2.08074   0.00001   0.00000   0.00014   0.00014   2.08088
   A16        2.17809  -0.00001   0.00000  -0.00006  -0.00006   2.17803
   A17        1.50327   0.00000   0.00000   0.00005   0.00005   1.50333
   A18        1.59545   0.00000   0.00000  -0.00014  -0.00014   1.59532
   A19        1.54583   0.00000   0.00000  -0.00012  -0.00013   1.54570
   A20        2.25334   0.00000   0.00000  -0.00002  -0.00002   2.25332
   A21        1.82110   0.00001   0.00000   0.00038   0.00038   1.82148
   A22        1.99584   0.00000   0.00000   0.00010   0.00010   1.99594
   A23        2.13755   0.00000   0.00000  -0.00015  -0.00015   2.13740
   A24        2.06566   0.00000   0.00000   0.00006   0.00006   2.06572
   A25        1.92677   0.00001   0.00000   0.00009   0.00009   1.92686
   A26        1.47915   0.00001   0.00000   0.00011   0.00011   1.47925
   A27        1.95987   0.00000   0.00000  -0.00011  -0.00011   1.95976
   A28        2.09821   0.00000   0.00000   0.00006   0.00006   2.09827
   A29        1.88069   0.00000   0.00000  -0.00017  -0.00017   1.88052
   A30        1.92904  -0.00001   0.00000  -0.00004  -0.00004   1.92900
   A31        1.92339   0.00001   0.00000   0.00005   0.00005   1.92344
   A32        1.93415  -0.00002   0.00000  -0.00014  -0.00014   1.93400
   A33        1.90748   0.00001   0.00000   0.00013   0.00013   1.90761
   A34        1.88379   0.00001   0.00000   0.00003   0.00003   1.88382
   A35        1.88492   0.00000   0.00000  -0.00002  -0.00002   1.88490
   A36        1.87463  -0.00001   0.00000  -0.00004  -0.00004   1.87459
   A37        1.60442  -0.00003   0.00000  -0.00024  -0.00024   1.60418
   A38        2.24293   0.00003   0.00000   0.00021   0.00021   2.24314
   A39        1.82973   0.00000   0.00000   0.00014   0.00014   1.82987
   A40        2.15152   0.00000   0.00000   0.00004   0.00004   2.15156
   A41        2.23377  -0.00001   0.00000  -0.00011  -0.00011   2.23366
    D1        2.87686   0.00000   0.00000  -0.00002  -0.00002   2.87684
    D2       -1.10888   0.00001   0.00000   0.00011   0.00011  -1.10877
    D3        1.27912   0.00000   0.00000  -0.00009  -0.00009   1.27902
    D4       -1.29838  -0.00001   0.00000  -0.00006  -0.00006  -1.29843
    D5        0.99907   0.00001   0.00000   0.00007   0.00007   0.99914
    D6       -2.89612   0.00000   0.00000  -0.00013  -0.00013  -2.89625
    D7        0.79496   0.00000   0.00000  -0.00005  -0.00005   0.79490
    D8        3.09240   0.00001   0.00000   0.00008   0.00008   3.09248
    D9       -0.80279   0.00000   0.00000  -0.00013  -0.00013  -0.80292
   D10        2.24282  -0.00002   0.00000  -0.00029  -0.00029   2.24253
   D11       -0.21333  -0.00001   0.00000  -0.00002  -0.00002  -0.21336
   D12       -0.32789  -0.00001   0.00000  -0.00024  -0.00024  -0.32813
   D13       -2.78404   0.00000   0.00000   0.00003   0.00003  -2.78402
   D14       -2.26432   0.00001   0.00000   0.00007   0.00007  -2.26425
   D15        2.19825  -0.00001   0.00000  -0.00032  -0.00032   2.19793
   D16       -0.10921   0.00000   0.00000   0.00005   0.00005  -0.10916
   D17        0.32116   0.00002   0.00000   0.00024   0.00024   0.32140
   D18       -1.49946   0.00001   0.00000  -0.00014  -0.00014  -1.49960
   D19        2.47626   0.00002   0.00000   0.00023   0.00023   2.47649
   D20        1.40199   0.00000   0.00000   0.00015   0.00015   1.40214
   D21       -0.41863  -0.00001   0.00000  -0.00023  -0.00023  -0.41886
   D22       -2.72609   0.00000   0.00000   0.00014   0.00014  -2.72595
   D23       -2.19937   0.00002   0.00000   0.00046   0.00046  -2.19890
   D24        0.32201   0.00000   0.00000   0.00016   0.00016   0.32217
   D25        0.43058   0.00000   0.00000   0.00022   0.00022   0.43080
   D26        2.95195  -0.00002   0.00000  -0.00008  -0.00008   2.95187
   D27        0.35283   0.00001   0.00000   0.00025   0.00025   0.35307
   D28       -0.71391   0.00001   0.00000   0.00023   0.00023  -0.71368
   D29        2.93665   0.00000   0.00000  -0.00010  -0.00010   2.93656
   D30        0.06962   0.00001   0.00000   0.00011   0.00011   0.06973
   D31       -2.71040   0.00000   0.00000  -0.00004  -0.00004  -2.71044
   D32        2.66684   0.00002   0.00000   0.00054   0.00054   2.66738
   D33       -0.11318   0.00002   0.00000   0.00039   0.00039  -0.11279
   D34       -0.32939  -0.00001   0.00000  -0.00025  -0.00025  -0.32964
   D35        1.22193  -0.00002   0.00000  -0.00040  -0.00040   1.22153
   D36       -2.68085  -0.00001   0.00000  -0.00018  -0.00018  -2.68103
   D37        2.54288   0.00001   0.00000   0.00040   0.00040   2.54329
   D38       -1.44799   0.00001   0.00000   0.00040   0.00040  -1.44760
   D39        0.41970   0.00001   0.00000   0.00025   0.00025   0.41995
   D40        0.95301   0.00002   0.00000   0.00059   0.00059   0.95360
   D41       -3.03786   0.00001   0.00000   0.00058   0.00058  -3.03728
   D42       -1.17017   0.00001   0.00000   0.00044   0.00044  -1.16973
   D43       -1.34824   0.00000   0.00000   0.00016   0.00016  -1.34808
   D44        0.94407   0.00000   0.00000   0.00016   0.00016   0.94422
   D45        2.81176   0.00000   0.00000   0.00001   0.00001   2.81177
   D46       -2.91240  -0.00001   0.00000  -0.00098  -0.00098  -2.91338
   D47       -0.80217   0.00000   0.00000  -0.00082  -0.00082  -0.80298
   D48        1.28319  -0.00001   0.00000  -0.00090  -0.00090   1.28228
   D49        1.09341  -0.00001   0.00000  -0.00107  -0.00107   1.09234
   D50       -3.07954   0.00000   0.00000  -0.00090  -0.00090  -3.08045
   D51       -0.99419  -0.00001   0.00000  -0.00099  -0.00099  -0.99518
   D52       -1.14640   0.00000   0.00000  -0.00076  -0.00076  -1.14715
   D53        0.96383   0.00001   0.00000  -0.00059  -0.00059   0.96324
   D54        3.04918   0.00000   0.00000  -0.00068  -0.00068   3.04851
   D55       -1.44822   0.00001   0.00000   0.00009   0.00009  -1.44813
   D56        0.89802   0.00000   0.00000   0.00017   0.00017   0.89819
   D57       -3.03555  -0.00001   0.00000   0.00001   0.00001  -3.03554
   D58       -0.43444   0.00000   0.00000  -0.00022  -0.00022  -0.43466
   D59        0.56530  -0.00001   0.00000  -0.00031  -0.00031   0.56499
   D60       -2.96094   0.00000   0.00000  -0.00011  -0.00011  -2.96105
   D61       -2.52696   0.00000   0.00000  -0.00038  -0.00038  -2.52733
   D62       -1.52722  -0.00001   0.00000  -0.00046  -0.00046  -1.52769
   D63        1.22972   0.00000   0.00000  -0.00026  -0.00026   1.22946
   D64        1.48120   0.00001   0.00000  -0.00010  -0.00010   1.48110
   D65        2.48094   0.00000   0.00000  -0.00019  -0.00019   2.48075
   D66       -1.04531   0.00001   0.00000   0.00002   0.00002  -1.04529
         Item               Value     Threshold  Converged?
 Maximum Force            0.000048     0.000450     YES
 RMS     Force            0.000013     0.000300     YES
 Maximum Displacement     0.001701     0.001800     YES
 RMS     Displacement     0.000433     0.001200     YES
 Predicted change in Energy=-1.204378D-07
 Optimization completed.
    -- Stationary point found.
                           ----------------------------
                           !   Optimized Parameters   !
                           ! (Angstroms and Degrees)  !
 --------------------------                            --------------------------
 ! Name  Definition              Value          Derivative Info.                !
 --------------------------------------------------------------------------------
 ! R1    R(1,2)                  1.4915         -DE/DX =    0.0                 !
 ! R2    R(1,10)                 1.0951         -DE/DX =    0.0                 !
 ! R3    R(1,11)                 1.0958         -DE/DX =    0.0                 !
 ! R4    R(1,12)                 1.0954         -DE/DX =    0.0                 !
 ! R5    R(2,3)                  1.4876         -DE/DX =    0.0                 !
 ! R6    R(2,5)                  1.5804         -DE/DX =    0.0                 !
 ! R7    R(2,9)                  1.5304         -DE/DX =    0.0                 !
 ! R8    R(3,4)                  1.4322         -DE/DX =    0.0                 !
 ! R9    R(3,9)                  1.5408         -DE/DX =    0.0                 !
 ! R10   R(3,13)                 1.0826         -DE/DX =    0.0                 !
 ! R11   R(4,5)                  1.4531         -DE/DX =    0.0                 !
 ! R12   R(5,6)                  1.5654         -DE/DX =    0.0                 !
 ! R13   R(5,14)                 1.09           -DE/DX =    0.0                 !
 ! R14   R(6,7)                  1.5179         -DE/DX =    0.0                 !
 ! R15   R(6,8)                  1.422          -DE/DX =    0.0                 !
 ! R16   R(6,9)                  1.5249         -DE/DX =    0.0                 !
 ! R17   R(7,15)                 1.0945         -DE/DX =    0.0                 !
 ! R18   R(7,16)                 1.0918         -DE/DX =    0.0                 !
 ! R19   R(7,17)                 1.0981         -DE/DX =    0.0                 !
 ! R20   R(8,18)                 0.9637         -DE/DX =    0.0                 !
 ! R21   R(9,19)                 1.0833         -DE/DX =    0.0                 !
 ! A1    A(2,1,10)             110.8486         -DE/DX =    0.0                 !
 ! A2    A(2,1,11)             111.6144         -DE/DX =    0.0                 !
 ! A3    A(2,1,12)             110.5492         -DE/DX =    0.0                 !
 ! A4    A(10,1,11)            108.2681         -DE/DX =    0.0                 !
 ! A5    A(10,1,12)            107.6444         -DE/DX =    0.0                 !
 ! A6    A(11,1,12)            107.768          -DE/DX =    0.0                 !
 ! A7    A(1,2,3)              135.9524         -DE/DX =    0.0                 !
 ! A8    A(1,2,5)              134.6274         -DE/DX =    0.0                 !
 ! A9    A(1,2,9)              133.2656         -DE/DX =    0.0                 !
 ! A10   A(3,2,5)               79.8519         -DE/DX =    0.0                 !
 ! A11   A(5,2,9)               84.056          -DE/DX =    0.0                 !
 ! A12   A(2,3,4)               96.1747         -DE/DX =    0.0                 !
 ! A13   A(2,3,13)             133.1328         -DE/DX =    0.0                 !
 ! A14   A(4,3,9)              108.2739         -DE/DX =    0.0                 !
 ! A15   A(4,3,13)             119.2178         -DE/DX =    0.0                 !
 ! A16   A(9,3,13)             124.7954         -DE/DX =    0.0                 !
 ! A17   A(3,4,5)               86.1313         -DE/DX =    0.0                 !
 ! A18   A(2,5,4)               91.4128         -DE/DX =    0.0                 !
 ! A19   A(2,5,6)               88.5695         -DE/DX =    0.0                 !
 ! A20   A(2,5,14)             129.1067         -DE/DX =    0.0                 !
 ! A21   A(4,5,6)              104.3412         -DE/DX =    0.0                 !
 ! A22   A(4,5,14)             114.3533         -DE/DX =    0.0                 !
 ! A23   A(6,5,14)             122.4728         -DE/DX =    0.0                 !
 ! A24   A(5,6,7)              118.3534         -DE/DX =    0.0                 !
 ! A25   A(5,6,8)              110.3957         -DE/DX =    0.0                 !
 ! A26   A(5,6,9)               84.7489         -DE/DX =    0.0                 !
 ! A27   A(7,6,8)              112.2923         -DE/DX =    0.0                 !
 ! A28   A(7,6,9)              120.2185         -DE/DX =    0.0                 !
 ! A29   A(8,6,9)              107.7557         -DE/DX =    0.0                 !
 ! A30   A(6,7,15)             110.5259         -DE/DX =    0.0                 !
 ! A31   A(6,7,16)             110.202          -DE/DX =    0.0                 !
 ! A32   A(6,7,17)             110.8184         -DE/DX =    0.0                 !
 ! A33   A(15,7,16)            109.2908         -DE/DX =    0.0                 !
 ! A34   A(15,7,17)            107.9333         -DE/DX =    0.0                 !
 ! A35   A(16,7,17)            107.9979         -DE/DX =    0.0                 !
 ! A36   A(6,8,18)             107.4082         -DE/DX =    0.0                 !
 ! A37   A(2,9,6)               91.9264         -DE/DX =    0.0                 !
 ! A38   A(2,9,19)             128.5107         -DE/DX =    0.0                 !
 ! A39   A(3,9,6)              104.8356         -DE/DX =    0.0                 !
 ! A40   A(3,9,19)             123.2732         -DE/DX =    0.0                 !
 ! A41   A(6,9,19)             127.9857         -DE/DX =    0.0                 !
 ! D1    D(10,1,2,3)           164.8322         -DE/DX =    0.0                 !
 ! D2    D(10,1,2,5)           -63.534          -DE/DX =    0.0                 !
 ! D3    D(10,1,2,9)            73.2881         -DE/DX =    0.0                 !
 ! D4    D(11,1,2,3)           -74.3914         -DE/DX =    0.0                 !
 ! D5    D(11,1,2,5)            57.2424         -DE/DX =    0.0                 !
 ! D6    D(11,1,2,9)          -165.9355         -DE/DX =    0.0                 !
 ! D7    D(12,1,2,3)            45.5476         -DE/DX =    0.0                 !
 ! D8    D(12,1,2,5)           177.1814         -DE/DX =    0.0                 !
 ! D9    D(12,1,2,9)           -45.9965         -DE/DX =    0.0                 !
 ! D10   D(1,2,3,4)            128.5044         -DE/DX =    0.0                 !
 ! D11   D(1,2,3,13)           -12.2231         -DE/DX =    0.0                 !
 ! D12   D(5,2,3,4)            -18.7864         -DE/DX =    0.0                 !
 ! D13   D(5,2,3,13)          -159.5139         -DE/DX =    0.0                 !
 ! D14   D(1,2,5,4)           -129.7357         -DE/DX =    0.0                 !
 ! D15   D(1,2,5,6)            125.9505         -DE/DX =    0.0                 !
 ! D16   D(1,2,5,14)            -6.2573         -DE/DX =    0.0                 !
 ! D17   D(3,2,5,4)             18.4008         -DE/DX =    0.0                 !
 ! D18   D(3,2,5,6)            -85.913          -DE/DX =    0.0                 !
 ! D19   D(3,2,5,14)           141.8793         -DE/DX =    0.0                 !
 ! D20   D(9,2,5,4)             80.3282         -DE/DX =    0.0                 !
 ! D21   D(9,2,5,6)            -23.9857         -DE/DX =    0.0                 !
 ! D22   D(9,2,5,14)          -156.1934         -DE/DX =    0.0                 !
 ! D23   D(1,2,9,6)           -126.0144         -DE/DX =    0.0                 !
 ! D24   D(1,2,9,19)            18.4499         -DE/DX =    0.0                 !
 ! D25   D(5,2,9,6)             24.6702         -DE/DX =    0.0                 !
 ! D26   D(5,2,9,19)           169.1344         -DE/DX =    0.0                 !
 ! D27   D(2,3,4,5)             20.2154         -DE/DX =    0.0                 !
 ! D28   D(9,3,4,5)            -40.9042         -DE/DX =    0.0                 !
 ! D29   D(13,3,4,5)           168.2577         -DE/DX =    0.0                 !
 ! D30   D(4,3,9,6)              3.9892         -DE/DX =    0.0                 !
 ! D31   D(4,3,9,19)          -155.2947         -DE/DX =    0.0                 !
 ! D32   D(13,3,9,6)           152.7988         -DE/DX =    0.0                 !
 ! D33   D(13,3,9,19)           -6.485          -DE/DX =    0.0                 !
 ! D34   D(3,4,5,2)            -18.8728         -DE/DX =    0.0                 !
 ! D35   D(3,4,5,6)             70.0116         -DE/DX =    0.0                 !
 ! D36   D(3,4,5,14)          -153.6013         -DE/DX =    0.0                 !
 ! D37   D(2,5,6,7)            145.6965         -DE/DX =    0.0                 !
 ! D38   D(2,5,6,8)            -82.964          -DE/DX =    0.0                 !
 ! D39   D(2,5,6,9)             24.0471         -DE/DX =    0.0                 !
 ! D40   D(4,5,6,7)             54.6037         -DE/DX =    0.0                 !
 ! D41   D(4,5,6,8)           -174.0568         -DE/DX =    0.0                 !
 ! D42   D(4,5,6,9)            -67.0458         -DE/DX =    0.0                 !
 ! D43   D(14,5,6,7)           -77.2485         -DE/DX =    0.0                 !
 ! D44   D(14,5,6,8)            54.091          -DE/DX =    0.0                 !
 ! D45   D(14,5,6,9)           161.102          -DE/DX =    0.0                 !
 ! D46   D(5,6,7,15)          -166.868          -DE/DX =    0.0                 !
 ! D47   D(5,6,7,16)           -45.9607         -DE/DX =    0.0                 !
 ! D48   D(5,6,7,17)            73.5211         -DE/DX =    0.0                 !
 ! D49   D(8,6,7,15)            62.6479         -DE/DX =    0.0                 !
 ! D50   D(8,6,7,16)          -176.4448         -DE/DX =    0.0                 !
 ! D51   D(8,6,7,17)           -56.963          -DE/DX =    0.0                 !
 ! D52   D(9,6,7,15)           -65.6837         -DE/DX =    0.0                 !
 ! D53   D(9,6,7,16)            55.2235         -DE/DX =    0.0                 !
 ! D54   D(9,6,7,17)           174.7053         -DE/DX =    0.0                 !
 ! D55   D(5,6,8,18)           -82.9767         -DE/DX =    0.0                 !
 ! D56   D(7,6,8,18)            51.4529         -DE/DX =    0.0                 !
 ! D57   D(9,6,8,18)          -173.924          -DE/DX =    0.0                 !
 ! D58   D(5,6,9,2)            -24.8914         -DE/DX =    0.0                 !
 ! D59   D(5,6,9,3)             32.3894         -DE/DX =    0.0                 !
 ! D60   D(5,6,9,19)          -169.6496         -DE/DX =    0.0                 !
 ! D61   D(7,6,9,2)           -144.784          -DE/DX =    0.0                 !
 ! D62   D(7,6,9,3)            -87.5033         -DE/DX =    0.0                 !
 ! D63   D(7,6,9,19)            70.4577         -DE/DX =    0.0                 !
 ! D64   D(8,6,9,2)             84.8664         -DE/DX =    0.0                 !
 ! D65   D(8,6,9,3)            142.1471         -DE/DX =    0.0                 !
 ! D66   D(8,6,9,19)           -59.8918         -DE/DX =    0.0                 !
 --------------------------------------------------------------------------------
 GradGradGradGradGradGradGradGradGradGradGradGradGradGradGradGradGradGrad

                          Input orientation:                          
 ---------------------------------------------------------------------
 Center     Atomic      Atomic             Coordinates (Angstroms)
 Number     Number       Type             X           Y           Z
 ---------------------------------------------------------------------
      1          6           0        4.572880    0.962180   -1.204220
      2          6           0        3.099415    0.737930   -1.259950
      3          6           0        1.972001    1.240783   -2.089973
      4          8           0        1.444862   -0.046748   -2.430082
      5          6           0        2.170699   -0.540725   -1.272172
      6          6           0        1.399521    0.055995   -0.047595
      7          6           0       -0.092278   -0.202710    0.060493
      8          8           0        2.086999   -0.237872    1.162044
      9          6           0        1.910564    1.398831   -0.558514
     10          1           0        4.988663    0.588394   -0.262594
     11          1           0        5.089013    0.460796   -2.030622
     12          1           0        4.801688    2.031555   -1.266888
     13          1           0        1.880009    2.053580   -2.799081
     14          1           0        2.449853   -1.592711   -1.331859
     15          1           0       -0.541283    0.450227    0.815417
     16          1           0       -0.576171   -0.026877   -0.902313
     17          1           0       -0.287785   -1.242752    0.353566
     18          1           0        1.832556   -1.128080    1.429319
     19          1           0        1.870139    2.360468   -0.061429
 ---------------------------------------------------------------------
                    Distance matrix (angstroms):
                    1          2          3          4          5
     1  C    0.000000
     2  C    1.491473   0.000000
     3  C    2.761657   1.487570   0.000000
     4  O    3.507872   2.173126   1.432231   0.000000
     5  C    2.834398   1.580387   1.970292   1.453137   0.000000
     6  C    3.497022   2.196470   2.429561   2.385132   1.565369
     7  C    4.971938   3.579844   3.312013   2.930885   2.647890
     8  O    3.635785   2.800576   3.574249   3.654071   2.454411
     9  C    2.774081   1.530415   1.540819   2.410258   2.082992
    10  H    1.095103   2.141573   3.586805   4.202372   3.199230
    11  H    1.095773   2.151566   3.213668   3.700946   3.177239
    12  H    1.095373   2.138047   3.051215   4.115901   3.679504
    13  H    3.314557   2.363644   1.082560   2.176441   3.024297
    14  H    3.324304   2.420535   2.971829   2.146183   1.090029
    15  H    5.522290   4.200548   3.922100   3.837320   3.562985
    16  H    5.251867   3.771309   3.083939   2.533585   2.818889
    17  H    5.560079   4.242601   4.152766   3.490156   3.029853
    18  H    4.337521   3.509857   4.244570   4.026731   2.785208
    19  H    3.250536   2.362245   2.319280   3.403831   3.158030
                    6          7          8          9         10
     6  C    0.000000
     7  C    1.517918   0.000000
     8  O    1.422044   2.442109   0.000000
     9  C    1.524930   2.638083   2.381227   0.000000
    10  H    3.634779   5.152300   3.336460   3.196728   0.000000
    11  H    4.208160   5.626614   4.437718   3.626230   1.775464
    12  H    4.118768   5.541190   4.291799   3.043145   1.768129
    13  H    3.433933   4.142213   4.580841   2.334475   4.271330
    14  H    2.338966   3.214526   2.861259   3.136593   3.513701
    15  H    2.160307   1.094460   2.738885   2.966326   5.635734
    16  H    2.154244   1.091817   3.376175   2.886987   5.635173
    17  H    2.166719   1.098090   2.702409   3.555642   5.619043
    18  H    1.941862   2.536726   0.963664   3.216029   3.971129
    19  H    2.352078   3.230453   2.880153   1.083269   3.592479
                   11         12         13         14         15
    11  H    0.000000
    12  H    1.770064   0.000000
    13  H    3.664041   3.299137   0.000000
    14  H    3.416186   4.320954   3.971511   0.000000
    15  H    6.308746   5.948439   4.636593   4.210853   0.000000
    16  H    5.797001   5.769872   3.736155   3.434119   1.783099
    17  H    6.123429   6.264957   5.050181   3.233851   1.773061
    18  H    5.010013   5.105739   5.291936   2.867237   2.915996
    19  H    4.224644   3.186737   2.754816   4.192575   3.198880
                   16         17         18         19
    16  H    0.000000
    17  H    1.771652   0.000000
    18  H    3.528615   2.380386   0.000000
    19  H    3.520075   4.220432   3.793904   0.000000
 Stoichiometry    C7H10O2
 Framework group  C1[X(C7H10O2)]
 Deg. of freedom    51
 Full point group                 C1      NOp   1
 Largest Abelian subgroup         C1      NOp   1
 Largest concise Abelian subgroup C1      NOp   1
                         Standard orientation:                         
 ---------------------------------------------------------------------
 Center     Atomic      Atomic             Coordinates (Angstroms)
 Number     Number       Type             X           Y           Z
 ---------------------------------------------------------------------
      1          6           0       -2.461226    0.892420   -0.105117
      2          6           0       -1.198328    0.108570    0.018007
      3          6           0       -0.813055   -1.218714    0.568229
      4          8           0       -0.124365   -1.676260   -0.601234
      5          6           0       -0.028485   -0.274766   -0.973025
      6          6           0        0.986647    0.330156    0.053599
      7          6           0        2.351767   -0.320196    0.186135
      8          8           0        1.074328    1.740229   -0.108309
      9          6           0       -0.101606    0.047108    1.083649
     10          1           0       -2.248046    1.940593   -0.339929
     11          1           0       -3.111220    0.489900   -0.890105
     12          1           0       -3.020849    0.870239    0.836251
     13          1           0       -1.325930   -1.937458    1.194569
     14          1           0        0.049161   -0.098650   -2.045926
     15          1           0        2.864717    0.043400    1.081972
     16          1           0        2.248232   -1.405485    0.245239
     17          1           0        2.981507   -0.086245   -0.682482
     18          1           0        1.692923    1.909943   -0.827465
     19          1           0       -0.144485    0.374544    2.115356
 ---------------------------------------------------------------------
 Rotational constants (GHZ):      2.6813801      1.7069401      1.3137270
 1\1\GINC-ALCHEMY-MG\FOpt\RB3LYP\6-31G(2df,p)\C7H10O2\PUCK\27-Jan-2020\
 0\\# b3lyp 6-31G(2df,p) opt Freq\\titel\\0,1\C,4.5728796036,0.96218019
 21,-1.2042195872\C,3.0994154477,0.7379302324,-1.2599495808\C,1.9720011
 179,1.2407830105,-2.089973341\O,1.4448624003,-0.046748317,-2.430081939
 9\C,2.170699355,-0.5407252157,-1.2721723313\C,1.3995206261,0.055994666
 3,-0.0475949675\C,-0.092278493,-0.2027103971,0.0604929657\O,2.08699859
 98,-0.2378716547,1.1620435221\C,1.9105640924,1.3988310246,-0.558513776
 6\H,4.9886628023,0.5883938009,-0.262594366\H,5.0890129362,0.4607964504
 ,-2.0306215001\H,4.8016875873,2.03155482,-1.2668880289\H,1.8800093881,
 2.0535803006,-2.7990810333\H,2.4498532269,-1.5927106938,-1.3318591565\
 H,-0.5412827436,0.4502266143,0.8154174717\H,-0.576171243,-0.026876544,
 -0.9023127464\H,-0.2877846177,-1.2427523935,0.353565959\H,1.8325555003
 ,-1.1280797215,1.4293194861\H,1.8701385933,2.360467815,-0.0614294492\\
 Version=ES64L-G09RevD.01\State=1-A\HF=-423.1193686\RMSD=8.320e-09\RMSF
 =2.852e-05\Dipole=0.1830889,-0.0595028,0.2229832\Quadrupole=-0.3725149
 ,3.8501827,-3.4776678,0.2203232,-2.4013723,-3.3984355\PG=C01 [X(C7H10O
 2)]\\@


 MATERIAL COPIED FROM ONE SCHOLARLY BOOK WITHOUT CREDIT COMPRISES PLAGIARISM.
 MATERIAL COPIED FROM TWO SCHOLARLY BOOKS COMPRISES AN ESSAY.
 MATERIAL COPIED FROM THREE SCHOLARLY BOOKS COMPRISES A DISSERTATION.
 MATERIAL COPIED FROM FOUR SCHOLARLY BOOKS COMPRISES A FIFTH SCHOLARLY BOOK.

                               -- C&EN, 25 FEB 1980
 Job cpu time:       0 days  0 hours  6 minutes 37.7 seconds.
 File lengths (MBytes):  RWF=     52 Int=      0 D2E=      0 Chk=      7 Scr=      1
 Normal termination of Gaussian 09 at Mon Jan 27 17:01:06 2020.
 Link1:  Proceeding to internal job step number  2.
 ----------------------------------------------------------------------
 #N Geom=AllCheck Guess=TCheck SCRF=Check GenChk RB3LYP/6-31G(2df,p) Fr
 eq
 ----------------------------------------------------------------------
 1/10=4,29=7,30=1,38=1,40=1/1,3;
 2/12=2,40=1/2;
 3/5=1,6=6,7=104,11=2,14=-4,16=1,25=1,30=1,70=2,71=2,74=-5,116=1,140=1/1,2,3;
 4/5=101/1;
 5/5=2,98=1/2;
 8/6=4,10=90,11=11/1;
 11/6=1,8=1,9=11,15=111,16=1/1,2,10;
 10/6=1/2;
 6/7=2,8=2,9=2,10=2,18=1,28=1/1;
 7/8=1,10=1,25=1/1,2,3,16;
 1/10=4,30=1/3;
 99//99;
 Structure from the checkpoint file:  "/scratch/puck/g09_3d5d0c63-edf2-45ce-adae-9ee688f84b09/Gau-48794.chk"
 -----
 titel
 -----
 Charge =  0 Multiplicity = 1
 Redundant internal coordinates found in file.
 C,0,4.5728796036,0.9621801921,-1.2042195872
 C,0,3.0994154477,0.7379302324,-1.2599495808
 C,0,1.9720011179,1.2407830105,-2.089973341
 O,0,1.4448624003,-0.046748317,-2.4300819399
 C,0,2.170699355,-0.5407252157,-1.2721723313
 C,0,1.3995206261,0.0559946663,-0.0475949675
 C,0,-0.092278493,-0.2027103971,0.0604929657
 O,0,2.0869985998,-0.2378716547,1.1620435221
 C,0,1.9105640924,1.3988310246,-0.5585137766
 H,0,4.9886628023,0.5883938009,-0.262594366
 H,0,5.0890129362,0.4607964504,-2.0306215001
 H,0,4.8016875873,2.03155482,-1.2668880289
 H,0,1.8800093881,2.0535803006,-2.7990810333
 H,0,2.4498532269,-1.5927106938,-1.3318591565
 H,0,-0.5412827436,0.4502266143,0.8154174717
 H,0,-0.576171243,-0.026876544,-0.9023127464
 H,0,-0.2877846177,-1.2427523935,0.353565959
 H,0,1.8325555003,-1.1280797215,1.4293194861
 H,0,1.8701385933,2.360467815,-0.0614294492
 Recover connectivity data from disk.

 GradGradGradGradGradGradGradGradGradGradGradGradGradGradGradGradGradGrad
 Berny optimization.
 Initialization pass.
                           ----------------------------
                           !    Initial Parameters    !
                           ! (Angstroms and Degrees)  !
 --------------------------                            --------------------------
 ! Name  Definition              Value          Derivative Info.                !
 --------------------------------------------------------------------------------
 ! R1    R(1,2)                  1.4915         calculate D2E/DX2 analytically  !
 ! R2    R(1,10)                 1.0951         calculate D2E/DX2 analytically  !
 ! R3    R(1,11)                 1.0958         calculate D2E/DX2 analytically  !
 ! R4    R(1,12)                 1.0954         calculate D2E/DX2 analytically  !
 ! R5    R(2,3)                  1.4876         calculate D2E/DX2 analytically  !
 ! R6    R(2,5)                  1.5804         calculate D2E/DX2 analytically  !
 ! R7    R(2,9)                  1.5304         calculate D2E/DX2 analytically  !
 ! R8    R(3,4)                  1.4322         calculate D2E/DX2 analytically  !
 ! R9    R(3,9)                  1.5408         calculate D2E/DX2 analytically  !
 ! R10   R(3,13)                 1.0826         calculate D2E/DX2 analytically  !
 ! R11   R(4,5)                  1.4531         calculate D2E/DX2 analytically  !
 ! R12   R(5,6)                  1.5654         calculate D2E/DX2 analytically  !
 ! R13   R(5,14)                 1.09           calculate D2E/DX2 analytically  !
 ! R14   R(6,7)                  1.5179         calculate D2E/DX2 analytically  !
 ! R15   R(6,8)                  1.422          calculate D2E/DX2 analytically  !
 ! R16   R(6,9)                  1.5249         calculate D2E/DX2 analytically  !
 ! R17   R(7,15)                 1.0945         calculate D2E/DX2 analytically  !
 ! R18   R(7,16)                 1.0918         calculate D2E/DX2 analytically  !
 ! R19   R(7,17)                 1.0981         calculate D2E/DX2 analytically  !
 ! R20   R(8,18)                 0.9637         calculate D2E/DX2 analytically  !
 ! R21   R(9,19)                 1.0833         calculate D2E/DX2 analytically  !
 ! A1    A(2,1,10)             110.8486         calculate D2E/DX2 analytically  !
 ! A2    A(2,1,11)             111.6144         calculate D2E/DX2 analytically  !
 ! A3    A(2,1,12)             110.5492         calculate D2E/DX2 analytically  !
 ! A4    A(10,1,11)            108.2681         calculate D2E/DX2 analytically  !
 ! A5    A(10,1,12)            107.6444         calculate D2E/DX2 analytically  !
 ! A6    A(11,1,12)            107.768          calculate D2E/DX2 analytically  !
 ! A7    A(1,2,3)              135.9524         calculate D2E/DX2 analytically  !
 ! A8    A(1,2,5)              134.6274         calculate D2E/DX2 analytically  !
 ! A9    A(1,2,9)              133.2656         calculate D2E/DX2 analytically  !
 ! A10   A(3,2,5)               79.8519         calculate D2E/DX2 analytically  !
 ! A11   A(5,2,9)               84.056          calculate D2E/DX2 analytically  !
 ! A12   A(2,3,4)               96.1747         calculate D2E/DX2 analytically  !
 ! A13   A(2,3,13)             133.1328         calculate D2E/DX2 analytically  !
 ! A14   A(4,3,9)              108.2739         calculate D2E/DX2 analytically  !
 ! A15   A(4,3,13)             119.2178         calculate D2E/DX2 analytically  !
 ! A16   A(9,3,13)             124.7954         calculate D2E/DX2 analytically  !
 ! A17   A(3,4,5)               86.1313         calculate D2E/DX2 analytically  !
 ! A18   A(2,5,4)               91.4128         calculate D2E/DX2 analytically  !
 ! A19   A(2,5,6)               88.5695         calculate D2E/DX2 analytically  !
 ! A20   A(2,5,14)             129.1067         calculate D2E/DX2 analytically  !
 ! A21   A(4,5,6)              104.3412         calculate D2E/DX2 analytically  !
 ! A22   A(4,5,14)             114.3533         calculate D2E/DX2 analytically  !
 ! A23   A(6,5,14)             122.4728         calculate D2E/DX2 analytically  !
 ! A24   A(5,6,7)              118.3534         calculate D2E/DX2 analytically  !
 ! A25   A(5,6,8)              110.3957         calculate D2E/DX2 analytically  !
 ! A26   A(5,6,9)               84.7489         calculate D2E/DX2 analytically  !
 ! A27   A(7,6,8)              112.2923         calculate D2E/DX2 analytically  !
 ! A28   A(7,6,9)              120.2185         calculate D2E/DX2 analytically  !
 ! A29   A(8,6,9)              107.7557         calculate D2E/DX2 analytically  !
 ! A30   A(6,7,15)             110.5259         calculate D2E/DX2 analytically  !
 ! A31   A(6,7,16)             110.202          calculate D2E/DX2 analytically  !
 ! A32   A(6,7,17)             110.8184         calculate D2E/DX2 analytically  !
 ! A33   A(15,7,16)            109.2908         calculate D2E/DX2 analytically  !
 ! A34   A(15,7,17)            107.9333         calculate D2E/DX2 analytically  !
 ! A35   A(16,7,17)            107.9979         calculate D2E/DX2 analytically  !
 ! A36   A(6,8,18)             107.4082         calculate D2E/DX2 analytically  !
 ! A37   A(2,9,6)               91.9264         calculate D2E/DX2 analytically  !
 ! A38   A(2,9,19)             128.5107         calculate D2E/DX2 analytically  !
 ! A39   A(3,9,6)              104.8356         calculate D2E/DX2 analytically  !
 ! A40   A(3,9,19)             123.2732         calculate D2E/DX2 analytically  !
 ! A41   A(6,9,19)             127.9857         calculate D2E/DX2 analytically  !
 ! D1    D(10,1,2,3)           164.8322         calculate D2E/DX2 analytically  !
 ! D2    D(10,1,2,5)           -63.534          calculate D2E/DX2 analytically  !
 ! D3    D(10,1,2,9)            73.2881         calculate D2E/DX2 analytically  !
 ! D4    D(11,1,2,3)           -74.3914         calculate D2E/DX2 analytically  !
 ! D5    D(11,1,2,5)            57.2424         calculate D2E/DX2 analytically  !
 ! D6    D(11,1,2,9)          -165.9355         calculate D2E/DX2 analytically  !
 ! D7    D(12,1,2,3)            45.5476         calculate D2E/DX2 analytically  !
 ! D8    D(12,1,2,5)           177.1814         calculate D2E/DX2 analytically  !
[...]
 836578,-0.08384591,-0.04209168,-0.01916829,0.21364708,0.00015274,0.004
 09549,-0.00620436,-0.02529475,-0.02272688,-0.00646607,-0.07438989,-0.1
 6244365,-0.04507941,0.06980865,0.29329403,0.00068755,-0.00476740,-0.00
 218061,-0.03911943,-0.00429258,-0.02251864,-0.01097017,-0.01757141,-0.
 07329459,0.11942762,0.02073665,0.28327724,-0.00419895,-0.01323607,0.00
 142902,-0.07358132,-0.04526035,0.00913488,0.01202749,0.00706373,-0.005
 58576,-0.09104852,0.02637816,-0.04451359,0.33375862,-0.00205719,0.0067
 6097,0.00145387,-0.01713571,-0.10706758,0.00309204,0.01003550,-0.09355
 349,0.03859303,0.00892139,-0.06826373,0.00334902,-0.08947376,0.7204515
 5,0.00065352,0.00325663,-0.00497798,0.00071253,-0.00657370,-0.03953875
 ,-0.01148466,0.05779604,-0.01181237,-0.03255941,0.03329219,-0.13272943
 ,-0.00664872,0.01085402,0.35659433,-0.00093813,-0.00220460,0.00517870,
 -0.05894738,-0.02518531,0.04868464,0.00072113,0.01319126,-0.00932450,0
 .00713993,0.00262861,-0.02119649,-0.08995265,0.02441649,0.03969660,0.5
 3208382,-0.00015482,-0.00449523,-0.00152716,-0.01377579,-0.00570969,0.
 01442507,-0.00471427,0.01561483,0.01569897,-0.00831276,-0.00723344,0.0
 1290269,0.03681258,-0.08049051,-0.02652996,0.04566781,0.44185373,-0.00
 001356,-0.00062308,0.00135841,0.02188156,0.00351514,-0.01325783,0.0161
 4165,0.02022560,-0.02258185,0.00141578,0.00556231,-0.03571469,0.034226
 35,-0.02313990,-0.08317766,-0.02281974,-0.06157081,0.48712482,0.000219
 32,-0.00025007,0.00014856,-0.00088271,-0.00118104,0.00058185,-0.000326
 58,0.00068917,0.00107385,-0.00249099,0.00033560,0.00023699,-0.01290141
 ,-0.00385945,0.00548048,-0.18481732,-0.01762914,0.01175632,0.47195459,
 -0.00006344,0.00184349,0.00160025,-0.00215344,-0.00315476,-0.00037536,
 0.00073343,-0.00082671,-0.00206662,0.00010526,0.00267412,0.00081587,0.
 01385030,0.00401048,0.00106434,-0.02033698,-0.09046734,-0.00371916,-0.
 01962174,0.55285763,-0.00037426,0.00094712,-0.00121596,0.00458762,0.00
 223502,-0.00264128,0.00035342,-0.00009332,0.00023372,-0.00084430,-0.00
 042228,0.00069327,0.02080890,0.00469109,0.00127420,0.02175227,0.000286
 12,-0.07766562,0.01055593,0.00099383,0.58391533,-0.00006078,0.00030634
 ,-0.00097297,0.00383303,0.00027463,0.00110800,-0.00107962,-0.00227009,
 0.00360961,0.00093407,-0.00016645,0.00150857,0.00474000,-0.00247658,-0
 .00198121,-0.10872354,-0.01773029,-0.04973563,-0.02437445,0.00933129,-
 0.04601713,0.17786670,0.00030597,0.00038168,0.00023036,0.00329344,-0.0
 0121379,-0.00272105,-0.00129711,-0.01129850,0.00143254,0.00219800,0.00
 291498,-0.00613641,-0.00777585,0.00492029,-0.00897653,0.01167914,-0.08
 376587,0.04112177,-0.00031301,0.00201186,0.00042091,0.13065821,0.52104
 036,-0.00050638,0.00066384,-0.00017458,-0.00356822,-0.00178651,0.00229
 129,-0.00149217,-0.00176690,-0.00264304,0.00295221,0.00455171,-0.01270
 881,-0.02037974,0.01146110,-0.03299520,-0.07165072,0.00569043,-0.17200
 370,-0.00916128,0.00544236,-0.01265349,0.08052767,-0.16797455,0.305563
 31,-0.01166431,0.01192246,0.01696194,-0.13083952,0.03769628,0.03271194
 ,-0.01973768,-0.01606181,0.03131547,0.00857701,-0.00197805,-0.01595796
 ,0.00155633,0.01134202,0.00744185,-0.06923211,-0.04847675,0.00673249,-
 0.00785043,-0.02691385,0.00919304,0.00544710,0.01031218,-0.00450312,0.
 27251466,-0.00084712,0.00280344,0.01006294,0.03703364,-0.06661951,-0.0
 2747574,-0.01414812,-0.06358015,-0.00042541,0.00729106,-0.02417325,-0.
 02497641,0.00829712,-0.07372047,-0.04534877,-0.04252580,-0.15623776,0.
 02692595,-0.00292271,-0.00051602,0.00076820,0.00251290,-0.00995403,0.0
 0941755,0.01277391,0.66185928,-0.00324720,0.00343266,0.00280111,0.0777
 2786,-0.05479654,-0.05670359,-0.01248040,0.00355269,-0.16523592,-0.007
 20408,-0.01848544,-0.01239936,0.00813965,-0.02831510,-0.00035576,0.005
 63880,0.01244643,-0.07510081,0.00371496,0.00329549,0.00025662,0.003467
 02,0.04517927,-0.01964189,-0.09028648,0.15674873,0.44718390,-0.0796229
 6,0.03320160,-0.08121717,-0.01886479,0.01467906,-0.03158627,-0.0001185
 5,-0.00172847,0.00124155,-0.00165823,-0.00281781,0.00042728,0.00016963
 ,0.00011384,-0.00121880,-0.00035539,0.00074999,-0.00100867,0.00010406,
 -0.00004130,0.00014051,0.00101979,-0.00014594,0.00047500,0.00149035,0.
 00076404,0.00105090,0.09095849,0.03352248,-0.07789722,0.07756867,-0.00
 235770,0.00179021,-0.00570153,-0.00102488,0.00082699,0.00005740,0.0001
 8512,-0.00016203,-0.00010570,0.00050672,0.00051534,-0.00039272,-0.0000
 0459,0.00031153,0.00007121,0.00002474,-0.00008258,-0.00005691,0.000221
 63,-0.00014936,-0.00013120,0.00004499,-0.00005032,0.00052707,-0.036478
 97,0.08029453,-0.08199538,0.07809539,-0.24247943,-0.00263439,-0.000796
 36,0.00032329,0.00247402,-0.00009824,0.00165431,-0.00015359,-0.0007530
 4,0.00003057,-0.00025474,0.00043637,-0.00024647,-0.00022631,0.00023765
 ,0.00003879,0.00002258,-0.00005710,0.00004901,0.00012511,-0.00021179,0
 .00000459,-0.00104343,0.00006619,0.00076133,0.09208417,-0.08567299,0.2
 6121467,-0.09939791,0.05462327,0.08901180,-0.01986070,0.01786336,0.026
 17901,0.00136090,0.00118094,-0.00009275,0.00037592,-0.00044510,-0.0001
 4313,0.00046455,-0.00053137,0.00007202,-0.00092223,0.00129691,-0.00068
 676,0.00003272,-0.00079414,0.00023744,0.00024964,-0.00020727,0.0001872
 8,-0.00234785,-0.00310227,-0.00083148,0.00556813,-0.00644710,-0.008523
 81,0.11257378,0.05448654,-0.10230441,-0.09081175,-0.00233183,0.0025190
 4,0.00533387,0.00025298,0.00010491,-0.00036458,0.00038008,-0.00007623,
 0.00025832,0.00035663,0.00030879,0.00005000,0.00042164,0.00032763,0.00
 030939,-0.00001472,-0.00003983,-0.00010766,-0.00010005,-0.00001903,-0.
 00003018,-0.00152099,0.00101660,0.00015573,-0.00610029,0.00517248,0.00
 912919,-0.06031029,0.10686478,0.08890886,-0.09124388,-0.19700754,0.000
 49137,0.00236163,0.00277840,0.00060010,0.00011572,0.00068768,0.0004605
 9,0.00037515,0.00016757,0.00021172,-0.00045373,0.00020452,-0.00021746,
 0.00011399,-0.00009279,0.00000955,0.00000674,-0.00001084,0.00017278,0.
 00005520,-0.00001428,-0.00206061,0.00027273,0.00109576,0.01248471,-0.0
 1400614,-0.02046906,-0.09928641,0.10059227,0.21109425,-0.05584231,-0.0
 4980304,0.00320722,-0.00989924,-0.03735855,0.00210849,0.00128898,-0.00
 108755,-0.00097269,-0.00115378,0.00134482,-0.00147557,-0.00134727,0.00
 241801,0.00116293,-0.00053072,-0.00108037,-0.00052026,-0.00009721,0.00
 047766,0.00037612,0.00017419,0.00003168,0.00039582,0.00155715,0.000349
 46,0.00057965,0.00206633,0.01197707,0.00045571,0.00278941,0.01456867,-
 0.00207023,0.06215112,-0.05032894,-0.29648210,0.01494057,-0.00255850,-
 0.00531266,-0.00015050,-0.00012996,0.00000960,-0.00034759,-0.00039434,
 0.00054152,-0.00060332,0.00189987,0.00233123,0.00051801,-0.00028585,0.
 00002819,0.00001505,-0.00003011,0.00007255,0.00013759,-0.00007440,0.00
 000681,0.00018663,-0.00027151,0.00056292,0.00027531,-0.00166491,-0.010
 40553,-0.00017109,-0.00254855,-0.01378065,0.00163668,0.05724692,0.3222
 7224,0.00337142,0.01495217,-0.04574026,-0.00061091,-0.00189890,-0.0015
 7995,0.00058304,-0.00044486,0.00070838,0.00006030,-0.00008409,-0.00016
 088,-0.00034431,0.00019677,0.00080157,-0.00041146,0.00004628,-0.000239
 61,0.00003192,0.00000202,0.00009374,0.00026193,-0.00003756,-0.00004973
 ,-0.00037350,0.00037634,0.00038458,0.00623778,0.02776108,-0.00099361,-
 0.00569949,-0.02447792,0.00163768,-0.00318387,-0.01639767,0.04538485,0
 .00202540,-0.00030180,0.00147899,0.00905552,0.01605246,-0.01059729,-0.
 04662984,0.01710855,-0.02809527,0.00159664,-0.00792537,0.01150194,-0.0
 0270854,-0.00012731,-0.00467282,0.00071086,0.00184290,0.00238103,0.000
 27891,-0.00024659,-0.00020765,-0.00001186,-0.00090082,0.00048725,-0.00
 223811,-0.00922651,0.00464414,-0.00020394,-0.00021471,0.00003795,-0.00
 037967,0.00003825,0.00009649,-0.00040324,-0.00043058,0.00006982,0.0363
 2361,-0.00018079,0.00093792,-0.00017364,-0.00109170,-0.00251427,0.0011
 5196,0.01274643,-0.20865587,0.14402430,0.00511966,-0.01637585,0.015766
 25,-0.00190552,-0.00544741,-0.00163006,-0.00134982,-0.00149158,-0.0019
 6692,-0.00010467,0.00013142,0.00006500,0.00017132,0.00135856,-0.000009
 43,0.00152518,0.00817809,-0.00479453,-0.00002651,-0.00006645,-0.000033
 10,0.00003298,0.00001829,0.00003922,0.00049379,0.00008946,0.00003913,-
 0.01615365,0.22410596,-0.00032299,0.00014449,0.00098764,0.00478377,-0.
 00051636,-0.00384568,-0.02388331,0.14979014,-0.17807411,0.00275388,-0.
 00944216,0.01055008,-0.00182959,-0.00156227,-0.00145979,-0.00339322,-0
 .00297796,-0.00117056,-0.00012213,0.00004763,-0.00011800,0.00040478,0.
 00224057,-0.00042850,-0.00261777,0.01764705,-0.00763695,0.00018583,-0.
 00001361,-0.00000577,-0.00035514,-0.00006254,0.00001615,-0.00014945,-0
 .00003994,-0.00008105,0.02322790,-0.15450215,0.18004811,0.00126588,0.0
 0080286,-0.00016221,0.01203951,-0.00930166,-0.00000189,-0.00402946,-0.
 00019633,-0.00184614,-0.00099106,0.01555164,0.00173003,-0.07111055,0.0
 5890521,0.00623019,-0.00025389,0.01068856,-0.00562484,0.00065983,0.000
 74166,0.00003700,0.00064089,-0.00103404,0.00021716,-0.00025760,-0.0000
 5611,0.00052333,-0.00025038,0.00009968,-0.00011830,-0.00024959,0.00009
 810,0.00012211,-0.00026172,-0.00001252,0.00005276,0.00153012,0.0000243
 9,0.00040521,0.06007544,0.00035711,0.00048588,-0.00019711,0.00871755,-
 0.00229135,-0.00138094,0.00079607,-0.00127733,0.00145457,0.00192668,-0
 .00486935,0.00368442,0.06499368,-0.30709161,-0.01891281,-0.00216603,-0
 .00488529,0.00327765,0.00012827,0.00019388,-0.00009345,-0.00096882,0.0
 0180581,-0.00150715,0.00128835,-0.00302233,-0.00237383,-0.00039381,-0.
 00004631,-0.00012759,-0.00044019,-0.00005942,0.00013080,-0.00011676,-0
 .00002633,0.00002179,0.00052428,-0.00049411,-0.00040181,-0.07584171,0.
 32235370,-0.00016885,0.00008120,0.00073004,0.00179979,0.00077130,-0.00
 050001,-0.00374653,0.00022790,-0.00473528,-0.00674579,0.02965635,-0.00
 023961,0.00686627,-0.02715025,-0.04867287,0.00205884,-0.02001082,0.005
 35099,-0.00095865,-0.00044453,-0.00018864,-0.00096557,0.00190913,0.002
 78574,0.00223895,-0.00284575,-0.00453430,0.00016821,-0.00002111,0.0000
 0153,-0.00009687,0.00000997,-0.00001973,0.00005808,0.00000962,-0.00010
 078,0.00024567,0.00163124,0.00063182,-0.00162411,0.01663435,0.04916368
 ,0.00012444,-0.00062980,0.00004459,-0.00064646,0.00014599,0.00085329,-
 0.00001522,0.00035520,0.00026814,0.00119703,-0.00053814,-0.00010659,-0
 .00472492,-0.00174716,-0.00318639,-0.01553823,0.02338721,0.02681496,-0
 .08791029,0.06376549,0.07238130,0.00354548,-0.00115897,-0.00109665,0.0
 0108469,-0.00046929,-0.00081330,-0.00002421,0.00004160,-0.00000190,0.0
 0006013,0.00004577,-0.00000031,-0.00021083,-0.00006015,-0.00001945,0.0
 0012792,-0.00004478,0.00005428,-0.00036062,0.00003586,0.00040595,0.095
 92576,-0.00000720,-0.00007830,-0.00009141,0.00006825,0.00040242,0.0002
 3368,0.00002017,0.00021189,0.00015474,-0.00011860,-0.00008756,-0.00016
 489,-0.00196265,0.00072867,0.00065553,-0.00271093,0.00367465,0.0047401
 4,0.06392752,-0.14201653,-0.11032149,0.00033447,0.00015188,0.00082421,
 0.00100623,0.00066820,0.00019672,0.00000747,-0.00000535,0.00000235,0.0
 0005389,0.00000464,-0.00000488,-0.00001330,-0.00001217,-0.00001252,-0.
 00003091,-0.00000027,0.00000257,-0.00027469,-0.00002968,0.00024069,-0.
 06953269,0.15136050,-0.00004263,0.00013009,-0.00000308,0.00011855,0.00
 021309,-0.00001451,-0.00011294,-0.00060846,-0.00021760,0.00124655,0.00
 016843,0.00015007,-0.00070714,0.00045359,0.00016630,0.00003187,-0.0006
 4877,-0.00326054,0.07342583,-0.11006534,-0.17198621,0.00023405,0.00005
 866,0.00131161,-0.00000602,0.00000957,0.00029086,0.00000737,-0.0000171
 0,0.00000334,-0.00000994,-0.00001628,-0.00001193,0.00004775,0.00001281
 ,-0.00000883,0.00002397,0.00005211,-0.00000408,0.00011378,0.00000959,-
 0.00006457,-0.08217392,0.12099664,0.18438182,-0.00007478,0.00002189,-0
 .00006015,0.00089907,0.00062233,-0.00003591,-0.00111072,-0.00175532,0.
 00005773,0.00165926,0.00001491,0.00097028,-0.00026546,0.00110177,-0.00
 140086,-0.00932658,0.00690495,-0.02994375,-0.09897680,0.01858181,-0.10
 270516,-0.01012495,-0.00032226,-0.00219012,0.00131894,-0.00007486,0.00
 008521,0.00015613,-0.00000784,0.00003377,0.00005563,-0.00001214,-0.000
 00389,0.00004143,0.00001206,0.00000592,0.00004174,0.00014751,0.0001104
 1,0.00000736,-0.00007815,0.00023073,0.00606862,-0.00341385,0.01225501,
 0.10740885,0.00001161,-0.00004941,-0.00010189,0.00006389,-0.00004751,-
 0.00007363,-0.00045894,0.00024772,0.00027096,-0.00038620,-0.00078715,0
 .00007875,0.00045646,0.00027305,0.00031124,-0.00104455,-0.00128526,-0.
 00539055,0.01946603,-0.05437895,0.03911459,-0.00167062,0.00179860,-0.0
 0026865,0.00034480,-0.00001868,-0.00014916,-0.00001201,-0.00000240,0.0
 0000849,0.00003423,0.00000049,-0.00000238,-0.00001312,-0.00000233,0.00
 000220,-0.00007476,-0.00005528,0.00002580,0.00003009,-0.00002829,0.000
 04133,-0.01018983,0.00330017,-0.01735382,-0.02010347,0.05571446,-0.000
 03873,-0.00011847,-0.00010102,-0.00041319,0.00023369,0.00025206,0.0001
 0721,0.00030914,0.00005041,0.00237239,0.00000620,-0.00160635,-0.000554
 68,-0.00036652,-0.00038175,-0.00029222,-0.00018645,0.00175342,-0.10703
 668,0.03939790,-0.25789116,0.00121269,-0.00029579,0.00170687,0.0000817
 4,-0.00022994,0.00025042,-0.00000587,-0.00000182,0.00000537,0.00002349
 ,0.00000682,0.00000965,-0.00003970,-0.00001621,-0.00000080,-0.00003816
 ,-0.00004968,0.00002431,-0.00008769,0.00000150,-0.00001483,-0.00932113
 ,0.00467989,-0.01710692,0.11614832,-0.04340738,0.27894862,0.00001675,0
 .00040360,0.00061699,-0.00088092,-0.00137139,0.00000715,0.00028100,-0.
 00029163,-0.00082795,0.00046592,0.00075380,0.00013176,0.00111658,0.000
 47832,-0.00015523,-0.00486890,-0.03519811,0.00857628,-0.05439775,-0.03
 954256,0.01051307,0.00319926,0.00038653,0.00169126,-0.00554618,0.00076
 570,-0.00025134,-0.00003654,-0.00002094,-0.00004173,-0.00028101,0.0000
 0454,0.00000429,0.00008031,0.00000323,-0.00002186,-0.00011830,0.000045
 31,0.00013308,-0.00011589,0.00034905,0.00025464,0.00169115,0.01246073,
 -0.00465773,0.00210483,0.01430047,-0.00234490,0.05849014,0.00005163,0.
 00010652,0.00028660,-0.00054652,-0.00020117,0.00004534,0.00012457,-0.0
 0009193,-0.00026275,-0.00010447,0.00029906,0.00013885,-0.00063481,0.00
 038414,-0.00005868,-0.00003857,-0.00716056,0.00322852,-0.03918917,-0.2
 7452320,0.06408214,0.00045272,0.00182173,-0.00149021,-0.00060287,0.002
 28930,-0.00051026,-0.00004383,-0.00001326,-0.00003273,-0.00013012,-0.0
 0002207,0.00000998,-0.00000468,-0.00002052,-0.00001253,-0.00002341,0.0
 0002860,0.00004884,-0.00027512,0.00015301,0.00041835,-0.00316658,-0.01
 793496,0.00620692,-0.00057485,-0.00485984,0.00039033,0.04611210,0.2997
 7858,0.00000023,-0.00012232,-0.00012699,0.00033191,0.00042069,0.000479
 48,-0.00063814,-0.00024261,0.00033062,0.00068477,-0.00043330,-0.000585
 34,-0.00055500,0.00067278,0.00028682,-0.00015952,0.00298201,-0.0034170
 7,0.01102536,0.06416736,-0.06389350,0.00009594,-0.00123818,0.00061702,
 0.00061796,-0.00020861,0.00065144,0.00001214,0.00000291,0.00000766,0.0
 0007713,-0.00000186,-0.00001509,-0.00002252,0.00000288,0.00000156,0.00
 000773,-0.00002200,-0.00001186,0.00013423,-0.00017913,-0.00002848,-0.0
 0436282,-0.02138280,0.00634021,0.00559035,0.02736123,-0.00579039,-0.01
 278931,-0.07197230,0.06491831,0.00012861,0.00005749,0.00012959,0.00021
 074,-0.00061941,-0.00009939,0.00066834,0.00056538,0.00007530,-0.000749
 51,0.00034682,-0.00004743,-0.00010172,-0.00189654,-0.00004051,0.003340
 41,0.02233513,-0.01048439,0.00097355,0.00257285,-0.00017077,-0.0572413
 6,-0.14638497,0.02726131,-0.00177263,0.00132379,-0.00239582,0.00009059
 ,-0.00008669,-0.00009859,-0.00007295,-0.00001014,0.00003593,-0.0000160
 2,0.00003210,-0.00003745,0.00024626,-0.00000396,-0.00006544,0.00020099
 ,0.00021857,0.00021320,-0.00031476,0.00008560,0.00000794,0.00015859,-0
 .00069143,0.00030836,-0.00081618,-0.00150730,-0.00027225,0.05507149,-0
 .00004693,0.00017039,-0.00003527,0.00007708,0.00012154,-0.00099318,0.0
 0021007,-0.00198295,-0.00116770,0.00048813,0.00077879,-0.00088049,-0.0
 0126944,0.00277542,-0.00002791,-0.00575398,-0.01124920,0.00130391,-0.0
 0003827,0.00203660,-0.00265430,-0.11917828,-0.43335295,0.13574494,0.00
 245489,0.00019646,0.00438825,-0.00010815,-0.00003234,0.00004942,-0.000
 02275,0.00000170,-0.00000976,0.00004235,0.00001065,-0.00000247,-0.0002
 1288,0.00018897,0.00016376,0.00000081,-0.00033967,0.00049433,0.0002766
 7,-0.00039095,0.00015607,-0.00099696,0.00017414,-0.00032788,0.00060807
 ,-0.00001446,0.00010101,0.12348846,0.44075131,0.00002560,-0.00023721,-
 0.00002232,-0.00086901,0.00018978,0.00096002,-0.00004594,0.00293850,-0
 .00051962,0.00009656,-0.00101288,0.00141667,0.00059394,0.00182850,0.00
 050720,0.00956941,0.03799498,-0.01618252,0.00013518,0.00005581,0.00159
 570,0.00714981,0.09677071,-0.06182092,-0.00245311,0.00018342,-0.006497
 34,0.00006909,0.00004537,0.00000904,0.00003690,0.00002538,0.00000345,-
 0.00009138,-0.00004454,0.00001166,0.00021974,-0.00045875,-0.00052365,0
 .00014625,-0.00075973,-0.00058325,0.00014002,-0.00047089,0.00006520,0.
 00066756,-0.00039336,-0.00002937,-0.00103294,-0.00054242,0.00034116,-0
 .01431514,-0.13604579,0.08118931,0.00222981,-0.00042363,-0.00185076,0.
 00911669,0.01777949,0.00778640,-0.00496908,-0.00741460,0.00213066,0.00
 203123,-0.00376020,-0.00309166,-0.00189191,0.00157251,0.00189850,0.000
 41090,-0.00261375,-0.00908882,0.00080296,-0.00044571,-0.00061734,-0.00
 003360,0.00067507,0.00035343,-0.04205982,0.00226117,0.01193857,-0.0004
 8853,0.00001939,-0.00014115,-0.00001891,-0.00025275,0.00004041,-0.0003
 8657,-0.00040387,0.00002741,0.00075652,0.00055482,0.00067991,0.0014607
 3,0.00067000,-0.00023395,-0.00007967,0.00010050,0.00019765,-0.00004116
 ,-0.00006265,-0.00008124,-0.00038428,0.00010127,0.00022178,-0.00000444
 ,-0.00001888,-0.00004254,0.03354913,-0.00034969,0.00094617,0.00024070,
 -0.00397941,-0.00468412,0.00053355,0.00036301,0.00352384,0.00211845,-0
 .00043237,0.00260113,0.00176779,0.00090317,-0.00782512,0.00065315,0.00
 560206,-0.00733884,-0.01388624,0.00058278,0.00017391,0.00000780,0.0003
 7205,0.00154097,0.00098202,0.00511454,-0.27968177,-0.12077348,0.000045
 98,0.00000208,-0.00007101,-0.00010645,-0.00003770,0.00001066,0.0005269
 3,0.00011713,-0.00002927,0.00030287,0.00006382,-0.00059205,0.00004919,
 -0.00053117,-0.00165330,-0.00051639,0.00005274,0.00024219,-0.00006752,
 0.00000646,-0.00002533,-0.00024681,-0.00001894,0.00009226,0.00017426,0
 .00015654,-0.00006686,-0.00833820,0.29093288,0.00011721,-0.00029924,0.
 00133266,-0.00184782,0.00159154,-0.00507263,0.00326572,-0.01848307,-0.
 00168889,0.00074550,-0.00596595,-0.00214714,-0.00003746,0.00390559,-0.
 00348692,-0.00291949,0.01062732,0.00823883,-0.00092062,-0.00016147,0.0
 0015311,-0.00020546,-0.00182728,0.00085371,0.01200664,-0.12096803,-0.1
 0557011,0.00045223,0.00008713,0.00009084,-0.00009926,0.00000184,-0.000
 05386,0.00013390,0.00003571,-0.00006852,-0.00081143,0.00087106,0.00110
 189,-0.00024687,0.00071886,0.00101855,0.00011993,-0.00027829,-0.000031
 16,0.00018455,-0.00007376,-0.00007853,0.00019448,0.00002600,-0.0001055
 7,-0.00000447,-0.00025694,0.00007960,-0.01012726,0.13044898,0.10543411
 \\-0.00006478,0.00002599,-0.00000746,0.00001437,0.00002509,0.00003709,
 0.00004303,-0.00007536,-0.00001365,-0.00001875,0.00002781,0.00005010,0
 .00001542,0.00003955,-0.00002313,-0.00004444,0.00003668,0.00005406,0.0
 0003865,-0.00002342,-0.00001770,-0.00001937,-0.00002837,-0.00003874,0.
 00000631,-0.00008889,0.00000229,0.00001804,0.00001709,0.00000328,0.000
 01915,0.00000922,0.00000861,0.00000378,0.00001061,0.00000323,-0.000022
 69,-0.00000272,-0.00003351,0.00001653,-0.00002357,-0.00001236,-0.00001
 669,0.00000440,-0.00001265,0.00000058,-0.00000759,-0.00000450,-0.00000
 695,-0.00000130,0.00001033,0.00000675,0.00002423,0.00000302,0.00001106
 ,0.00003054,-0.00000832\\\@


 AND ALL THIS SCIENCE I DON'T UNDERSTAND
 IT'S JUST MY JOB FIVE DAYS A WEEK

                           -- ELTON JOHN, "ROCKET MAN"
 Job cpu time:       0 days  0 hours 44 minutes 56.3 seconds.
 File lengths (MBytes):  RWF=    152 Int=      0 D2E=      0 Chk=      8 Scr=      1
 Normal termination of Gaussian 09 at Mon Jan 27 17:46:00 2020.
