 Entering Gaussian System, Link 0=/home/puck/opt/gaussian_09/g09
 Input=dsC7O2H10nsd_5329.com
 Output=dsC7O2H10nsd_5329.log
 Initial command:
 /home/puck/opt/gaussian_09/l1.exe "/scratch/puck/g09_8ed972d0-c15d-4a97-812d-381a00090487/Gau-158001.inp" -scrdir="/scratch/puck/g09_8ed972d0-c15d-4a97-812d-381a00090487/"
 Entering Link 1 = /home/puck/opt/gaussian_09/l1.exe PID=    158003.
  
 Copyright (c) 1988,1990,1992,1993,1995,1998,2003,2009,2013,
            Gaussian, Inc.  All Rights Reserved.
  
 This is part of the Gaussian(R) 09 program.  It is based on
 the Gaussian(R) 03 system (copyright 2003, Gaussian, Inc.),
 the Gaussian(R) 98 system (copyright 1998, Gaussian, Inc.),
 the Gaussian(R) 94 system (copyright 1995, Gaussian, Inc.),
 the Gaussian 92(TM) system (copyright 1992, Gaussian, Inc.),
 the Gaussian 90(TM) system (copyright 1990, Gaussian, Inc.),
 the Gaussian 88(TM) system (copyright 1988, Gaussian, Inc.),
 the Gaussian 86(TM) system (copyright 1986, Carnegie Mellon
 University), and the Gaussian 82(TM) system (copyright 1983,
 Carnegie Mellon University). Gaussian is a federally registered
 trademark of Gaussian, Inc.
  
 This software contains proprietary and confidential information,
 including trade secrets, belonging to Gaussian, Inc.
  
 This software is provided under written license and may be
 used, copied, transmitted, or stored only in accord with that
 written license.
  
 The following legend is applicable only to US Government
 contracts under FAR:
  
                    RESTRICTED RIGHTS LEGEND
  
 Use, reproduction and disclosure by the US Government is
 subject to restrictions as set forth in subparagraphs (a)
 and (c) of the Commercial Computer Software - Restricted
 Rights clause in FAR 52.227-19.
  
 Gaussian, Inc.
 340 Quinnipiac St., Bldg. 40, Wallingford CT 06492
  
  
 ---------------------------------------------------------------
 Warning -- This program may not be used in any manner that
 competes with the business of Gaussian, Inc. or will provide
 assistance to any competitor of Gaussian, Inc.  The licensee
 of this program is prohibited from giving any competitor of
 Gaussian, Inc. access to this program.  By using this program,
 the user acknowledges that Gaussian, Inc. is engaged in the
 business of creating and licensing software in the field of
 computational chemistry and represents and warrants to the
 licensee that it is not a competitor of Gaussian, Inc. and that
 it will not use this program in any manner prohibited above.
 ---------------------------------------------------------------
  

 Cite this work as:
 Gaussian 09, Revision D.01,
 M. J. Frisch, G. W. Trucks, H. B. Schlegel, G. E. Scuseria, 
 M. A. Robb, J. R. Cheeseman, G. Scalmani, V. Barone, B. Mennucci, 
 G. A. Petersson, H. Nakatsuji, M. Caricato, X. Li, H. P. Hratchian, 
 A. F. Izmaylov, J. Bloino, G. Zheng, J. L. Sonnenberg, M. Hada, 
 M. Ehara, K. Toyota, R. Fukuda, J. Hasegawa, M. Ishida, T. Nakajima, 
 Y. Honda, O. Kitao, H. Nakai, T. Vreven, J. A. Montgomery, Jr., 
 J. E. Peralta, F. Ogliaro, M. Bearpark, J. J. Heyd, E. Brothers, 
 K. N. Kudin, V. N. Staroverov, T. Keith, R. Kobayashi, J. Normand, 
 K. Raghavachari, A. Rendell, J. C. Burant, S. S. Iyengar, J. Tomasi, 
 M. Cossi, N. Rega, J. M. Millam, M. Klene, J. E. Knox, J. B. Cross, 
 V. Bakken, C. Adamo, J. Jaramillo, R. Gomperts, R. E. Stratmann, 
 O. Yazyev, A. J. Austin, R. Cammi, C. Pomelli, J. W. Ochterski, 
 R. L. Martin, K. Morokuma, V. G. Zakrzewski, G. A. Voth, 
 P. Salvador, J. J. Dannenberg, S. Dapprich, A. D. Daniels, 
 O. Farkas, J. B. Foresman, J. V. Ortiz, J. Cioslowski, 
 and D. J. Fox, Gaussian, Inc., Wallingford CT, 2013.
 
 ******************************************
 Gaussian 09:  ES64L-G09RevD.01 24-Apr-2013
                28-Jan-2020 
 ******************************************
 -----------------------------
 # b3lyp 6-31G(2df,p) opt Freq
 -----------------------------
 1/14=-1,18=20,19=15,26=3,38=1/1,3;
 2/9=110,12=2,17=6,18=5,40=1/2;
 3/5=1,6=6,7=104,11=2,16=1,25=1,30=1,71=1,74=-5/1,2,3;
 4//1;
 5/5=2,38=5/2;
 6/7=2,8=2,9=2,10=2,28=1/1;
 7//1,2,3,16;
 1/14=-1,18=20,19=15,26=3/3(2);
 2/9=110/2;
 99//99;
 2/9=110/2;
 3/5=1,6=6,7=104,11=2,16=1,25=1,30=1,71=1,74=-5/1,2,3;
 4/5=5,16=3,69=1/1;
 5/5=2,38=5/2;
 7//1,2,3,16;
 1/14=-1,18=20,19=15,26=3/3(-5);
 2/9=110/2;
 6/7=2,8=2,9=2,10=2,19=2,28=1/1;
 99/9=1/99;
 -----
 titel
 -----
 Symbolic Z-matrix:
 Charge =  0 Multiplicity = 1
 C                     2.87775   3.2503    0.63215 
 C                     1.88944   2.51733  -0.28788 
 C                     0.91547   1.58995   0.39052 
 C                     0.93289   0.34455  -0.0971 
 C                     0.0935   -0.8061    0.36791 
 O                     0.8824   -1.92377   0.76905 
 C                     1.94522   0.19179  -1.20627 
 C                     2.60942   1.57304  -1.2755 
 O                     3.54826   1.87658  -1.96375 
 H                     2.35956   3.97389   1.26831 
 H                     3.40647   2.54482   1.281 
 H                     3.6188    3.7813    0.02905 
 H                     1.35973   3.27403  -0.88725 
 H                     0.26378   1.92024   1.19395 
 H                    -0.58353  -0.47778   1.17089 
 H                    -0.5301   -1.18158  -0.45276 
 H                     1.43272  -1.6358    1.50519 
 H                     2.68564  -0.59366  -1.01813 
 H                     1.48781  -0.0522   -2.17527 
 

 GradGradGradGradGradGradGradGradGradGradGradGradGradGradGradGradGradGrad
 Berny optimization.
 Initialization pass.
                           ----------------------------
                           !    Initial Parameters    !
                           ! (Angstroms and Degrees)  !
 --------------------------                            --------------------------
 ! Name  Definition              Value          Derivative Info.                !
 --------------------------------------------------------------------------------
 ! R1    R(1,2)                  1.5364         estimate D2E/DX2                !
 ! R2    R(1,10)                 1.094          estimate D2E/DX2                !
 ! R3    R(1,11)                 1.0947         estimate D2E/DX2                !
 ! R4    R(1,12)                 1.0931         estimate D2E/DX2                !
 ! R5    R(2,3)                  1.5063         estimate D2E/DX2                !
 ! R6    R(2,8)                  1.5445         estimate D2E/DX2                !
 ! R7    R(2,13)                 1.1011         estimate D2E/DX2                !
 ! R8    R(3,4)                  1.3376         estimate D2E/DX2                !
 ! R9    R(3,14)                 1.086          estimate D2E/DX2                !
 ! R10   R(4,5)                  1.4983         estimate D2E/DX2                !
 ! R11   R(4,7)                  1.5094         estimate D2E/DX2                !
 ! R12   R(5,6)                  1.4257         estimate D2E/DX2                !
 ! R13   R(5,15)                 1.1004         estimate D2E/DX2                !
 ! R14   R(5,16)                 1.097          estimate D2E/DX2                !
 ! R15   R(6,17)                 0.9632         estimate D2E/DX2                !
 ! R16   R(7,8)                  1.5342         estimate D2E/DX2                !
 ! R17   R(7,18)                 1.0957         estimate D2E/DX2                !
 ! R18   R(7,19)                 1.099          estimate D2E/DX2                !
 ! R19   R(8,9)                  1.203          estimate D2E/DX2                !
 ! A1    A(2,1,10)             111.0438         estimate D2E/DX2                !
 ! A2    A(2,1,11)             110.9889         estimate D2E/DX2                !
 ! A3    A(2,1,12)             109.7223         estimate D2E/DX2                !
 ! A4    A(10,1,11)            108.0818         estimate D2E/DX2                !
 ! A5    A(10,1,12)            108.7023         estimate D2E/DX2                !
 ! A6    A(11,1,12)            108.2199         estimate D2E/DX2                !
 ! A7    A(1,2,3)              116.1021         estimate D2E/DX2                !
 ! A8    A(1,2,8)              112.008          estimate D2E/DX2                !
 ! A9    A(1,2,13)             107.9127         estimate D2E/DX2                !
 ! A10   A(3,2,8)              102.298          estimate D2E/DX2                !
 ! A11   A(3,2,13)             110.928          estimate D2E/DX2                !
 ! A12   A(8,2,13)             107.2379         estimate D2E/DX2                !
 ! A13   A(2,3,4)              113.6184         estimate D2E/DX2                !
 ! A14   A(2,3,14)             122.2756         estimate D2E/DX2                !
 ! A15   A(4,3,14)             124.105          estimate D2E/DX2                !
 ! A16   A(3,4,5)              126.4857         estimate D2E/DX2                !
 ! A17   A(3,4,7)              111.7674         estimate D2E/DX2                !
 ! A18   A(5,4,7)              121.7412         estimate D2E/DX2                !
 ! A19   A(4,5,6)              112.296          estimate D2E/DX2                !
 ! A20   A(4,5,15)             110.0005         estimate D2E/DX2                !
 ! A21   A(4,5,16)             110.4363         estimate D2E/DX2                !
 ! A22   A(6,5,15)             111.6559         estimate D2E/DX2                !
 ! A23   A(6,5,16)             104.8758         estimate D2E/DX2                !
 ! A24   A(15,5,16)            107.3544         estimate D2E/DX2                !
 ! A25   A(5,6,17)             107.2672         estimate D2E/DX2                !
 ! A26   A(4,7,8)              103.4384         estimate D2E/DX2                !
 ! A27   A(4,7,18)             113.552          estimate D2E/DX2                !
 ! A28   A(4,7,19)             113.0318         estimate D2E/DX2                !
 ! A29   A(8,7,18)             111.1361         estimate D2E/DX2                !
 ! A30   A(8,7,19)             109.8943         estimate D2E/DX2                !
 ! A31   A(18,7,19)            105.8726         estimate D2E/DX2                !
 ! A32   A(2,8,7)              108.6491         estimate D2E/DX2                !
 ! A33   A(2,8,9)              125.1248         estimate D2E/DX2                !
 ! A34   A(7,8,9)              126.2162         estimate D2E/DX2                !
 ! D1    D(10,1,2,3)           -67.6328         estimate D2E/DX2                !
 ! D2    D(10,1,2,8)           175.3757         estimate D2E/DX2                !
 ! D3    D(10,1,2,13)           57.5643         estimate D2E/DX2                !
 ! D4    D(11,1,2,3)            52.6183         estimate D2E/DX2                !
 ! D5    D(11,1,2,8)           -64.3732         estimate D2E/DX2                !
 ! D6    D(11,1,2,13)          177.8154         estimate D2E/DX2                !
 ! D7    D(12,1,2,3)           172.175          estimate D2E/DX2                !
 ! D8    D(12,1,2,8)            55.1836         estimate D2E/DX2                !
 ! D9    D(12,1,2,13)          -62.6279         estimate D2E/DX2                !
 ! D10   D(1,2,3,4)           -125.5057         estimate D2E/DX2                !
 ! D11   D(1,2,3,14)            54.8566         estimate D2E/DX2                !
 ! D12   D(8,2,3,4)             -3.2361         estimate D2E/DX2                !
 ! D13   D(8,2,3,14)           177.1262         estimate D2E/DX2                !
 ! D14   D(13,2,3,4)           110.8487         estimate D2E/DX2                !
 ! D15   D(13,2,3,14)          -68.789          estimate D2E/DX2                !
 ! D16   D(1,2,8,7)            129.7019         estimate D2E/DX2                !
 ! D17   D(1,2,8,9)            -49.2085         estimate D2E/DX2                !
 ! D18   D(3,2,8,7)              4.6855         estimate D2E/DX2                !
 ! D19   D(3,2,8,9)           -174.2249         estimate D2E/DX2                !
 ! D20   D(13,2,8,7)          -112.0849         estimate D2E/DX2                !
 ! D21   D(13,2,8,9)            69.0047         estimate D2E/DX2                !
 ! D22   D(2,3,4,5)            179.596          estimate D2E/DX2                !
 ! D23   D(2,3,4,7)              0.4542         estimate D2E/DX2                !
 ! D24   D(14,3,4,5)            -0.774          estimate D2E/DX2                !
 ! D25   D(14,3,4,7)          -179.9158         estimate D2E/DX2                !
 ! D26   D(3,4,5,6)           -123.3524         estimate D2E/DX2                !
 ! D27   D(3,4,5,15)             1.6562         estimate D2E/DX2                !
 ! D28   D(3,4,5,16)           119.9746         estimate D2E/DX2                !
 ! D29   D(7,4,5,6)             55.7104         estimate D2E/DX2                !
 ! D30   D(7,4,5,15)          -179.281          estimate D2E/DX2                !
 ! D31   D(7,4,5,16)           -60.9626         estimate D2E/DX2                !
 ! D32   D(3,4,7,8)              2.5762         estimate D2E/DX2                !
 ! D33   D(3,4,7,18)           123.1454         estimate D2E/DX2                !
 ! D34   D(3,4,7,19)          -116.2236         estimate D2E/DX2                !
 ! D35   D(5,4,7,8)           -176.6124         estimate D2E/DX2                !
 ! D36   D(5,4,7,18)           -56.0432         estimate D2E/DX2                !
 ! D37   D(5,4,7,19)            64.5877         estimate D2E/DX2                !
 ! D38   D(4,5,6,17)            61.2384         estimate D2E/DX2                !
 ! D39   D(15,5,6,17)          -62.8555         estimate D2E/DX2                !
 ! D40   D(16,5,6,17)         -178.8021         estimate D2E/DX2                !
 ! D41   D(4,7,8,2)             -4.5055         estimate D2E/DX2                !
 ! D42   D(4,7,8,9)            174.3899         estimate D2E/DX2                !
 ! D43   D(18,7,8,2)          -126.7028         estimate D2E/DX2                !
 ! D44   D(18,7,8,9)            52.1927         estimate D2E/DX2                !
 ! D45   D(19,7,8,2)           116.4421         estimate D2E/DX2                !
 ! D46   D(19,7,8,9)           -64.6625         estimate D2E/DX2                !
 --------------------------------------------------------------------------------
 Trust Radius=3.00D-01 FncErr=1.00D-07 GrdErr=1.00D-06
 Number of steps in this run=    109 maximum allowed number of steps=    114.
 GradGradGradGradGradGradGradGradGradGradGradGradGradGradGradGradGradGrad

                          Input orientation:                          
 ---------------------------------------------------------------------
 Center     Atomic      Atomic             Coordinates (Angstroms)
 Number     Number       Type             X           Y           Z
 ---------------------------------------------------------------------
      1          6           0        2.877749    3.250303    0.632145
      2          6           0        1.889443    2.517331   -0.287878
      3          6           0        0.915472    1.589955    0.390517
      4          6           0        0.932888    0.344546   -0.097105
      5          6           0        0.093496   -0.806097    0.367907
      6          8           0        0.882403   -1.923774    0.769054
      7          6           0        1.945224    0.191794   -1.206267
      8          6           0        2.609419    1.573042   -1.275500
      9          8           0        3.548258    1.876585   -1.963750
     10          1           0        2.359564    3.973895    1.268310
     11          1           0        3.406474    2.544816    1.280997
     12          1           0        3.618797    3.781300    0.029051
     13          1           0        1.359731    3.274030   -0.887250
     14          1           0        0.263782    1.920238    1.193953
     15          1           0       -0.583532   -0.477779    1.170892
     16          1           0       -0.530101   -1.181584   -0.452760
     17          1           0        1.432724   -1.635797    1.505194
     18          1           0        2.685644   -0.593664   -1.018134
     19          1           0        1.487815   -0.052199   -2.175269
 ---------------------------------------------------------------------
                    Distance matrix (angstroms):
                    1          2          3          4          5
     1  C    0.000000
     2  C    1.536371   0.000000
     3  C    2.581796   1.506276   0.000000
     4  C    3.571794   2.381678   1.337580   0.000000
     5  C    4.927095   3.834143   2.533223   1.498264   0.000000
     6  O    5.547182   4.674896   3.534215   2.428592   1.425656
     7  C    3.688338   2.500935   2.359017   1.509436   2.627300
     8  C    2.554273   1.544488   2.375995   2.389262   3.832878
     9  O    3.012534   2.443517   3.543486   3.559729   4.956691
    10  H    1.093986   2.182730   2.922173   4.131820   5.366014
    11  H    1.094656   2.182546   2.812438   3.585942   4.799810
    12  H    1.093084   2.165347   3.498660   4.363634   5.795411
    13  H    2.147907   1.101107   2.160131   3.064050   4.452663
    14  H    2.986222   2.279280   1.085954   2.144140   2.853814
    15  H    5.115594   4.149012   2.670491   2.140926   1.100429
    16  H    5.694917   4.423048   3.237626   2.143805   1.096976
    17  H    5.169553   4.546666   3.451887   2.595950   1.943027
    18  H    4.187649   3.293251   3.144200   2.191047   2.947111
    19  H    4.551923   3.213415   3.099597   2.187262   2.996703
                    6          7          8          9         10
     6  O    0.000000
     7  C    3.083360   0.000000
     8  C    4.403466   1.534208   0.000000
     9  O    5.386811   2.445817   1.203016   0.000000
    10  H    6.100308   4.538666   3.506777   4.032110   0.000000
    11  H    5.157647   3.722693   2.848739   3.315874   1.771566
    12  H    6.370505   4.148664   2.756284   2.757567   1.777223
    13  H    5.476163   3.153531   2.146117   2.810936   2.477078
    14  H    3.916588   3.402326   3.423558   4.556400   2.935189
    15  H    2.097937   3.534660   4.515045   5.695674   5.337481
    16  H    2.009687   2.929364   4.256930   5.316813   6.155583
    17  H    0.963164   3.309798   4.406077   5.370837   5.690675
    18  H    2.866166   1.095700   2.183269   2.782162   5.118275
    19  H    3.540954   1.098964   2.170020   2.830260   5.369135
                   11         12         13         14         15
    11  H    0.000000
    12  H    1.772383   0.000000
    13  H    3.069561   2.490042   0.000000
    14  H    3.205337   4.009573   2.713902   0.000000
    15  H    5.006831   6.091234   4.699818   2.543415   0.000000
    16  H    5.691098   6.486580   4.859295   3.600446   1.770435
    17  H    4.628550   6.025185   5.462190   3.756152   2.349053
    18  H    3.956723   4.594310   4.090750   4.132607   3.936086
    19  H    4.729853   4.908750   3.569201   4.091505   3.958331
                   16         17         18         19
    16  H    0.000000
    17  H    2.809372   0.000000
    18  H    3.317576   3.003836   0.000000
    19  H    2.883493   4.007072   1.751268   0.000000
 Stoichiometry    C7H10O2
 Framework group  C1[X(C7H10O2)]
 Deg. of freedom    51
 Full point group                 C1      NOp   1
 Largest Abelian subgroup         C1      NOp   1
 Largest concise Abelian subgroup C1      NOp   1
                         Standard orientation:                         
 ---------------------------------------------------------------------
 Center     Atomic      Atomic             Coordinates (Angstroms)
 Number     Number       Type             X           Y           Z
 ---------------------------------------------------------------------
      1          6           0       -2.298676   -1.319489    0.646810
      2          6           0       -1.404405   -0.642519   -0.403156
      3          6           0        0.016452   -1.136427   -0.481170
      4          6           0        0.928664   -0.165860   -0.358738
      5          6           0        2.417249   -0.333832   -0.385077
      6          8           0        3.040322    0.179099    0.790157
      7          6           0        0.285367    1.185259   -0.161144
      8          6           0       -1.214019    0.863250   -0.117050
      9          8           0       -2.101170    1.640186    0.120816
     10          1           0       -2.489613   -2.364448    0.385257
     11          1           0       -1.828779   -1.297056    1.635225
     12          1           0       -3.254944   -0.793879    0.710990
     13          1           0       -1.904821   -0.728291   -1.380224
     14          1           0        0.258713   -2.184574   -0.629477
     15          1           0        2.673849   -1.390756   -0.552449
     16          1           0        2.853297    0.243305   -1.209778
     17          1           0        2.694329   -0.319547    1.538039
     18          1           0        0.607350    1.693787    0.754435
     19          1           0        0.493603    1.884887   -0.982655
 ---------------------------------------------------------------------
 Rotational constants (GHZ):      2.9931171      1.0367904      0.8621908
 Standard basis: 6-31G(2df,p) (6D, 7F)
 There are   329 symmetry adapted cartesian basis functions of A   symmetry.
 There are   302 symmetry adapted basis functions of A   symmetry.
   302 basis functions,   466 primitive gaussians,   329 cartesian basis functions
    34 alpha electrons       34 beta electrons
       nuclear repulsion energy       441.0677644292 Hartrees.
 NAtoms=   19 NActive=   19 NUniq=   19 SFac= 1.00D+00 NAtFMM=   60 NAOKFM=F Big=F
 Integral buffers will be    131072 words long.
 Raffenetti 2 integral format.
 Two-electron integral symmetry is turned on.
 One-electron integrals computed using PRISM.
 NBasis=   302 RedAO= T EigKep=  3.55D-04  NBF=   302
 NBsUse=   302 1.00D-06 EigRej= -1.00D+00 NBFU=   302
 ExpMin= 1.61D-01 ExpMax= 5.48D+03 ExpMxC= 8.25D+02 IAcc=1 IRadAn=         1 AccDes= 0.00D+00
 Harris functional with IExCor=  402 and IRadAn=       1 diagonalized for initial guess.
 HarFok:  IExCor=  402 AccDes= 0.00D+00 IRadAn=         1 IDoV= 1 UseB2=F ITyADJ=14
 ICtDFT=  3500011 ScaDFX=  1.000000  1.000000  1.000000  1.000000
 FoFCou: FMM=F IPFlag=           0 FMFlag=      100000 FMFlg1=           0
         NFxFlg=           0 DoJE=T BraDBF=F KetDBF=T FulRan=T
         wScrn=  0.000000 ICntrl=     500 IOpCl=  0 I1Cent=   200000004 NGrid=           0
         NMat0=    1 NMatS0=      1 NMatT0=    0 NMatD0=    1 NMtDS0=    0 NMtDT0=    0
 Petite list used in FoFCou.
 Requested convergence on RMS density matrix=1.00D-08 within 128 cycles.
 Requested convergence on MAX density matrix=1.00D-06.
 Requested convergence on             energy=1.00D-06.
 No special actions if energy rises.
 Integral accuracy reduced to 1.0D-05 until final iterations.
 Initial convergence to 1.0D-05 achieved.  Increase integral accuracy.
 SCF Done:  E(RB3LYP) =  -423.216591493     A.U. after   14 cycles
            NFock= 14  Conv=0.52D-08     -V/T= 2.0075

 **********************************************************************

            Population analysis using the SCF density.

 **********************************************************************

 Orbital symmetries:
       Occupied  (A) (A) (A) (A) (A) (A) (A) (A) (A) (A) (A) (A)
                 (A) (A) (A) (A) (A) (A) (A) (A) (A) (A) (A) (A)
                 (A) (A) (A) (A) (A) (A) (A) (A) (A) (A)
       Virtual   (A) (A) (A) (A) (A) (A) (A) (A) (A) (A) (A) (A)
                 (A) (A) (A) (A) (A) (A) (A) (A) (A) (A) (A) (A)
                 (A) (A) (A) (A) (A) (A) (A) (A) (A) (A) (A) (A)
                 (A) (A) (A) (A) (A) (A) (A) (A) (A) (A) (A) (A)
                 (A) (A) (A) (A) (A) (A) (A) (A) (A) (A) (A) (A)
                 (A) (A) (A) (A) (A) (A) (A) (A) (A) (A) (A) (A)
                 (A) (A) (A) (A) (A) (A) (A) (A) (A) (A) (A) (A)
                 (A) (A) (A) (A) (A) (A) (A) (A) (A) (A) (A) (A)
                 (A) (A) (A) (A) (A) (A) (A) (A) (A) (A) (A) (A)
                 (A) (A) (A) (A) (A) (A) (A) (A) (A) (A) (A) (A)
                 (A) (A) (A) (A) (A) (A) (A) (A) (A) (A) (A) (A)
                 (A) (A) (A) (A) (A) (A) (A) (A) (A) (A) (A) (A)
                 (A) (A) (A) (A) (A) (A) (A) (A) (A) (A) (A) (A)
                 (A) (A) (A) (A) (A) (A) (A) (A) (A) (A) (A) (A)
                 (A) (A) (A) (A) (A) (A) (A) (A) (A) (A) (A) (A)
                 (A) (A) (A) (A) (A) (A) (A) (A) (A) (A) (A) (A)
                 (A) (A) (A) (A) (A) (A) (A) (A) (A) (A) (A) (A)
                 (A) (A) (A) (A) (A) (A) (A) (A) (A) (A) (A) (A)
                 (A) (A) (A) (A) (A) (A) (A) (A) (A) (A) (A) (A)
                 (A) (A) (A) (A) (A) (A) (A) (A) (A) (A) (A) (A)
                 (A) (A) (A) (A) (A) (A) (A) (A) (A) (A) (A) (A)
                 (A) (A) (A) (A) (A) (A) (A) (A) (A) (A) (A) (A)
                 (A) (A) (A) (A)
 The electronic state is 1-A.
 Alpha  occ. eigenvalues --  -19.14323 -19.13213 -10.26874 -10.23804 -10.20081
 Alpha  occ. eigenvalues --  -10.19694 -10.19379 -10.19189 -10.18443  -1.04282
 Alpha  occ. eigenvalues --   -1.02268  -0.85485  -0.76725  -0.71691  -0.68476
 Alpha  occ. eigenvalues --   -0.63102  -0.54938  -0.53174  -0.51185  -0.47011
 Alpha  occ. eigenvalues --   -0.46586  -0.44399  -0.43806  -0.42418  -0.40714
 Alpha  occ. eigenvalues --   -0.39050  -0.38067  -0.37352  -0.35869  -0.35207
 Alpha  occ. eigenvalues --   -0.33043  -0.28102  -0.25478  -0.24036
 Alpha virt. eigenvalues --   -0.01830   0.00203   0.07965   0.10872   0.11825
 Alpha virt. eigenvalues --    0.12564   0.14161   0.14492   0.16156   0.16945
 Alpha virt. eigenvalues --    0.17385   0.18459   0.18622   0.20726   0.23031
 Alpha virt. eigenvalues --    0.23788   0.26663   0.28587   0.30146   0.32145
 Alpha virt. eigenvalues --    0.40864   0.42237   0.45328   0.46174   0.46561
 Alpha virt. eigenvalues --    0.48984   0.50765   0.51821   0.52841   0.54750
 Alpha virt. eigenvalues --    0.56792   0.57634   0.57738   0.61223   0.61885
 Alpha virt. eigenvalues --    0.63249   0.64963   0.67060   0.67428   0.69571
 Alpha virt. eigenvalues --    0.70930   0.71562   0.71952   0.72853   0.74286
 Alpha virt. eigenvalues --    0.75295   0.75892   0.77324   0.78717   0.79149
 Alpha virt. eigenvalues --    0.79902   0.82255   0.83957   0.85460   0.87184
 Alpha virt. eigenvalues --    0.88191   0.90322   0.93004   0.94274   0.95433
 Alpha virt. eigenvalues --    0.96920   0.97228   0.99099   0.99639   1.02261
 Alpha virt. eigenvalues --    1.04885   1.07256   1.08385   1.12114   1.13867
 Alpha virt. eigenvalues --    1.17100   1.20293   1.20625   1.25968   1.27424
 Alpha virt. eigenvalues --    1.28667   1.32044   1.34485   1.36243   1.37391
 Alpha virt. eigenvalues --    1.39048   1.41992   1.43466   1.46784   1.49187
 Alpha virt. eigenvalues --    1.49318   1.51497   1.53115   1.54329   1.56031
 Alpha virt. eigenvalues --    1.58199   1.60141   1.61536   1.65031   1.67502
 Alpha virt. eigenvalues --    1.69540   1.71366   1.74397   1.77681   1.81115
 Alpha virt. eigenvalues --    1.82927   1.86124   1.89775   1.91189   1.94530
 Alpha virt. eigenvalues --    1.96449   1.97424   2.02088   2.05084   2.09102
 Alpha virt. eigenvalues --    2.12193   2.14575   2.15232   2.23408   2.25398
 Alpha virt. eigenvalues --    2.26493   2.29633   2.33060   2.35594   2.38755
 Alpha virt. eigenvalues --    2.41621   2.46548   2.48011   2.51021   2.53318
 Alpha virt. eigenvalues --    2.55637   2.59431   2.60261   2.67582   2.70933
 Alpha virt. eigenvalues --    2.75238   2.77023   2.77554   2.80415   2.82763
 Alpha virt. eigenvalues --    2.84227   2.86379   2.87399   2.90157   2.91709
 Alpha virt. eigenvalues --    2.93262   2.93737   2.96095   2.98632   2.99637
 Alpha virt. eigenvalues --    3.02407   3.05029   3.06431   3.08758   3.10351
 Alpha virt. eigenvalues --    3.12964   3.14210   3.16233   3.21649   3.24322
 Alpha virt. eigenvalues --    3.25204   3.29819   3.30819   3.32508   3.36032
 Alpha virt. eigenvalues --    3.38568   3.39669   3.40740   3.43126   3.47413
 Alpha virt. eigenvalues --    3.48671   3.51857   3.54881   3.57080   3.60202
 Alpha virt. eigenvalues --    3.61672   3.63726   3.66035   3.70064   3.70991
 Alpha virt. eigenvalues --    3.80076   3.82225   3.84016   3.86809   3.87373
 Alpha virt. eigenvalues --    3.91010   3.95314   3.99297   4.05086   4.08051
 Alpha virt. eigenvalues --    4.10029   4.14873   4.15936   4.17660   4.18842
 Alpha virt. eigenvalues --    4.21996   4.25935   4.29376   4.33027   4.34331
 Alpha virt. eigenvalues --    4.36318   4.39074   4.39821   4.43044   4.44282
 Alpha virt. eigenvalues --    4.46260   4.49055   4.49658   4.53332   4.56316
 Alpha virt. eigenvalues --    4.57780   4.59453   4.60802   4.63956   4.64934
 Alpha virt. eigenvalues --    4.67407   4.68237   4.68654   4.70620   4.72260
 Alpha virt. eigenvalues --    4.76197   4.76608   4.79107   4.80178   4.80809
 Alpha virt. eigenvalues --    4.83471   4.84814   4.85917   4.87363   4.89229
 Alpha virt. eigenvalues --    4.93212   4.95920   5.00407   5.03027   5.08878
 Alpha virt. eigenvalues --    5.09938   5.11536   5.19187   5.24637   5.25986
 Alpha virt. eigenvalues --    5.32940   5.34579   5.37159   5.38378   5.40480
 Alpha virt. eigenvalues --    5.46195   5.52032   5.55512   5.57214   5.60286
 Alpha virt. eigenvalues --    5.64222   5.68463   5.73799   5.85236   5.94468
 Alpha virt. eigenvalues --    5.95868   6.01062   6.04362   6.07546   6.14585
 Alpha virt. eigenvalues --    6.55711   6.64428   6.90356   7.01484  10.23097
 Alpha virt. eigenvalues --   11.04137  11.33939  11.67058  11.98416  12.42077
 Alpha virt. eigenvalues --   12.54034  13.14153  13.20296
          Condensed to atoms (all electrons):
               1          2          3          4          5          6
     1  C    4.978807   0.374301  -0.027359  -0.005873  -0.000080   0.000005
     2  C    0.374301   5.162237   0.264941   0.049591   0.008075  -0.000060
     3  C   -0.027359   0.264941   5.035788   0.670002  -0.048087  -0.000952
     4  C   -0.005873   0.049591   0.670002   4.560060   0.378749  -0.066935
     5  C   -0.000080   0.008075  -0.048087   0.378749   4.923859   0.353943
     6  O    0.000005  -0.000060  -0.000952  -0.066935   0.353943   7.855771
     7  C    0.006461  -0.208241   0.000791   0.288114  -0.068734   0.006751
     8  C   -0.012869   0.326582  -0.017457  -0.029631   0.000554   0.000177
     9  O   -0.004474  -0.072464   0.003934   0.001333  -0.000045   0.000000
    10  H    0.374144  -0.022968  -0.001150   0.000254   0.000001   0.000000
    11  H    0.375528  -0.031133  -0.002480   0.001418  -0.000030  -0.000001
    12  H    0.368871  -0.025760   0.003734   0.000024   0.000003   0.000000
    13  H   -0.038115   0.350675  -0.039594  -0.002313  -0.000233  -0.000001
    14  H    0.001015  -0.047331   0.352766  -0.029049  -0.011135   0.000076
    15  H    0.000000   0.000015  -0.010104  -0.033154   0.348263  -0.026460
    16  H   -0.000003  -0.000367   0.004028  -0.018590   0.344625  -0.022162
    17  H   -0.000007  -0.000103   0.001874   0.004478  -0.064614   0.304167
    18  H   -0.000040   0.006453  -0.001733  -0.021660  -0.001470   0.007440
    19  H   -0.000126   0.005289  -0.002153  -0.019342   0.001320  -0.000276
               7          8          9         10         11         12
     1  C    0.006461  -0.012869  -0.004474   0.374144   0.375528   0.368871
     2  C   -0.208241   0.326582  -0.072464  -0.022968  -0.031133  -0.025760
     3  C    0.000791  -0.017457   0.003934  -0.001150  -0.002480   0.003734
     4  C    0.288114  -0.029631   0.001333   0.000254   0.001418   0.000024
     5  C   -0.068734   0.000554  -0.000045   0.000001  -0.000030   0.000003
     6  O    0.006751   0.000177   0.000000   0.000000  -0.000001   0.000000
     7  C    5.418253   0.334933  -0.063253  -0.000226   0.001144   0.000594
     8  C    0.334933   4.252171   0.800207   0.002275  -0.003976  -0.000975
     9  O   -0.063253   0.800207   7.641200   0.000121   0.000385   0.007690
    10  H   -0.000226   0.002275   0.000121   0.597619  -0.033040  -0.030532
    11  H    0.001144  -0.003976   0.000385  -0.033040   0.596889  -0.027756
    12  H    0.000594  -0.000975   0.007690  -0.030532  -0.027756   0.563296
    13  H    0.007703  -0.022222  -0.001817  -0.004077   0.005953  -0.000779
    14  H    0.008544   0.002239  -0.000030   0.001421  -0.000034  -0.000156
    15  H    0.006897  -0.000022   0.000000   0.000000  -0.000002   0.000000
    16  H   -0.005980   0.000100   0.000000   0.000000   0.000001   0.000000
    17  H   -0.000501  -0.000020   0.000000   0.000000   0.000013   0.000000
    18  H    0.344774  -0.012953  -0.000744   0.000003  -0.000067  -0.000035
    19  H    0.336000  -0.010710  -0.000825   0.000003   0.000007   0.000003
              13         14         15         16         17         18
     1  C   -0.038115   0.001015   0.000000  -0.000003  -0.000007  -0.000040
     2  C    0.350675  -0.047331   0.000015  -0.000367  -0.000103   0.006453
     3  C   -0.039594   0.352766  -0.010104   0.004028   0.001874  -0.001733
     4  C   -0.002313  -0.029049  -0.033154  -0.018590   0.004478  -0.021660
     5  C   -0.000233  -0.011135   0.348263   0.344625  -0.064614  -0.001470
     6  O   -0.000001   0.000076  -0.026460  -0.022162   0.304167   0.007440
     7  C    0.007703   0.008544   0.006897  -0.005980  -0.000501   0.344774
     8  C   -0.022222   0.002239  -0.000022   0.000100  -0.000020  -0.012953
     9  O   -0.001817  -0.000030   0.000000   0.000000   0.000000  -0.000744
    10  H   -0.004077   0.001421   0.000000   0.000000   0.000000   0.000003
    11  H    0.005953  -0.000034  -0.000002   0.000001   0.000013  -0.000067
    12  H   -0.000779  -0.000156   0.000000   0.000000   0.000000  -0.000035
    13  H    0.634512   0.000096  -0.000010   0.000028   0.000002  -0.000165
    14  H    0.000096   0.619702   0.006407   0.000033   0.000091  -0.000140
    15  H   -0.000010   0.006407   0.663697  -0.044752  -0.004554   0.000152
    16  H    0.000028   0.000033  -0.044752   0.616355   0.007860  -0.000419
    17  H    0.000002   0.000091  -0.004554   0.007860   0.468211  -0.000312
    18  H   -0.000165  -0.000140   0.000152  -0.000419  -0.000312   0.570354
    19  H    0.000121  -0.000179  -0.000103   0.002704   0.000081  -0.033288
              19
     1  C   -0.000126
     2  C    0.005289
     3  C   -0.002153
     4  C   -0.019342
     5  C    0.001320
     6  O   -0.000276
     7  C    0.336000
     8  C   -0.010710
     9  O   -0.000825
    10  H    0.000003
    11  H    0.000007
    12  H    0.000003
    13  H    0.000121
    14  H   -0.000179
    15  H   -0.000103
    16  H    0.002704
    17  H    0.000081
    18  H   -0.033288
    19  H    0.585675
 Mulliken charges:
               1
     1  C   -0.390187
     2  C   -0.139732
     3  C   -0.186788
     4  C    0.272525
     5  C   -0.164964
     6  O   -0.411482
     7  C   -0.414025
     8  C    0.391601
     9  O   -0.311218
    10  H    0.116153
    11  H    0.117181
    12  H    0.141778
    13  H    0.110238
    14  H    0.095665
    15  H    0.093731
    16  H    0.116539
    17  H    0.283334
    18  H    0.143851
    19  H    0.135799
 Sum of Mulliken charges =   0.00000
 Mulliken charges with hydrogens summed into heavy atoms:
               1
     1  C   -0.015074
     2  C   -0.029494
     3  C   -0.091123
     4  C    0.272525
     5  C    0.045306
     6  O   -0.128148
     7  C   -0.134374
     8  C    0.391601
     9  O   -0.311218
 Electronic spatial extent (au):  <R**2>=           1375.7681
 Charge=              0.0000 electrons
 Dipole moment (field-independent basis, Debye):
    X=              0.8213    Y=             -2.6542    Z=             -0.4194  Tot=              2.8098
 Quadrupole moment (field-independent basis, Debye-Ang):
   XX=            -62.5291   YY=            -54.6753   ZZ=            -49.9256
   XY=              2.9705   XZ=              0.3582   YZ=             -1.7939
 Traceless Quadrupole moment (field-independent basis, Debye-Ang):
   XX=             -6.8191   YY=              1.0347   ZZ=              5.7844
   XY=              2.9705   XZ=              0.3582   YZ=             -1.7939
 Octapole moment (field-independent basis, Debye-Ang**2):
  XXX=             -9.4319  YYY=             -2.7928  ZZZ=             10.0851  XYY=             12.2574
  XXY=            -19.3480  XXZ=             -5.6974  XZZ=              6.7172  YZZ=              2.8734
  YYZ=             -1.3598  XYZ=             -3.3515
 Hexadecapole moment (field-independent basis, Debye-Ang**3):
 XXXX=          -1285.3985 YYYY=           -409.9699 ZZZZ=           -141.1249 XXXY=             -6.3512
 XXXZ=             -8.2130 YYYX=              7.1485 YYYZ=              1.1912 ZZZX=             26.3816
 ZZZY=             -3.4686 XXYY=           -280.5644 XXZZ=           -201.4429 YYZZ=            -91.3865
 XXYZ=            -11.7254 YYXZ=              5.9380 ZZXY=             -7.4017
 N-N= 4.410677644292D+02 E-N=-1.869021480796D+03  KE= 4.200796994503D+02
 Calling FoFJK, ICntrl=      2127 FMM=F ISym2X=0 I1Cent= 0 IOpClX= 0 NMat=1 NMatS=1 NMatT=0.
 ***** Axes restored to original set *****
 -------------------------------------------------------------------
 Center     Atomic                   Forces (Hartrees/Bohr)
 Number     Number              X              Y              Z
 -------------------------------------------------------------------
      1        6          -0.000006522   -0.000004254   -0.000002559
      2        6           0.000008182    0.000015081   -0.000003899
      3        6          -0.000003948   -0.000016547   -0.000000507
      4        6           0.000001433    0.000008008    0.000000682
      5        6          -0.000012969    0.000005594   -0.000000904
      6        8           0.000012540   -0.000003983   -0.000003460
      7        6           0.000007764    0.000000001    0.000003369
      8        6          -0.000007248   -0.000009648    0.000002259
      9        8           0.000008131    0.000000514   -0.000001176
     10        1          -0.000002753    0.000003057   -0.000002959
     11        1          -0.000003269    0.000002461    0.000001789
     12        1          -0.000000546    0.000001715    0.000000436
     13        1           0.000000986   -0.000004056   -0.000002947
     14        1          -0.000001066    0.000005485   -0.000002947
     15        1           0.000002197    0.000000676   -0.000001435
     16        1           0.000003318   -0.000003665    0.000004021
     17        1          -0.000010505    0.000002406    0.000005676
     18        1           0.000000342   -0.000001517    0.000003950
     19        1           0.000003934   -0.000001329    0.000000612
 -------------------------------------------------------------------
 Cartesian Forces:  Max     0.000016547 RMS     0.000005550

 GradGradGradGradGradGradGradGradGradGradGradGradGradGradGradGradGradGrad
 Berny optimization.
 FormGI is forming the generalized inverse of G from B-inverse, IUseBI=4.
 Internal  Forces:  Max     0.000006946 RMS     0.000002323
 Search for a local minimum.
 Step number   1 out of a maximum of  109
 All quantities printed in internal units (Hartrees-Bohrs-Radians)
 Mixed Optimization -- En-DIIS/RFO-DIIS
 Second derivative matrix not updated -- first step.
 ITU=  0
     Eigenvalues ---    0.00273   0.00285   0.00443   0.00789   0.01052
     Eigenvalues ---    0.01227   0.01352   0.01700   0.04120   0.04578
     Eigenvalues ---    0.05220   0.05479   0.05610   0.06006   0.06930
     Eigenvalues ---    0.07038   0.07358   0.08573   0.09548   0.11823
     Eigenvalues ---    0.13785   0.14148   0.16000   0.16000   0.16000
     Eigenvalues ---    0.16000   0.16000   0.20491   0.22061   0.23421
     Eigenvalues ---    0.24990   0.24996   0.27554   0.28211   0.28843
     Eigenvalues ---    0.30241   0.31415   0.32560   0.33560   0.33635
     Eigenvalues ---    0.33797   0.34019   0.34162   0.34280   0.34356
     Eigenvalues ---    0.34459   0.35284   0.41620   0.54798   0.54983
     Eigenvalues ---    1.03322
 RFO step:  Lambda= 0.00000000D+00 EMin= 2.72617622D-03
 Linear search not attempted -- first point.
 Iteration  1 RMS(Cart)=  0.00006600 RMS(Int)=  0.00000001
 Iteration  2 RMS(Cart)=  0.00000001 RMS(Int)=  0.00000000
 Variable       Old X    -DE/DX   Delta X   Delta X   Delta X     New X
                                 (Linear)    (Quad)   (Total)
    R1        2.90332   0.00000   0.00000  -0.00002  -0.00002   2.90330
    R2        2.06733   0.00000   0.00000   0.00000   0.00000   2.06733
    R3        2.06860   0.00000   0.00000   0.00000   0.00000   2.06860
    R4        2.06563   0.00000   0.00000   0.00000   0.00000   2.06563
    R5        2.84645   0.00001   0.00000   0.00002   0.00002   2.84647
    R6        2.91866   0.00000   0.00000   0.00001   0.00001   2.91867
    R7        2.08079   0.00000   0.00000  -0.00001  -0.00001   2.08078
    R8        2.52766  -0.00001   0.00000  -0.00001  -0.00001   2.52765
    R9        2.05216   0.00000   0.00000   0.00000   0.00000   2.05216
   R10        2.83131   0.00000   0.00000   0.00001   0.00001   2.83132
   R11        2.85242   0.00000   0.00000   0.00000   0.00000   2.85242
   R12        2.69410   0.00000   0.00000   0.00001   0.00001   2.69411
   R13        2.07951   0.00000   0.00000  -0.00001  -0.00001   2.07950
   R14        2.07299   0.00000   0.00000  -0.00001  -0.00001   2.07297
   R15        1.82012   0.00000   0.00000  -0.00001  -0.00001   1.82011
   R16        2.89923   0.00000   0.00000  -0.00001  -0.00001   2.89922
   R17        2.07057   0.00000   0.00000   0.00000   0.00000   2.07057
   R18        2.07674   0.00000   0.00000   0.00000   0.00000   2.07674
   R19        2.27337   0.00001   0.00000   0.00001   0.00001   2.27338
    A1        1.93808   0.00000   0.00000   0.00000   0.00000   1.93808
    A2        1.93712   0.00000   0.00000   0.00000   0.00000   1.93712
    A3        1.91502   0.00000   0.00000   0.00001   0.00001   1.91503
    A4        1.88638   0.00000   0.00000   0.00000   0.00000   1.88638
    A5        1.89721   0.00000   0.00000  -0.00001  -0.00001   1.89720
    A6        1.88879   0.00000   0.00000   0.00000   0.00000   1.88880
    A7        2.02636   0.00000   0.00000  -0.00002  -0.00002   2.02634
    A8        1.95491   0.00000   0.00000   0.00002   0.00002   1.95493
    A9        1.88343   0.00000   0.00000   0.00002   0.00002   1.88345
   A10        1.78544   0.00000   0.00000  -0.00001  -0.00001   1.78543
   A11        1.93606   0.00000   0.00000   0.00000   0.00000   1.93606
   A12        1.87165   0.00000   0.00000   0.00000   0.00000   1.87165
   A13        1.98301   0.00000   0.00000   0.00000   0.00000   1.98302
   A14        2.13411   0.00000   0.00000  -0.00003  -0.00003   2.13408
   A15        2.16604   0.00000   0.00000   0.00003   0.00003   2.16607
   A16        2.20759   0.00000   0.00000   0.00002   0.00002   2.20761
   A17        1.95071   0.00000   0.00000   0.00000   0.00000   1.95071
   A18        2.12479   0.00000   0.00000  -0.00001  -0.00001   2.12477
   A19        1.95994  -0.00001   0.00000  -0.00003  -0.00003   1.95991
   A20        1.91987   0.00000   0.00000   0.00002   0.00002   1.91989
   A21        1.92748   0.00000   0.00000   0.00002   0.00002   1.92750
   A22        1.94876   0.00000   0.00000   0.00000   0.00000   1.94876
   A23        1.83043   0.00000   0.00000  -0.00003  -0.00003   1.83040
   A24        1.87369   0.00000   0.00000   0.00002   0.00002   1.87371
   A25        1.87216  -0.00001   0.00000  -0.00004  -0.00004   1.87212
   A26        1.80534   0.00000   0.00000   0.00000   0.00000   1.80534
   A27        1.98186   0.00000   0.00000   0.00000   0.00000   1.98185
   A28        1.97278   0.00000   0.00000   0.00000   0.00000   1.97277
   A29        1.93969   0.00000   0.00000   0.00002   0.00002   1.93971
   A30        1.91802   0.00000   0.00000  -0.00002  -0.00002   1.91800
   A31        1.84783   0.00000   0.00000   0.00000   0.00000   1.84783
   A32        1.89628   0.00000   0.00000   0.00000   0.00000   1.89629
   A33        2.18384   0.00000   0.00000  -0.00001  -0.00001   2.18383
   A34        2.20289   0.00000   0.00000   0.00000   0.00000   2.20289
    D1       -1.18042   0.00000   0.00000  -0.00012  -0.00012  -1.18053
    D2        3.06088   0.00000   0.00000  -0.00010  -0.00010   3.06078
    D3        1.00469   0.00000   0.00000  -0.00012  -0.00012   1.00457
    D4        0.91836   0.00000   0.00000  -0.00012  -0.00012   0.91824
    D5       -1.12352   0.00000   0.00000  -0.00010  -0.00010  -1.12363
    D6        3.10346   0.00000   0.00000  -0.00012  -0.00012   3.10334
    D7        3.00502   0.00000   0.00000  -0.00011  -0.00011   3.00491
    D8        0.96313   0.00000   0.00000  -0.00009  -0.00009   0.96305
    D9       -1.09306   0.00000   0.00000  -0.00011  -0.00011  -1.09317
   D10       -2.19049   0.00000   0.00000  -0.00005  -0.00005  -2.19054
   D11        0.95743   0.00000   0.00000  -0.00003  -0.00003   0.95740
   D12       -0.05648   0.00000   0.00000  -0.00005  -0.00005  -0.05653
   D13        3.09144   0.00000   0.00000  -0.00003  -0.00003   3.09140
   D14        1.93468   0.00000   0.00000  -0.00006  -0.00006   1.93461
   D15       -1.20059   0.00000   0.00000  -0.00004  -0.00004  -1.20063
   D16        2.26373   0.00000   0.00000   0.00003   0.00003   2.26375
   D17       -0.85885   0.00000   0.00000  -0.00001  -0.00001  -0.85886
   D18        0.08178   0.00000   0.00000   0.00005   0.00005   0.08183
   D19       -3.04080   0.00000   0.00000   0.00002   0.00002  -3.04078
   D20       -1.95625   0.00000   0.00000   0.00006   0.00006  -1.95619
   D21        1.20436   0.00000   0.00000   0.00002   0.00002   1.20438
   D22        3.13454   0.00000   0.00000   0.00000   0.00000   3.13454
   D23        0.00793   0.00000   0.00000   0.00003   0.00003   0.00796
   D24       -0.01351   0.00000   0.00000  -0.00002  -0.00002  -0.01353
   D25       -3.14012   0.00000   0.00000   0.00001   0.00001  -3.14011
   D26       -2.15291   0.00000   0.00000  -0.00003  -0.00003  -2.15294
   D27        0.02891   0.00000   0.00000  -0.00004  -0.00004   0.02887
   D28        2.09395   0.00000   0.00000   0.00001   0.00001   2.09396
   D29        0.97233   0.00000   0.00000  -0.00007  -0.00007   0.97226
   D30       -3.12904   0.00000   0.00000  -0.00007  -0.00007  -3.12912
   D31       -1.06400   0.00000   0.00000  -0.00003  -0.00003  -1.06403
   D32        0.04496   0.00000   0.00000   0.00001   0.00001   0.04497
   D33        2.14929   0.00000   0.00000   0.00003   0.00003   2.14932
   D34       -2.02849   0.00000   0.00000   0.00003   0.00003  -2.02846
   D35       -3.08247   0.00000   0.00000   0.00004   0.00004  -3.08243
   D36       -0.97814   0.00000   0.00000   0.00006   0.00006  -0.97808
   D37        1.12727   0.00000   0.00000   0.00006   0.00006   1.12733
   D38        1.06881   0.00000   0.00000   0.00033   0.00033   1.06915
   D39       -1.09704   0.00000   0.00000   0.00033   0.00033  -1.09671
   D40       -3.12069   0.00000   0.00000   0.00033   0.00033  -3.12036
   D41       -0.07864   0.00000   0.00000  -0.00004  -0.00004  -0.07868
   D42        3.04368   0.00000   0.00000   0.00000   0.00000   3.04367
   D43       -2.21138   0.00000   0.00000  -0.00005  -0.00005  -2.21143
   D44        0.91093   0.00000   0.00000  -0.00001  -0.00001   0.91092
   D45        2.03230   0.00000   0.00000  -0.00005  -0.00005   2.03225
   D46       -1.12857   0.00000   0.00000  -0.00001  -0.00001  -1.12859
         Item               Value     Threshold  Converged?
 Maximum Force            0.000007     0.000450     YES
 RMS     Force            0.000002     0.000300     YES
 Maximum Displacement     0.000231     0.001800     YES
 RMS     Displacement     0.000066     0.001200     YES
 Predicted change in Energy=-3.643884D-09
 Optimization completed.
    -- Stationary point found.
                           ----------------------------
                           !   Optimized Parameters   !
                           ! (Angstroms and Degrees)  !
 --------------------------                            --------------------------
 ! Name  Definition              Value          Derivative Info.                !
 --------------------------------------------------------------------------------
 ! R1    R(1,2)                  1.5364         -DE/DX =    0.0                 !
 ! R2    R(1,10)                 1.094          -DE/DX =    0.0                 !
 ! R3    R(1,11)                 1.0947         -DE/DX =    0.0                 !
 ! R4    R(1,12)                 1.0931         -DE/DX =    0.0                 !
 ! R5    R(2,3)                  1.5063         -DE/DX =    0.0                 !
 ! R6    R(2,8)                  1.5445         -DE/DX =    0.0                 !
 ! R7    R(2,13)                 1.1011         -DE/DX =    0.0                 !
 ! R8    R(3,4)                  1.3376         -DE/DX =    0.0                 !
 ! R9    R(3,14)                 1.086          -DE/DX =    0.0                 !
 ! R10   R(4,5)                  1.4983         -DE/DX =    0.0                 !
 ! R11   R(4,7)                  1.5094         -DE/DX =    0.0                 !
 ! R12   R(5,6)                  1.4257         -DE/DX =    0.0                 !
 ! R13   R(5,15)                 1.1004         -DE/DX =    0.0                 !
 ! R14   R(5,16)                 1.097          -DE/DX =    0.0                 !
 ! R15   R(6,17)                 0.9632         -DE/DX =    0.0                 !
 ! R16   R(7,8)                  1.5342         -DE/DX =    0.0                 !
 ! R17   R(7,18)                 1.0957         -DE/DX =    0.0                 !
 ! R18   R(7,19)                 1.099          -DE/DX =    0.0                 !
 ! R19   R(8,9)                  1.203          -DE/DX =    0.0                 !
 ! A1    A(2,1,10)             111.0438         -DE/DX =    0.0                 !
 ! A2    A(2,1,11)             110.9889         -DE/DX =    0.0                 !
 ! A3    A(2,1,12)             109.7223         -DE/DX =    0.0                 !
 ! A4    A(10,1,11)            108.0818         -DE/DX =    0.0                 !
 ! A5    A(10,1,12)            108.7023         -DE/DX =    0.0                 !
 ! A6    A(11,1,12)            108.2199         -DE/DX =    0.0                 !
 ! A7    A(1,2,3)              116.1021         -DE/DX =    0.0                 !
 ! A8    A(1,2,8)              112.008          -DE/DX =    0.0                 !
 ! A9    A(1,2,13)             107.9127         -DE/DX =    0.0                 !
 ! A10   A(3,2,8)              102.298          -DE/DX =    0.0                 !
 ! A11   A(3,2,13)             110.928          -DE/DX =    0.0                 !
 ! A12   A(8,2,13)             107.2379         -DE/DX =    0.0                 !
 ! A13   A(2,3,4)              113.6184         -DE/DX =    0.0                 !
 ! A14   A(2,3,14)             122.2756         -DE/DX =    0.0                 !
 ! A15   A(4,3,14)             124.105          -DE/DX =    0.0                 !
 ! A16   A(3,4,5)              126.4857         -DE/DX =    0.0                 !
 ! A17   A(3,4,7)              111.7674         -DE/DX =    0.0                 !
 ! A18   A(5,4,7)              121.7412         -DE/DX =    0.0                 !
 ! A19   A(4,5,6)              112.296          -DE/DX =    0.0                 !
 ! A20   A(4,5,15)             110.0005         -DE/DX =    0.0                 !
 ! A21   A(4,5,16)             110.4363         -DE/DX =    0.0                 !
 ! A22   A(6,5,15)             111.6559         -DE/DX =    0.0                 !
 ! A23   A(6,5,16)             104.8758         -DE/DX =    0.0                 !
 ! A24   A(15,5,16)            107.3544         -DE/DX =    0.0                 !
 ! A25   A(5,6,17)             107.2672         -DE/DX =    0.0                 !
 ! A26   A(4,7,8)              103.4384         -DE/DX =    0.0                 !
 ! A27   A(4,7,18)             113.552          -DE/DX =    0.0                 !
 ! A28   A(4,7,19)             113.0318         -DE/DX =    0.0                 !
 ! A29   A(8,7,18)             111.1361         -DE/DX =    0.0                 !
 ! A30   A(8,7,19)             109.8943         -DE/DX =    0.0                 !
 ! A31   A(18,7,19)            105.8726         -DE/DX =    0.0                 !
 ! A32   A(2,8,7)              108.6491         -DE/DX =    0.0                 !
 ! A33   A(2,8,9)              125.1248         -DE/DX =    0.0                 !
 ! A34   A(7,8,9)              126.2162         -DE/DX =    0.0                 !
 ! D1    D(10,1,2,3)           -67.6328         -DE/DX =    0.0                 !
 ! D2    D(10,1,2,8)           175.3757         -DE/DX =    0.0                 !
 ! D3    D(10,1,2,13)           57.5643         -DE/DX =    0.0                 !
 ! D4    D(11,1,2,3)            52.6183         -DE/DX =    0.0                 !
 ! D5    D(11,1,2,8)           -64.3732         -DE/DX =    0.0                 !
 ! D6    D(11,1,2,13)          177.8154         -DE/DX =    0.0                 !
 ! D7    D(12,1,2,3)           172.175          -DE/DX =    0.0                 !
 ! D8    D(12,1,2,8)            55.1836         -DE/DX =    0.0                 !
 ! D9    D(12,1,2,13)          -62.6279         -DE/DX =    0.0                 !
 ! D10   D(1,2,3,4)           -125.5057         -DE/DX =    0.0                 !
 ! D11   D(1,2,3,14)            54.8566         -DE/DX =    0.0                 !
 ! D12   D(8,2,3,4)             -3.2361         -DE/DX =    0.0                 !
 ! D13   D(8,2,3,14)           177.1262         -DE/DX =    0.0                 !
 ! D14   D(13,2,3,4)           110.8487         -DE/DX =    0.0                 !
 ! D15   D(13,2,3,14)          -68.789          -DE/DX =    0.0                 !
 ! D16   D(1,2,8,7)            129.7019         -DE/DX =    0.0                 !
 ! D17   D(1,2,8,9)            -49.2085         -DE/DX =    0.0                 !
 ! D18   D(3,2,8,7)              4.6855         -DE/DX =    0.0                 !
 ! D19   D(3,2,8,9)           -174.2249         -DE/DX =    0.0                 !
 ! D20   D(13,2,8,7)          -112.0849         -DE/DX =    0.0                 !
 ! D21   D(13,2,8,9)            69.0047         -DE/DX =    0.0                 !
 ! D22   D(2,3,4,5)            179.596          -DE/DX =    0.0                 !
 ! D23   D(2,3,4,7)              0.4542         -DE/DX =    0.0                 !
 ! D24   D(14,3,4,5)            -0.774          -DE/DX =    0.0                 !
 ! D25   D(14,3,4,7)          -179.9158         -DE/DX =    0.0                 !
 ! D26   D(3,4,5,6)           -123.3524         -DE/DX =    0.0                 !
 ! D27   D(3,4,5,15)             1.6562         -DE/DX =    0.0                 !
 ! D28   D(3,4,5,16)           119.9746         -DE/DX =    0.0                 !
 ! D29   D(7,4,5,6)             55.7104         -DE/DX =    0.0                 !
 ! D30   D(7,4,5,15)          -179.281          -DE/DX =    0.0                 !
 ! D31   D(7,4,5,16)           -60.9626         -DE/DX =    0.0                 !
 ! D32   D(3,4,7,8)              2.5762         -DE/DX =    0.0                 !
 ! D33   D(3,4,7,18)           123.1454         -DE/DX =    0.0                 !
 ! D34   D(3,4,7,19)          -116.2236         -DE/DX =    0.0                 !
 ! D35   D(5,4,7,8)           -176.6124         -DE/DX =    0.0                 !
 ! D36   D(5,4,7,18)           -56.0432         -DE/DX =    0.0                 !
 ! D37   D(5,4,7,19)            64.5877         -DE/DX =    0.0                 !
 ! D38   D(4,5,6,17)            61.2384         -DE/DX =    0.0                 !
 ! D39   D(15,5,6,17)          -62.8555         -DE/DX =    0.0                 !
 ! D40   D(16,5,6,17)         -178.8021         -DE/DX =    0.0                 !
 ! D41   D(4,7,8,2)             -4.5055         -DE/DX =    0.0                 !
 ! D42   D(4,7,8,9)            174.3899         -DE/DX =    0.0                 !
 ! D43   D(18,7,8,2)          -126.7028         -DE/DX =    0.0                 !
 ! D44   D(18,7,8,9)            52.1927         -DE/DX =    0.0                 !
 ! D45   D(19,7,8,2)           116.4421         -DE/DX =    0.0                 !
 ! D46   D(19,7,8,9)           -64.6625         -DE/DX =    0.0                 !
 --------------------------------------------------------------------------------
 GradGradGradGradGradGradGradGradGradGradGradGradGradGradGradGradGradGrad

                          Input orientation:                          
 ---------------------------------------------------------------------
 Center     Atomic      Atomic             Coordinates (Angstroms)
 Number     Number       Type             X           Y           Z
 ---------------------------------------------------------------------
      1          6           0        2.877749    3.250303    0.632145
      2          6           0        1.889443    2.517331   -0.287878
      3          6           0        0.915472    1.589955    0.390517
      4          6           0        0.932888    0.344546   -0.097105
      5          6           0        0.093496   -0.806097    0.367907
      6          8           0        0.882403   -1.923774    0.769054
      7          6           0        1.945224    0.191794   -1.206267
      8          6           0        2.609419    1.573042   -1.275500
      9          8           0        3.548258    1.876585   -1.963750
     10          1           0        2.359564    3.973895    1.268310
     11          1           0        3.406474    2.544816    1.280997
     12          1           0        3.618797    3.781300    0.029051
     13          1           0        1.359731    3.274030   -0.887250
     14          1           0        0.263782    1.920238    1.193953
     15          1           0       -0.583532   -0.477779    1.170892
     16          1           0       -0.530101   -1.181584   -0.452760
     17          1           0        1.432724   -1.635797    1.505194
     18          1           0        2.685644   -0.593664   -1.018134
     19          1           0        1.487815   -0.052199   -2.175269
 ---------------------------------------------------------------------
                    Distance matrix (angstroms):
                    1          2          3          4          5
     1  C    0.000000
     2  C    1.536371   0.000000
     3  C    2.581796   1.506276   0.000000
     4  C    3.571794   2.381678   1.337580   0.000000
     5  C    4.927095   3.834143   2.533223   1.498264   0.000000
     6  O    5.547182   4.674896   3.534215   2.428592   1.425656
     7  C    3.688338   2.500935   2.359017   1.509436   2.627300
     8  C    2.554273   1.544488   2.375995   2.389262   3.832878
     9  O    3.012534   2.443517   3.543486   3.559729   4.956691
    10  H    1.093986   2.182730   2.922173   4.131820   5.366014
    11  H    1.094656   2.182546   2.812438   3.585942   4.799810
    12  H    1.093084   2.165347   3.498660   4.363634   5.795411
    13  H    2.147907   1.101107   2.160131   3.064050   4.452663
    14  H    2.986222   2.279280   1.085954   2.144140   2.853814
    15  H    5.115594   4.149012   2.670491   2.140926   1.100429
    16  H    5.694917   4.423048   3.237626   2.143805   1.096976
    17  H    5.169553   4.546666   3.451887   2.595950   1.943027
    18  H    4.187649   3.293251   3.144200   2.191047   2.947111
    19  H    4.551923   3.213415   3.099597   2.187262   2.996703
                    6          7          8          9         10
     6  O    0.000000
     7  C    3.083360   0.000000
     8  C    4.403466   1.534208   0.000000
     9  O    5.386811   2.445817   1.203016   0.000000
    10  H    6.100308   4.538666   3.506777   4.032110   0.000000
    11  H    5.157647   3.722693   2.848739   3.315874   1.771566
    12  H    6.370505   4.148664   2.756284   2.757567   1.777223
    13  H    5.476163   3.153531   2.146117   2.810936   2.477078
    14  H    3.916588   3.402326   3.423558   4.556400   2.935189
    15  H    2.097937   3.534660   4.515045   5.695674   5.337481
    16  H    2.009687   2.929364   4.256930   5.316813   6.155583
    17  H    0.963164   3.309798   4.406077   5.370837   5.690675
    18  H    2.866166   1.095700   2.183269   2.782162   5.118275
    19  H    3.540954   1.098964   2.170020   2.830260   5.369135
                   11         12         13         14         15
    11  H    0.000000
    12  H    1.772383   0.000000
    13  H    3.069561   2.490042   0.000000
    14  H    3.205337   4.009573   2.713902   0.000000
    15  H    5.006831   6.091234   4.699818   2.543415   0.000000
    16  H    5.691098   6.486580   4.859295   3.600446   1.770435
    17  H    4.628550   6.025185   5.462190   3.756152   2.349053
    18  H    3.956723   4.594310   4.090750   4.132607   3.936086
    19  H    4.729853   4.908750   3.569201   4.091505   3.958331
                   16         17         18         19
    16  H    0.000000
    17  H    2.809372   0.000000
    18  H    3.317576   3.003836   0.000000
    19  H    2.883493   4.007072   1.751268   0.000000
 Stoichiometry    C7H10O2
 Framework group  C1[X(C7H10O2)]
 Deg. of freedom    51
 Full point group                 C1      NOp   1
 Largest Abelian subgroup         C1      NOp   1
 Largest concise Abelian subgroup C1      NOp   1
                         Standard orientation:                         
 ---------------------------------------------------------------------
 Center     Atomic      Atomic             Coordinates (Angstroms)
 Number     Number       Type             X           Y           Z
 ---------------------------------------------------------------------
      1          6           0       -2.298676   -1.319489    0.646810
      2          6           0       -1.404405   -0.642519   -0.403156
      3          6           0        0.016452   -1.136427   -0.481170
      4          6           0        0.928664   -0.165860   -0.358738
      5          6           0        2.417249   -0.333832   -0.385077
      6          8           0        3.040322    0.179099    0.790157
      7          6           0        0.285367    1.185259   -0.161144
      8          6           0       -1.214019    0.863250   -0.117050
      9          8           0       -2.101170    1.640186    0.120816
     10          1           0       -2.489613   -2.364448    0.385257
     11          1           0       -1.828779   -1.297056    1.635225
     12          1           0       -3.254944   -0.793879    0.710990
     13          1           0       -1.904821   -0.728291   -1.380224
     14          1           0        0.258713   -2.184574   -0.629477
     15          1           0        2.673849   -1.390756   -0.552449
     16          1           0        2.853297    0.243305   -1.209778
     17          1           0        2.694329   -0.319547    1.538039
     18          1           0        0.607350    1.693787    0.754435
     19          1           0        0.493603    1.884887   -0.982655
 ---------------------------------------------------------------------
 Rotational constants (GHZ):      2.9931171      1.0367904      0.8621908
 1\1\GINC-ALCHEMY-TI\FOpt\RB3LYP\6-31G(2df,p)\C7H10O2\PUCK\28-Jan-2020\
 0\\# b3lyp 6-31G(2df,p) opt Freq\\titel\\0,1\C,2.877748606,3.250302901
 ,0.6321452151\C,1.8894430664,2.5173314882,-0.2878776149\C,0.9154717902
 ,1.5899545092,0.3905167051\C,0.9328879694,0.3445461016,-0.0971049494\C
 ,0.0934962552,-0.8060970966,0.3679067184\O,0.8824032017,-1.9237744026,
 0.7690540666\C,1.9452244193,0.1917939247,-1.2062665433\C,2.6094187537,
 1.5730424011,-1.2754997442\O,3.5482580587,1.8765848324,-1.9637504873\H
 ,2.3595644994,3.9738946006,1.2683095075\H,3.4064742792,2.5448160757,1.
 2809968468\H,3.618796773,3.7813004949,0.0290509799\H,1.3597306094,3.27
 4030404,-0.8872499843\H,0.2637824957,1.9202378798,1.1939530528\H,-0.58
 35317927,-0.4777792796,1.1708919188\H,-0.5301008365,-1.1815839165,-0.4
 52759848\H,1.4327236938,-1.6357967118,1.5051939655\H,2.6856437289,-0.5
 93664022,-1.0181336062\H,1.4878147393,-0.0521986941,-2.1752688087\\Ver
 sion=ES64L-G09RevD.01\State=1-A\HF=-423.2165915\RMSD=5.198e-09\RMSF=5.
 550e-06\Dipole=-0.7038193,0.2664541,0.8097476\Quadrupole=-0.5519329,-1
 .4687517,2.0206847,-2.987885,3.7852747,1.6104302\PG=C01 [X(C7H10O2)]\\
 @


 Children are likely to live up to what you believe of them.
 -- Lady Bird Johnson
 Job cpu time:       0 days  0 hours  6 minutes 30.8 seconds.
 File lengths (MBytes):  RWF=     52 Int=      0 D2E=      0 Chk=      7 Scr=      1
 Normal termination of Gaussian 09 at Tue Jan 28 12:35:58 2020.
 Link1:  Proceeding to internal job step number  2.
 ----------------------------------------------------------------------
 #N Geom=AllCheck Guess=TCheck SCRF=Check GenChk RB3LYP/6-31G(2df,p) Fr
 eq
 ----------------------------------------------------------------------
 1/10=4,29=7,30=1,38=1,40=1/1,3;
 2/12=2,40=1/2;
 3/5=1,6=6,7=104,11=2,14=-4,16=1,25=1,30=1,70=2,71=2,74=-5,116=1,140=1/1,2,3;
 4/5=101/1;
 5/5=2,98=1/2;
 8/6=4,10=90,11=11/1;
 11/6=1,8=1,9=11,15=111,16=1/1,2,10;
 10/6=1/2;
 6/7=2,8=2,9=2,10=2,18=1,28=1/1;
 7/8=1,10=1,25=1/1,2,3,16;
 1/10=4,30=1/3;
 99//99;
 Structure from the checkpoint file:  "/scratch/puck/g09_8ed972d0-c15d-4a97-812d-381a00090487/Gau-158003.chk"
 -----
 titel
 -----
 Charge =  0 Multiplicity = 1
 Redundant internal coordinates found in file.
 C,0,2.877748606,3.250302901,0.6321452151
 C,0,1.8894430664,2.5173314882,-0.2878776149
 C,0,0.9154717902,1.5899545092,0.3905167051
 C,0,0.9328879694,0.3445461016,-0.0971049494
 C,0,0.0934962552,-0.8060970966,0.3679067184
 O,0,0.8824032017,-1.9237744026,0.7690540666
 C,0,1.9452244193,0.1917939247,-1.2062665433
 C,0,2.6094187537,1.5730424011,-1.2754997442
 O,0,3.5482580587,1.8765848324,-1.9637504873
 H,0,2.3595644994,3.9738946006,1.2683095075
 H,0,3.4064742792,2.5448160757,1.2809968468
 H,0,3.618796773,3.7813004949,0.0290509799
 H,0,1.3597306094,3.274030404,-0.8872499843
 H,0,0.2637824957,1.9202378798,1.1939530528
 H,0,-0.5835317927,-0.4777792796,1.1708919188
 H,0,-0.5301008365,-1.1815839165,-0.452759848
 H,0,1.4327236938,-1.6357967118,1.5051939655
 H,0,2.6856437289,-0.593664022,-1.0181336062
 H,0,1.4878147393,-0.0521986941,-2.1752688087
 Recover connectivity data from disk.

 GradGradGradGradGradGradGradGradGradGradGradGradGradGradGradGradGradGrad
 Berny optimization.
 Initialization pass.
                           ----------------------------
                           !    Initial Parameters    !
                           ! (Angstroms and Degrees)  !
 --------------------------                            --------------------------
 ! Name  Definition              Value          Derivative Info.                !
 --------------------------------------------------------------------------------
 ! R1    R(1,2)                  1.5364         calculate D2E/DX2 analytically  !
 ! R2    R(1,10)                 1.094          calculate D2E/DX2 analytically  !
 ! R3    R(1,11)                 1.0947         calculate D2E/DX2 analytically  !
 ! R4    R(1,12)                 1.0931         calculate D2E/DX2 analytically  !
 ! R5    R(2,3)                  1.5063         calculate D2E/DX2 analytically  !
 ! R6    R(2,8)                  1.5445         calculate D2E/DX2 analytically  !
 ! R7    R(2,13)                 1.1011         calculate D2E/DX2 analytically  !
 ! R8    R(3,4)                  1.3376         calculate D2E/DX2 analytically  !
 ! R9    R(3,14)                 1.086          calculate D2E/DX2 analytically  !
 ! R10   R(4,5)                  1.4983         calculate D2E/DX2 analytically  !
 ! R11   R(4,7)                  1.5094         calculate D2E/DX2 analytically  !
 ! R12   R(5,6)                  1.4257         calculate D2E/DX2 analytically  !
 ! R13   R(5,15)                 1.1004         calculate D2E/DX2 analytically  !
 ! R14   R(5,16)                 1.097          calculate D2E/DX2 analytically  !
 ! R15   R(6,17)                 0.9632         calculate D2E/DX2 analytically  !
 ! R16   R(7,8)                  1.5342         calculate D2E/DX2 analytically  !
 ! R17   R(7,18)                 1.0957         calculate D2E/DX2 analytically  !
 ! R18   R(7,19)                 1.099          calculate D2E/DX2 analytically  !
 ! R19   R(8,9)                  1.203          calculate D2E/DX2 analytically  !
 ! A1    A(2,1,10)             111.0438         calculate D2E/DX2 analytically  !
 ! A2    A(2,1,11)             110.9889         calculate D2E/DX2 analytically  !
 ! A3    A(2,1,12)             109.7223         calculate D2E/DX2 analytically  !
 ! A4    A(10,1,11)            108.0818         calculate D2E/DX2 analytically  !
 ! A5    A(10,1,12)            108.7023         calculate D2E/DX2 analytically  !
 ! A6    A(11,1,12)            108.2199         calculate D2E/DX2 analytically  !
 ! A7    A(1,2,3)              116.1021         calculate D2E/DX2 analytically  !
 ! A8    A(1,2,8)              112.008          calculate D2E/DX2 analytically  !
 ! A9    A(1,2,13)             107.9127         calculate D2E/DX2 analytically  !
 ! A10   A(3,2,8)              102.298          calculate D2E/DX2 analytically  !
 ! A11   A(3,2,13)             110.928          calculate D2E/DX2 analytically  !
 ! A12   A(8,2,13)             107.2379         calculate D2E/DX2 analytically  !
 ! A13   A(2,3,4)              113.6184         calculate D2E/DX2 analytically  !
 ! A14   A(2,3,14)             122.2756         calculate D2E/DX2 analytically  !
 ! A15   A(4,3,14)             124.105          calculate D2E/DX2 analytically  !
 ! A16   A(3,4,5)              126.4857         calculate D2E/DX2 analytically  !
 ! A17   A(3,4,7)              111.7674         calculate D2E/DX2 analytically  !
 ! A18   A(5,4,7)              121.7412         calculate D2E/DX2 analytically  !
 ! A19   A(4,5,6)              112.296          calculate D2E/DX2 analytically  !
 ! A20   A(4,5,15)             110.0005         calculate D2E/DX2 analytically  !
 ! A21   A(4,5,16)             110.4363         calculate D2E/DX2 analytically  !
 ! A22   A(6,5,15)             111.6559         calculate D2E/DX2 analytically  !
 ! A23   A(6,5,16)             104.8758         calculate D2E/DX2 analytically  !
 ! A24   A(15,5,16)            107.3544         calculate D2E/DX2 analytically  !
 ! A25   A(5,6,17)             107.2672         calculate D2E/DX2 analytically  !
 ! A26   A(4,7,8)              103.4384         calculate D2E/DX2 analytically  !
 ! A27   A(4,7,18)             113.552          calculate D2E/DX2 analytically  !
 ! A28   A(4,7,19)             113.0318         calculate D2E/DX2 analytically  !
 ! A29   A(8,7,18)             111.1361         calculate D2E/DX2 analytically  !
 ! A30   A(8,7,19)             109.8943         calculate D2E/DX2 analytically  !
 ! A31   A(18,7,19)            105.8726         calculate D2E/DX2 analytically  !
 ! A32   A(2,8,7)              108.6491         calculate D2E/DX2 analytically  !
 ! A33   A(2,8,9)              125.1248         calculate D2E/DX2 analytically  !
 ! A34   A(7,8,9)              126.2162         calculate D2E/DX2 analytically  !
 ! D1    D(10,1,2,3)           -67.6328         calculate D2E/DX2 analytically  !
 ! D2    D(10,1,2,8)           175.3757         calculate D2E/DX2 analytically  !
 ! D3    D(10,1,2,13)           57.5643         calculate D2E/DX2 analytically  !
 ! D4    D(11,1,2,3)            52.6183         calculate D2E/DX2 analytically  !
 ! D5    D(11,1,2,8)           -64.3732         calculate D2E/DX2 analytically  !
 ! D6    D(11,1,2,13)          177.8154         calculate D2E/DX2 analytically  !
 ! D7    D(12,1,2,3)           172.175          calculate D2E/DX2 analytically  !
 ! D8    D(12,1,2,8)            55.1836         calculate D2E/DX2 analytically  !
 ! D9    D(12,1,2,13)          -62.6279         calculate D2E/DX2 analytically  !
 ! D10   D(1,2,3,4)           -125.5057         calculate D2E/DX2 analytically  !
 ! D11   D(1,2,3,14)            54.8566         calculate D2E/DX2 analytically  !
 ! D12   D(8,2,3,4)             -3.2361         calculate D2E/DX2 analytically  !
 ! D13   D(8,2,3,14)           177.1262         calculate D2E/DX2 analytically  !
 ! D14   D(13,2,3,4)           110.8487         calculate D2E/DX2 analytically  !
 ! D15   D(13,2,3,14)          -68.789          calculate D2E/DX2 analytically  !
 ! D16   D(1,2,8,7)            129.7019         calculate D2E/DX2 analytically  !
 ! D17   D(1,2,8,9)            -49.2085         calculate D2E/DX2 analytically  !
 ! D18   D(3,2,8,7)              4.6855         calculate D2E/DX2 analytically  !
 ! D19   D(3,2,8,9)           -174.2249         calculate D2E/DX2 analytically  !
 ! D20   D(13,2,8,7)          -112.0849         calculate D2E/DX2 analytically  !
 ! D21   D(13,2,8,9)            69.0047         calculate D2E/DX2 analytically  !
 ! D22   D(2,3,4,5)            179.596          calculate D2E/DX2 analytically  !
 ! D23   D(2,3,4,7)              0.4542         calculate D2E/DX2 analytically  !
 ! D24   D(14,3,4,5)            -0.774          calculate D2E/DX2 analytically  !
 ! D25   D(14,3,4,7)          -179.9158         calculate D2E/DX2 analytically  !
 ! D26   D(3,4,5,6)           -123.3524         calculate D2E/DX2 analytically  !
 ! D27   D(3,4,5,15)             1.6562         calculate D2E/DX2 analytically  !
 ! D28   D(3,4,5,16)           119.9746         calculate D2E/DX2 analytically  !
 ! D29   D(7,4,5,6)             55.7104         calculate D2E/DX2 analytically  !
 ! D30   D(7,4,5,15)          -179.281          calculate D2E/DX2 analytically  !
 ! D31   D(7,4,5,16)           -60.9626         calculate D2E/DX2 analytically  !
 ! D32   D(3,4,7,8)              2.5762         calculate D2E/DX2 analytically  !
 ! D33   D(3,4,7,18)           123.1454         calculate D2E/DX2 analytically  !
 ! D34   D(3,4,7,19)          -116.2236         calculate D2E/DX2 analytically  !
 ! D35   D(5,4,7,8)           -176.6124         calculate D2E/DX2 analytically  !
 ! D36   D(5,4,7,18)           -56.0432         calculate D2E/DX2 analytically  !
 ! D37   D(5,4,7,19)            64.5877         calculate D2E/DX2 analytically  !
 ! D38   D(4,5,6,17)            61.2384         calculate D2E/DX2 analytically  !
 ! D39   D(15,5,6,17)          -62.8555         calculate D2E/DX2 analytically  !
 ! D40   D(16,5,6,17)         -178.8021         calculate D2E/DX2 analytically  !
 ! D41   D(4,7,8,2)             -4.5055         calculate D2E/DX2 analytically  !
 ! D42   D(4,7,8,9)            174.3899         calculate D2E/DX2 analytically  !
 ! D43   D(18,7,8,2)          -126.7028         calculate D2E/DX2 analytically  !
 ! D44   D(18,7,8,9)            52.1927         calculate D2E/DX2 analytically  !
 ! D45   D(19,7,8,2)           116.4421         calculate D2E/DX2 analytically  !
 ! D46   D(19,7,8,9)           -64.6625         calculate D2E/DX2 analytically  !
 --------------------------------------------------------------------------------
 Trust Radius=3.00D-01 FncErr=1.00D-07 GrdErr=1.00D-07
 Number of steps in this run=      2 maximum allowed number of steps=      2.
 GradGradGradGradGradGradGradGradGradGradGradGradGradGradGradGradGradGrad

                          Input orientation:                          
 ---------------------------------------------------------------------
 Center     Atomic      Atomic             Coordinates (Angstroms)
 Number     Number       Type             X           Y           Z
 ---------------------------------------------------------------------
      1          6           0        2.877749    3.250303    0.632145
      2          6           0        1.889443    2.517331   -0.287878
      3          6           0        0.915472    1.589955    0.390517
      4          6           0        0.932888    0.344546   -0.097105
      5          6           0        0.093496   -0.806097    0.367907
      6          8           0        0.882403   -1.923774    0.769054
      7          6           0        1.945224    0.191794   -1.206267
      8          6           0        2.609419    1.573042   -1.275500
      9          8           0        3.548258    1.876585   -1.963750
     10          1           0        2.359564    3.973895    1.268310
     11          1           0        3.406474    2.544816    1.280997
     12          1           0        3.618797    3.781300    0.029051
     13          1           0        1.359731    3.274030   -0.887250
     14          1           0        0.263782    1.920238    1.193953
     15          1           0       -0.583532   -0.477779    1.170892
     16          1           0       -0.530101   -1.181584   -0.452760
     17          1           0        1.432724   -1.635797    1.505194
     18          1           0        2.685644   -0.593664   -1.018134
     19          1           0        1.487815   -0.052199   -2.175269
 ---------------------------------------------------------------------
                    Distance matrix (angstroms):
                    1          2          3          4          5
     1  C    0.000000
     2  C    1.536371   0.000000
     3  C    2.581796   1.506276   0.000000
     4  C    3.571794   2.381678   1.337580   0.000000
     5  C    4.927095   3.834143   2.533223   1.498264   0.000000
     6  O    5.547182   4.674896   3.534215   2.428592   1.425656
     7  C    3.688338   2.500935   2.359017   1.509436   2.627300
     8  C    2.554273   1.544488   2.375995   2.389262   3.832878
     9  O    3.012534   2.443517   3.543486   3.559729   4.956691
    10  H    1.093986   2.182730   2.922173   4.131820   5.366014
    11  H    1.094656   2.182546   2.812438   3.585942   4.799810
    12  H    1.093084   2.165347   3.498660   4.363634   5.795411
    13  H    2.147907   1.101107   2.160131   3.064050   4.452663
    14  H    2.986222   2.279280   1.085954   2.144140   2.853814
    15  H    5.115594   4.149012   2.670491   2.140926   1.100429
    16  H    5.694917   4.423048   3.237626   2.143805   1.096976
    17  H    5.169553   4.546666   3.451887   2.595950   1.943027
    18  H    4.187649   3.293251   3.144200   2.191047   2.947111
    19  H    4.551923   3.213415   3.099597   2.187262   2.996703
                    6          7          8          9         10
     6  O    0.000000
     7  C    3.083360   0.000000
     8  C    4.403466   1.534208   0.000000
     9  O    5.386811   2.445817   1.203016   0.000000
    10  H    6.100308   4.538666   3.506777   4.032110   0.000000
    11  H    5.157647   3.722693   2.848739   3.315874   1.771566
    12  H    6.370505   4.148664   2.756284   2.757567   1.777223
    13  H    5.476163   3.153531   2.146117   2.810936   2.477078
    14  H    3.916588   3.402326   3.423558   4.556400   2.935189
    15  H    2.097937   3.534660   4.515045   5.695674   5.337481
    16  H    2.009687   2.929364   4.256930   5.316813   6.155583
    17  H    0.963164   3.309798   4.406077   5.370837   5.690675
    18  H    2.866166   1.095700   2.183269   2.782162   5.118275
    19  H    3.540954   1.098964   2.170020   2.830260   5.369135
                   11         12         13         14         15
    11  H    0.000000
    12  H    1.772383   0.000000
    13  H    3.069561   2.490042   0.000000
    14  H    3.205337   4.009573   2.713902   0.000000
    15  H    5.006831   6.091234   4.699818   2.543415   0.000000
    16  H    5.691098   6.486580   4.859295   3.600446   1.770435
    17  H    4.628550   6.025185   5.462190   3.756152   2.349053
    18  H    3.956723   4.594310   4.090750   4.132607   3.936086
    19  H    4.729853   4.908750   3.569201   4.091505   3.958331
[...]
 124428,0.00068284,0.00363260,-0.01546861,-0.03718546,-0.00133549,-0.00
 256434,-0.45772473,-0.14647348,0.08877775,0.78125478,0.00216360,0.0004
 7813,-0.00248329,-0.00043927,0.00903176,0.00855552,0.02546718,-0.15163
 047,-0.13838091,-0.15511197,0.12795190,0.39348118,0.00175826,0.0010479
 4,-0.00224575,0.00828903,-0.00123102,0.00854622,0.00338123,-0.00294268
 ,0.00065080,-0.13409623,-0.06205909,0.03068953,0.52763524,-0.00038433,
 -0.00030341,-0.00046799,0.00081423,-0.00057985,-0.00182050,-0.01814741
 ,-0.02537382,0.00725563,-0.06445285,-0.14182486,0.01897305,0.02290004,
 0.45991679,0.00061534,0.00057266,-0.00004746,0.00632292,-0.00546228,0.
 00516416,-0.00722057,-0.00840958,0.00870582,0.03328708,0.02465716,-0.0
 9811809,-0.00620892,0.06669302,0.57881967,-0.00007563,-0.00005245,-0.0
 0000788,-0.00084088,-0.00020011,-0.00096361,0.00004732,-0.00075310,-0.
 00007787,0.01116922,-0.00398403,0.00044708,-0.11499965,0.07559974,-0.0
 2340400,0.30342563,-0.00071136,-0.00049264,0.00179075,-0.00254892,0.00
 004616,-0.00376625,-0.00289843,0.00126081,0.00509683,0.02166359,-0.044
 78581,0.01406457,0.05096986,-0.15912286,0.00290174,-0.02572158,0.30722
 339,0.00007885,0.00022080,-0.00060764,0.00068683,0.00060626,0.00121582
 ,0.00146531,-0.00000520,-0.00103198,-0.00847992,0.01620794,-0.00034429
 ,-0.03899271,0.03530330,-0.09004788,0.26948443,0.07752472,0.38490032,-
 0.00353675,0.00163141,0.00271794,0.01056369,0.00257832,0.00916980,-0.0
 0125750,0.00970582,0.01294313,-0.12722266,0.01014898,0.05792003,-0.010
 68825,0.00064717,0.01417287,-0.00022091,0.00070417,0.00002905,0.477525
 26,0.00352360,-0.00230826,-0.00163283,-0.00825189,-0.01926421,-0.00906
 793,0.01951848,-0.01029708,-0.02755205,0.00492204,-0.08622945,-0.00810
 157,-0.01644861,0.00720415,0.01865709,0.00039176,0.00146226,-0.0003417
 4,-0.06295147,0.49408984,-0.00096999,-0.00022828,0.00001935,0.00602202
 ,-0.01419834,0.00654645,0.01655886,-0.01904615,-0.01646499,0.05622185,
 -0.01372020,-0.13865173,0.00574238,0.00200176,-0.00519817,0.00085764,-
 0.00185284,0.00070312,0.01875087,0.04042114,0.50677260,0.01794847,-0.0
 0843242,-0.01204538,-0.08368401,0.00783337,0.00019924,-0.02319044,0.00
 249870,0.02261838,-0.02305027,-0.01920720,0.01348177,-0.00240731,0.001
 46232,0.00359939,0.00140684,0.00088735,-0.00140679,-0.08426481,-0.0076
 7908,-0.00400746,0.71315161,0.00072765,-0.01532275,-0.01229803,0.02161
 650,-0.11676355,-0.03050832,-0.00267745,0.01477351,0.00712432,-0.01548
 086,0.00321135,0.01804114,0.00204386,-0.00111397,-0.00432713,0.0007279
 8,-0.00067790,-0.00050551,-0.01942509,-0.14546206,-0.00228618,0.156068
 97,0.44857598,0.00245898,-0.01854541,-0.01771868,0.00532287,-0.0181490
 7,-0.09379336,0.02356186,0.00189576,-0.02214185,0.01581891,0.02135567,
 -0.00770427,0.00382458,-0.00183745,-0.00413505,-0.00011058,-0.00163572
 ,0.00078168,-0.00992491,-0.01610537,-0.08162124,-0.34980642,-0.0518916
 5,0.52040969,-0.00445159,-0.00300236,-0.00065015,-0.02059336,0.0021341
 1,0.03303029,0.00067935,0.00626572,0.00280141,0.00171565,-0.00605705,-
 0.00247341,-0.00039769,0.00196241,0.00047088,0.00000852,-0.00099815,0.
 00060798,-0.01752847,-0.02553172,0.01983911,-0.50488636,-0.14035159,0.
 32362010,0.54200860,-0.00012480,-0.00014829,-0.00043958,0.01218710,0.0
 2163751,-0.01062422,0.00182663,-0.00446596,-0.00347092,-0.00112416,-0.
 00955553,-0.00439239,-0.00142427,0.00186105,0.00259299,-0.00010225,0.0
 0008410,0.00021144,-0.03686288,-0.00362348,0.02355878,-0.14132030,-0.1
 4315664,0.09237569,0.16540973,0.12836980,0.00238651,0.00276861,0.00308
 833,0.03605852,-0.00199841,-0.01485595,0.00081215,-0.00671555,-0.00147
 145,-0.00047464,0.00041782,0.00214574,-0.00054365,-0.00081100,0.000389
 05,-0.00001979,0.00098762,-0.00041853,0.01643104,0.01490150,0.01044434
 ,0.32184658,0.09118217,-0.30891111,-0.38061239,-0.10212388,0.31258214,
 -0.10840602,0.08555550,0.07501088,0.00986103,-0.01654297,-0.01644384,0
 .00120133,0.00062552,0.00030683,0.00023254,0.00008686,-0.00027383,-0.0
 0013321,-0.00002368,0.00001706,-0.00000805,0.00009080,-0.00000454,0.00
 105838,-0.00104021,-0.00002241,-0.00544567,-0.00139885,-0.00042758,0.0
 0196374,0.00059913,-0.00038921,0.11665447,0.08591967,-0.16170338,-0.09
 963802,0.00610414,-0.01096237,-0.01009858,0.00085278,0.00061275,-0.000
 03061,-0.00005875,-0.00017159,-0.00004208,0.00002133,0.00001125,-0.000
 01478,-0.00007894,0.00000028,0.00005997,0.00057650,-0.00051231,0.00008
 765,-0.00347208,0.00108249,0.00024378,0.00084992,0.00015897,-0.0002058
 7,-0.09213749,0.17308901,0.07407015,-0.09894473,-0.13355400,0.00916893
 ,-0.01259615,-0.01326618,0.00015299,0.00077584,0.00062000,0.00006255,-
 0.00020176,-0.00016522,-0.00000702,0.00008412,-0.00000527,-0.00003309,
 -0.00006584,0.00006783,0.00062942,-0.00065134,-0.00033550,-0.00384510,
 -0.00058978,-0.00073506,0.00035203,-0.00020287,0.00014044,-0.07886960,
 0.11175001,0.14453858,-0.10581668,0.08176520,-0.07169941,-0.01116702,0
 .01208429,-0.01308720,0.00130978,0.00165666,0.00057533,0.00030716,-0.0
 0072874,0.00007349,-0.00013016,0.00000829,-0.00004725,0.00002559,0.000
 03100,0.00000840,-0.00007199,-0.00004539,-0.00030314,-0.00058305,0.001
 02680,0.00138572,0.00057566,0.00006762,-0.00051321,-0.00767446,0.01001
 215,-0.00949410,0.11386878,0.08261661,-0.16131113,0.10148769,-0.008726
 23,0.01054179,-0.01057492,0.00041110,0.00149091,0.00016635,0.00047972,
 0.00001951,-0.00002587,-0.00005916,-0.00008437,0.00011164,-0.00000160,
 0.00011677,-0.00007419,0.00008775,0.00013877,-0.00000633,-0.00039218,0
 .00115282,0.00010575,0.00007023,0.00014071,0.00018237,0.00863386,-0.01
 381265,0.01314982,-0.08860238,0.17255357,-0.07203352,0.10060524,-0.137
 21614,-0.00917415,0.01129815,-0.01285876,0.00139775,0.00051128,0.00076
 759,-0.00000916,-0.00056184,0.00033324,-0.00016124,0.00009964,-0.00024
 710,0.00007090,-0.00007270,0.00002201,-0.00000809,-0.00007212,-0.00004
 528,-0.00180129,0.00163786,0.00088233,0.00127924,-0.00038409,-0.000312
 80,0.00917417,-0.01257699,0.01202534,0.08351416,-0.10924301,0.14840794
 ,-0.16775003,-0.08637627,0.10076911,-0.01551394,-0.01178824,0.01090861
 ,-0.00113627,-0.00118357,-0.00406398,-0.00105814,-0.00048956,0.0008333
 4,0.00061121,0.00012414,-0.00002427,-0.00001234,-0.00049997,0.00017335
 ,-0.00011927,0.00008088,0.00004379,-0.00108845,0.00002535,0.00175948,0
 .00119057,0.00144441,-0.00049323,-0.01014965,-0.00757739,0.00775832,0.
 01181472,0.00816295,-0.00937098,0.18265746,-0.08553059,-0.10883465,0.0
 7322206,-0.01057319,-0.00957228,0.00755150,-0.00166600,-0.00058964,-0.
 00335574,-0.00096567,0.00014769,0.00064006,0.00063840,0.00011826,0.000
 00033,-0.00003229,-0.00044754,0.00013716,-0.00020113,0.00046932,-0.000
 17835,-0.00253304,-0.00100306,0.00251248,0.00207963,0.00138690,-0.0001
 4306,0.01535684,0.01166615,-0.01229337,-0.01453821,-0.01025364,0.01130
 170,0.09735436,0.11628667,0.10244222,0.07496926,-0.13108556,-0.0155072
 7,-0.01082348,0.01187928,-0.00166530,-0.00181481,-0.00313118,-0.000827
 64,-0.00071285,0.00083593,0.00050999,0.00000770,-0.00007854,-0.0000046
 6,-0.00036607,0.00011998,-0.00009811,0.00040365,-0.00011949,-0.0001540
 2,-0.00091528,0.00124564,0.00009912,0.00086942,-0.00032420,0.01073450,
 0.00954698,-0.01015652,0.01257257,0.00735957,-0.01009702,-0.10854811,-
 0.07913686,0.14001983,-0.01278834,0.01320482,-0.01458226,-0.10103296,0
 .08462142,-0.06045073,0.01235114,-0.01799586,0.01113066,-0.00144712,-0
 .00121665,0.00233391,-0.00163747,0.00023358,-0.00224190,0.00009958,0.0
 0022065,-0.00000288,0.00066593,0.00051732,0.00243435,-0.00892529,0.010
 19988,-0.01048171,0.00140995,-0.00095051,0.00273842,0.00123354,-0.0002
 4928,0.00063466,-0.00199413,-0.00267841,-0.00267291,0.00041064,0.00050
 743,0.00058095,0.11155435,-0.00949719,0.00991366,-0.01030160,0.0884210
 5,-0.15903226,0.09502579,0.00491300,-0.01619271,0.00895587,-0.00128693
 ,0.00008412,0.00214447,-0.00105204,-0.00002269,-0.00147632,0.00010596,
 0.00006539,0.00006876,-0.00093569,-0.00094458,-0.00137908,0.00988385,-
 0.01448049,0.00919950,-0.00154617,0.00172545,-0.00095207,0.00052186,0.
 00098659,0.00050753,-0.00256780,-0.00076207,-0.00226780,0.00057256,0.0
 0063877,0.00060280,-0.08728249,0.17903501,-0.01425977,0.01331571,-0.01
 366695,-0.05832806,0.08936647,-0.11155905,-0.00673055,0.01290120,-0.00
 690156,0.00159619,-0.00065843,-0.00177385,0.00077892,-0.00010971,0.001
 39860,-0.00002202,0.00002525,-0.00008728,-0.00242020,-0.00017453,-0.00
 329421,0.01112422,-0.01249675,0.01194359,-0.00122744,0.00070729,-0.001
 60762,0.00101125,0.00060528,0.00054090,-0.00304128,-0.00268641,-0.0016
 8893,0.00037514,-0.00017277,0.00105569,0.07113865,-0.10013903,0.125174
 62,0.00107712,0.00092360,0.00017953,-0.00580002,0.00819324,0.01038165,
 -0.14634436,0.04878253,0.13325722,0.00303416,-0.00215767,0.00121097,-0
 .00289163,0.00018616,-0.00383560,-0.00002001,0.00118092,-0.00013465,0.
 00639613,-0.00223252,0.00498898,-0.00016277,-0.00388646,0.00098790,-0.
 00138769,0.00107450,0.00101503,-0.00014147,-0.00051904,-0.00030408,-0.
 00035641,-0.00000148,-0.00015398,0.00008405,-0.00005842,-0.00021037,0.
 00004944,-0.00028185,0.00027370,0.14648129,0.00082340,0.00109227,0.000
 19159,-0.01098654,0.00992336,0.01363544,0.04514102,-0.08080729,-0.0635
 0002,0.01839034,-0.00334191,-0.02214609,0.00319997,0.00160267,-0.00013
 237,-0.00050874,-0.00019826,0.00032631,-0.00278405,-0.00316260,-0.0028
 0041,-0.00224302,-0.00554182,0.00006438,-0.00137701,0.00186726,0.00174
 285,0.00009353,-0.00027663,-0.00034394,-0.00004775,-0.00003159,-0.0001
 2761,0.00014435,-0.00011467,-0.00003446,0.00092302,0.00016696,-0.00025
 302,-0.05135670,0.07870078,-0.00002107,0.00010843,0.00005874,0.0038576
 0,-0.00673825,-0.00504804,0.13231616,-0.06658473,-0.19944089,0.0086725
 9,-0.00069848,-0.00426715,-0.00348757,0.00132233,-0.00271814,-0.000048
 28,0.00107320,0.00018368,0.00486188,-0.00355534,0.00586393,0.00076938,
 0.00201188,0.00109718,0.00092138,-0.00034366,-0.00107222,0.00021652,0.
 00028489,0.00024581,-0.00002541,0.00000532,0.00004601,0.00011118,0.000
 14233,-0.00000459,-0.00033348,0.00016068,0.00008819,-0.14738016,0.0737
 8789,0.20528864,0.00002655,-0.00001299,0.00009149,-0.00025248,-0.00027
 307,-0.00045298,0.00038252,0.00194419,-0.00068943,-0.01216185,0.003146
 99,0.01859709,-0.13349641,0.03352425,0.10500603,-0.01613825,0.01807775
 ,0.00773247,-0.00003114,-0.00343470,-0.00011675,-0.00016921,0.00126463
 ,0.00080635,-0.00042098,-0.00077663,0.00001669,-0.00001148,-0.00004702
 ,-0.00002809,-0.00001265,0.00001800,0.00001296,-0.00001810,-0.00000797
 ,0.00000539,0.00003440,0.00001254,-0.00004392,0.00037491,-0.00092458,-
 0.00027893,0.14980295,0.00008512,-0.00001979,-0.00006646,0.00023951,0.
 00004886,-0.00007218,-0.00001123,0.00137866,0.00077986,-0.01676763,0.0
 0691834,0.01954233,0.03638576,-0.06573695,-0.04973756,0.02668578,-0.01
 900885,-0.01395498,-0.00189896,-0.00401728,-0.00004628,-0.00099852,0.0
 0113412,0.00142888,-0.00032991,-0.00083857,-0.00010192,-0.00001997,-0.
 00001574,-0.00002368,-0.00000970,-0.00000124,0.00000044,0.00002400,0.0
 0003542,0.00002324,0.00001804,0.00001891,-0.00002475,0.00032295,0.0000
 1301,-0.00063744,-0.04813735,0.08100624,-0.00005015,0.00000975,-0.0000
 6731,0.00015211,0.00042714,0.00026192,-0.00107491,-0.00057636,0.000688
 93,0.00590484,-0.00454208,-0.00868298,0.10746587,-0.05076117,-0.192810
 43,-0.00863061,0.00565458,0.01423284,0.00105477,0.00244322,0.00146961,
 -0.00000949,-0.00160091,-0.00032520,0.00054246,0.00085879,-0.00020330,
 0.00001404,0.00003993,0.00003840,0.00000940,-0.00001031,-0.00000200,0.
 00001089,-0.00000615,-0.00000729,-0.00001716,0.00003053,0.00002402,-0.
 00015040,0.00082665,0.00025526,-0.11928329,0.05348968,0.20040758,-0.00
 001317,0.00007614,0.00005498,0.00076624,-0.00071746,0.00038081,-0.0016
 8614,-0.00019063,0.00145055,-0.00927087,-0.01120106,-0.01426022,-0.123
 83343,-0.04962340,-0.09795265,-0.01717171,0.00141202,-0.02137013,0.000
 96120,0.00077803,-0.00045723,0.00022110,-0.00073467,-0.00008965,0.0000
 3767,0.00028691,0.00001270,0.00001350,0.00000612,0.00001472,0.00000482
 ,0.00001553,-0.00002900,-0.00002150,-0.00002179,-0.00002080,-0.0003253
 6,-0.00022438,0.00013883,-0.00003388,-0.00007748,-0.00013913,0.0115342
 4,0.00614353,0.01421521,0.14095600,0.00014370,0.00021969,0.00011777,0.
 00177449,-0.00111346,0.00136595,-0.00265404,-0.00015142,0.00178142,-0.
 01490846,-0.01287882,-0.01936765,-0.05825180,-0.07902724,-0.07827311,0
 .02375674,0.00456377,0.02685591,0.00113398,0.00100461,-0.00005642,0.00
 051381,-0.00119184,-0.00054671,-0.00011612,0.00045411,0.00019033,0.000
 01554,0.00000308,-0.00000652,0.00002037,0.00004355,-0.00007182,-0.0000
 4785,-0.00004972,-0.00001689,-0.00073585,-0.00049488,0.00045367,-0.000
 69486,0.00024132,-0.00050135,-0.00481230,-0.00139954,-0.00572386,0.050
 69262,0.09346608,-0.00005361,-0.00011034,0.00000296,-0.00070019,0.0006
 1289,-0.00065012,0.00024356,0.00086008,-0.00000188,0.00695239,0.002222
 48,0.00990438,-0.09997977,-0.06785758,-0.19186178,-0.01173112,0.001994
 25,-0.00944213,-0.00026167,-0.00030217,0.00078756,-0.00019555,0.000199
 40,0.00028792,-0.00008057,-0.00015230,0.00003802,-0.00000450,-0.000002
 68,-0.00001368,0.00000979,-0.00002060,0.00002808,-0.00002036,-0.000010
 79,-0.00000862,0.00020773,0.00027861,-0.00008698,0.00001448,0.00020066
 ,0.00010908,-0.01230957,-0.01002381,-0.01742830,0.11875153,0.07005964,
 0.20717707,-0.00004044,-0.00011447,0.00016660,-0.00027321,0.00023331,-
 0.00025742,-0.00012975,-0.00037007,-0.00016131,0.00298411,0.00021905,0
 .00132633,-0.01732279,-0.00732120,-0.02152576,-0.16861571,-0.06086999,
 -0.20913180,-0.00002249,-0.00013878,-0.00007201,0.00001734,-0.00014227
 ,-0.00004920,-0.00014714,0.00002282,0.00006875,-0.00000743,0.00003967,
 -0.00000582,-0.00000849,0.00000171,-0.00003802,-0.00004212,-0.00002509
 ,-0.00003185,0.00006198,0.00002578,-0.00004463,0.00009035,0.00008546,0
 .00022517,0.00034820,-0.00162439,0.00007099,-0.00189041,0.00454589,-0.
 00052108,0.18522887,0.00006490,-0.00006531,-0.00010818,-0.00016300,0.0
 0001035,0.00000373,-0.00024490,-0.00072771,-0.00109177,0.00073047,0.00
 244652,0.00131829,0.02589777,0.00273811,0.03157682,-0.09511408,-0.0896
 4988,-0.14298478,-0.00038345,-0.00000888,0.00035854,-0.00038667,-0.000
 01368,0.00034013,0.00032265,0.00004254,-0.00024595,-0.00001931,0.00000
 734,0.00001227,-0.00004257,-0.00000149,0.00000671,0.00004509,0.0000650
 8,0.00000050,0.00013737,0.00011875,-0.00010212,0.00012845,-0.00005645,
 0.00001096,0.00025229,0.00052242,-0.00055924,0.00342603,-0.00388873,0.
 00217494,0.06525552,0.08843751,-0.00003263,-0.00004282,0.00021252,-0.0
 0026061,-0.00009085,-0.00047814,-0.00007938,0.00018399,0.00028649,0.00
 074380,-0.00073978,0.00016807,-0.00585709,-0.00634462,-0.01045803,-0.2
 2479863,-0.10439889,-0.29999839,0.00009169,-0.00004610,-0.00032604,0.0
 0043475,0.00046878,-0.00009264,-0.00029869,-0.00024263,0.00016802,0.00
 001147,-0.00004340,-0.00002751,-0.00000995,0.00003349,0.00001118,-0.00
 007047,-0.00004827,-0.00003958,-0.00000619,-0.00005123,0.00001107,0.00
 023968,-0.00015563,0.00007469,0.00098004,-0.00065286,0.00188193,-0.001
 17666,0.00296702,0.00113517,0.22967375,0.10932687,0.30792230,0.0007254
 1,-0.00026366,-0.00047908,-0.00298486,-0.00113202,-0.00195795,-0.00210
 580,-0.00127040,0.00207205,-0.01298278,0.01537430,-0.00346335,-0.00060
 404,0.00202421,-0.00048502,0.00192336,-0.00102314,-0.00061732,-0.16267
 899,0.12475646,-0.02991026,0.01248611,-0.01013026,0.00415668,-0.000926
 84,0.00090858,-0.00097159,-0.00020874,-0.00016979,-0.00017105,-0.00003
 078,-0.00003726,-0.00001496,0.00005406,0.00012725,0.00009577,0.0001462
 1,0.00015379,-0.00003579,0.00117113,0.00023298,0.00110718,0.00024192,-
 0.00023249,0.00009815,-0.00003140,-0.00007207,0.00004579,-0.00014007,0
 .00000601,0.00036306,0.17593964,0.00085059,-0.00050145,-0.00021949,-0.
 00312553,-0.00186404,-0.00187894,-0.00014966,0.00046577,0.00076195,0.0
 0099441,0.00035671,-0.00427988,0.00012927,-0.00048107,-0.00018216,-0.0
 0043831,-0.00033136,0.00043604,0.12759926,-0.17724265,0.03969429,0.020
 48626,-0.01960958,0.00460979,-0.00198089,0.00329395,-0.00153481,-0.000
 35068,-0.00010698,-0.00021655,-0.00005040,0.00003381,-0.00013257,-0.00
 005212,0.00005881,0.00009326,0.00022204,-0.00052509,-0.00002871,0.0004
 1212,-0.00005474,0.00034414,0.00016921,-0.00002286,0.00006272,0.000002
 28,0.00007037,0.00004768,0.00007105,0.00001752,0.00001783,-0.14053682,
 0.19129685,-0.00002616,-0.00019186,0.00010523,0.00089866,-0.00062671,0
 .00008692,0.00261467,0.00050491,-0.00197989,0.01645726,-0.01945329,0.0
 0541008,-0.00007567,-0.00096275,0.00087615,-0.00121273,0.00070038,-0.0
 0026697,-0.03045230,0.03705935,-0.04880980,-0.00266685,-0.00149211,-0.
 00261499,0.00157565,0.00039062,0.00048614,-0.00003722,0.00003391,0.000
 02323,-0.00000685,0.00001345,-0.00006459,-0.00005273,-0.00003948,-0.00
 004722,-0.00013469,-0.00035409,0.00004796,-0.00142112,-0.00032048,-0.0
 0171165,-0.00025456,0.00010062,-0.00009483,-0.00005902,0.00013236,-0.0
 0005492,0.00036148,0.00013181,-0.00058272,0.03435318,-0.03591290,0.055
 68895,0.00024435,0.00005321,-0.00027208,0.00072410,-0.00164403,0.00166
 753,-0.00194597,-0.00001606,0.00251753,0.01236511,0.00613579,0.0214777
 3,0.00096330,0.00046634,-0.00054562,-0.00000294,0.00003342,-0.00012593
 ,-0.08952736,-0.02673419,-0.09560059,-0.00737383,0.00052587,-0.0128133
 9,0.00115041,-0.00114162,0.00263130,-0.00003236,-0.00007250,-0.0000858
 5,-0.00006069,0.00000124,0.00001810,0.00008710,0.00008947,0.00002761,0
 .00013350,0.00006414,-0.00028325,-0.00162033,0.00127179,-0.00134501,-0
 .00003315,0.00012547,-0.00032273,-0.00021690,-0.00030378,-0.00036730,-
 0.00009078,0.00008745,0.00005205,-0.00999354,-0.00425209,-0.01986100,0
 .09522999,0.00000372,-0.00044674,-0.00017347,0.00222002,-0.00336434,0.
 00167242,-0.00048112,-0.00016427,-0.00017880,0.00153959,-0.00142371,-0
 .00219970,0.00023446,0.00021881,0.00025184,-0.00028047,-0.00010782,-0.
 00009223,-0.02937065,-0.05129611,-0.05032329,-0.01297011,-0.00559293,-
 0.02542041,0.00219658,0.00076613,0.00245924,-0.00004627,-0.00005625,-0
 .00014305,-0.00003946,0.00002596,0.00004952,0.00003686,-0.00000787,-0.
 00005569,0.00030349,-0.00029883,-0.00052863,-0.00001548,-0.00002168,-0
 .00019280,0.00001677,-0.00001515,-0.00006289,-0.00004834,0.00012909,-0
 .00017033,0.00010600,0.00000599,-0.00014090,0.01128433,0.00514603,0.02
 028626,0.02531007,0.05650370,-0.00012067,-0.00030934,0.00010826,-0.001
 07212,0.00098566,-0.00164230,0.00218428,0.00170236,-0.00163495,-0.0074
 6482,-0.00734790,-0.02026237,-0.00064890,-0.00076778,0.00037249,0.0002
 0482,0.00034443,0.00001780,-0.09560719,-0.04628285,-0.23774052,0.00186
 464,-0.00175391,0.00314544,0.00020298,0.00081152,-0.00030504,-0.000024
 01,0.00000062,0.00001842,0.00007893,0.00002618,0.00000890,-0.00009907,
 -0.00012276,-0.00005655,-0.00027544,-0.00005331,0.00038179,0.00104121,
 -0.00096174,0.00095147,0.00020900,-0.00002314,0.00036117,0.00053515,0.
 00064027,0.00007818,-0.00005418,-0.00016953,0.00013160,-0.00418549,-0.
 00168170,-0.00649709,0.10323089,0.05496290,0.26256331\\0.00000650,0.00
 000428,0.00000258,-0.00000825,-0.00001508,0.00000391,0.00000395,0.0000
 1647,0.00000049,-0.00000138,-0.00000796,-0.00000063,0.00001283,-0.0000
 0529,0.00000080,-0.00001252,0.00000380,0.00000347,-0.00000786,-0.00000
 002,-0.00000338,0.00000704,0.00000960,-0.00000208,-0.00000790,-0.00000
 044,0.00000100,0.00000276,-0.00000307,0.00000295,0.00000328,-0.0000024
 7,-0.00000178,0.00000056,-0.00000171,-0.00000045,-0.00000097,0.0000040
 4,0.00000295,0.00000109,-0.00000549,0.00000292,-0.00000217,-0.00000072
 ,0.00000144,-0.00000330,0.00000364,-0.00000402,0.00001056,-0.00000240,
 -0.00000561,-0.00000030,0.00000149,-0.00000395,-0.00000392,0.00000133,
 -0.00000061\\\@


 THERE IS NOTHING NOBLE IN BEING SUPERIOR TO SOME OTHER MAN.
 TRUE NOBILITY IS BEING SUPERIOR TO YOUR FORMER SELF.

                                                   -- HINDU PROVERB
 Job cpu time:       0 days  0 hours 41 minutes 32.5 seconds.
 File lengths (MBytes):  RWF=    152 Int=      0 D2E=      0 Chk=      8 Scr=      1
 Normal termination of Gaussian 09 at Tue Jan 28 13:17:28 2020.
