 Entering Gaussian System, Link 0=/home/puck/opt/gaussian_09/g09
 Input=dsC7O2H10nsd_2095.com
 Output=dsC7O2H10nsd_2095.log
 Initial command:
 /home/puck/opt/gaussian_09/l1.exe "/scratch/puck/g09_439ba170-7fc1-4553-bd22-6fc438609afd/Gau-87930.inp" -scrdir="/scratch/puck/g09_439ba170-7fc1-4553-bd22-6fc438609afd/"
 Entering Link 1 = /home/puck/opt/gaussian_09/l1.exe PID=     87931.
  
 Copyright (c) 1988,1990,1992,1993,1995,1998,2003,2009,2013,
            Gaussian, Inc.  All Rights Reserved.
  
 This is part of the Gaussian(R) 09 program.  It is based on
 the Gaussian(R) 03 system (copyright 2003, Gaussian, Inc.),
 the Gaussian(R) 98 system (copyright 1998, Gaussian, Inc.),
 the Gaussian(R) 94 system (copyright 1995, Gaussian, Inc.),
 the Gaussian 92(TM) system (copyright 1992, Gaussian, Inc.),
 the Gaussian 90(TM) system (copyright 1990, Gaussian, Inc.),
 the Gaussian 88(TM) system (copyright 1988, Gaussian, Inc.),
 the Gaussian 86(TM) system (copyright 1986, Carnegie Mellon
 University), and the Gaussian 82(TM) system (copyright 1983,
 Carnegie Mellon University). Gaussian is a federally registered
 trademark of Gaussian, Inc.
  
 This software contains proprietary and confidential information,
 including trade secrets, belonging to Gaussian, Inc.
  
 This software is provided under written license and may be
 used, copied, transmitted, or stored only in accord with that
 written license.
  
 The following legend is applicable only to US Government
 contracts under FAR:
  
                    RESTRICTED RIGHTS LEGEND
  
 Use, reproduction and disclosure by the US Government is
 subject to restrictions as set forth in subparagraphs (a)
 and (c) of the Commercial Computer Software - Restricted
 Rights clause in FAR 52.227-19.
  
 Gaussian, Inc.
 340 Quinnipiac St., Bldg. 40, Wallingford CT 06492
  
  
 ---------------------------------------------------------------
 Warning -- This program may not be used in any manner that
 competes with the business of Gaussian, Inc. or will provide
 assistance to any competitor of Gaussian, Inc.  The licensee
 of this program is prohibited from giving any competitor of
 Gaussian, Inc. access to this program.  By using this program,
 the user acknowledges that Gaussian, Inc. is engaged in the
 business of creating and licensing software in the field of
 computational chemistry and represents and warrants to the
 licensee that it is not a competitor of Gaussian, Inc. and that
 it will not use this program in any manner prohibited above.
 ---------------------------------------------------------------
  

 Cite this work as:
 Gaussian 09, Revision D.01,
 M. J. Frisch, G. W. Trucks, H. B. Schlegel, G. E. Scuseria, 
 M. A. Robb, J. R. Cheeseman, G. Scalmani, V. Barone, B. Mennucci, 
 G. A. Petersson, H. Nakatsuji, M. Caricato, X. Li, H. P. Hratchian, 
 A. F. Izmaylov, J. Bloino, G. Zheng, J. L. Sonnenberg, M. Hada, 
 M. Ehara, K. Toyota, R. Fukuda, J. Hasegawa, M. Ishida, T. Nakajima, 
 Y. Honda, O. Kitao, H. Nakai, T. Vreven, J. A. Montgomery, Jr., 
 J. E. Peralta, F. Ogliaro, M. Bearpark, J. J. Heyd, E. Brothers, 
 K. N. Kudin, V. N. Staroverov, T. Keith, R. Kobayashi, J. Normand, 
 K. Raghavachari, A. Rendell, J. C. Burant, S. S. Iyengar, J. Tomasi, 
 M. Cossi, N. Rega, J. M. Millam, M. Klene, J. E. Knox, J. B. Cross, 
 V. Bakken, C. Adamo, J. Jaramillo, R. Gomperts, R. E. Stratmann, 
 O. Yazyev, A. J. Austin, R. Cammi, C. Pomelli, J. W. Ochterski, 
 R. L. Martin, K. Morokuma, V. G. Zakrzewski, G. A. Voth, 
 P. Salvador, J. J. Dannenberg, S. Dapprich, A. D. Daniels, 
 O. Farkas, J. B. Foresman, J. V. Ortiz, J. Cioslowski, 
 and D. J. Fox, Gaussian, Inc., Wallingford CT, 2013.
 
 ******************************************
 Gaussian 09:  ES64L-G09RevD.01 24-Apr-2013
                27-Jan-2020 
 ******************************************
 -----------------------------
 # b3lyp 6-31G(2df,p) opt Freq
 -----------------------------
 1/14=-1,18=20,19=15,26=3,38=1/1,3;
 2/9=110,12=2,17=6,18=5,40=1/2;
 3/5=1,6=6,7=104,11=2,16=1,25=1,30=1,71=1,74=-5/1,2,3;
 4//1;
 5/5=2,38=5/2;
 6/7=2,8=2,9=2,10=2,28=1/1;
 7//1,2,3,16;
 1/14=-1,18=20,19=15,26=3/3(2);
 2/9=110/2;
 99//99;
 2/9=110/2;
 3/5=1,6=6,7=104,11=2,16=1,25=1,30=1,71=1,74=-5/1,2,3;
 4/5=5,16=3,69=1/1;
 5/5=2,38=5/2;
 7//1,2,3,16;
 1/14=-1,18=20,19=15,26=3/3(-5);
 2/9=110/2;
 6/7=2,8=2,9=2,10=2,19=2,28=1/1;
 99/9=1/99;
 -----
 titel
 -----
 Symbolic Z-matrix:
 Charge =  0 Multiplicity = 1
 C                     0.34096  -0.86517   1.28462 
 C                     1.59043  -0.4378    0.56671 
 C                     3.04123  -0.95516   0.72666 
 C                     3.17767   0.12597  -0.36566 
 C                     2.09403   1.04264   0.31483 
 O                     2.27446   2.0518    1.23684 
 C                     1.28045   1.20906  -0.97328 
 C                     1.78104  -0.23933  -0.99309 
 O                     1.49801  -1.12867  -2.00799 
 H                     0.42851  -0.70771   2.36573 
 H                    -0.52812  -0.29642   0.93622 
 H                     0.12968  -1.92785   1.11934 
 H                     3.53527  -0.76087   1.6862 
 H                     3.23455  -1.99282   0.42931 
 H                     4.05963   0.46595  -0.90996 
 H                     2.84641   1.72916   1.94257 
 H                     0.20235   1.35915  -0.86241 
 H                     1.69641   1.88019  -1.73064 
 H                     1.94506  -1.96265  -1.82388 
 

 GradGradGradGradGradGradGradGradGradGradGradGradGradGradGradGradGradGrad
 Berny optimization.
 Initialization pass.
                           ----------------------------
                           !    Initial Parameters    !
                           ! (Angstroms and Degrees)  !
 --------------------------                            --------------------------
 ! Name  Definition              Value          Derivative Info.                !
 --------------------------------------------------------------------------------
 ! R1    R(1,2)                  1.5031         estimate D2E/DX2                !
 ! R2    R(1,10)                 1.096          estimate D2E/DX2                !
 ! R3    R(1,11)                 1.0955         estimate D2E/DX2                !
 ! R4    R(1,12)                 1.096          estimate D2E/DX2                !
 ! R5    R(2,3)                  1.5486         estimate D2E/DX2                !
 ! R6    R(2,5)                  1.5839         estimate D2E/DX2                !
 ! R7    R(2,8)                  1.5839         estimate D2E/DX2                !
 ! R8    R(3,4)                  1.5429         estimate D2E/DX2                !
 ! R9    R(3,13)                 1.0966         estimate D2E/DX2                !
 ! R10   R(3,14)                 1.0966         estimate D2E/DX2                !
 ! R11   R(4,5)                  1.574          estimate D2E/DX2                !
 ! R12   R(4,8)                  1.5741         estimate D2E/DX2                !
 ! R13   R(4,15)                 1.0907         estimate D2E/DX2                !
 ! R14   R(5,6)                  1.3788         estimate D2E/DX2                !
 ! R15   R(5,7)                  1.5326         estimate D2E/DX2                !
 ! R16   R(6,16)                 0.964          estimate D2E/DX2                !
 ! R17   R(7,8)                  1.5326         estimate D2E/DX2                !
 ! R18   R(7,17)                 1.0941         estimate D2E/DX2                !
 ! R19   R(7,18)                 1.0941         estimate D2E/DX2                !
 ! R20   R(8,9)                  1.3788         estimate D2E/DX2                !
 ! R21   R(9,19)                 0.964          estimate D2E/DX2                !
 ! A1    A(2,1,10)             111.3385         estimate D2E/DX2                !
 ! A2    A(2,1,11)             111.0971         estimate D2E/DX2                !
 ! A3    A(2,1,12)             111.3401         estimate D2E/DX2                !
 ! A4    A(10,1,11)            107.607          estimate D2E/DX2                !
 ! A5    A(10,1,12)            107.6643         estimate D2E/DX2                !
 ! A6    A(11,1,12)            107.6071         estimate D2E/DX2                !
 ! A7    A(1,2,3)              129.3806         estimate D2E/DX2                !
 ! A8    A(1,2,5)              127.302          estimate D2E/DX2                !
 ! A9    A(1,2,8)              127.3031         estimate D2E/DX2                !
 ! A10   A(3,2,5)               91.7663         estimate D2E/DX2                !
 ! A11   A(3,2,8)               91.7671         estimate D2E/DX2                !
 ! A12   A(5,2,8)               71.8209         estimate D2E/DX2                !
 ! A13   A(2,3,4)               77.0336         estimate D2E/DX2                !
 ! A14   A(2,3,13)             116.9533         estimate D2E/DX2                !
 ! A15   A(2,3,14)             116.9546         estimate D2E/DX2                !
 ! A16   A(4,3,13)             117.0959         estimate D2E/DX2                !
 ! A17   A(4,3,14)             117.0958         estimate D2E/DX2                !
 ! A18   A(13,3,14)            108.9959         estimate D2E/DX2                !
 ! A19   A(3,4,5)               92.3571         estimate D2E/DX2                !
 ! A20   A(3,4,8)               92.3566         estimate D2E/DX2                !
 ! A21   A(3,4,15)             130.03           estimate D2E/DX2                !
 ! A22   A(5,4,8)               72.3406         estimate D2E/DX2                !
 ! A23   A(5,4,15)             126.2198         estimate D2E/DX2                !
 ! A24   A(8,4,15)             126.2188         estimate D2E/DX2                !
 ! A25   A(2,5,4)               75.1263         estimate D2E/DX2                !
 ! A26   A(2,5,6)              128.27           estimate D2E/DX2                !
 ! A27   A(2,5,7)               93.8056         estimate D2E/DX2                !
 ! A28   A(4,5,6)              128.7002         estimate D2E/DX2                !
 ! A29   A(4,5,7)               93.7466         estimate D2E/DX2                !
 ! A30   A(6,5,7)              123.5066         estimate D2E/DX2                !
 ! A31   A(5,6,16)             108.7987         estimate D2E/DX2                !
 ! A32   A(5,7,8)               74.624          estimate D2E/DX2                !
 ! A33   A(5,7,17)             116.9234         estimate D2E/DX2                !
 ! A34   A(5,7,18)             116.5249         estimate D2E/DX2                !
 ! A35   A(8,7,17)             116.9232         estimate D2E/DX2                !
 ! A36   A(8,7,18)             116.5252         estimate D2E/DX2                !
 ! A37   A(17,7,18)            111.1383         estimate D2E/DX2                !
 ! A38   A(2,8,4)               75.1265         estimate D2E/DX2                !
 ! A39   A(2,8,7)               93.8063         estimate D2E/DX2                !
 ! A40   A(2,8,9)              128.2697         estimate D2E/DX2                !
 ! A41   A(4,8,7)               93.746          estimate D2E/DX2                !
 ! A42   A(4,8,9)              128.6996         estimate D2E/DX2                !
 ! A43   A(7,8,9)              123.507          estimate D2E/DX2                !
 ! A44   A(8,9,19)             108.7987         estimate D2E/DX2                !
 ! D1    D(10,1,2,3)            60.0351         estimate D2E/DX2                !
 ! D2    D(10,1,2,5)           -72.4572         estimate D2E/DX2                !
 ! D3    D(10,1,2,8)          -167.4689         estimate D2E/DX2                !
 ! D4    D(11,1,2,3)           179.9558         estimate D2E/DX2                !
 ! D5    D(11,1,2,5)            47.4635         estimate D2E/DX2                !
 ! D6    D(11,1,2,8)           -47.5483         estimate D2E/DX2                !
 ! D7    D(12,1,2,3)           -60.1223         estimate D2E/DX2                !
 ! D8    D(12,1,2,5)           167.3854         estimate D2E/DX2                !
 ! D9    D(12,1,2,8)            72.3736         estimate D2E/DX2                !
 ! D10   D(1,2,3,4)           -179.9984         estimate D2E/DX2                !
 ! D11   D(1,2,3,13)           -65.9646         estimate D2E/DX2                !
 ! D12   D(1,2,3,14)            65.968          estimate D2E/DX2                !
 ! D13   D(5,2,3,4)            -35.9301         estimate D2E/DX2                !
 ! D14   D(5,2,3,13)            78.1037         estimate D2E/DX2                !
 ! D15   D(5,2,3,14)          -149.9637         estimate D2E/DX2                !
 ! D16   D(8,2,3,4)             35.9302         estimate D2E/DX2                !
 ! D17   D(8,2,3,13)           149.964          estimate D2E/DX2                !
 ! D18   D(8,2,3,14)           -78.1034         estimate D2E/DX2                !
 ! D19   D(1,2,5,4)           -179.3175         estimate D2E/DX2                !
 ! D20   D(1,2,5,6)             52.7687         estimate D2E/DX2                !
 ! D21   D(1,2,5,7)            -86.4463         estimate D2E/DX2                !
 ! D22   D(3,2,5,4)             35.448          estimate D2E/DX2                !
 ! D23   D(3,2,5,6)            -92.4658         estimate D2E/DX2                !
 ! D24   D(3,2,5,7)            128.3192         estimate D2E/DX2                !
 ! D25   D(8,2,5,4)            -55.8324         estimate D2E/DX2                !
 ! D26   D(8,2,5,6)            176.2538         estimate D2E/DX2                !
 ! D27   D(8,2,5,7)             37.0388         estimate D2E/DX2                !
 ! D28   D(1,2,8,4)            179.3154         estimate D2E/DX2                !
 ! D29   D(1,2,8,7)             86.445          estimate D2E/DX2                !
 ! D30   D(1,2,8,9)            -52.7714         estimate D2E/DX2                !
 ! D31   D(3,2,8,4)            -35.4477         estimate D2E/DX2                !
 ! D32   D(3,2,8,7)           -128.3181         estimate D2E/DX2                !
 ! D33   D(3,2,8,9)             92.4654         estimate D2E/DX2                !
 ! D34   D(5,2,8,4)             55.8316         estimate D2E/DX2                !
 ! D35   D(5,2,8,7)            -37.0388         estimate D2E/DX2                !
 ! D36   D(5,2,8,9)           -176.2553         estimate D2E/DX2                !
 ! D37   D(2,3,4,5)             36.2062         estimate D2E/DX2                !
 ! D38   D(2,3,4,8)            -36.2054         estimate D2E/DX2                !
 ! D39   D(2,3,4,15)          -179.9983         estimate D2E/DX2                !
 ! D40   D(13,3,4,5)           -77.6638         estimate D2E/DX2                !
 ! D41   D(13,3,4,8)          -150.0754         estimate D2E/DX2                !
 ! D42   D(13,3,4,15)           66.1317         estimate D2E/DX2                !
 ! D43   D(14,3,4,5)           150.0776         estimate D2E/DX2                !
 ! D44   D(14,3,4,8)            77.6661         estimate D2E/DX2                !
 ! D45   D(14,3,4,15)          -66.1268         estimate D2E/DX2                !
 ! D46   D(3,4,5,2)            -35.6124         estimate D2E/DX2                !
 ! D47   D(3,4,5,6)             91.8588         estimate D2E/DX2                !
 ! D48   D(3,4,5,7)           -128.5603         estimate D2E/DX2                !
 ! D49   D(8,4,5,2)             56.1116         estimate D2E/DX2                !
 ! D50   D(8,4,5,6)           -176.4173         estimate D2E/DX2                !
 ! D51   D(8,4,5,7)            -36.8363         estimate D2E/DX2                !
 ! D52   D(15,4,5,2)           178.4859         estimate D2E/DX2                !
 ! D53   D(15,4,5,6)           -54.0429         estimate D2E/DX2                !
 ! D54   D(15,4,5,7)            85.538          estimate D2E/DX2                !
 ! D55   D(3,4,8,2)             35.6121         estimate D2E/DX2                !
 ! D56   D(3,4,8,7)            128.5609         estimate D2E/DX2                !
 ! D57   D(3,4,8,9)            -91.8587         estimate D2E/DX2                !
 ! D58   D(5,4,8,2)            -56.1126         estimate D2E/DX2                !
 ! D59   D(5,4,8,7)             36.8363         estimate D2E/DX2                !
 ! D60   D(5,4,8,9)            176.4166         estimate D2E/DX2                !
 ! D61   D(15,4,8,2)          -178.4881         estimate D2E/DX2                !
 ! D62   D(15,4,8,7)           -85.5393         estimate D2E/DX2                !
 ! D63   D(15,4,8,9)            54.0411         estimate D2E/DX2                !
 ! D64   D(2,5,6,16)            53.6809         estimate D2E/DX2                !
 ! D65   D(4,5,6,16)           -48.623          estimate D2E/DX2                !
 ! D66   D(7,5,6,16)          -177.7337         estimate D2E/DX2                !
 ! D67   D(2,5,7,8)            -37.8357         estimate D2E/DX2                !
 ! D68   D(2,5,7,17)            74.9345         estimate D2E/DX2                !
 ! D69   D(2,5,7,18)          -150.1943         estimate D2E/DX2                !
 ! D70   D(4,5,7,8)             37.4824         estimate D2E/DX2                !
 ! D71   D(4,5,7,17)           150.2527         estimate D2E/DX2                !
 ! D72   D(4,5,7,18)           -74.8761         estimate D2E/DX2                !
 ! D73   D(6,5,7,8)           -179.8799         estimate D2E/DX2                !
 ! D74   D(6,5,7,17)           -67.1097         estimate D2E/DX2                !
 ! D75   D(6,5,7,18)            67.7615         estimate D2E/DX2                !
 ! D76   D(5,7,8,2)             37.8364         estimate D2E/DX2                !
 ! D77   D(5,7,8,4)            -37.482          estimate D2E/DX2                !
 ! D78   D(5,7,8,9)            179.8814         estimate D2E/DX2                !
 ! D79   D(17,7,8,2)           -74.9341         estimate D2E/DX2                !
 ! D80   D(17,7,8,4)          -150.2525         estimate D2E/DX2                !
 ! D81   D(17,7,8,9)            67.111          estimate D2E/DX2                !
 ! D82   D(18,7,8,2)           150.1945         estimate D2E/DX2                !
 ! D83   D(18,7,8,4)            74.8761         estimate D2E/DX2                !
 ! D84   D(18,7,8,9)           -67.7604         estimate D2E/DX2                !
 ! D85   D(2,8,9,19)           -53.6746         estimate D2E/DX2                !
 ! D86   D(4,8,9,19)            48.6289         estimate D2E/DX2                !
 ! D87   D(7,8,9,19)           177.7382         estimate D2E/DX2                !
 --------------------------------------------------------------------------------
 Trust Radius=3.00D-01 FncErr=1.00D-07 GrdErr=1.00D-06
 Number of steps in this run=    114 maximum allowed number of steps=    114.
 GradGradGradGradGradGradGradGradGradGradGradGradGradGradGradGradGradGrad

                          Input orientation:                          
 ---------------------------------------------------------------------
 Center     Atomic      Atomic             Coordinates (Angstroms)
 Number     Number       Type             X           Y           Z
 ---------------------------------------------------------------------
      1          6           0        0.340959   -0.865170    1.284620
      2          6           0        1.590433   -0.437797    0.566711
      3          6           0        3.041231   -0.955161    0.726663
      4          6           0        3.177667    0.125972   -0.365661
      5          6           0        2.094028    1.042645    0.314827
      6          8           0        2.274463    2.051796    1.236836
      7          6           0        1.280450    1.209063   -0.973284
      8          6           0        1.781044   -0.239333   -0.993089
      9          8           0        1.498009   -1.128666   -2.007988
     10          1           0        0.428513   -0.707714    2.365726
     11          1           0       -0.528120   -0.296424    0.936221
     12          1           0        0.129683   -1.927854    1.119343
     13          1           0        3.535273   -0.760871    1.686198
     14          1           0        3.234549   -1.992821    0.429306
     15          1           0        4.059628    0.465947   -0.909960
     16          1           0        2.846409    1.729162    1.942572
     17          1           0        0.202347    1.359151   -0.862408
     18          1           0        1.696409    1.880195   -1.730638
     19          1           0        1.945059   -1.962651   -1.823878
 ---------------------------------------------------------------------
                    Distance matrix (angstroms):
                    1          2          3          4          5
     1  C    0.000000
     2  C    1.503072   0.000000
     3  C    2.758783   1.548569   0.000000
     4  C    3.428221   1.925218   1.542931   0.000000
     5  C    2.766497   1.583907   2.249007   1.574048   0.000000
     6  O    3.499915   2.667403   3.144837   2.663189   1.378784
     7  C    3.206745   2.275923   3.267114   2.267537   1.532590
     8  C    2.766491   1.583887   2.249006   1.574061   1.857975
     9  O    3.499923   2.667380   3.144830   2.663194   3.235011
    10  H    1.096014   2.158556   3.094196   3.964007   3.169208
    11  H    1.095515   2.155178   3.635673   3.950465   3.009135
    12  H    1.096016   2.158578   3.094744   3.964043   3.650994
    13  H    3.221146   2.267163   1.096600   2.263736   2.685240
    14  H    3.221183   2.267178   1.096600   2.263734   3.244679
    15  H    4.518468   3.015665   2.394831   1.090734   2.386685
    16  H    3.666161   2.857653   2.953300   2.829822   1.920141
    17  H    3.094600   2.682944   3.992550   3.258837   2.250448
    18  H    4.297214   3.265292   3.985740   2.671065   2.245777
    19  H    3.666110   2.857596   2.953285   2.829852   3.691619
                    6          7          8          9         10
     6  O    0.000000
     7  C    2.565714   0.000000
     8  C    3.235012   1.532592   0.000000
     9  O    4.609458   2.565720   1.378783   0.000000
    10  H    3.506682   3.943198   3.651076   4.522211   0.000000
    11  H    3.668648   3.030450   3.009607   3.669631   1.768556
    12  H    4.522333   3.942537   3.168669   3.505883   1.769607
    13  H    3.114910   4.004711   3.244672   4.234705   3.180651
    14  H    4.234713   4.004724   2.685256   3.114921   3.643495
    15  H    3.210991   2.877509   2.386687   3.210973   5.029174
    16  H    0.963992   3.350366   3.691623   5.058882   3.458850
    17  H    3.029892   1.094132   2.250447   3.029906   3.839782
    18  H    3.028117   1.094086   2.245783   3.028123   5.008495
    19  H    5.058880   3.350371   1.920140   0.963992   4.628991
                   11         12         13         14         15
    11  H    0.000000
    12  H    1.768559   0.000000
    13  H    4.158045   3.644340   0.000000
    14  H    4.158413   3.181283   1.785473   0.000000
    15  H    5.003701   5.029197   2.918916   2.918892   0.000000
    16  H    4.062412   4.629478   2.596252   4.036556   3.347320
    17  H    2.551388   3.838883   4.700881   4.700903   3.959633
    18  H    4.098577   5.007819   4.693764   4.693771   2.873746
    19  H    4.063382   3.458229   4.036544   2.596253   3.347348
                   16         17         18         19
    16  H    0.000000
    17  H    3.872452   0.000000
    18  H    3.851985   1.804863   0.000000
    19  H    5.350520   3.872446   3.852011   0.000000
 Stoichiometry    C7H10O2
 Framework group  C1[X(C7H10O2)]
 Deg. of freedom    51
 Full point group                 C1      NOp   1
 Largest Abelian subgroup         C1      NOp   1
 Largest concise Abelian subgroup C1      NOp   1
                         Standard orientation:                         
 ---------------------------------------------------------------------
 Center     Atomic      Atomic             Coordinates (Angstroms)
 Number     Number       Type             X           Y           Z
 ---------------------------------------------------------------------
      1          6           0       -0.000004    2.033555   -0.850925
      2          6           0       -0.000017    0.806172    0.016690
      3          6           0       -0.000009    0.694784    1.561247
      4          6           0        0.000006   -0.780008    1.107790
      5          6           0        0.928989   -0.468918   -0.124217
      6          8           0        2.304731   -0.518906   -0.200890
      7          6           0        0.000009   -1.161244   -1.127469
      8          6           0       -0.928986   -0.468919   -0.124228
      9          8           0       -2.304727   -0.518929   -0.200891
     10          1           0        0.884427    2.653533   -0.664764
     11          1           0        0.000774    1.765583   -1.913160
     12          1           0       -0.885180    2.652805   -0.665873
     13          1           0        0.892730    1.056116    2.085641
     14          1           0       -0.892743    1.056086    2.085670
     15          1           0       -0.000005   -1.696029    1.699909
     16          1           0        2.675261   -0.043998    0.551738
     17          1           0        0.000013   -0.774691   -2.151042
     18          1           0        0.000015   -2.255296   -1.118891
     19          1           0       -2.675259   -0.043953    0.551693
 ---------------------------------------------------------------------
 Rotational constants (GHZ):      2.2864109      1.6813064      1.4999070
 Standard basis: 6-31G(2df,p) (6D, 7F)
 There are   329 symmetry adapted cartesian basis functions of A   symmetry.
 There are   302 symmetry adapted basis functions of A   symmetry.
   302 basis functions,   466 primitive gaussians,   329 cartesian basis functions
    34 alpha electrons       34 beta electrons
       nuclear repulsion energy       478.2376339837 Hartrees.
 NAtoms=   19 NActive=   19 NUniq=   19 SFac= 1.00D+00 NAtFMM=   60 NAOKFM=F Big=F
 Integral buffers will be    131072 words long.
 Raffenetti 2 integral format.
 Two-electron integral symmetry is turned on.
 One-electron integrals computed using PRISM.
 GSVD:  received Info=                   1 from GESDD.
 NBasis=   302 RedAO= T EigKep=  2.86D-04  NBF=   302
 NBsUse=   302 1.00D-06 EigRej= -1.00D+00 NBFU=   302
 ExpMin= 1.61D-01 ExpMax= 5.48D+03 ExpMxC= 8.25D+02 IAcc=1 IRadAn=         1 AccDes= 0.00D+00
 Harris functional with IExCor=  402 and IRadAn=       1 diagonalized for initial guess.
 HarFok:  IExCor=  402 AccDes= 0.00D+00 IRadAn=         1 IDoV= 1 UseB2=F ITyADJ=14
 ICtDFT=  3500011 ScaDFX=  1.000000  1.000000  1.000000  1.000000
 FoFCou: FMM=F IPFlag=           0 FMFlag=      100000 FMFlg1=           0
         NFxFlg=           0 DoJE=T BraDBF=F KetDBF=T FulRan=T
         wScrn=  0.000000 ICntrl=     500 IOpCl=  0 I1Cent=   200000004 NGrid=           0
         NMat0=    1 NMatS0=      1 NMatT0=    0 NMatD0=    1 NMtDS0=    0 NMtDT0=    0
 Petite list used in FoFCou.
 Requested convergence on RMS density matrix=1.00D-08 within 128 cycles.
 Requested convergence on MAX density matrix=1.00D-06.
 Requested convergence on             energy=1.00D-06.
 No special actions if energy rises.
 Integral accuracy reduced to 1.0D-05 until final iterations.
 Initial convergence to 1.0D-05 achieved.  Increase integral accuracy.
 SCF Done:  E(RB3LYP) =  -423.112630125     A.U. after   13 cycles
            NFock= 13  Conv=0.43D-08     -V/T= 2.0073

 **********************************************************************

            Population analysis using the SCF density.

 **********************************************************************

 Orbital symmetries:
       Occupied  (A) (A) (A) (A) (A) (A) (A) (A) (A) (A) (A) (A)
                 (A) (A) (A) (A) (A) (A) (A) (A) (A) (A) (A) (A)
                 (A) (A) (A) (A) (A) (A) (A) (A) (A) (A)
       Virtual   (A) (A) (A) (A) (A) (A) (A) (A) (A) (A) (A) (A)
                 (A) (A) (A) (A) (A) (A) (A) (A) (A) (A) (A) (A)
                 (A) (A) (A) (A) (A) (A) (A) (A) (A) (A) (A) (A)
                 (A) (A) (A) (A) (A) (A) (A) (A) (A) (A) (A) (A)
                 (A) (A) (A) (A) (A) (A) (A) (A) (A) (A) (A) (A)
                 (A) (A) (A) (A) (A) (A) (A) (A) (A) (A) (A) (A)
                 (A) (A) (A) (A) (A) (A) (A) (A) (A) (A) (A) (A)
                 (A) (A) (A) (A) (A) (A) (A) (A) (A) (A) (A) (A)
                 (A) (A) (A) (A) (A) (A) (A) (A) (A) (A) (A) (A)
                 (A) (A) (A) (A) (A) (A) (A) (A) (A) (A) (A) (A)
                 (A) (A) (A) (A) (A) (A) (A) (A) (A) (A) (A) (A)
                 (A) (A) (A) (A) (A) (A) (A) (A) (A) (A) (A) (A)
                 (A) (A) (A) (A) (A) (A) (A) (A) (A) (A) (A) (A)
                 (A) (A) (A) (A) (A) (A) (A) (A) (A) (A) (A) (A)
                 (A) (A) (A) (A) (A) (A) (A) (A) (A) (A) (A) (A)
                 (A) (A) (A) (A) (A) (A) (A) (A) (A) (A) (A) (A)
                 (A) (A) (A) (A) (A) (A) (A) (A) (A) (A) (A) (A)
                 (A) (A) (A) (A) (A) (A) (A) (A) (A) (A) (A) (A)
                 (A) (A) (A) (A) (A) (A) (A) (A) (A) (A) (A) (A)
                 (A) (A) (A) (A) (A) (A) (A) (A) (A) (A) (A) (A)
                 (A) (A) (A) (A) (A) (A) (A) (A) (A) (A) (A) (A)
                 (A) (A) (A) (A) (A) (A) (A) (A) (A) (A) (A) (A)
                 (A) (A) (A) (A)
 The electronic state is 1-A.
 Alpha  occ. eigenvalues --  -19.15098 -19.15098 -10.24357 -10.24355 -10.19294
 Alpha  occ. eigenvalues --  -10.18808 -10.18623 -10.17809 -10.17724  -1.04139
 Alpha  occ. eigenvalues --   -1.03335  -0.92372  -0.75188  -0.72582  -0.61867
 Alpha  occ. eigenvalues --   -0.61366  -0.60127  -0.55571  -0.50036  -0.47918
 Alpha  occ. eigenvalues --   -0.46049  -0.44512  -0.41543  -0.40601  -0.39247
 Alpha  occ. eigenvalues --   -0.39107  -0.37199  -0.35118  -0.34909  -0.31345
 Alpha  occ. eigenvalues --   -0.29179  -0.28647  -0.27072  -0.22696
 Alpha virt. eigenvalues --    0.04963   0.08521   0.10923   0.12972   0.13504
 Alpha virt. eigenvalues --    0.13890   0.14083   0.15313   0.15891   0.16341
 Alpha virt. eigenvalues --    0.19006   0.19340   0.20003   0.21028   0.22620
 Alpha virt. eigenvalues --    0.23137   0.25039   0.26631   0.30290   0.33789
 Alpha virt. eigenvalues --    0.35104   0.42541   0.43643   0.44655   0.44977
 Alpha virt. eigenvalues --    0.48766   0.48771   0.51059   0.52436   0.53701
 Alpha virt. eigenvalues --    0.55322   0.55399   0.58361   0.60396   0.63645
 Alpha virt. eigenvalues --    0.63961   0.65132   0.65517   0.67723   0.68154
 Alpha virt. eigenvalues --    0.69664   0.70881   0.73496   0.73514   0.74243
 Alpha virt. eigenvalues --    0.75681   0.78207   0.78680   0.79782   0.83504
 Alpha virt. eigenvalues --    0.84888   0.86234   0.87787   0.89106   0.90219
 Alpha virt. eigenvalues --    0.90947   0.91467   0.92961   0.96144   0.96148
 Alpha virt. eigenvalues --    0.98969   1.02607   1.05964   1.06258   1.08230
 Alpha virt. eigenvalues --    1.13645   1.16775   1.17536   1.21637   1.24847
 Alpha virt. eigenvalues --    1.26180   1.28401   1.28910   1.32315   1.35302
 Alpha virt. eigenvalues --    1.36850   1.40253   1.40316   1.42327   1.45474
 Alpha virt. eigenvalues --    1.46403   1.47511   1.50275   1.51396   1.52497
 Alpha virt. eigenvalues --    1.54778   1.55044   1.57017   1.58167   1.60185
 Alpha virt. eigenvalues --    1.61234   1.63874   1.66883   1.68379   1.71245
 Alpha virt. eigenvalues --    1.74469   1.75808   1.78088   1.79977   1.81058
 Alpha virt. eigenvalues --    1.87526   1.88728   1.92440   1.94277   1.95648
 Alpha virt. eigenvalues --    1.98233   2.00286   2.04002   2.12071   2.13688
 Alpha virt. eigenvalues --    2.21311   2.22426   2.26273   2.29802   2.30637
 Alpha virt. eigenvalues --    2.33634   2.33752   2.35319   2.45617   2.46823
 Alpha virt. eigenvalues --    2.48175   2.50927   2.51977   2.58442   2.59982
 Alpha virt. eigenvalues --    2.63481   2.63945   2.65988   2.72459   2.75148
 Alpha virt. eigenvalues --    2.75690   2.78518   2.81314   2.84780   2.86040
 Alpha virt. eigenvalues --    2.86952   2.90631   2.90690   2.93096   2.94325
 Alpha virt. eigenvalues --    2.96471   2.98109   2.98192   2.99118   2.99175
 Alpha virt. eigenvalues --    3.03609   3.05147   3.09457   3.11031   3.13339
 Alpha virt. eigenvalues --    3.15211   3.15894   3.18858   3.21644   3.23621
 Alpha virt. eigenvalues --    3.29143   3.29777   3.34730   3.37743   3.38558
 Alpha virt. eigenvalues --    3.38825   3.39341   3.48026   3.56926   3.57226
 Alpha virt. eigenvalues --    3.62494   3.62699   3.67471   3.69209   3.73306
 Alpha virt. eigenvalues --    3.74785   3.77123   3.81521   3.81554   3.82047
 Alpha virt. eigenvalues --    3.83793   3.88942   3.89412   3.93781   3.99311
 Alpha virt. eigenvalues --    4.04535   4.04719   4.10482   4.12111   4.16053
 Alpha virt. eigenvalues --    4.16136   4.18661   4.24900   4.26655   4.28950
 Alpha virt. eigenvalues --    4.29795   4.32990   4.37384   4.39048   4.43315
 Alpha virt. eigenvalues --    4.43600   4.44352   4.46158   4.47106   4.49640
 Alpha virt. eigenvalues --    4.53494   4.54805   4.55121   4.59468   4.59629
 Alpha virt. eigenvalues --    4.63344   4.63736   4.64833   4.68134   4.70592
 Alpha virt. eigenvalues --    4.71921   4.72281   4.74723   4.78261   4.80215
 Alpha virt. eigenvalues --    4.83204   4.83276   4.84056   4.90167   4.93140
 Alpha virt. eigenvalues --    4.93701   4.95103   5.00874   5.01350   5.02728
 Alpha virt. eigenvalues --    5.09203   5.17050   5.17651   5.19806   5.22805
 Alpha virt. eigenvalues --    5.27662   5.28241   5.29167   5.31758   5.36598
 Alpha virt. eigenvalues --    5.38565   5.45065   5.45717   5.47594   5.51136
 Alpha virt. eigenvalues --    5.55158   5.58277   5.63751   5.64271   5.67942
 Alpha virt. eigenvalues --    5.73859   5.80051   5.80516   5.84496   5.96128
 Alpha virt. eigenvalues --    6.08230   6.08292   6.14970   6.27188   6.42480
 Alpha virt. eigenvalues --    7.02218   7.28741   7.38721   7.87054  11.23058
 Alpha virt. eigenvalues --   11.66625  12.03707  12.21007  12.26997  12.66455
 Alpha virt. eigenvalues --   13.33513  13.62867  13.77454
          Condensed to atoms (all electrons):
               1          2          3          4          5          6
     1  C    5.224946   0.328543  -0.067121   0.016511  -0.036072   0.001518
     2  C    0.328543   5.001455   0.292542  -0.131650   0.280580  -0.048584
     3  C   -0.067121   0.292542   5.183971   0.279300  -0.015760   0.003445
     4  C    0.016511  -0.131650   0.279300   5.338743   0.288932  -0.042204
     5  C   -0.036072   0.280580  -0.015760   0.288932   4.518785   0.456750
     6  O    0.001518  -0.048584   0.003445  -0.042204   0.456750   7.786627
     7  C   -0.001986  -0.092087   0.023292  -0.108048   0.330886  -0.009907
     8  C   -0.036080   0.280588  -0.015761   0.288928  -0.079335  -0.000162
     9  O    0.001516  -0.048581   0.003445  -0.042205  -0.000161  -0.000028
    10  H    0.362687  -0.013720  -0.002341   0.000058  -0.003563   0.000979
    11  H    0.357529  -0.009957   0.005008   0.000182  -0.004018   0.000029
    12  H    0.362683  -0.013729  -0.002327   0.000059   0.003820  -0.000031
    13  H    0.001185  -0.014550   0.349773  -0.017944  -0.012240   0.001871
    14  H    0.001186  -0.014553   0.349780  -0.017946   0.006110  -0.000053
    15  H   -0.000854   0.015800  -0.044341   0.344639  -0.027138   0.000116
    16  H   -0.000015  -0.003717   0.003376  -0.004178  -0.076789   0.323415
    17  H    0.003584  -0.015358  -0.000478   0.012314  -0.014324   0.000204
    18  H   -0.000331   0.009863  -0.000814  -0.014009  -0.011126   0.000238
    19  H   -0.000015  -0.003718   0.003376  -0.004177  -0.000658  -0.000003
               7          8          9         10         11         12
     1  C   -0.001986  -0.036080   0.001516   0.362687   0.357529   0.362683
     2  C   -0.092087   0.280588  -0.048581  -0.013720  -0.009957  -0.013729
     3  C    0.023292  -0.015761   0.003445  -0.002341   0.005008  -0.002327
     4  C   -0.108048   0.288928  -0.042205   0.000058   0.000182   0.000059
     5  C    0.330886  -0.079335  -0.000161  -0.003563  -0.004018   0.003820
     6  O   -0.009907  -0.000162  -0.000028   0.000979   0.000029  -0.000031
     7  C    5.178665   0.330891  -0.009907  -0.000247   0.002931  -0.000247
     8  C    0.330891   4.518781   0.456746   0.003819  -0.004004  -0.003576
     9  O   -0.009907   0.456746   7.786630  -0.000031   0.000028   0.000983
    10  H   -0.000247   0.003819  -0.000031   0.601864  -0.031556  -0.036513
    11  H    0.002931  -0.004004   0.000028  -0.031556   0.585591  -0.031560
    12  H   -0.000247  -0.003576   0.000983  -0.036513  -0.031560   0.601875
    13  H   -0.000456   0.006110  -0.000053   0.001349  -0.000094  -0.000165
    14  H   -0.000456  -0.012241   0.001871  -0.000165  -0.000094   0.001346
    15  H   -0.001277  -0.027137   0.000116   0.000013   0.000012   0.000013
    16  H    0.007966  -0.000658  -0.000003   0.000145   0.000011  -0.000011
    17  H    0.349749  -0.014321   0.000203  -0.000101   0.003459  -0.000101
    18  H    0.345979  -0.011127   0.000238   0.000008  -0.000160   0.000008
    19  H    0.007966  -0.076791   0.323415  -0.000011   0.000011   0.000146
              13         14         15         16         17         18
     1  C    0.001185   0.001186  -0.000854  -0.000015   0.003584  -0.000331
     2  C   -0.014550  -0.014553   0.015800  -0.003717  -0.015358   0.009863
     3  C    0.349773   0.349780  -0.044341   0.003376  -0.000478  -0.000814
     4  C   -0.017944  -0.017946   0.344639  -0.004178   0.012314  -0.014009
     5  C   -0.012240   0.006110  -0.027138  -0.076789  -0.014324  -0.011126
     6  O    0.001871  -0.000053   0.000116   0.323415   0.000204   0.000238
     7  C   -0.000456  -0.000456  -0.001277   0.007966   0.349749   0.345979
     8  C    0.006110  -0.012241  -0.027137  -0.000658  -0.014321  -0.011127
     9  O   -0.000053   0.001871   0.000116  -0.000003   0.000203   0.000238
    10  H    0.001349  -0.000165   0.000013   0.000145  -0.000101   0.000008
    11  H   -0.000094  -0.000094   0.000012   0.000011   0.003459  -0.000160
    12  H   -0.000165   0.001346   0.000013  -0.000011  -0.000101   0.000008
    13  H    0.649668  -0.048537   0.000678   0.002931   0.000028   0.000031
    14  H   -0.048537   0.649667   0.000678  -0.000151   0.000028   0.000031
    15  H    0.000678   0.000678   0.663285   0.000044  -0.000371   0.003936
    16  H    0.002931  -0.000151   0.000044   0.461516  -0.000130  -0.000117
    17  H    0.000028   0.000028  -0.000371  -0.000130   0.621605  -0.045476
    18  H    0.000031   0.000031   0.003936  -0.000117  -0.045476   0.623740
    19  H   -0.000151   0.002931   0.000044  -0.000004  -0.000130  -0.000117
              19
     1  C   -0.000015
     2  C   -0.003718
     3  C    0.003376
     4  C   -0.004177
     5  C   -0.000658
     6  O   -0.000003
     7  C    0.007966
     8  C   -0.076791
     9  O    0.323415
    10  H   -0.000011
    11  H    0.000011
    12  H    0.000146
    13  H   -0.000151
    14  H    0.002931
    15  H    0.000044
    16  H   -0.000004
    17  H   -0.000130
    18  H   -0.000117
    19  H    0.461517
 Mulliken charges:
               1
     1  C   -0.519414
     2  C    0.200836
     3  C   -0.348366
     4  C   -0.187306
     5  C    0.395323
     6  O   -0.474221
     7  C   -0.353706
     8  C    0.395331
     9  O   -0.474224
    10  H    0.117328
    11  H    0.126653
    12  H    0.117329
    13  H    0.080566
    14  H    0.080567
    15  H    0.071744
    16  H    0.286369
    17  H    0.099615
    18  H    0.099206
    19  H    0.286369
 Sum of Mulliken charges =   0.00000
 Mulliken charges with hydrogens summed into heavy atoms:
               1
     1  C   -0.158105
     2  C    0.200836
     3  C   -0.187233
     4  C   -0.115562
     5  C    0.395323
     6  O   -0.187852
     7  C   -0.154885
     8  C    0.395331
     9  O   -0.187854
 Electronic spatial extent (au):  <R**2>=           1006.1937
 Charge=              0.0000 electrons
 Dipole moment (field-independent basis, Debye):
    X=              0.0000    Y=              1.4259    Z=              1.8492  Tot=              2.3351
 Quadrupole moment (field-independent basis, Debye-Ang):
   XX=            -53.7351   YY=            -53.6297   ZZ=            -52.2925
   XY=             -0.0002   XZ=              0.0001   YZ=             -0.3067
 Traceless Quadrupole moment (field-independent basis, Debye-Ang):
   XX=             -0.5160   YY=             -0.4106   ZZ=              0.9266
   XY=             -0.0002   XZ=              0.0001   YZ=             -0.3067
 Octapole moment (field-independent basis, Debye-Ang**2):
  XXX=             -0.0011  YYY=             -6.1074  ZZZ=             -4.5415  XYY=              0.0007
  XXY=             12.9598  XXZ=             20.1542  XZZ=              0.0011  YZZ=             -1.9136
  YYZ=             -0.1739  XYZ=              0.0003
 Hexadecapole moment (field-independent basis, Debye-Ang**3):
 XXXX=           -467.2454 YYYY=           -429.3017 ZZZZ=           -332.1120 XXXY=             -0.0046
 XXXZ=              0.0031 YYYX=              0.0033 YYYZ=              1.0256 ZZZX=             -0.0028
 ZZZY=             -0.9597 XXYY=           -163.6413 XXZZ=           -133.6321 YYZZ=           -128.0891
 XXYZ=             -0.6770 YYXZ=              0.0021 ZZXY=              0.0008
 N-N= 4.782376339837D+02 E-N=-1.943399829096D+03  KE= 4.200469552360D+02
 Calling FoFJK, ICntrl=      2127 FMM=F ISym2X=0 I1Cent= 0 IOpClX= 0 NMat=1 NMatS=1 NMatT=0.
 ***** Axes restored to original set *****
 -------------------------------------------------------------------
 Center     Atomic                   Forces (Hartrees/Bohr)
 Number     Number              X              Y              Z
 -------------------------------------------------------------------
      1        6          -0.000002004   -0.000035462    0.000034319
      2        6          -0.000061196    0.000078891   -0.000057234
      3        6           0.000026788   -0.000048425    0.000038661
      4        6           0.000003874    0.000008480   -0.000012538
      5        6           0.000016016   -0.000029136   -0.000004161
      6        8          -0.000004516    0.000017155    0.000006253
      7        6          -0.000013690    0.000029156   -0.000025783
      8        6           0.000025307    0.000002992    0.000022568
      9        8          -0.000011124   -0.000005191   -0.000015151
     10        1           0.000014394    0.000000766   -0.000002013
     11        1           0.000000318   -0.000009169    0.000006257
     12        1           0.000016343   -0.000002124   -0.000002119
     13        1          -0.000001074    0.000006364   -0.000006983
     14        1          -0.000001163    0.000007111   -0.000006089
     15        1          -0.000016578    0.000004188    0.000000822
     16        1           0.000009726   -0.000001678    0.000009700
     17        1          -0.000001594   -0.000009326    0.000009516
     18        1          -0.000007212   -0.000002939    0.000004615
     19        1           0.000007384   -0.000011653   -0.000000641
 -------------------------------------------------------------------
 Cartesian Forces:  Max     0.000078891 RMS     0.000021736

 GradGradGradGradGradGradGradGradGradGradGradGradGradGradGradGradGradGrad
 Berny optimization.
 FormGI is forming the generalized inverse of G from B-inverse, IUseBI=4.
 Internal  Forces:  Max     0.000025630 RMS     0.000007242
 Search for a local minimum.
 Step number   1 out of a maximum of  114
 All quantities printed in internal units (Hartrees-Bohrs-Radians)
 Mixed Optimization -- En-DIIS/RFO-DIIS
 Second derivative matrix not updated -- first step.
 ITU=  0
     Eigenvalues ---    0.00725   0.01578   0.01792   0.01960   0.01972
     Eigenvalues ---    0.01972   0.01975   0.02599   0.03064   0.03233
     Eigenvalues ---    0.03412   0.03856   0.03902   0.04548   0.04626
     Eigenvalues ---    0.04629   0.05703   0.05733   0.06141   0.07041
     Eigenvalues ---    0.07317   0.07439   0.07614   0.11750   0.14275
     Eigenvalues ---    0.14982   0.16000   0.16000   0.16000   0.16000
     Eigenvalues ---    0.16000   0.18246   0.18826   0.20321   0.22685
     Eigenvalues ---    0.23097   0.26102   0.27292   0.32057   0.34061
     Eigenvalues ---    0.34061   0.34127   0.34127   0.34183   0.34339
     Eigenvalues ---    0.34345   0.34728   0.49325   0.49325   0.54624
     Eigenvalues ---    0.54624
 RFO step:  Lambda=-7.66329444D-08 EMin= 7.25315487D-03
 Linear search not attempted -- first point.
 Iteration  1 RMS(Cart)=  0.00013893 RMS(Int)=  0.00000002
 Iteration  2 RMS(Cart)=  0.00000002 RMS(Int)=  0.00000001
 Variable       Old X    -DE/DX   Delta X   Delta X   Delta X     New X
                                 (Linear)    (Quad)   (Total)
    R1        2.84039   0.00001   0.00000   0.00003   0.00003   2.84042
    R2        2.07117   0.00000   0.00000  -0.00001  -0.00001   2.07116
    R3        2.07022   0.00000   0.00000  -0.00001  -0.00001   2.07022
    R4        2.07117   0.00000   0.00000  -0.00001  -0.00001   2.07116
    R5        2.92637   0.00002   0.00000   0.00009   0.00009   2.92646
    R6        2.99315   0.00000   0.00000  -0.00003  -0.00003   2.99312
    R7        2.99311   0.00000   0.00000  -0.00002  -0.00002   2.99309
    R8        2.91572   0.00002   0.00000   0.00005   0.00005   2.91577
    R9        2.07227   0.00000   0.00000  -0.00001  -0.00001   2.07226
   R10        2.07227   0.00000   0.00000  -0.00001  -0.00001   2.07226
   R11        2.97452   0.00000   0.00000  -0.00001  -0.00001   2.97451
   R12        2.97454   0.00000   0.00000  -0.00002  -0.00002   2.97452
   R13        2.06119  -0.00001   0.00000  -0.00004  -0.00004   2.06115
   R14        2.60552   0.00002   0.00000   0.00005   0.00005   2.60557
   R15        2.89618   0.00001   0.00000   0.00006   0.00006   2.89624
   R16        1.82168   0.00001   0.00000   0.00003   0.00003   1.82171
   R17        2.89618   0.00001   0.00000   0.00006   0.00006   2.89624
   R18        2.06761   0.00000   0.00000  -0.00001  -0.00001   2.06760
   R19        2.06752  -0.00001   0.00000  -0.00002  -0.00002   2.06751
   R20        2.60552   0.00002   0.00000   0.00005   0.00005   2.60557
   R21        1.82168   0.00001   0.00000   0.00003   0.00003   1.82171
    A1        1.94322  -0.00002   0.00000  -0.00010  -0.00010   1.94312
    A2        1.93901   0.00001   0.00000   0.00011   0.00011   1.93912
    A3        1.94325  -0.00002   0.00000  -0.00012  -0.00012   1.94313
    A4        1.87810   0.00000   0.00000   0.00004   0.00004   1.87814
    A5        1.87910   0.00001   0.00000   0.00003   0.00003   1.87913
    A6        1.87810   0.00000   0.00000   0.00004   0.00004   1.87814
    A7        2.25812  -0.00003   0.00000  -0.00033  -0.00033   2.25779
    A8        2.22184   0.00002   0.00000   0.00023   0.00023   2.22207
    A9        2.22186   0.00001   0.00000   0.00020   0.00020   2.22206
   A10        1.60162   0.00000   0.00000   0.00001   0.00001   1.60163
   A11        1.60164   0.00000   0.00000   0.00000   0.00000   1.60164
   A12        1.25351   0.00000   0.00000   0.00002   0.00002   1.25354
   A13        1.34449  -0.00001   0.00000  -0.00004  -0.00004   1.34445
   A14        2.04122   0.00000   0.00000  -0.00001  -0.00001   2.04121
   A15        2.04124   0.00000   0.00000  -0.00002  -0.00002   2.04122
   A16        2.04371   0.00000   0.00000  -0.00001  -0.00001   2.04370
   A17        2.04371   0.00000   0.00000  -0.00001  -0.00001   2.04370
   A18        1.90234   0.00000   0.00000   0.00006   0.00006   1.90239
   A19        1.61194   0.00000   0.00000   0.00001   0.00001   1.61195
   A20        1.61193   0.00000   0.00000   0.00001   0.00001   1.61194
   A21        2.26945   0.00000   0.00000   0.00003   0.00003   2.26948
   A22        1.26258   0.00000   0.00000   0.00002   0.00002   1.26260
   A23        2.20295   0.00000   0.00000  -0.00004  -0.00004   2.20291
   A24        2.20293   0.00000   0.00000  -0.00003  -0.00003   2.20290
   A25        1.31120   0.00000   0.00000   0.00001   0.00001   1.31121
   A26        2.23873   0.00000   0.00000   0.00001   0.00001   2.23874
   A27        1.63722   0.00000   0.00000  -0.00002  -0.00002   1.63720
   A28        2.24624   0.00000   0.00000  -0.00002  -0.00002   2.24622
   A29        1.63619   0.00000   0.00000   0.00000   0.00000   1.63619
   A30        2.15560   0.00000   0.00000   0.00002   0.00002   2.15562
   A31        1.89890   0.00000   0.00000   0.00002   0.00002   1.89892
   A32        1.30243  -0.00001   0.00000  -0.00002  -0.00002   1.30241
   A33        2.04070   0.00000   0.00000  -0.00005  -0.00005   2.04065
   A34        2.03374   0.00000   0.00000   0.00002   0.00002   2.03377
   A35        2.04070   0.00000   0.00000  -0.00005  -0.00005   2.04065
   A36        2.03375   0.00000   0.00000   0.00002   0.00002   2.03377
   A37        1.93973   0.00000   0.00000   0.00005   0.00005   1.93977
   A38        1.31121   0.00000   0.00000   0.00001   0.00001   1.31121
   A39        1.63723   0.00000   0.00000  -0.00002  -0.00002   1.63721
   A40        2.23873   0.00000   0.00000   0.00000   0.00000   2.23873
   A41        1.63618   0.00000   0.00000   0.00001   0.00001   1.63618
   A42        2.24623   0.00000   0.00000  -0.00002  -0.00002   2.24621
   A43        2.15560   0.00000   0.00000   0.00002   0.00002   2.15563
   A44        1.89890   0.00000   0.00000   0.00002   0.00002   1.89892
    D1        1.04781   0.00000   0.00000   0.00011   0.00011   1.04792
    D2       -1.26462   0.00001   0.00000   0.00028   0.00028  -1.26434
    D3       -2.92288  -0.00001   0.00000  -0.00012  -0.00012  -2.92300
    D4        3.14082   0.00000   0.00000   0.00018   0.00018   3.14100
    D5        0.82839   0.00001   0.00000   0.00034   0.00034   0.82873
    D6       -0.82987  -0.00001   0.00000  -0.00006  -0.00006  -0.82993
    D7       -1.04933   0.00000   0.00000   0.00023   0.00023  -1.04911
    D8        2.92143   0.00001   0.00000   0.00039   0.00039   2.92182
    D9        1.26316  -0.00001   0.00000  -0.00001  -0.00001   1.26315
   D10       -3.14157   0.00000   0.00000  -0.00003  -0.00003   3.14159
   D11       -1.15130   0.00000   0.00000  -0.00005  -0.00005  -1.15135
   D12        1.15136   0.00000   0.00000   0.00000   0.00000   1.15136
   D13       -0.62710   0.00000   0.00000  -0.00001  -0.00001  -0.62711
   D14        1.36317   0.00000   0.00000  -0.00004  -0.00004   1.36313
   D15       -2.61736   0.00000   0.00000   0.00002   0.00002  -2.61734
   D16        0.62710   0.00000   0.00000   0.00001   0.00001   0.62712
   D17        2.61737   0.00000   0.00000  -0.00001  -0.00001   2.61735
   D18       -1.36316   0.00000   0.00000   0.00004   0.00004  -1.36312
   D19       -3.12968  -0.00002   0.00000  -0.00028  -0.00028  -3.12996
   D20        0.92099  -0.00001   0.00000  -0.00025  -0.00025   0.92074
   D21       -1.50877  -0.00001   0.00000  -0.00027  -0.00027  -1.50904
   D22        0.61868   0.00000   0.00000   0.00002   0.00002   0.61870
   D23       -1.61383   0.00001   0.00000   0.00004   0.00004  -1.61379
   D24        2.23959   0.00001   0.00000   0.00002   0.00002   2.23962
   D25       -0.97446   0.00000   0.00000   0.00002   0.00002  -0.97444
   D26        3.07621   0.00000   0.00000   0.00005   0.00005   3.07625
   D27        0.64645   0.00000   0.00000   0.00003   0.00003   0.64648
   D28        3.12964   0.00002   0.00000   0.00031   0.00031   3.12996
   D29        1.50875   0.00001   0.00000   0.00030   0.00030   1.50905
   D30       -0.92104   0.00001   0.00000   0.00030   0.00030  -0.92074
   D31       -0.61868   0.00000   0.00000  -0.00002  -0.00002  -0.61870
   D32       -2.23957  -0.00001   0.00000  -0.00004  -0.00004  -2.23961
   D33        1.61383  -0.00001   0.00000  -0.00004  -0.00004   1.61378
   D34        0.97445   0.00000   0.00000  -0.00002  -0.00002   0.97443
   D35       -0.64645   0.00000   0.00000  -0.00003  -0.00003  -0.64648
   D36       -3.07623   0.00000   0.00000  -0.00003  -0.00003  -3.07627
   D37        0.63192   0.00000   0.00000   0.00000   0.00000   0.63192
   D38       -0.63190   0.00000   0.00000  -0.00001  -0.00001  -0.63192
   D39       -3.14156   0.00000   0.00000  -0.00001  -0.00001  -3.14158
   D40       -1.35549   0.00000   0.00000   0.00004   0.00004  -1.35545
   D41       -2.61931   0.00000   0.00000   0.00002   0.00002  -2.61929
   D42        1.15422   0.00000   0.00000   0.00002   0.00002   1.15424
   D43        2.61935   0.00000   0.00000  -0.00003  -0.00003   2.61931
   D44        1.35553   0.00000   0.00000  -0.00005  -0.00005   1.35547
   D45       -1.15413   0.00000   0.00000  -0.00005  -0.00005  -1.15418
   D46       -0.62155   0.00000   0.00000  -0.00003  -0.00003  -0.62158
   D47        1.60324   0.00000   0.00000  -0.00002  -0.00002   1.60322
   D48       -2.24380   0.00000   0.00000  -0.00001  -0.00001  -2.24381
   D49        0.97933   0.00000   0.00000  -0.00002  -0.00002   0.97931
   D50       -3.07906   0.00000   0.00000  -0.00001  -0.00001  -3.07908
   D51       -0.64292   0.00000   0.00000   0.00000   0.00000  -0.64291
   D52        3.11517   0.00000   0.00000  -0.00005  -0.00005   3.11512
   D53       -0.94323   0.00000   0.00000  -0.00004  -0.00004  -0.94327
   D54        1.49292   0.00000   0.00000  -0.00003  -0.00003   1.49289
   D55        0.62155   0.00000   0.00000   0.00003   0.00003   0.62158
   D56        2.24381   0.00000   0.00000   0.00001   0.00001   2.24382
   D57       -1.60324   0.00000   0.00000   0.00004   0.00004  -1.60320
   D58       -0.97935   0.00000   0.00000   0.00002   0.00002  -0.97933
   D59        0.64291   0.00000   0.00000   0.00000   0.00000   0.64291
   D60        3.07905   0.00000   0.00000   0.00003   0.00003   3.07908
   D61       -3.11521   0.00000   0.00000   0.00006   0.00006  -3.11514
   D62       -1.49294   0.00000   0.00000   0.00004   0.00004  -1.49290
   D63        0.94319   0.00000   0.00000   0.00007   0.00007   0.94326
   D64        0.93691   0.00000   0.00000   0.00004   0.00004   0.93695
   D65       -0.84863   0.00000   0.00000   0.00005   0.00005  -0.84858
   D66       -3.10204   0.00000   0.00000   0.00005   0.00005  -3.10199
   D67       -0.66036   0.00000   0.00000  -0.00002  -0.00002  -0.66038
   D68        1.30785  -0.00001   0.00000  -0.00008  -0.00008   1.30778
   D69       -2.62139   0.00000   0.00000  -0.00003  -0.00003  -2.62142
   D70        0.65419   0.00000   0.00000  -0.00001  -0.00001   0.65418
   D71        2.62240   0.00000   0.00000  -0.00007  -0.00007   2.62233
   D72       -1.30684   0.00000   0.00000  -0.00003  -0.00003  -1.30686
   D73       -3.13950   0.00000   0.00000  -0.00003  -0.00003  -3.13952
   D74       -1.17128  -0.00001   0.00000  -0.00008  -0.00008  -1.17137
   D75        1.18266   0.00000   0.00000  -0.00004  -0.00004   1.18262
   D76        0.66037   0.00000   0.00000   0.00002   0.00002   0.66038
   D77       -0.65418   0.00000   0.00000   0.00001   0.00001  -0.65418
   D78        3.13952   0.00000   0.00000   0.00001   0.00001   3.13953
   D79       -1.30785   0.00001   0.00000   0.00008   0.00008  -1.30777
   D80       -2.62240   0.00000   0.00000   0.00007   0.00007  -2.62233
   D81        1.17131   0.00000   0.00000   0.00007   0.00007   1.17138
   D82        2.62139   0.00000   0.00000   0.00003   0.00003   2.62142
   D83        1.30683   0.00000   0.00000   0.00003   0.00003   1.30686
   D84       -1.18264   0.00000   0.00000   0.00002   0.00002  -1.18262
   D85       -0.93680   0.00000   0.00000  -0.00006  -0.00006  -0.93685
   D86        0.84873   0.00000   0.00000  -0.00007  -0.00007   0.84867
   D87        3.10212   0.00000   0.00000  -0.00004  -0.00004   3.10207
         Item               Value     Threshold  Converged?
 Maximum Force            0.000026     0.000450     YES
 RMS     Force            0.000007     0.000300     YES
 Maximum Displacement     0.000710     0.001800     YES
 RMS     Displacement     0.000139     0.001200     YES
 Predicted change in Energy=-3.832582D-08
 Optimization completed.
    -- Stationary point found.
                           ----------------------------
                           !   Optimized Parameters   !
                           ! (Angstroms and Degrees)  !
 --------------------------                            --------------------------
 ! Name  Definition              Value          Derivative Info.                !
 --------------------------------------------------------------------------------
 ! R1    R(1,2)                  1.5031         -DE/DX =    0.0                 !
 ! R2    R(1,10)                 1.096          -DE/DX =    0.0                 !
 ! R3    R(1,11)                 1.0955         -DE/DX =    0.0                 !
 ! R4    R(1,12)                 1.096          -DE/DX =    0.0                 !
 ! R5    R(2,3)                  1.5486         -DE/DX =    0.0                 !
 ! R6    R(2,5)                  1.5839         -DE/DX =    0.0                 !
 ! R7    R(2,8)                  1.5839         -DE/DX =    0.0                 !
 ! R8    R(3,4)                  1.5429         -DE/DX =    0.0                 !
 ! R9    R(3,13)                 1.0966         -DE/DX =    0.0                 !
 ! R10   R(3,14)                 1.0966         -DE/DX =    0.0                 !
 ! R11   R(4,5)                  1.574          -DE/DX =    0.0                 !
 ! R12   R(4,8)                  1.5741         -DE/DX =    0.0                 !
 ! R13   R(4,15)                 1.0907         -DE/DX =    0.0                 !
 ! R14   R(5,6)                  1.3788         -DE/DX =    0.0                 !
 ! R15   R(5,7)                  1.5326         -DE/DX =    0.0                 !
 ! R16   R(6,16)                 0.964          -DE/DX =    0.0                 !
 ! R17   R(7,8)                  1.5326         -DE/DX =    0.0                 !
 ! R18   R(7,17)                 1.0941         -DE/DX =    0.0                 !
 ! R19   R(7,18)                 1.0941         -DE/DX =    0.0                 !
 ! R20   R(8,9)                  1.3788         -DE/DX =    0.0                 !
 ! R21   R(9,19)                 0.964          -DE/DX =    0.0                 !
 ! A1    A(2,1,10)             111.3385         -DE/DX =    0.0                 !
 ! A2    A(2,1,11)             111.0971         -DE/DX =    0.0                 !
 ! A3    A(2,1,12)             111.3401         -DE/DX =    0.0                 !
 ! A4    A(10,1,11)            107.607          -DE/DX =    0.0                 !
 ! A5    A(10,1,12)            107.6643         -DE/DX =    0.0                 !
 ! A6    A(11,1,12)            107.6071         -DE/DX =    0.0                 !
 ! A7    A(1,2,3)              129.3806         -DE/DX =    0.0                 !
 ! A8    A(1,2,5)              127.302          -DE/DX =    0.0                 !
 ! A9    A(1,2,8)              127.3031         -DE/DX =    0.0                 !
 ! A10   A(3,2,5)               91.7663         -DE/DX =    0.0                 !
 ! A11   A(3,2,8)               91.7671         -DE/DX =    0.0                 !
 ! A12   A(5,2,8)               71.8209         -DE/DX =    0.0                 !
 ! A13   A(2,3,4)               77.0336         -DE/DX =    0.0                 !
 ! A14   A(2,3,13)             116.9533         -DE/DX =    0.0                 !
 ! A15   A(2,3,14)             116.9546         -DE/DX =    0.0                 !
 ! A16   A(4,3,13)             117.0959         -DE/DX =    0.0                 !
 ! A17   A(4,3,14)             117.0958         -DE/DX =    0.0                 !
 ! A18   A(13,3,14)            108.9959         -DE/DX =    0.0                 !
 ! A19   A(3,4,5)               92.3571         -DE/DX =    0.0                 !
 ! A20   A(3,4,8)               92.3566         -DE/DX =    0.0                 !
 ! A21   A(3,4,15)             130.03           -DE/DX =    0.0                 !
 ! A22   A(5,4,8)               72.3406         -DE/DX =    0.0                 !
 ! A23   A(5,4,15)             126.2198         -DE/DX =    0.0                 !
 ! A24   A(8,4,15)             126.2188         -DE/DX =    0.0                 !
 ! A25   A(2,5,4)               75.1263         -DE/DX =    0.0                 !
 ! A26   A(2,5,6)              128.27           -DE/DX =    0.0                 !
 ! A27   A(2,5,7)               93.8056         -DE/DX =    0.0                 !
 ! A28   A(4,5,6)              128.7002         -DE/DX =    0.0                 !
 ! A29   A(4,5,7)               93.7466         -DE/DX =    0.0                 !
 ! A30   A(6,5,7)              123.5066         -DE/DX =    0.0                 !
 ! A31   A(5,6,16)             108.7987         -DE/DX =    0.0                 !
 ! A32   A(5,7,8)               74.624          -DE/DX =    0.0                 !
 ! A33   A(5,7,17)             116.9234         -DE/DX =    0.0                 !
 ! A34   A(5,7,18)             116.5249         -DE/DX =    0.0                 !
 ! A35   A(8,7,17)             116.9232         -DE/DX =    0.0                 !
 ! A36   A(8,7,18)             116.5252         -DE/DX =    0.0                 !
 ! A37   A(17,7,18)            111.1383         -DE/DX =    0.0                 !
 ! A38   A(2,8,4)               75.1265         -DE/DX =    0.0                 !
 ! A39   A(2,8,7)               93.8063         -DE/DX =    0.0                 !
 ! A40   A(2,8,9)              128.2697         -DE/DX =    0.0                 !
 ! A41   A(4,8,7)               93.746          -DE/DX =    0.0                 !
 ! A42   A(4,8,9)              128.6996         -DE/DX =    0.0                 !
 ! A43   A(7,8,9)              123.507          -DE/DX =    0.0                 !
 ! A44   A(8,9,19)             108.7987         -DE/DX =    0.0                 !
 ! D1    D(10,1,2,3)            60.0351         -DE/DX =    0.0                 !
 ! D2    D(10,1,2,5)           -72.4572         -DE/DX =    0.0                 !
 ! D3    D(10,1,2,8)          -167.4689         -DE/DX =    0.0                 !
 ! D4    D(11,1,2,3)           179.9558         -DE/DX =    0.0                 !
 ! D5    D(11,1,2,5)            47.4635         -DE/DX =    0.0                 !
 ! D6    D(11,1,2,8)           -47.5483         -DE/DX =    0.0                 !
 ! D7    D(12,1,2,3)           -60.1223         -DE/DX =    0.0                 !
 ! D8    D(12,1,2,5)           167.3854         -DE/DX =    0.0                 !
 ! D9    D(12,1,2,8)            72.3736         -DE/DX =    0.0                 !
 ! D10   D(1,2,3,4)            180.0016         -DE/DX =    0.0                 !
 ! D11   D(1,2,3,13)           -65.9646         -DE/DX =    0.0                 !
 ! D12   D(1,2,3,14)            65.968          -DE/DX =    0.0                 !
 ! D13   D(5,2,3,4)            -35.9301         -DE/DX =    0.0                 !
 ! D14   D(5,2,3,13)            78.1037         -DE/DX =    0.0                 !
 ! D15   D(5,2,3,14)          -149.9637         -DE/DX =    0.0                 !
 ! D16   D(8,2,3,4)             35.9302         -DE/DX =    0.0                 !
 ! D17   D(8,2,3,13)           149.964          -DE/DX =    0.0                 !
 ! D18   D(8,2,3,14)           -78.1034         -DE/DX =    0.0                 !
 ! D19   D(1,2,5,4)           -179.3175         -DE/DX =    0.0                 !
 ! D20   D(1,2,5,6)             52.7687         -DE/DX =    0.0                 !
 ! D21   D(1,2,5,7)            -86.4463         -DE/DX =    0.0                 !
 ! D22   D(3,2,5,4)             35.448          -DE/DX =    0.0                 !
 ! D23   D(3,2,5,6)            -92.4658         -DE/DX =    0.0                 !
 ! D24   D(3,2,5,7)            128.3192         -DE/DX =    0.0                 !
 ! D25   D(8,2,5,4)            -55.8324         -DE/DX =    0.0                 !
 ! D26   D(8,2,5,6)            176.2538         -DE/DX =    0.0                 !
 ! D27   D(8,2,5,7)             37.0388         -DE/DX =    0.0                 !
 ! D28   D(1,2,8,4)            179.3154         -DE/DX =    0.0                 !
 ! D29   D(1,2,8,7)             86.445          -DE/DX =    0.0                 !
 ! D30   D(1,2,8,9)            -52.7714         -DE/DX =    0.0                 !
 ! D31   D(3,2,8,4)            -35.4477         -DE/DX =    0.0                 !
 ! D32   D(3,2,8,7)           -128.3181         -DE/DX =    0.0                 !
 ! D33   D(3,2,8,9)             92.4654         -DE/DX =    0.0                 !
 ! D34   D(5,2,8,4)             55.8316         -DE/DX =    0.0                 !
 ! D35   D(5,2,8,7)            -37.0388         -DE/DX =    0.0                 !
 ! D36   D(5,2,8,9)           -176.2553         -DE/DX =    0.0                 !
 ! D37   D(2,3,4,5)             36.2062         -DE/DX =    0.0                 !
 ! D38   D(2,3,4,8)            -36.2054         -DE/DX =    0.0                 !
 ! D39   D(2,3,4,15)          -179.9983         -DE/DX =    0.0                 !
 ! D40   D(13,3,4,5)           -77.6638         -DE/DX =    0.0                 !
 ! D41   D(13,3,4,8)          -150.0754         -DE/DX =    0.0                 !
 ! D42   D(13,3,4,15)           66.1317         -DE/DX =    0.0                 !
 ! D43   D(14,3,4,5)           150.0776         -DE/DX =    0.0                 !
 ! D44   D(14,3,4,8)            77.6661         -DE/DX =    0.0                 !
 ! D45   D(14,3,4,15)          -66.1268         -DE/DX =    0.0                 !
 ! D46   D(3,4,5,2)            -35.6124         -DE/DX =    0.0                 !
 ! D47   D(3,4,5,6)             91.8588         -DE/DX =    0.0                 !
 ! D48   D(3,4,5,7)           -128.5603         -DE/DX =    0.0                 !
 ! D49   D(8,4,5,2)             56.1116         -DE/DX =    0.0                 !
 ! D50   D(8,4,5,6)           -176.4173         -DE/DX =    0.0                 !
 ! D51   D(8,4,5,7)            -36.8363         -DE/DX =    0.0                 !
 ! D52   D(15,4,5,2)           178.4859         -DE/DX =    0.0                 !
 ! D53   D(15,4,5,6)           -54.0429         -DE/DX =    0.0                 !
 ! D54   D(15,4,5,7)            85.538          -DE/DX =    0.0                 !
 ! D55   D(3,4,8,2)             35.6121         -DE/DX =    0.0                 !
 ! D56   D(3,4,8,7)            128.5609         -DE/DX =    0.0                 !
 ! D57   D(3,4,8,9)            -91.8587         -DE/DX =    0.0                 !
 ! D58   D(5,4,8,2)            -56.1126         -DE/DX =    0.0                 !
 ! D59   D(5,4,8,7)             36.8363         -DE/DX =    0.0                 !
 ! D60   D(5,4,8,9)            176.4166         -DE/DX =    0.0                 !
 ! D61   D(15,4,8,2)          -178.4881         -DE/DX =    0.0                 !
 ! D62   D(15,4,8,7)           -85.5393         -DE/DX =    0.0                 !
 ! D63   D(15,4,8,9)            54.0411         -DE/DX =    0.0                 !
 ! D64   D(2,5,6,16)            53.6809         -DE/DX =    0.0                 !
 ! D65   D(4,5,6,16)           -48.623          -DE/DX =    0.0                 !
 ! D66   D(7,5,6,16)          -177.7337         -DE/DX =    0.0                 !
 ! D67   D(2,5,7,8)            -37.8357         -DE/DX =    0.0                 !
 ! D68   D(2,5,7,17)            74.9345         -DE/DX =    0.0                 !
 ! D69   D(2,5,7,18)          -150.1943         -DE/DX =    0.0                 !
 ! D70   D(4,5,7,8)             37.4824         -DE/DX =    0.0                 !
 ! D71   D(4,5,7,17)           150.2527         -DE/DX =    0.0                 !
 ! D72   D(4,5,7,18)           -74.8761         -DE/DX =    0.0                 !
 ! D73   D(6,5,7,8)           -179.8799         -DE/DX =    0.0                 !
 ! D74   D(6,5,7,17)           -67.1097         -DE/DX =    0.0                 !
 ! D75   D(6,5,7,18)            67.7615         -DE/DX =    0.0                 !
 ! D76   D(5,7,8,2)             37.8364         -DE/DX =    0.0                 !
 ! D77   D(5,7,8,4)            -37.482          -DE/DX =    0.0                 !
 ! D78   D(5,7,8,9)            179.8814         -DE/DX =    0.0                 !
 ! D79   D(17,7,8,2)           -74.9341         -DE/DX =    0.0                 !
 ! D80   D(17,7,8,4)          -150.2525         -DE/DX =    0.0                 !
 ! D81   D(17,7,8,9)            67.111          -DE/DX =    0.0                 !
 ! D82   D(18,7,8,2)           150.1945         -DE/DX =    0.0                 !
 ! D83   D(18,7,8,4)            74.8761         -DE/DX =    0.0                 !
 ! D84   D(18,7,8,9)           -67.7604         -DE/DX =    0.0                 !
 ! D85   D(2,8,9,19)           -53.6746         -DE/DX =    0.0                 !
 ! D86   D(4,8,9,19)            48.6289         -DE/DX =    0.0                 !
 ! D87   D(7,8,9,19)           177.7382         -DE/DX =    0.0                 !
 --------------------------------------------------------------------------------
 GradGradGradGradGradGradGradGradGradGradGradGradGradGradGradGradGradGrad

                          Input orientation:                          
 ---------------------------------------------------------------------
 Center     Atomic      Atomic             Coordinates (Angstroms)
 Number     Number       Type             X           Y           Z
 ---------------------------------------------------------------------
      1          6           0        0.340959   -0.865170    1.284620
      2          6           0        1.590433   -0.437797    0.566711
      3          6           0        3.041231   -0.955161    0.726663
      4          6           0        3.177667    0.125972   -0.365661
      5          6           0        2.094028    1.042645    0.314827
      6          8           0        2.274463    2.051796    1.236836
      7          6           0        1.280450    1.209063   -0.973284
      8          6           0        1.781044   -0.239333   -0.993089
      9          8           0        1.498009   -1.128666   -2.007988
     10          1           0        0.428513   -0.707714    2.365726
     11          1           0       -0.528120   -0.296424    0.936221
     12          1           0        0.129683   -1.927854    1.119343
     13          1           0        3.535273   -0.760871    1.686198
     14          1           0        3.234549   -1.992821    0.429306
     15          1           0        4.059628    0.465947   -0.909960
     16          1           0        2.846409    1.729162    1.942572
     17          1           0        0.202347    1.359151   -0.862408
     18          1           0        1.696409    1.880195   -1.730638
     19          1           0        1.945059   -1.962651   -1.823878
 ---------------------------------------------------------------------
                    Distance matrix (angstroms):
                    1          2          3          4          5
     1  C    0.000000
     2  C    1.503072   0.000000
     3  C    2.758783   1.548569   0.000000
     4  C    3.428221   1.925218   1.542931   0.000000
     5  C    2.766497   1.583907   2.249007   1.574048   0.000000
     6  O    3.499915   2.667403   3.144837   2.663189   1.378784
     7  C    3.206745   2.275923   3.267114   2.267537   1.532590
     8  C    2.766491   1.583887   2.249006   1.574061   1.857975
     9  O    3.499923   2.667380   3.144830   2.663194   3.235011
    10  H    1.096014   2.158556   3.094196   3.964007   3.169208
    11  H    1.095515   2.155178   3.635673   3.950465   3.009135
    12  H    1.096016   2.158578   3.094744   3.964043   3.650994
    13  H    3.221146   2.267163   1.096600   2.263736   2.685240
    14  H    3.221183   2.267178   1.096600   2.263734   3.244679
    15  H    4.518468   3.015665   2.394831   1.090734   2.386685
    16  H    3.666161   2.857653   2.953300   2.829822   1.920141
    17  H    3.094600   2.682944   3.992550   3.258837   2.250448
    18  H    4.297214   3.265292   3.985740   2.671065   2.245777
    19  H    3.666110   2.857596   2.953285   2.829852   3.691619
                    6          7          8          9         10
     6  O    0.000000
     7  C    2.565714   0.000000
     8  C    3.235012   1.532592   0.000000
     9  O    4.609458   2.565720   1.378783   0.000000
    10  H    3.506682   3.943198   3.651076   4.522211   0.000000
    11  H    3.668648   3.030450   3.009607   3.669631   1.768556
    12  H    4.522333   3.942537   3.168669   3.505883   1.769607
    13  H    3.114910   4.004711   3.244672   4.234705   3.180651
    14  H    4.234713   4.004724   2.685256   3.114921   3.643495
    15  H    3.210991   2.877509   2.386687   3.210973   5.029174
    16  H    0.963992   3.350366   3.691623   5.058882   3.458850
    17  H    3.029892   1.094132   2.250447   3.029906   3.839782
    18  H    3.028117   1.094086   2.245783   3.028123   5.008495
    19  H    5.058880   3.350371   1.920140   0.963992   4.628991
                   11         12         13         14         15
    11  H    0.000000
    12  H    1.768559   0.000000
    13  H    4.158045   3.644340   0.000000
    14  H    4.158413   3.181283   1.785473   0.000000
    15  H    5.003701   5.029197   2.918916   2.918892   0.000000
    16  H    4.062412   4.629478   2.596252   4.036556   3.347320
    17  H    2.551388   3.838883   4.700881   4.700903   3.959633
    18  H    4.098577   5.007819   4.693764   4.693771   2.873746
    19  H    4.063382   3.458229   4.036544   2.596253   3.347348
                   16         17         18         19
    16  H    0.000000
    17  H    3.872452   0.000000
    18  H    3.851985   1.804863   0.000000
    19  H    5.350520   3.872446   3.852011   0.000000
 Stoichiometry    C7H10O2
 Framework group  C1[X(C7H10O2)]
 Deg. of freedom    51
 Full point group                 C1      NOp   1
 Largest Abelian subgroup         C1      NOp   1
 Largest concise Abelian subgroup C1      NOp   1
                         Standard orientation:                         
 ---------------------------------------------------------------------
 Center     Atomic      Atomic             Coordinates (Angstroms)
 Number     Number       Type             X           Y           Z
 ---------------------------------------------------------------------
      1          6           0       -0.000004    2.033555   -0.850925
      2          6           0       -0.000017    0.806172    0.016690
      3          6           0       -0.000009    0.694784    1.561247
      4          6           0        0.000006   -0.780008    1.107790
      5          6           0        0.928989   -0.468918   -0.124217
      6          8           0        2.304731   -0.518906   -0.200890
      7          6           0        0.000009   -1.161244   -1.127469
      8          6           0       -0.928986   -0.468919   -0.124228
      9          8           0       -2.304727   -0.518929   -0.200891
     10          1           0        0.884427    2.653533   -0.664764
     11          1           0        0.000774    1.765583   -1.913160
     12          1           0       -0.885180    2.652805   -0.665873
     13          1           0        0.892730    1.056116    2.085641
     14          1           0       -0.892743    1.056086    2.085670
     15          1           0       -0.000005   -1.696029    1.699909
     16          1           0        2.675261   -0.043998    0.551738
     17          1           0        0.000013   -0.774691   -2.151042
     18          1           0        0.000015   -2.255296   -1.118891
     19          1           0       -2.675259   -0.043953    0.551693
 ---------------------------------------------------------------------
 Rotational constants (GHZ):      2.2864109      1.6813064      1.4999070
 1\1\GINC-ALCHEMY-FE\FOpt\RB3LYP\6-31G(2df,p)\C7H10O2\PUCK\27-Jan-2020\
 0\\# b3lyp 6-31G(2df,p) opt Freq\\titel\\0,1\C,0.340959264,-0.86516955
 42,1.2846201306\C,1.5904329517,-0.437797487,0.5667113728\C,3.041231188
 6,-0.9551609433,0.7266633793\C,3.1776666593,0.1259716339,-0.365661247\
 C,2.0940277276,1.042644753,0.3148266436\O,2.2744625004,2.0517963468,1.
 2368357263\C,1.2804498986,1.2090627217,-0.9732840381\C,1.7810437467,-0
 .2393333231,-0.9930888546\O,1.4980093676,-1.128666251,-2.007987959\H,0
 .4285128988,-0.7077135047,2.3657255635\H,-0.5281202449,-0.2964242353,0
 .9362206135\H,0.1296833145,-1.9278537284,1.1193431907\H,3.5352725126,-
 0.760871109,1.6861981297\H,3.2345485532,-1.9928208478,0.429305824\H,4.
 0596277956,0.4659470259,-0.909960161\H,2.8464089175,1.7291617641,1.942
 5724721\H,0.2023470549,1.3591512043,-0.8624083289\H,1.6964086618,1.880
 1949501,-1.7306378778\H,1.9450589116,-1.9626511461,-1.8238779796\\Vers
 ion=ES64L-G09RevD.01\State=1-A\HF=-423.1126301\RMSD=4.252e-09\RMSF=2.1
 74e-05\Dipole=0.4545349,-0.6218355,0.5007524\Quadrupole=0.6753802,-0.3
 060322,-0.369348,-0.2571811,-0.0011068,-0.014436\PG=C01 [X(C7H10O2)]\\
 @


 The most important thing in communication is to hear what isn't being said.
 -- Peter F. Drucker
 Job cpu time:       0 days  0 hours  7 minutes 46.4 seconds.
 File lengths (MBytes):  RWF=     52 Int=      0 D2E=      0 Chk=      7 Scr=      1
 Normal termination of Gaussian 09 at Mon Jan 27 17:57:55 2020.
 Link1:  Proceeding to internal job step number  2.
 ----------------------------------------------------------------------
 #N Geom=AllCheck Guess=TCheck SCRF=Check GenChk RB3LYP/6-31G(2df,p) Fr
 eq
 ----------------------------------------------------------------------
 1/10=4,29=7,30=1,38=1,40=1/1,3;
 2/12=2,40=1/2;
 3/5=1,6=6,7=104,11=2,14=-4,16=1,25=1,30=1,70=2,71=2,74=-5,116=1,140=1/1,2,3;
 4/5=101/1;
 5/5=2,98=1/2;
 8/6=4,10=90,11=11/1;
 11/6=1,8=1,9=11,15=111,16=1/1,2,10;
 10/6=1/2;
 6/7=2,8=2,9=2,10=2,18=1,28=1/1;
 7/8=1,10=1,25=1/1,2,3,16;
 1/10=4,30=1/3;
 99//99;
 Structure from the checkpoint file:  "/scratch/puck/g09_439ba170-7fc1-4553-bd22-6fc438609afd/Gau-87931.chk"
 -----
 titel
 -----
 Charge =  0 Multiplicity = 1
 Redundant internal coordinates found in file.
 C,0,0.340959264,-0.8651695542,1.2846201306
 C,0,1.5904329517,-0.437797487,0.5667113728
 C,0,3.0412311886,-0.9551609433,0.7266633793
 C,0,3.1776666593,0.1259716339,-0.365661247
 C,0,2.0940277276,1.042644753,0.3148266436
 O,0,2.2744625004,2.0517963468,1.2368357263
 C,0,1.2804498986,1.2090627217,-0.9732840381
 C,0,1.7810437467,-0.2393333231,-0.9930888546
 O,0,1.4980093676,-1.128666251,-2.007987959
 H,0,0.4285128988,-0.7077135047,2.3657255635
 H,0,-0.5281202449,-0.2964242353,0.9362206135
 H,0,0.1296833145,-1.9278537284,1.1193431907
 H,0,3.5352725126,-0.760871109,1.6861981297
 H,0,3.2345485532,-1.9928208478,0.429305824
 H,0,4.0596277956,0.4659470259,-0.909960161
 H,0,2.8464089175,1.7291617641,1.9425724721
 H,0,0.2023470549,1.3591512043,-0.8624083289
 H,0,1.6964086618,1.8801949501,-1.7306378778
 H,0,1.9450589116,-1.9626511461,-1.8238779796
 Recover connectivity data from disk.

 GradGradGradGradGradGradGradGradGradGradGradGradGradGradGradGradGradGrad
 Berny optimization.
 Initialization pass.
                           ----------------------------
                           !    Initial Parameters    !
                           ! (Angstroms and Degrees)  !
 --------------------------                            --------------------------
 ! Name  Definition              Value          Derivative Info.                !
 --------------------------------------------------------------------------------
 ! R1    R(1,2)                  1.5031         calculate D2E/DX2 analytically  !
 ! R2    R(1,10)                 1.096          calculate D2E/DX2 analytically  !
 ! R3    R(1,11)                 1.0955         calculate D2E/DX2 analytically  !
[...]
 18270,-0.01268964,0.00711119,0.59871577,-0.00140427,-0.00408521,0.0017
 2486,-0.04044871,0.00397185,0.03349548,-0.01598320,-0.11794453,0.05135
 982,0.06295050,0.35056045,0.00224819,0.00182925,-0.00499716,0.06837265
 ,0.02887088,-0.01638838,0.01033905,0.05057137,-0.12148930,-0.14559365,
 -0.11539871,0.39614133,-0.00550010,-0.01826666,-0.00323172,-0.05446460
 ,-0.00959365,0.01578995,-0.00718854,0.03837216,0.00355223,-0.10441675,
 0.02035058,0.00936706,0.35285292,-0.00405000,0.00372290,0.00092957,-0.
 01062830,-0.09973623,0.02252668,0.01815954,-0.05448960,-0.00516040,0.0
 2650904,-0.07590929,-0.01217405,-0.01785811,0.51983018,0.00278807,0.01
 544176,0.00015937,0.00685859,0.01323592,-0.06848593,-0.00921882,0.0321
 1839,0.00819316,0.01965729,-0.01036448,-0.05240536,0.10073754,0.121604
 78,0.52781551,0.00104364,0.00067401,-0.00019970,0.00056697,-0.00709594
 ,-0.01106266,-0.00137299,-0.00043103,0.00083025,0.01709371,0.01219541,
 0.01038080,-0.07509073,-0.01544275,-0.04045806,0.23795308,0.00141700,0
 .00013607,-0.00102399,0.00043963,-0.01134750,-0.02619998,-0.00225181,0
 .00200263,-0.00098070,-0.00664075,-0.00935611,-0.01039943,0.00759718,-
 0.19892847,-0.07690656,-0.09487777,0.31823208,-0.00017633,-0.00214218,
 -0.00092546,-0.00379350,-0.00473588,0.00697570,-0.00044972,0.00168058,
 -0.00122800,-0.00247342,-0.01231810,-0.01180446,-0.02584573,-0.1123381
 9,-0.16681830,0.25553195,0.02497606,0.45861859,0.00250285,-0.00155370,
 0.00038982,0.00857092,-0.01015566,0.00964722,-0.00538081,0.00309902,-0
 .00206513,-0.03964105,0.04492120,-0.03302271,-0.10540890,0.00283615,-0
 .04866943,0.00148281,-0.00160983,0.00034672,0.60820762,-0.00021597,-0.
 00032895,-0.00180620,0.02305053,-0.02928677,0.03033166,0.00222377,-0.0
 0585442,0.00391447,0.00992691,-0.00764173,0.01134812,0.00999244,-0.055
 76314,0.02754523,-0.01497847,0.00537739,-0.02231321,-0.03367741,0.4654
 2801,-0.00092089,-0.00148651,-0.00054955,-0.02290010,0.03827949,-0.024
 74996,-0.00120718,0.00370562,-0.00466040,0.00127842,0.00297420,0.00313
 875,-0.04658587,0.01669135,-0.14201237,-0.00746818,0.00018365,-0.01136
 862,-0.03973999,-0.14997774,0.46070488,0.00121639,0.00330153,0.0222726
 4,-0.05636245,-0.01288707,0.00153735,-0.01852033,0.00148921,-0.0379525
 5,-0.11794925,0.00388784,-0.01203008,0.02907226,-0.01301113,-0.0202658
 0,-0.00717636,0.00101089,0.00032319,-0.08384981,0.03507854,0.00547067,
 0.34786833,0.00077428,-0.00075099,0.01067130,-0.00640271,-0.06412315,0
 .01422542,0.02291660,0.00405730,0.03869982,-0.00573470,-0.04818925,-0.
 00275598,-0.02193172,-0.05055026,-0.08956574,0.00068808,-0.01234113,-0
 .00225942,0.03974155,-0.16354558,0.01511830,-0.02398675,0.55294071,0.0
 0479551,-0.00104512,-0.00207957,0.00512567,0.02482952,-0.10222485,-0.0
 2636963,0.00171199,-0.03902208,-0.01892543,-0.00539472,-0.06657945,-0.
 02565663,-0.07436551,-0.05260367,-0.00009674,-0.00113508,-0.00730038,0
 .00999918,0.00366956,-0.05578941,0.08698348,0.12469482,0.49969968,0.00
 033519,-0.00037064,-0.00124347,0.00336004,0.00537712,0.00247975,-0.000
 64063,-0.00117100,0.00140398,0.00980005,-0.01802876,-0.02032072,-0.008
 07266,-0.00000966,-0.00224168,0.00428642,-0.00120161,-0.00111655,0.004
 98057,0.00338909,0.00935786,-0.08081823,-0.00048960,-0.04071683,0.1846
 9928,-0.00066451,-0.00077849,-0.00186720,0.00333898,0.00474231,-0.0064
 3994,0.00071895,-0.00114515,0.00125048,-0.00582948,-0.00745790,-0.0079
 1221,-0.00068723,-0.00711530,-0.00167295,-0.00049136,0.00091404,-0.002
 97954,-0.00965628,-0.01103082,-0.02439479,-0.02328927,-0.16802839,-0.1
 0894018,-0.17413905,0.56159276,-0.00170739,-0.00064187,0.00069813,-0.0
 1017610,-0.02659209,-0.01191290,0.00261467,-0.00139427,0.00118773,-0.0
 0096254,-0.00758103,-0.00640924,-0.00231369,-0.00063355,-0.01162998,-0
 .00072444,-0.00434150,0.00078119,0.00122744,-0.00182015,0.00154254,-0.
 05555725,-0.07344720,-0.19199356,0.12159205,0.05590773,0.26851472,-0.0
 4797223,-0.00320246,-0.02358493,0.00272489,0.00368697,0.03236380,0.000
 91727,0.00061832,-0.00046549,0.00031636,-0.00042364,0.00109082,0.00103
 250,0.00049132,-0.00007969,-0.00007731,-0.00036292,-0.00051208,-0.0005
 4488,0.00043669,0.00004401,-0.00381598,-0.00162494,-0.00190212,0.00026
 967,0.00092992,0.00096089,0.05134201,-0.00368670,-0.05163226,-0.038260
 65,0.00171066,0.00056700,0.01160118,-0.00013972,0.00011238,-0.00040863
 ,-0.00004373,-0.00007773,0.00020217,0.00058010,0.00090159,0.00097203,0
 .00041762,0.00021011,-0.00073631,0.00005492,0.00024143,0.00008163,-0.0
 0172531,-0.00058473,-0.00045108,0.00015155,0.00041388,0.00054129,0.005
 54067,0.05207842,-0.02491674,-0.03854104,-0.29666894,0.00004191,0.0000
 7667,-0.01762470,0.00029918,-0.00002298,0.00040161,0.00039399,0.000323
 89,-0.00053026,-0.00052714,-0.00119318,-0.00049064,0.00008985,0.000954
 21,0.00089125,0.00019107,-0.00032558,-0.00008870,0.00166401,0.00026323
 ,0.00365027,-0.00015759,-0.00049392,-0.00058683,0.02360868,0.04102814,
 0.32484458,-0.20722063,0.10730936,-0.06633258,-0.02485146,0.01609965,-
 0.01018835,-0.00005208,-0.00240807,0.00261909,-0.00031467,0.00046817,-
 0.00033621,0.00010019,0.00039306,-0.00058761,0.00012932,-0.00070018,-0
 .00024615,-0.00043944,-0.00025740,0.00041426,0.00025017,0.00049911,-0.
 00021142,0.00027134,0.00013691,0.00062215,-0.00217617,0.00110957,-0.00
 088962,0.22848620,0.10718961,-0.11796223,0.04499487,-0.00783193,0.0060
 5125,-0.00558770,-0.00146708,0.00022231,0.00112936,0.00030597,0.000275
 71,-0.00014963,0.00000322,0.00000296,-0.00055930,0.00011680,-0.0000129
 0,-0.00000458,-0.00006656,0.00019398,0.00005626,0.00058572,0.00026890,
 0.00079635,-0.00017812,-0.00017757,-0.00011183,-0.00504301,0.00212288,
 -0.00181857,-0.11828242,0.12526412,-0.06621151,0.04496357,-0.07389011,
 0.01324527,-0.01132493,0.00633932,0.00168995,0.00135431,-0.00071614,-0
 .00017760,-0.00018814,0.00042432,-0.00033283,0.00083129,0.00051968,0.0
 0007846,0.00002160,-0.00016236,0.00022841,0.00010161,0.00008160,-0.000
 17175,-0.00066563,0.00009926,-0.00019084,-0.00001802,-0.00013994,-0.02
 501315,0.01762911,-0.00964678,0.07175694,-0.05038523,0.07694354,-0.054
 10717,-0.04574690,-0.00805473,-0.00634456,-0.03142879,-0.00348784,0.00
 075021,0.00026013,-0.00074407,0.00004627,-0.00114724,0.00040432,-0.002
 44218,0.00324975,0.00224307,-0.00018522,-0.00091098,-0.00092566,-0.000
 64968,0.00011098,-0.00028422,0.00083118,-0.00001816,-0.00075257,0.0000
 8752,0.00052481,0.00064185,-0.00151645,-0.00319340,-0.00087497,0.00518
 338,0.02491883,0.00497979,0.05837638,-0.04451128,-0.28980643,-0.040697
 83,-0.00276325,-0.00976473,0.00110707,-0.00038324,0.00040307,0.0002316
 1,-0.00044597,-0.00016823,0.00032489,-0.00004905,0.00322824,0.00007316
 ,-0.00006188,-0.00037122,-0.00029530,-0.00012487,-0.00005400,-0.000205
 91,-0.00009792,-0.00054268,-0.00112570,0.00033297,0.00073187,0.0008150
 3,-0.00012459,-0.00435161,-0.00063254,-0.00318551,-0.01578263,-0.00317
 108,0.05222166,0.31598189,-0.00745387,-0.04023827,-0.05235730,0.002698
 92,0.01902341,0.00178035,-0.00013673,-0.00048960,0.00027067,0.00003985
 ,0.00046239,-0.00017057,0.00201167,-0.00144932,-0.00153542,0.00012507,
 0.00075629,0.00065219,0.00017379,0.00005372,0.00031194,-0.00031424,0.0
 0104297,0.00115914,-0.00053996,-0.00073506,0.00020700,-0.00540308,-0.0
 3192082,-0.00469830,0.00234560,0.01101227,0.00089698,0.00580146,0.0431
 9791,0.05390524,0.00065999,0.00009914,-0.00074075,-0.00551010,-0.00585
 208,-0.02535258,-0.09684201,-0.02190780,-0.09816970,0.00343761,0.00309
 661,0.00749955,-0.00160597,-0.00216675,-0.00027886,0.00063136,0.000645
 58,0.00087760,0.00085268,0.00055333,-0.00147317,-0.00414678,0.00237199
 ,-0.00037867,0.00060588,0.00023638,-0.00099248,-0.00027785,-0.00010623
 ,0.00061251,-0.00015614,0.00011527,0.00039876,-0.00000460,-0.00000305,
 0.00002913,0.09986852,-0.00042017,0.00007553,-0.00038765,0.00079492,0.
 00058325,0.00656874,-0.02124705,-0.06091078,-0.04501809,0.01139923,0.0
 0618375,0.01405871,-0.00059531,0.00216137,0.00157817,-0.00024366,0.000
 16118,-0.00055973,0.00088845,-0.00025108,0.00010513,0.00185716,-0.0029
 0855,0.00353157,0.00082538,0.00053460,0.00094060,0.00003003,0.00009433
 ,-0.00010161,-0.00007120,0.00000308,0.00006645,0.00008657,0.00003814,-
 0.00007240,0.02011172,0.06124374,-0.00031737,0.00008691,0.00041616,0.0
 0215128,0.00197990,0.00139171,-0.09725048,-0.04590366,-0.24032771,-0.0
 1067397,-0.00596007,-0.01250598,0.00079116,-0.00120959,-0.00158416,0.0
 0027922,0.00105039,0.00153668,-0.00132451,-0.00037841,-0.00051475,-0.0
 0094474,0.00416586,-0.00143970,-0.00061988,0.00008506,0.00016703,-0.00
 038552,-0.00005419,0.00012949,-0.00002688,-0.00003530,-0.00004882,0.00
 000428,-0.00004163,0.00002578,0.11275823,0.04620281,0.26069804,0.00090
 424,0.00050360,-0.00024754,0.00197949,0.02611092,0.00711741,-0.0548086
 0,0.03936282,0.01054493,0.00066780,-0.00716639,-0.00349468,-0.00413489
 ,0.00186157,-0.00090100,0.00076191,0.00104186,-0.00021160,0.00101088,0
 .00107514,-0.00087880,-0.00088978,0.00050253,0.00256372,0.00033702,-0.
 00069740,-0.00044690,-0.00003317,-0.00003111,0.00000846,-0.00023315,-0
 .00032684,-0.00008028,-0.00027754,-0.00051728,0.00015272,0.00251789,-0
 .01355716,-0.00433411,0.05265697,0.00021062,0.00020681,0.00006655,-0.0
 0175373,-0.00456216,0.00074608,0.03825299,-0.27158476,-0.07067274,0.00
 566698,-0.01285628,-0.00751314,0.00256746,-0.00229277,0.00414907,0.000
 47149,-0.00023196,-0.00000890,0.00081305,-0.00107533,-0.00048110,-0.00
 121206,-0.00144755,-0.00161571,0.00027366,0.00171849,0.00121602,-0.000
 00050,0.00003602,-0.00004228,0.00006383,0.00002755,-0.00002172,0.00046
 114,0.00016679,-0.00018601,0.00127989,-0.00591645,-0.00166139,-0.04772
 810,0.29773125,0.00012539,-0.00060185,0.00003904,0.00041162,0.00025787
 ,-0.00094906,0.01006505,-0.06989433,-0.07168837,-0.00603777,0.01756294
 ,0.00930396,-0.00052145,0.00356092,-0.00206744,-0.00060295,0.00085108,
 0.00077760,-0.00109896,0.00001994,0.00015137,0.00163368,0.00113769,0.0
 0130854,0.00007137,-0.00037449,0.00027358,-0.00008472,-0.00004467,0.00
 005589,0.00014506,0.00012872,0.00000314,0.00005765,0.00003291,0.000056
 93,0.00469637,-0.02667917,-0.00802621,-0.00854609,0.07408068,0.0714224
 9,0.00126327,-0.00082944,0.00139964,-0.00876427,-0.00113886,0.00260687
 ,0.00433631,0.00168536,-0.00333540,-0.22720243,-0.06487725,0.10772738,
 -0.00468374,-0.01016440,-0.00248109,0.00097920,0.00123267,0.00072508,0
 .00010428,-0.00129332,0.00078056,-0.00442304,0.00198032,0.01629281,0.0
 0097005,-0.00122790,-0.00193873,-0.00049042,-0.00018848,0.00038292,0.0
 0017865,0.00008988,-0.00014144,-0.00029249,-0.00016036,0.00017283,0.00
 025830,-0.00031094,0.00002650,0.00018158,-0.00011726,0.00024344,0.2380
 5394,-0.00063103,0.00325362,0.00060535,-0.00100651,-0.00344142,0.00112
 733,-0.01282311,0.00043663,-0.00000453,-0.06526497,-0.07554214,0.04773
 648,0.01195302,0.01323092,-0.00270029,-0.00182854,-0.00047960,-0.00048
 985,-0.00046003,0.00049105,-0.00226410,-0.00326859,-0.00375154,0.00612
 231,0.00057067,-0.00057585,-0.00121632,-0.00020105,-0.00009297,0.00021
 920,-0.00060959,-0.00017985,0.00027825,0.00066717,0.00026500,-0.000391
 18,0.00017128,0.00022751,0.00021790,-0.00046713,-0.00030821,-0.0002502
 3,0.07397031,0.06685168,0.00120589,0.00065233,0.00278879,0.00247696,0.
 00115876,-0.00426569,0.01088483,-0.00347672,-0.00189575,0.10810736,0.0
 4764399,-0.11534454,0.00547996,0.00860880,-0.00414528,-0.00131319,-0.0
 0137009,-0.00062311,-0.00003626,-0.00206461,0.00010121,-0.00820222,-0.
 00114987,0.01257652,0.00133729,-0.00063823,-0.00051757,-0.00057275,-0.
 00020397,0.00035076,0.00054326,0.00011071,-0.00028321,0.00033034,0.000
 22745,-0.00020520,0.00026551,-0.00026118,-0.00041563,-0.00012515,0.000
 26058,0.00019677,-0.12141898,-0.05024120,0.11195567,-0.00043935,0.0002
 8829,-0.00007801,0.00010690,0.00097523,0.00087453,0.00095668,-0.000654
 22,0.00031144,0.00137889,-0.00021895,0.00016665,-0.00632467,0.00303903
 ,-0.00510042,-0.18128265,0.09681558,-0.22234876,0.00223270,-0.00093983
 ,0.00127151,0.00024813,0.00067343,-0.00142471,-0.00007147,-0.00025818,
 0.00072624,-0.00019495,-0.00028289,0.00029514,-0.00001005,-0.00004352,
 0.00000677,0.00019628,0.00013090,0.00007222,0.00006889,0.00009985,-0.0
 0037943,-0.00039747,-0.00021349,-0.00010855,-0.00016572,-0.00023676,0.
 00030810,0.18363890,-0.00011602,-0.00019456,0.00005257,-0.00133566,-0.
 00028607,0.00033616,-0.00061006,0.00038731,-0.00119064,0.00153269,0.00
 006527,-0.00114749,-0.02336671,0.00750605,-0.03119069,0.12163228,-0.09
 697771,0.13355087,0.00021278,-0.00275633,-0.00184007,-0.00027237,0.001
 01014,-0.00052326,0.00025826,-0.00040817,0.00049800,-0.00019119,-0.000
 08212,0.00014156,0.00013925,0.00000424,0.00000557,0.00003651,0.0000562
 8,0.00007366,0.00091079,-0.00068109,0.00089183,0.00016396,0.00036133,0
 .00070005,0.00005136,-0.00027782,0.00012116,-0.09903681,0.09270159,-0.
 00002184,-0.00020529,0.00028856,-0.00069850,-0.00037759,0.00209789,0.0
 0041548,-0.00137472,0.00053541,0.00177529,0.00171421,0.00123311,-0.021
 60982,0.01037782,-0.03034698,-0.20618793,0.09440211,-0.27056519,0.0015
 9818,-0.00420602,0.00138799,-0.00227531,0.00102077,-0.00175589,0.00109
 400,-0.00024692,0.00097795,0.00007234,0.00002983,-0.00016814,0.0001069
 3,0.00000755,-0.00004065,0.00003726,0.00002439,-0.00011882,0.00001308,
 -0.00045875,0.00013393,0.00009714,0.00007566,-0.00021213,0.00010950,-0
 .00000977,-0.00014289,0.22542816,-0.10016332,0.29689879,-0.00038129,0.
 00033530,-0.00017415,0.00017495,-0.00026817,-0.00013700,-0.00092227,0.
 00049722,0.00010632,-0.00018126,0.00276570,-0.00289104,-0.01119876,0.0
 0480718,0.00584732,0.00039298,-0.00092885,-0.00083878,-0.30055305,0.03
 011837,0.03088487,-0.00565985,-0.00227279,-0.00270816,0.00067052,0.000
 91228,0.00083956,0.00022993,-0.00001873,-0.00005667,0.00050320,-0.0001
 3563,0.00005373,0.00027429,-0.00000598,-0.00004084,0.00002603,0.000165
 14,-0.00019615,0.00010235,0.00032670,-0.00029410,-0.00020665,0.0001280
 3,0.00004325,-0.00005800,-0.00000976,0.00001364,0.32727344,0.00015826,
 -0.00002854,0.00024388,0.00021528,0.00042764,-0.00193610,0.00091188,0.
 00047068,0.00084846,0.00310108,-0.00327804,0.00155496,-0.00294505,-0.0
 0274128,-0.00016923,-0.00038404,0.00062454,0.00044640,0.02922480,-0.05
 387913,-0.00135212,0.02823814,0.00307089,0.00030191,-0.00108444,0.0006
 4072,-0.00035663,-0.00018930,0.00013618,-0.00005563,-0.00043043,-0.000
 32180,0.00059313,-0.00003264,0.00007643,-0.00010297,-0.00023181,-0.000
 34277,0.00055301,0.00001532,0.00005055,-0.00012241,0.00068877,-0.00019
 267,0.00051249,0.00010694,-0.00007706,-0.00019756,-0.03852706,0.052301
 75,-0.00000219,0.00020239,0.00006255,-0.00061114,-0.00182006,0.0004351
 5,-0.00030004,0.00094771,0.00070175,-0.00321953,0.00163535,-0.00176658
 ,-0.02407518,0.00562218,0.00855530,0.00100626,-0.00039462,0.00060197,0
 .03176015,-0.00156597,-0.05418934,0.00490680,-0.00004395,-0.00279580,0
 .00041755,0.00013708,0.00030818,-0.00003946,-0.00010392,0.00008037,0.0
 0034475,0.00052236,-0.00041637,0.00013560,-0.00010263,0.00009491,-0.00
 005033,-0.00017763,0.00012958,0.00025434,0.00043874,-0.00034007,-0.000
 50642,0.00064664,-0.00001438,0.00016501,0.00000876,-0.00004225,-0.0308
 6651,-0.00237060,0.05018642,-0.00061743,0.00051706,-0.00017397,-0.0014
 4988,0.00359511,-0.00351498,0.00062571,0.00075927,-0.00057742,0.002921
 61,-0.00065806,-0.00039480,0.00653089,0.01138853,-0.00748999,0.0002878
 6,-0.00047361,0.00095147,-0.09457730,-0.06297915,0.07307240,0.00177006
 ,0.00280545,-0.00691638,0.00011067,-0.00072552,0.00037414,0.00015153,-
 0.00003781,-0.00002405,0.00040806,0.00005111,-0.00017700,0.00023121,0.
 00000195,-0.00002187,-0.00009387,-0.00010853,0.00004618,-0.00026166,0.
 00000520,0.00016576,0.00012032,-0.00041298,0.00048517,-0.00000375,0.00
 000842,0.00012826,-0.01035672,-0.01869770,0.02082656,0.09420018,0.0007
 5138,0.00013317,0.00044553,0.00256105,-0.00327197,0.00120940,0.0002669
 4,-0.00005731,0.00128798,-0.00060792,-0.00018611,-0.00106732,0.0020807
 6,-0.00055356,-0.00416823,0.00042025,0.00107113,0.00056430,-0.06198394
 ,-0.14262606,0.10838623,-0.01133546,-0.01078283,0.02360866,-0.00017197
 ,0.00058623,-0.00124220,-0.00028260,-0.00000976,0.00015066,-0.00017487
 ,0.00001493,-0.00009022,0.00000453,-0.00001697,-0.00001367,0.00073151,
 -0.00003689,0.00000318,-0.00006945,-0.00003792,0.00001661,0.00070043,0
 .00013889,0.00014321,-0.00015732,-0.00015792,0.00001795,0.00215002,0.0
 0305701,-0.00342322,0.06507528,0.15268641,-0.00040447,0.00050158,0.000
 37654,-0.00250074,0.00096262,-0.00175746,-0.00009502,0.00117028,0.0001
 9786,-0.00044392,-0.00105534,-0.00028282,0.01272949,0.01867462,-0.0121
 8052,-0.00004420,-0.00114617,0.00035589,0.07209673,0.10862462,-0.17090
 028,-0.00415222,-0.00484563,0.00281076,-0.00004899,0.00081458,0.001017
 80,-0.00006174,-0.00000320,-0.00000266,0.00004493,-0.00014475,0.000011
 17,0.00025338,0.00008211,-0.00007568,0.00012095,0.00002599,-0.00006592
 ,-0.00065923,0.00017690,0.00010280,-0.00060621,0.00040962,0.00019956,-
 0.00004925,-0.00005975,0.00003036,0.00039241,0.00156555,-0.00153903,-0
 .07669271,-0.12577143,0.18188495,-0.00040871,0.00025705,-0.00026583,0.
 00023563,-0.00032484,-0.00118002,0.00087540,-0.00066915,0.00014979,0.0
 0060820,-0.00027954,0.00048742,0.00094373,0.00059593,-0.00035943,-0.00
 042399,-0.00024208,0.00018228,0.00109962,-0.00161423,-0.00111615,0.002
 35534,-0.01049196,0.00029892,-0.12118122,0.21086794,-0.05477946,0.0001
 1524,-0.00011097,-0.00014092,-0.00005670,-0.00000130,0.00005833,-0.000
 15682,-0.00025327,0.00028734,-0.00028984,0.00029557,0.00039617,-0.0000
 8386,0.00063210,-0.00032080,-0.00021714,-0.00025019,0.00020062,0.00012
 070,-0.00000773,-0.00009585,-0.00012983,-0.00013802,-0.00014623,0.0000
 0250,0.00004141,0.00012079,0.11659175,0.00014444,0.00023081,-0.0001498
 6,0.00105450,0.00203108,-0.00028217,-0.00081403,0.00085510,-0.00131348
 ,-0.00117891,0.00163552,0.00202115,0.00179658,-0.00250431,0.00057895,-
 0.00078052,0.00131744,-0.00003699,-0.00250365,0.00236148,-0.00357954,0
 .01563690,-0.03380130,0.00532967,0.18566616,-0.37515726,0.05945997,-0.
 00008774,-0.00008304,0.00006976,-0.00009924,-0.00001492,0.00002008,-0.
 00006397,-0.00008921,-0.00002332,-0.00005577,-0.00025888,0.00000738,-0
 .00007685,0.00001457,-0.00038225,-0.00009090,-0.00005324,-0.00003361,-
 0.00008729,-0.00019336,-0.00043037,-0.00003895,0.00000488,-0.00015861,
 -0.00011405,0.00004951,0.00001779,-0.19830673,0.40365513,0.00018363,-0
 .00001587,-0.00016731,0.00130611,0.00020829,-0.00034664,0.00014468,-0.
 00115338,0.00014884,-0.00195620,-0.00063655,0.00043265,0.00024100,-0.0
 0090421,0.00106302,-0.00016380,0.00070274,-0.00039515,-0.00170174,-0.0
 0115104,-0.00259689,0.01707437,-0.03630678,0.00228021,-0.07055735,0.09
 851853,-0.05248584,-0.00003582,0.00010207,0.00010172,-0.00012415,0.000
 03846,0.00002536,0.00023506,0.00015610,-0.00019985,0.00016484,0.000638
 02,0.00030048,-0.00081332,0.00099270,-0.00040882,-0.00003926,0.0002044
 0,-0.00031603,-0.00013664,-0.00026498,-0.00019107,0.00002231,0.0000434
 5,-0.00005235,-0.00006677,-0.00005741,-0.00018333,0.05622304,-0.061114
 54,0.05299100\\0.00000203,0.00003546,-0.00003433,0.00006117,-0.0000789
 3,0.00005728,-0.00002682,0.00004841,-0.00003864,-0.00000383,-0.0000084
 7,0.00001252,-0.00001604,0.00002913,0.00000414,0.00000452,-0.00001713,
 -0.00000622,0.00001370,-0.00002914,0.00002577,-0.00002532,-0.00000297,
 -0.00002256,0.00001112,0.00000516,0.00001512,-0.00001439,-0.00000077,0
 .00000200,-0.00000031,0.00000917,-0.00000626,-0.00001634,0.00000214,0.
 00000212,0.00000108,-0.00000636,0.00000698,0.00000117,-0.00000711,0.00
 000608,0.00001659,-0.00000418,-0.00000083,-0.00000973,0.00000168,-0.00
 000970,0.00000159,0.00000932,-0.00000951,0.00000721,0.00000293,-0.0000
 0461,-0.00000739,0.00001166,0.00000064\\\@


 "PERFECTION IS NOT AN ACCIDENT"
         --  EAGLE ELECTRIC MANUFACTURING CO.,INC. NY
 Job cpu time:       0 days  0 hours 49 minutes 32.3 seconds.
 File lengths (MBytes):  RWF=    152 Int=      0 D2E=      0 Chk=      8 Scr=      1
 Normal termination of Gaussian 09 at Mon Jan 27 18:47:26 2020.
