 Entering Gaussian System, Link 0=/home/puck/opt/gaussian_09/g09
 Input=dsC7O2H10nsd_4606.com
 Output=dsC7O2H10nsd_4606.log
 Initial command:
 /home/puck/opt/gaussian_09/l1.exe "/scratch/puck/g09_f0598c2d-d4dd-4da5-aab0-dea2e25e9725/Gau-104641.inp" -scrdir="/scratch/puck/g09_f0598c2d-d4dd-4da5-aab0-dea2e25e9725/"
 Entering Link 1 = /home/puck/opt/gaussian_09/l1.exe PID=    104652.
  
 Copyright (c) 1988,1990,1992,1993,1995,1998,2003,2009,2013,
            Gaussian, Inc.  All Rights Reserved.
  
 This is part of the Gaussian(R) 09 program.  It is based on
 the Gaussian(R) 03 system (copyright 2003, Gaussian, Inc.),
 the Gaussian(R) 98 system (copyright 1998, Gaussian, Inc.),
 the Gaussian(R) 94 system (copyright 1995, Gaussian, Inc.),
 the Gaussian 92(TM) system (copyright 1992, Gaussian, Inc.),
 the Gaussian 90(TM) system (copyright 1990, Gaussian, Inc.),
 the Gaussian 88(TM) system (copyright 1988, Gaussian, Inc.),
 the Gaussian 86(TM) system (copyright 1986, Carnegie Mellon
 University), and the Gaussian 82(TM) system (copyright 1983,
 Carnegie Mellon University). Gaussian is a federally registered
 trademark of Gaussian, Inc.
  
 This software contains proprietary and confidential information,
 including trade secrets, belonging to Gaussian, Inc.
  
 This software is provided under written license and may be
 used, copied, transmitted, or stored only in accord with that
 written license.
  
 The following legend is applicable only to US Government
 contracts under FAR:
  
                    RESTRICTED RIGHTS LEGEND
  
 Use, reproduction and disclosure by the US Government is
 subject to restrictions as set forth in subparagraphs (a)
 and (c) of the Commercial Computer Software - Restricted
 Rights clause in FAR 52.227-19.
  
 Gaussian, Inc.
 340 Quinnipiac St., Bldg. 40, Wallingford CT 06492
  
  
 ---------------------------------------------------------------
 Warning -- This program may not be used in any manner that
 competes with the business of Gaussian, Inc. or will provide
 assistance to any competitor of Gaussian, Inc.  The licensee
 of this program is prohibited from giving any competitor of
 Gaussian, Inc. access to this program.  By using this program,
 the user acknowledges that Gaussian, Inc. is engaged in the
 business of creating and licensing software in the field of
 computational chemistry and represents and warrants to the
 licensee that it is not a competitor of Gaussian, Inc. and that
 it will not use this program in any manner prohibited above.
 ---------------------------------------------------------------
  

 Cite this work as:
 Gaussian 09, Revision D.01,
 M. J. Frisch, G. W. Trucks, H. B. Schlegel, G. E. Scuseria, 
 M. A. Robb, J. R. Cheeseman, G. Scalmani, V. Barone, B. Mennucci, 
 G. A. Petersson, H. Nakatsuji, M. Caricato, X. Li, H. P. Hratchian, 
 A. F. Izmaylov, J. Bloino, G. Zheng, J. L. Sonnenberg, M. Hada, 
 M. Ehara, K. Toyota, R. Fukuda, J. Hasegawa, M. Ishida, T. Nakajima, 
 Y. Honda, O. Kitao, H. Nakai, T. Vreven, J. A. Montgomery, Jr., 
 J. E. Peralta, F. Ogliaro, M. Bearpark, J. J. Heyd, E. Brothers, 
 K. N. Kudin, V. N. Staroverov, T. Keith, R. Kobayashi, J. Normand, 
 K. Raghavachari, A. Rendell, J. C. Burant, S. S. Iyengar, J. Tomasi, 
 M. Cossi, N. Rega, J. M. Millam, M. Klene, J. E. Knox, J. B. Cross, 
 V. Bakken, C. Adamo, J. Jaramillo, R. Gomperts, R. E. Stratmann, 
 O. Yazyev, A. J. Austin, R. Cammi, C. Pomelli, J. W. Ochterski, 
 R. L. Martin, K. Morokuma, V. G. Zakrzewski, G. A. Voth, 
 P. Salvador, J. J. Dannenberg, S. Dapprich, A. D. Daniels, 
 O. Farkas, J. B. Foresman, J. V. Ortiz, J. Cioslowski, 
 and D. J. Fox, Gaussian, Inc., Wallingford CT, 2013.
 
 ******************************************
 Gaussian 09:  ES64L-G09RevD.01 24-Apr-2013
                28-Jan-2020 
 ******************************************
 -----------------------------
 # b3lyp 6-31G(2df,p) opt Freq
 -----------------------------
 1/14=-1,18=20,19=15,26=3,38=1/1,3;
 2/9=110,12=2,17=6,18=5,40=1/2;
 3/5=1,6=6,7=104,11=2,16=1,25=1,30=1,71=1,74=-5/1,2,3;
 4//1;
 5/5=2,38=5/2;
 6/7=2,8=2,9=2,10=2,28=1/1;
 7//1,2,3,16;
 1/14=-1,18=20,19=15,26=3/3(2);
 2/9=110/2;
 99//99;
 2/9=110/2;
 3/5=1,6=6,7=104,11=2,16=1,25=1,30=1,71=1,74=-5/1,2,3;
 4/5=5,16=3,69=1/1;
 5/5=2,38=5/2;
 7//1,2,3,16;
 1/14=-1,18=20,19=15,26=3/3(-5);
 2/9=110/2;
 6/7=2,8=2,9=2,10=2,19=2,28=1/1;
 99/9=1/99;
 -----
 titel
 -----
 Symbolic Z-matrix:
 Charge =  0 Multiplicity = 1
 C                     4.51494  -1.02361  -1.07655 
 C                     3.95574  -0.00239  -0.08992 
 C                     4.63387   1.40279  -0.09827 
 C                     5.06651   1.05594   1.33653 
 O                     4.46244  -0.25173   1.25818 
 C                     2.49645   0.02191  -0.12124 
 C                     1.29182   0.0422   -0.16564 
 C                    -0.16975   0.08508  -0.152 
 O                    -0.70007   1.23603   0.49057 
 H                     4.15463  -2.02487  -0.82569 
 H                     4.19773  -0.78521  -2.0964 
 H                     5.60756  -1.02272  -1.03173 
 H                     5.44383   1.49366  -0.82376 
 H                     3.95125   2.24529  -0.20271 
 H                     6.14606   0.99555   1.51622 
 H                     4.61032   1.66878   2.1234 
 H                    -0.55385   0.1135   -1.17787 
 H                    -0.55377  -0.84189   0.30334 
 H                    -0.29888   1.28645   1.36454 
 

 GradGradGradGradGradGradGradGradGradGradGradGradGradGradGradGradGradGrad
 Berny optimization.
 Initialization pass.
                           ----------------------------
                           !    Initial Parameters    !
                           ! (Angstroms and Degrees)  !
 --------------------------                            --------------------------
 ! Name  Definition              Value          Derivative Info.                !
 --------------------------------------------------------------------------------
 ! R1    R(1,2)                  1.5261         estimate D2E/DX2                !
 ! R2    R(1,10)                 1.0933         estimate D2E/DX2                !
 ! R3    R(1,11)                 1.0943         estimate D2E/DX2                !
 ! R4    R(1,12)                 1.0935         estimate D2E/DX2                !
 ! R5    R(2,3)                  1.5603         estimate D2E/DX2                !
 ! R6    R(2,5)                  1.4616         estimate D2E/DX2                !
 ! R7    R(2,6)                  1.4598         estimate D2E/DX2                !
 ! R8    R(3,4)                  1.5382         estimate D2E/DX2                !
 ! R9    R(3,13)                 1.0912         estimate D2E/DX2                !
 ! R10   R(3,14)                 1.0893         estimate D2E/DX2                !
 ! R11   R(4,5)                  1.4426         estimate D2E/DX2                !
 ! R12   R(4,15)                 1.0961         estimate D2E/DX2                !
 ! R13   R(4,16)                 1.0967         estimate D2E/DX2                !
 ! R14   R(6,7)                  1.2056         estimate D2E/DX2                !
 ! R15   R(7,8)                  1.4623         estimate D2E/DX2                !
 ! R16   R(8,9)                  1.4209         estimate D2E/DX2                !
 ! R17   R(8,17)                 1.0958         estimate D2E/DX2                !
 ! R18   R(8,18)                 1.1019         estimate D2E/DX2                !
 ! R19   R(9,19)                 0.963          estimate D2E/DX2                !
 ! A1    A(2,1,10)             110.1045         estimate D2E/DX2                !
 ! A2    A(2,1,11)             110.5183         estimate D2E/DX2                !
 ! A3    A(2,1,12)             109.8204         estimate D2E/DX2                !
 ! A4    A(10,1,11)            108.531          estimate D2E/DX2                !
 ! A5    A(10,1,12)            108.7009         estimate D2E/DX2                !
 ! A6    A(11,1,12)            109.1261         estimate D2E/DX2                !
 ! A7    A(1,2,3)              116.0995         estimate D2E/DX2                !
 ! A8    A(1,2,5)              110.8001         estimate D2E/DX2                !
 ! A9    A(1,2,6)              111.319          estimate D2E/DX2                !
 ! A10   A(3,2,5)               90.4526         estimate D2E/DX2                !
 ! A11   A(3,2,6)              114.7939         estimate D2E/DX2                !
 ! A12   A(5,2,6)              111.6642         estimate D2E/DX2                !
 ! A13   A(2,3,4)               85.0769         estimate D2E/DX2                !
 ! A14   A(2,3,13)             113.6514         estimate D2E/DX2                !
 ! A15   A(2,3,14)             115.1306         estimate D2E/DX2                !
 ! A16   A(4,3,13)             115.4784         estimate D2E/DX2                !
 ! A17   A(4,3,14)             116.1081         estimate D2E/DX2                !
 ! A18   A(13,3,14)            109.6941         estimate D2E/DX2                !
 ! A19   A(3,4,5)               92.0611         estimate D2E/DX2                !
 ! A20   A(3,4,15)             116.2552         estimate D2E/DX2                !
 ! A21   A(3,4,16)             115.2288         estimate D2E/DX2                !
 ! A22   A(5,4,15)             111.8016         estimate D2E/DX2                !
 ! A23   A(5,4,16)             111.7961         estimate D2E/DX2                !
 ! A24   A(15,4,16)            108.8352         estimate D2E/DX2                !
 ! A25   A(2,5,4)               92.3279         estimate D2E/DX2                !
 ! A26   A(7,8,9)              113.6431         estimate D2E/DX2                !
 ! A27   A(7,8,17)             110.0217         estimate D2E/DX2                !
 ! A28   A(7,8,18)             109.1198         estimate D2E/DX2                !
 ! A29   A(9,8,17)             105.7565         estimate D2E/DX2                !
 ! A30   A(9,8,18)             111.3769         estimate D2E/DX2                !
 ! A31   A(17,8,18)            106.6511         estimate D2E/DX2                !
 ! A32   A(8,9,19)             107.2996         estimate D2E/DX2                !
 ! A33   L(2,6,7,14,-1)        179.9412         estimate D2E/DX2                !
 ! A34   L(6,7,8,19,-1)        177.4723         estimate D2E/DX2                !
 ! A35   L(2,6,7,14,-2)        178.9607         estimate D2E/DX2                !
 ! A36   L(6,7,8,19,-2)        181.3656         estimate D2E/DX2                !
 ! D1    D(10,1,2,3)           165.9365         estimate D2E/DX2                !
 ! D2    D(10,1,2,5)            64.6625         estimate D2E/DX2                !
 ! D3    D(10,1,2,6)           -60.2386         estimate D2E/DX2                !
 ! D4    D(11,1,2,3)           -74.1724         estimate D2E/DX2                !
 ! D5    D(11,1,2,5)          -175.4464         estimate D2E/DX2                !
 ! D6    D(11,1,2,6)            59.6525         estimate D2E/DX2                !
 ! D7    D(12,1,2,3)            46.2758         estimate D2E/DX2                !
 ! D8    D(12,1,2,5)           -54.9981         estimate D2E/DX2                !
 ! D9    D(12,1,2,6)          -179.8992         estimate D2E/DX2                !
 ! D10   D(1,2,3,4)           -115.6169         estimate D2E/DX2                !
 ! D11   D(1,2,3,13)             0.0813         estimate D2E/DX2                !
 ! D12   D(1,2,3,14)           127.8015         estimate D2E/DX2                !
 ! D13   D(5,2,3,4)             -2.0817         estimate D2E/DX2                !
 ! D14   D(5,2,3,13)           113.6165         estimate D2E/DX2                !
 ! D15   D(5,2,3,14)          -118.6633         estimate D2E/DX2                !
 ! D16   D(6,2,3,4)            112.1428         estimate D2E/DX2                !
 ! D17   D(6,2,3,13)          -132.159          estimate D2E/DX2                !
 ! D18   D(6,2,3,14)            -4.4389         estimate D2E/DX2                !
 ! D19   D(1,2,5,4)            120.4829         estimate D2E/DX2                !
 ! D20   D(3,2,5,4)              2.2134         estimate D2E/DX2                !
 ! D21   D(6,2,5,4)           -114.8116         estimate D2E/DX2                !
 ! D22   D(1,2,8,9)           -165.1313         estimate D2E/DX2                !
 ! D23   D(1,2,8,17)           -46.5357         estimate D2E/DX2                !
 ! D24   D(1,2,8,18)            70.8397         estimate D2E/DX2                !
 ! D25   D(3,2,8,9)            -30.4649         estimate D2E/DX2                !
 ! D26   D(3,2,8,17)            88.1307         estimate D2E/DX2                !
 ! D27   D(3,2,8,18)          -154.4939         estimate D2E/DX2                !
 ! D28   D(5,2,8,9)             70.3577         estimate D2E/DX2                !
 ! D29   D(5,2,8,17)          -171.0467         estimate D2E/DX2                !
 ! D30   D(5,2,8,18)           -53.6713         estimate D2E/DX2                !
 ! D31   D(2,3,4,5)              2.1105         estimate D2E/DX2                !
 ! D32   D(2,3,4,15)           117.7137         estimate D2E/DX2                !
 ! D33   D(2,3,4,16)          -113.2099         estimate D2E/DX2                !
 ! D34   D(13,3,4,5)          -111.7799         estimate D2E/DX2                !
 ! D35   D(13,3,4,15)            3.8233         estimate D2E/DX2                !
 ! D36   D(13,3,4,16)          132.8997         estimate D2E/DX2                !
 ! D37   D(14,3,4,5)           117.7354         estimate D2E/DX2                !
 ! D38   D(14,3,4,15)         -126.6615         estimate D2E/DX2                !
 ! D39   D(14,3,4,16)            2.415          estimate D2E/DX2                !
 ! D40   D(3,4,5,2)             -2.2466         estimate D2E/DX2                !
 ! D41   D(15,4,5,2)          -121.6628         estimate D2E/DX2                !
 ! D42   D(16,4,5,2)           116.0307         estimate D2E/DX2                !
 ! D43   D(7,8,9,19)           -53.057          estimate D2E/DX2                !
 ! D44   D(17,8,9,19)         -173.8449         estimate D2E/DX2                !
 ! D45   D(18,8,9,19)           70.6768         estimate D2E/DX2                !
 --------------------------------------------------------------------------------
 Trust Radius=3.00D-01 FncErr=1.00D-07 GrdErr=1.00D-06
 Number of steps in this run=    110 maximum allowed number of steps=    114.
 GradGradGradGradGradGradGradGradGradGradGradGradGradGradGradGradGradGrad

                          Input orientation:                          
 ---------------------------------------------------------------------
 Center     Atomic      Atomic             Coordinates (Angstroms)
 Number     Number       Type             X           Y           Z
 ---------------------------------------------------------------------
      1          6           0        4.514943   -1.023606   -1.076554
      2          6           0        3.955739   -0.002388   -0.089923
      3          6           0        4.633868    1.402792   -0.098267
      4          6           0        5.066514    1.055942    1.336527
      5          8           0        4.462436   -0.251732    1.258182
      6          6           0        2.496452    0.021913   -0.121236
      7          6           0        1.291817    0.042198   -0.165645
      8          6           0       -0.169750    0.085077   -0.151997
      9          8           0       -0.700068    1.236025    0.490575
     10          1           0        4.154631   -2.024869   -0.825694
     11          1           0        4.197730   -0.785207   -2.096403
     12          1           0        5.607557   -1.022719   -1.031733
     13          1           0        5.443832    1.493658   -0.823757
     14          1           0        3.951248    2.245288   -0.202706
     15          1           0        6.146060    0.995549    1.516219
     16          1           0        4.610321    1.668779    2.123404
     17          1           0       -0.553845    0.113502   -1.177872
     18          1           0       -0.553770   -0.841893    0.303344
     19          1           0       -0.298884    1.286453    1.364538
 ---------------------------------------------------------------------
                    Distance matrix (angstroms):
                    1          2          3          4          5
     1  C    0.000000
     2  C    1.526118   0.000000
     3  C    2.618892   1.560275   0.000000
     4  C    3.232910   2.094909   1.538220   0.000000
     5  O    2.459581   1.461609   2.146344   1.442587   0.000000
     6  C    2.465776   1.459825   2.544780   3.130417   2.417181
     7  C    3.514859   2.665371   3.609025   4.187187   3.488051
     8  C    4.902074   4.126883   4.981366   5.529624   4.853780
     9  O    5.895606   4.852544   5.368931   5.831084   5.427162
    10  H    1.093290   2.161330   3.536620   3.872741   2.753416
    11  H    1.094327   2.167331   2.995013   3.991193   3.407037
    12  H    1.093533   2.157911   2.775343   3.197219   2.673842
    13  H    2.695062   2.234074   1.091162   2.236245   2.888597
    14  H    3.430311   2.250509   1.089348   2.242231   2.937791
    15  H    3.668787   2.893627   2.249252   1.096064   2.111133
    16  H    4.183033   2.849578   2.237661   1.096750   2.111597
    17  H    5.195758   4.640411   5.453457   6.228871   5.588455
    18  H    5.256329   4.603813   5.666700   6.021365   5.140265
    19  H    5.870965   4.677434   5.146395   5.370421   5.004746
                    6          7          8          9         10
     6  C    0.000000
     7  C    1.205624   0.000000
     8  C    2.667127   1.462259   0.000000
     9  O    3.473632   2.413183   1.420851   0.000000
    10  H    2.726745   3.592233   4.858602   5.994506   0.000000
    11  H    2.728932   3.585632   4.859319   5.896292   1.775759
    12  H    3.405765   4.528771   5.947976   6.870624   1.777006
    13  H    3.368475   4.447368   5.826463   6.288192   3.747276
    14  H    2.658283   3.453630   4.653140   4.809781   4.320154
    15  H    4.116900   5.225057   6.595556   6.926705   4.309672
    16  H    3.495571   4.347181   5.525815   5.572579   4.748460
    17  H    3.229424   2.106219   1.095790   2.016223   5.183282
    18  H    3.198481   2.099466   1.101853   2.091460   4.984295
    19  H    3.408883   2.533764   1.939035   0.962965   5.966219
                   11         12         13         14         15
    11  H    0.000000
    12  H    1.782568   0.000000
    13  H    2.892339   2.530259   0.000000
    14  H    3.582003   3.756396   1.782824   0.000000
    15  H    4.474161   3.294760   2.493336   3.055118   0.000000
    16  H    4.898883   4.265388   3.067763   2.485463   1.783370
    17  H    4.922280   6.266996   6.164606   5.078517   7.274948
    18  H    5.323415   6.306907   6.534247   5.484703   7.052303
    19  H    6.040647   6.779412   6.149013   4.630253   6.453289
                   16         17         18         19
    16  H    0.000000
    17  H    6.323442   0.000000
    18  H    6.023614   1.762606   0.000000
    19  H    4.982202   2.811524   2.391852   0.000000
 Stoichiometry    C7H10O2
 Framework group  C1[X(C7H10O2)]
 Deg. of freedom    51
 Full point group                 C1      NOp   1
 Largest Abelian subgroup         C1      NOp   1
 Largest concise Abelian subgroup C1      NOp   1
                         Standard orientation:                         
 ---------------------------------------------------------------------
 Center     Atomic      Atomic             Coordinates (Angstroms)
 Number     Number       Type             X           Y           Z
 ---------------------------------------------------------------------
      1          6           0        1.701001    1.780752    0.083563
      2          6           0        1.116417    0.371662    0.041571
      3          6           0        1.711783   -0.649121    1.060394
      4          6           0        2.210381   -1.400389   -0.185848
      5          8           0        1.680447   -0.391340   -1.070183
      6          6           0       -0.342087    0.403523   -0.011735
      7          6           0       -1.546696    0.442511   -0.042203
      8          6           0       -3.007075    0.429887   -0.115244
      9          8           0       -3.581563   -0.835155    0.182160
     10          1           0        1.407398    2.336232   -0.811157
     11          1           0        1.337399    2.320809    0.963155
     12          1           0        2.792627    1.728333    0.121234
     13          1           0        2.491010   -0.227818    1.697531
     14          1           0        0.978685   -1.171624    1.673774
     15          1           0        3.296910   -1.501720   -0.288526
     16          1           0        1.745590   -2.378551   -0.359133
     17          1           0       -3.425505    1.126860    0.619537
     18          1           0       -3.321930    0.790667   -1.107607
     19          1           0       -3.155595   -1.484170   -0.387605
 ---------------------------------------------------------------------
 Rotational constants (GHZ):      3.1961670      0.7890017      0.7076363
 Standard basis: 6-31G(2df,p) (6D, 7F)
 There are   329 symmetry adapted cartesian basis functions of A   symmetry.
 There are   302 symmetry adapted basis functions of A   symmetry.
   302 basis functions,   466 primitive gaussians,   329 cartesian basis functions
    34 alpha electrons       34 beta electrons
       nuclear repulsion energy       425.6565193351 Hartrees.
 NAtoms=   19 NActive=   19 NUniq=   19 SFac= 1.00D+00 NAtFMM=   60 NAOKFM=F Big=F
 Integral buffers will be    131072 words long.
 Raffenetti 2 integral format.
 Two-electron integral symmetry is turned on.
 One-electron integrals computed using PRISM.
 NBasis=   302 RedAO= T EigKep=  5.17D-05  NBF=   302
 NBsUse=   302 1.00D-06 EigRej= -1.00D+00 NBFU=   302
 ExpMin= 1.61D-01 ExpMax= 5.48D+03 ExpMxC= 8.25D+02 IAcc=1 IRadAn=         1 AccDes= 0.00D+00
 Harris functional with IExCor=  402 and IRadAn=       1 diagonalized for initial guess.
 HarFok:  IExCor=  402 AccDes= 0.00D+00 IRadAn=         1 IDoV= 1 UseB2=F ITyADJ=14
 ICtDFT=  3500011 ScaDFX=  1.000000  1.000000  1.000000  1.000000
 FoFCou: FMM=F IPFlag=           0 FMFlag=      100000 FMFlg1=           0
         NFxFlg=           0 DoJE=T BraDBF=F KetDBF=T FulRan=T
         wScrn=  0.000000 ICntrl=     500 IOpCl=  0 I1Cent=   200000004 NGrid=           0
         NMat0=    1 NMatS0=      1 NMatT0=    0 NMatD0=    1 NMtDS0=    0 NMtDT0=    0
 Petite list used in FoFCou.
 Requested convergence on RMS density matrix=1.00D-08 within 128 cycles.
 Requested convergence on MAX density matrix=1.00D-06.
 Requested convergence on             energy=1.00D-06.
 No special actions if energy rises.
 Integral accuracy reduced to 1.0D-05 until final iterations.
 Initial convergence to 1.0D-05 achieved.  Increase integral accuracy.
 SCF Done:  E(RB3LYP) =  -423.129412105     A.U. after   14 cycles
            NFock= 14  Conv=0.68D-08     -V/T= 2.0074

 **********************************************************************

            Population analysis using the SCF density.

 **********************************************************************

 Orbital symmetries:
       Occupied  (A) (A) (A) (A) (A) (A) (A) (A) (A) (A) (A) (A)
                 (A) (A) (A) (A) (A) (A) (A) (A) (A) (A) (A) (A)
                 (A) (A) (A) (A) (A) (A) (A) (A) (A) (A)
       Virtual   (A) (A) (A) (A) (A) (A) (A) (A) (A) (A) (A) (A)
                 (A) (A) (A) (A) (A) (A) (A) (A) (A) (A) (A) (A)
                 (A) (A) (A) (A) (A) (A) (A) (A) (A) (A) (A) (A)
                 (A) (A) (A) (A) (A) (A) (A) (A) (A) (A) (A) (A)
                 (A) (A) (A) (A) (A) (A) (A) (A) (A) (A) (A) (A)
                 (A) (A) (A) (A) (A) (A) (A) (A) (A) (A) (A) (A)
                 (A) (A) (A) (A) (A) (A) (A) (A) (A) (A) (A) (A)
                 (A) (A) (A) (A) (A) (A) (A) (A) (A) (A) (A) (A)
                 (A) (A) (A) (A) (A) (A) (A) (A) (A) (A) (A) (A)
                 (A) (A) (A) (A) (A) (A) (A) (A) (A) (A) (A) (A)
                 (A) (A) (A) (A) (A) (A) (A) (A) (A) (A) (A) (A)
                 (A) (A) (A) (A) (A) (A) (A) (A) (A) (A) (A) (A)
                 (A) (A) (A) (A) (A) (A) (A) (A) (A) (A) (A) (A)
                 (A) (A) (A) (A) (A) (A) (A) (A) (A) (A) (A) (A)
                 (A) (A) (A) (A) (A) (A) (A) (A) (A) (A) (A) (A)
                 (A) (A) (A) (A) (A) (A) (A) (A) (A) (A) (A) (A)
                 (A) (A) (A) (A) (A) (A) (A) (A) (A) (A) (A) (A)
                 (A) (A) (A) (A) (A) (A) (A) (A) (A) (A) (A) (A)
                 (A) (A) (A) (A) (A) (A) (A) (A) (A) (A) (A) (A)
                 (A) (A) (A) (A) (A) (A) (A) (A) (A) (A) (A) (A)
                 (A) (A) (A) (A) (A) (A) (A) (A) (A) (A) (A) (A)
                 (A) (A) (A) (A) (A) (A) (A) (A) (A) (A) (A) (A)
                 (A) (A) (A) (A)
 The electronic state is 1-A.
 Alpha  occ. eigenvalues --  -19.14133 -19.13283 -10.26247 -10.25292 -10.23216
 Alpha  occ. eigenvalues --  -10.19356 -10.18233 -10.18038 -10.17720  -1.03817
 Alpha  occ. eigenvalues --   -1.02310  -0.79225  -0.75405  -0.73540  -0.69143
 Alpha  occ. eigenvalues --   -0.64756  -0.57877  -0.52600  -0.50152  -0.48319
 Alpha  occ. eigenvalues --   -0.47132  -0.46577  -0.44457  -0.41966  -0.39883
 Alpha  occ. eigenvalues --   -0.39318  -0.37756  -0.35628  -0.33683  -0.31056
 Alpha  occ. eigenvalues --   -0.28824  -0.26562  -0.26144  -0.24842
 Alpha virt. eigenvalues --    0.02595   0.03284   0.08979   0.10078   0.11784
 Alpha virt. eigenvalues --    0.12289   0.12388   0.13009   0.15219   0.16846
 Alpha virt. eigenvalues --    0.17240   0.17676   0.18749   0.21005   0.21284
 Alpha virt. eigenvalues --    0.24077   0.24645   0.26730   0.30179   0.32212
 Alpha virt. eigenvalues --    0.37197   0.40399   0.43324   0.43925   0.44789
 Alpha virt. eigenvalues --    0.48018   0.50236   0.50619   0.51933   0.53903
 Alpha virt. eigenvalues --    0.55247   0.57118   0.58178   0.59148   0.60412
 Alpha virt. eigenvalues --    0.63086   0.64616   0.66410   0.67355   0.68196
 Alpha virt. eigenvalues --    0.70436   0.71427   0.73133   0.73532   0.73708
 Alpha virt. eigenvalues --    0.75206   0.76587   0.76813   0.79185   0.79359
 Alpha virt. eigenvalues --    0.81562   0.82169   0.83419   0.85060   0.86756
 Alpha virt. eigenvalues --    0.88650   0.89527   0.90349   0.91254   0.93794
 Alpha virt. eigenvalues --    0.94691   0.97054   0.98660   1.02382   1.05462
 Alpha virt. eigenvalues --    1.08186   1.10129   1.12119   1.13117   1.16116
 Alpha virt. eigenvalues --    1.16765   1.20632   1.22421   1.24077   1.27071
 Alpha virt. eigenvalues --    1.32088   1.33995   1.35910   1.37828   1.40247
 Alpha virt. eigenvalues --    1.40959   1.42577   1.44655   1.46664   1.49100
 Alpha virt. eigenvalues --    1.49982   1.51696   1.52027   1.53131   1.55173
 Alpha virt. eigenvalues --    1.59373   1.61785   1.62831   1.63713   1.67112
 Alpha virt. eigenvalues --    1.71130   1.71283   1.73190   1.73881   1.75920
 Alpha virt. eigenvalues --    1.76800   1.79550   1.86004   1.90201   1.93141
 Alpha virt. eigenvalues --    1.95340   2.02225   2.03662   2.07482   2.08973
 Alpha virt. eigenvalues --    2.12789   2.14136   2.20477   2.25330   2.31472
 Alpha virt. eigenvalues --    2.32023   2.33422   2.36407   2.39202   2.41163
 Alpha virt. eigenvalues --    2.42986   2.47389   2.49546   2.51597   2.54076
 Alpha virt. eigenvalues --    2.56268   2.63138   2.65819   2.66689   2.68037
 Alpha virt. eigenvalues --    2.69493   2.70103   2.74361   2.74790   2.79495
 Alpha virt. eigenvalues --    2.80995   2.83231   2.83911   2.86807   2.87008
 Alpha virt. eigenvalues --    2.89743   2.90566   2.91897   2.94417   2.96213
 Alpha virt. eigenvalues --    2.99022   3.01931   3.03428   3.06138   3.06966
 Alpha virt. eigenvalues --    3.07241   3.08607   3.11103   3.14792   3.15534
 Alpha virt. eigenvalues --    3.18829   3.21539   3.24696   3.27439   3.29420
 Alpha virt. eigenvalues --    3.31305   3.35493   3.37508   3.38918   3.41378
 Alpha virt. eigenvalues --    3.42642   3.45829   3.48559   3.50030   3.54422
 Alpha virt. eigenvalues --    3.55142   3.57572   3.60415   3.61696   3.64111
 Alpha virt. eigenvalues --    3.66539   3.70263   3.71430   3.79032   3.84058
 Alpha virt. eigenvalues --    3.87189   3.89475   3.91012   3.95841   3.97646
 Alpha virt. eigenvalues --    4.06313   4.08603   4.12662   4.14977   4.21224
 Alpha virt. eigenvalues --    4.22117   4.23685   4.25747   4.27702   4.30049
 Alpha virt. eigenvalues --    4.33014   4.35085   4.37629   4.40588   4.41335
 Alpha virt. eigenvalues --    4.42488   4.43779   4.46508   4.48744   4.50056
 Alpha virt. eigenvalues --    4.52892   4.53468   4.54805   4.56474   4.59257
 Alpha virt. eigenvalues --    4.60797   4.64619   4.65493   4.66700   4.68255
 Alpha virt. eigenvalues --    4.69569   4.73702   4.74017   4.78367   4.79451
 Alpha virt. eigenvalues --    4.80509   4.83937   4.86814   4.88325   4.91385
 Alpha virt. eigenvalues --    4.92235   4.94185   4.98544   5.01375   5.02936
 Alpha virt. eigenvalues --    5.08382   5.11810   5.15909   5.23422   5.28576
 Alpha virt. eigenvalues --    5.37715   5.39395   5.42587   5.46780   5.53668
 Alpha virt. eigenvalues --    5.54047   5.59514   5.63758   5.66212   5.71522
 Alpha virt. eigenvalues --    5.72567   5.84403   5.88990   5.93041   5.94500
 Alpha virt. eigenvalues --    5.99871   6.04656   6.11253   6.23933   6.31286
 Alpha virt. eigenvalues --    6.53654   6.93981   7.03928   7.64562   9.88266
 Alpha virt. eigenvalues --   10.83214  11.22363  11.58513  11.90616  12.15652
 Alpha virt. eigenvalues --   12.71120  13.11749  13.64288
          Condensed to atoms (all electrons):
               1          2          3          4          5          6
     1  C    5.101280   0.409451  -0.041750   0.006538  -0.032954  -0.075403
     2  C    0.409451   4.517391   0.362647  -0.132872   0.331685   0.430737
     3  C   -0.041750   0.362647   5.104172   0.371836  -0.090017  -0.032373
     4  C    0.006538  -0.132872   0.371836   4.771468   0.347830   0.005348
     5  O   -0.032954   0.331685  -0.090017   0.347830   7.850541  -0.048201
     6  C   -0.075403   0.430737  -0.032373   0.005348  -0.048201   5.161183
     7  C   -0.006875  -0.070109  -0.002419   0.000536  -0.013484   0.585639
     8  C   -0.000096  -0.002602   0.000093  -0.000004  -0.000026  -0.079100
     9  O   -0.000001  -0.000093   0.000002   0.000000   0.000000  -0.026985
    10  H    0.362766  -0.015442   0.004998  -0.000400  -0.000338  -0.000405
    11  H    0.356039  -0.017821  -0.001717  -0.000259   0.002522   0.003640
    12  H    0.354975  -0.013245  -0.006162   0.001611   0.000799   0.004339
    13  H   -0.008552  -0.012732   0.348439  -0.019317   0.004290   0.001620
    14  H    0.004137  -0.011468   0.351377  -0.017870   0.004475  -0.005280
    15  H    0.000529   0.002971  -0.022888   0.366095  -0.025367  -0.000895
    16  H   -0.000661   0.002207  -0.026057   0.365262  -0.027046   0.002302
    17  H    0.000007   0.000033   0.000004   0.000000  -0.000001   0.000690
    18  H    0.000004  -0.000057  -0.000005   0.000000   0.000004  -0.013853
    19  H    0.000001   0.000005  -0.000002   0.000002  -0.000003   0.000206
               7          8          9         10         11         12
     1  C   -0.006875  -0.000096  -0.000001   0.362766   0.356039   0.354975
     2  C   -0.070109  -0.002602  -0.000093  -0.015442  -0.017821  -0.013245
     3  C   -0.002419   0.000093   0.000002   0.004998  -0.001717  -0.006162
     4  C    0.000536  -0.000004   0.000000  -0.000400  -0.000259   0.001611
     5  O   -0.013484  -0.000026   0.000000  -0.000338   0.002522   0.000799
     6  C    0.585639  -0.079100  -0.026985  -0.000405   0.003640   0.004339
     7  C    5.256663   0.343995  -0.063544   0.001056   0.001221   0.000046
     8  C    0.343995   4.854460   0.401680   0.000008   0.000010   0.000001
     9  O   -0.063544   0.401680   7.833384   0.000000   0.000000   0.000000
    10  H    0.001056   0.000008   0.000000   0.569268  -0.027900  -0.029062
    11  H    0.001221   0.000010   0.000000  -0.027900   0.584975  -0.028008
    12  H    0.000046   0.000001   0.000000  -0.029062  -0.028008   0.593435
    13  H   -0.000330  -0.000001   0.000000  -0.000010   0.001251   0.003340
    14  H    0.002650  -0.000022   0.000001  -0.000159  -0.000101  -0.000044
    15  H   -0.000047   0.000000   0.000000   0.000020  -0.000029  -0.000342
    16  H    0.000443   0.000001   0.000000   0.000018   0.000024   0.000020
    17  H   -0.020888   0.353430  -0.019458   0.000000  -0.000001   0.000000
    18  H   -0.051541   0.386365  -0.031259  -0.000002   0.000000   0.000000
    19  H    0.002748  -0.061776   0.307610   0.000000   0.000000   0.000000
              13         14         15         16         17         18
     1  C   -0.008552   0.004137   0.000529  -0.000661   0.000007   0.000004
     2  C   -0.012732  -0.011468   0.002971   0.002207   0.000033  -0.000057
     3  C    0.348439   0.351377  -0.022888  -0.026057   0.000004  -0.000005
     4  C   -0.019317  -0.017870   0.366095   0.365262   0.000000   0.000000
     5  O    0.004290   0.004475  -0.025367  -0.027046  -0.000001   0.000004
     6  C    0.001620  -0.005280  -0.000895   0.002302   0.000690  -0.013853
     7  C   -0.000330   0.002650  -0.000047   0.000443  -0.020888  -0.051541
     8  C   -0.000001  -0.000022   0.000000   0.000001   0.353430   0.386365
     9  O    0.000000   0.000001   0.000000   0.000000  -0.019458  -0.031259
    10  H   -0.000010  -0.000159   0.000020   0.000018   0.000000  -0.000002
    11  H    0.001251  -0.000101  -0.000029   0.000024  -0.000001   0.000000
    12  H    0.003340  -0.000044  -0.000342   0.000020   0.000000   0.000000
    13  H    0.608979  -0.036668  -0.007900   0.004105   0.000000   0.000000
    14  H   -0.036668   0.590071   0.003516  -0.007506   0.000000   0.000001
    15  H   -0.007900   0.003516   0.638683  -0.059074   0.000000   0.000000
    16  H    0.004105  -0.007506  -0.059074   0.640508   0.000000   0.000000
    17  H    0.000000   0.000000   0.000000   0.000000   0.584737  -0.046838
    18  H    0.000000   0.000001   0.000000   0.000000  -0.046838   0.639234
    19  H    0.000000   0.000004   0.000000   0.000001   0.007209  -0.003505
              19
     1  C    0.000001
     2  C    0.000005
     3  C   -0.000002
     4  C    0.000002
     5  O   -0.000003
     6  C    0.000206
     7  C    0.002748
     8  C   -0.061776
     9  O    0.307610
    10  H    0.000000
    11  H    0.000000
    12  H    0.000000
    13  H    0.000000
    14  H    0.000004
    15  H    0.000000
    16  H    0.000001
    17  H    0.007209
    18  H   -0.003505
    19  H    0.459082
 Mulliken charges:
               1
     1  C   -0.429436
     2  C    0.219313
     3  C   -0.320178
     4  C   -0.065805
     5  O   -0.304709
     6  C    0.086791
     7  C    0.034240
     8  C   -0.196416
     9  O   -0.401337
    10  H    0.135585
    11  H    0.126154
    12  H    0.118298
    13  H    0.113484
    14  H    0.122887
    15  H    0.104731
    16  H    0.105452
    17  H    0.141074
    18  H    0.121453
    19  H    0.288418
 Sum of Mulliken charges =   0.00000
 Mulliken charges with hydrogens summed into heavy atoms:
               1
     1  C   -0.049399
     2  C    0.219313
     3  C   -0.083808
     4  C    0.144378
     5  O   -0.304709
     6  C    0.086791
     7  C    0.034240
     8  C    0.066112
     9  O   -0.112918
 Electronic spatial extent (au):  <R**2>=           1649.4878
 Charge=              0.0000 electrons
 Dipole moment (field-independent basis, Debye):
    X=              1.1135    Y=              0.0421    Z=              0.6813  Tot=              1.3060
 Quadrupole moment (field-independent basis, Debye-Ang):
   XX=            -54.3859   YY=            -49.0327   ZZ=            -55.1243
   XY=             -2.4108   XZ=              6.5470   YZ=              1.0669
 Traceless Quadrupole moment (field-independent basis, Debye-Ang):
   XX=             -1.5382   YY=              3.8149   ZZ=             -2.2766
   XY=             -2.4108   XZ=              6.5470   YZ=              1.0669
 Octapole moment (field-independent basis, Debye-Ang**2):
  XXX=             25.3074  YYY=            -13.0278  ZZZ=             -0.2565  XYY=             -4.6172
  XXY=              6.9008  XXZ=             -7.8971  XZZ=             -7.3413  YZZ=             -0.5577
  YYZ=             -4.0126  XYZ=             -5.4184
 Hexadecapole moment (field-independent basis, Debye-Ang**3):
 XXXX=          -1646.6828 YYYY=           -374.2276 ZZZZ=           -167.8387 XXXY=            -50.4694
 XXXZ=             36.8505 YYYX=             19.8080 YYYZ=              5.8095 ZZZX=             -0.0373
 ZZZY=              0.1054 XXYY=           -297.8644 XXZZ=           -283.8934 YYZZ=            -88.4123
 XXYZ=             20.2616 YYXZ=              0.1197 ZZXY=              4.3214
 N-N= 4.256565193351D+02 E-N=-1.838204030981D+03  KE= 4.200212933030D+02
 Calling FoFJK, ICntrl=      2127 FMM=F ISym2X=0 I1Cent= 0 IOpClX= 0 NMat=1 NMatS=1 NMatT=0.
 ***** Axes restored to original set *****
 -------------------------------------------------------------------
 Center     Atomic                   Forces (Hartrees/Bohr)
 Number     Number              X              Y              Z
 -------------------------------------------------------------------
      1        6           0.000000861   -0.000004573    0.000003755
      2        6          -0.000014022    0.000002050   -0.000003809
      3        6           0.000006011   -0.000002944   -0.000001594
      4        6          -0.000005272   -0.000007048   -0.000003342
      5        8           0.000003901    0.000009589    0.000005668
      6        6           0.000005818   -0.000003853    0.000001412
      7        6           0.000001678    0.000000076    0.000000150
      8        6          -0.000003370    0.000004401    0.000003661
      9        8           0.000002702   -0.000000877   -0.000003638
     10        1          -0.000001350   -0.000001596    0.000001094
     11        1          -0.000000334   -0.000001883    0.000000859
     12        1          -0.000000542   -0.000002443    0.000002137
     13        1          -0.000000281   -0.000001279   -0.000002947
     14        1           0.000000525   -0.000000413   -0.000003570
     15        1           0.000002264    0.000002851   -0.000001787
     16        1           0.000001932    0.000004176   -0.000001156
     17        1          -0.000000542   -0.000000433    0.000000656
     18        1           0.000000384    0.000001374    0.000003036
     19        1          -0.000000363    0.000002827   -0.000000586
 -------------------------------------------------------------------
 Cartesian Forces:  Max     0.000014022 RMS     0.000003626

 GradGradGradGradGradGradGradGradGradGradGradGradGradGradGradGradGradGrad
 Berny optimization.
 FormGI is forming the generalized inverse of G from B-inverse, IUseBI=4.
 Internal  Forces:  Max     0.000006369 RMS     0.000001479
 Search for a local minimum.
 Step number   1 out of a maximum of  110
 All quantities printed in internal units (Hartrees-Bohrs-Radians)
 Mixed Optimization -- En-DIIS/RFO-DIIS
 Second derivative matrix not updated -- first step.
 ITU=  0
     Eigenvalues ---    0.00230   0.00420   0.00444   0.00978   0.01024
     Eigenvalues ---    0.01416   0.02720   0.02860   0.03723   0.04209
     Eigenvalues ---    0.04273   0.04698   0.05066   0.05567   0.05681
     Eigenvalues ---    0.05749   0.06280   0.06565   0.06885   0.07837
     Eigenvalues ---    0.09606   0.10022   0.10671   0.11818   0.12605
     Eigenvalues ---    0.14095   0.16000   0.16000   0.16000   0.16000
     Eigenvalues ---    0.19786   0.22013   0.25263   0.27529   0.29785
     Eigenvalues ---    0.33478   0.34044   0.34121   0.34152   0.34317
     Eigenvalues ---    0.34408   0.34435   0.34679   0.34789   0.34888
     Eigenvalues ---    0.36682   0.36711   0.36986   0.42332   0.54840
     Eigenvalues ---    1.02047
 RFO step:  Lambda= 0.00000000D+00 EMin= 2.30000000D-03
 Linear search not attempted -- first point.
 Iteration  1 RMS(Cart)=  0.00007090 RMS(Int)=  0.00000001
 Iteration  2 RMS(Cart)=  0.00000001 RMS(Int)=  0.00000000
 Variable       Old X    -DE/DX   Delta X   Delta X   Delta X     New X
                                 (Linear)    (Quad)   (Total)
    R1        2.88394   0.00000   0.00000   0.00000   0.00000   2.88395
    R2        2.06602   0.00000   0.00000   0.00000   0.00000   2.06602
    R3        2.06798   0.00000   0.00000   0.00000   0.00000   2.06798
    R4        2.06648   0.00000   0.00000   0.00000   0.00000   2.06648
    R5        2.94849   0.00000   0.00000   0.00000   0.00000   2.94850
    R6        2.76204   0.00000   0.00000   0.00001   0.00001   2.76205
    R7        2.75867  -0.00001   0.00000  -0.00002  -0.00002   2.75865
    R8        2.90682   0.00000   0.00000   0.00000   0.00000   2.90681
    R9        2.06200   0.00000   0.00000   0.00000   0.00000   2.06200
   R10        2.05857   0.00000   0.00000   0.00000   0.00000   2.05857
   R11        2.72610  -0.00001   0.00000  -0.00002  -0.00002   2.72608
   R12        2.07126   0.00000   0.00000   0.00000   0.00000   2.07126
   R13        2.07256   0.00000   0.00000   0.00000   0.00000   2.07256
   R14        2.27830   0.00000   0.00000   0.00000   0.00000   2.27830
   R15        2.76327   0.00000   0.00000   0.00000   0.00000   2.76327
   R16        2.68502   0.00000   0.00000  -0.00001  -0.00001   2.68501
   R17        2.07074   0.00000   0.00000   0.00000   0.00000   2.07074
   R18        2.08220   0.00000   0.00000   0.00000   0.00000   2.08220
   R19        1.81974   0.00000   0.00000   0.00000   0.00000   1.81974
    A1        1.92169   0.00000   0.00000   0.00002   0.00002   1.92171
    A2        1.92891   0.00000   0.00000  -0.00002  -0.00002   1.92889
    A3        1.91673   0.00000   0.00000   0.00000   0.00000   1.91672
    A4        1.89422   0.00000   0.00000   0.00000   0.00000   1.89422
    A5        1.89719   0.00000   0.00000   0.00001   0.00001   1.89720
    A6        1.90461   0.00000   0.00000  -0.00001  -0.00001   1.90460
    A7        2.02632   0.00000   0.00000  -0.00003  -0.00003   2.02629
    A8        1.93383   0.00000   0.00000   0.00001   0.00001   1.93384
    A9        1.94288   0.00000   0.00000   0.00000   0.00000   1.94288
   A10        1.57870   0.00000   0.00000  -0.00001  -0.00001   1.57869
   A11        2.00353   0.00000   0.00000   0.00003   0.00003   2.00356
   A12        1.94891   0.00000   0.00000   0.00000   0.00000   1.94891
   A13        1.48487   0.00000   0.00000   0.00000   0.00000   1.48488
   A14        1.98359   0.00000   0.00000   0.00000   0.00000   1.98359
   A15        2.00941   0.00000   0.00000   0.00000   0.00000   2.00941
   A16        2.01548   0.00000   0.00000   0.00001   0.00001   2.01548
   A17        2.02647   0.00000   0.00000   0.00000   0.00000   2.02647
   A18        1.91452   0.00000   0.00000  -0.00001  -0.00001   1.91452
   A19        1.60677   0.00000   0.00000   0.00000   0.00000   1.60677
   A20        2.02904   0.00000   0.00000  -0.00001  -0.00001   2.02902
   A21        2.01112   0.00000   0.00000   0.00000   0.00000   2.01112
   A22        1.95131   0.00000   0.00000   0.00001   0.00001   1.95132
   A23        1.95121   0.00000   0.00000   0.00001   0.00001   1.95122
   A24        1.89953   0.00000   0.00000  -0.00001  -0.00001   1.89952
   A25        1.61143   0.00000   0.00000   0.00001   0.00001   1.61143
   A26        1.98345   0.00000   0.00000   0.00000   0.00000   1.98345
   A27        1.92024   0.00000   0.00000   0.00000   0.00000   1.92024
   A28        1.90450   0.00000   0.00000   0.00000   0.00000   1.90450
   A29        1.84580   0.00000   0.00000   0.00000   0.00000   1.84579
   A30        1.94389   0.00000   0.00000   0.00000   0.00000   1.94390
   A31        1.86141   0.00000   0.00000   0.00000   0.00000   1.86142
   A32        1.87273   0.00000   0.00000   0.00000   0.00000   1.87273
   A33        3.14057   0.00000   0.00000  -0.00001  -0.00001   3.14056
   A34        3.09748   0.00000   0.00000  -0.00001  -0.00001   3.09746
   A35        3.12345   0.00000   0.00000   0.00001   0.00001   3.12346
   A36        3.16543   0.00000   0.00000   0.00002   0.00002   3.16545
    D1        2.89614   0.00000   0.00000   0.00018   0.00018   2.89632
    D2        1.12857   0.00000   0.00000   0.00020   0.00020   1.12877
    D3       -1.05136   0.00000   0.00000   0.00019   0.00019  -1.05117
    D4       -1.29455   0.00000   0.00000   0.00018   0.00018  -1.29437
    D5       -3.06212   0.00000   0.00000   0.00020   0.00020  -3.06192
    D6        1.04113   0.00000   0.00000   0.00019   0.00019   1.04133
    D7        0.80767   0.00000   0.00000   0.00016   0.00016   0.80782
    D8       -0.95990   0.00000   0.00000   0.00018   0.00018  -0.95972
    D9       -3.13983   0.00000   0.00000   0.00017   0.00017  -3.13966
   D10       -2.01790   0.00000   0.00000   0.00003   0.00003  -2.01786
   D11        0.00142   0.00000   0.00000   0.00004   0.00004   0.00146
   D12        2.23056   0.00000   0.00000   0.00003   0.00003   2.23059
   D13       -0.03633   0.00000   0.00000   0.00003   0.00003  -0.03630
   D14        1.98298   0.00000   0.00000   0.00004   0.00004   1.98302
   D15       -2.07107   0.00000   0.00000   0.00003   0.00003  -2.07103
   D16        1.95726   0.00000   0.00000   0.00003   0.00003   1.95729
   D17       -2.30661   0.00000   0.00000   0.00004   0.00004  -2.30657
   D18       -0.07747   0.00000   0.00000   0.00003   0.00003  -0.07744
   D19        2.10282   0.00000   0.00000  -0.00007  -0.00007   2.10276
   D20        0.03863   0.00000   0.00000  -0.00003  -0.00003   0.03860
   D21       -2.00384   0.00000   0.00000  -0.00006  -0.00006  -2.00390
   D22       -2.88209   0.00000   0.00000   0.00002   0.00002  -2.88206
   D23       -0.81220   0.00000   0.00000   0.00002   0.00002  -0.81218
   D24        1.23639   0.00000   0.00000   0.00003   0.00003   1.23641
   D25       -0.53171   0.00000   0.00000   0.00002   0.00002  -0.53170
   D26        1.53817   0.00000   0.00000   0.00002   0.00002   1.53819
   D27       -2.69643   0.00000   0.00000   0.00002   0.00002  -2.69640
   D28        1.22797   0.00000   0.00000   0.00001   0.00001   1.22798
   D29       -2.98533   0.00000   0.00000   0.00001   0.00001  -2.98532
   D30       -0.93674   0.00000   0.00000   0.00002   0.00002  -0.93672
   D31        0.03683   0.00000   0.00000  -0.00003  -0.00003   0.03680
   D32        2.05449   0.00000   0.00000  -0.00002  -0.00002   2.05447
   D33       -1.97589   0.00000   0.00000  -0.00005  -0.00005  -1.97593
   D34       -1.95093   0.00000   0.00000  -0.00004  -0.00004  -1.95096
   D35        0.06673   0.00000   0.00000  -0.00002  -0.00002   0.06670
   D36        2.31954   0.00000   0.00000  -0.00005  -0.00005   2.31949
   D37        2.05487   0.00000   0.00000  -0.00003  -0.00003   2.05484
   D38       -2.21066   0.00000   0.00000  -0.00002  -0.00002  -2.21068
   D39        0.04215   0.00000   0.00000  -0.00004  -0.00004   0.04210
   D40       -0.03921   0.00000   0.00000   0.00003   0.00003  -0.03918
   D41       -2.12342   0.00000   0.00000   0.00004   0.00004  -2.12337
   D42        2.02512   0.00000   0.00000   0.00004   0.00004   2.02516
   D43       -0.92602   0.00000   0.00000  -0.00005  -0.00005  -0.92607
   D44       -3.03417   0.00000   0.00000  -0.00004  -0.00004  -3.03421
   D45        1.23354   0.00000   0.00000  -0.00005  -0.00005   1.23350
         Item               Value     Threshold  Converged?
 Maximum Force            0.000006     0.000450     YES
 RMS     Force            0.000001     0.000300     YES
 Maximum Displacement     0.000306     0.001800     YES
 RMS     Displacement     0.000071     0.001200     YES
 Predicted change in Energy=-1.333916D-09
 Optimization completed.
    -- Stationary point found.
                           ----------------------------
                           !   Optimized Parameters   !
                           ! (Angstroms and Degrees)  !
 --------------------------                            --------------------------
 ! Name  Definition              Value          Derivative Info.                !
 --------------------------------------------------------------------------------
 ! R1    R(1,2)                  1.5261         -DE/DX =    0.0                 !
 ! R2    R(1,10)                 1.0933         -DE/DX =    0.0                 !
 ! R3    R(1,11)                 1.0943         -DE/DX =    0.0                 !
 ! R4    R(1,12)                 1.0935         -DE/DX =    0.0                 !
 ! R5    R(2,3)                  1.5603         -DE/DX =    0.0                 !
 ! R6    R(2,5)                  1.4616         -DE/DX =    0.0                 !
 ! R7    R(2,6)                  1.4598         -DE/DX =    0.0                 !
 ! R8    R(3,4)                  1.5382         -DE/DX =    0.0                 !
 ! R9    R(3,13)                 1.0912         -DE/DX =    0.0                 !
 ! R10   R(3,14)                 1.0893         -DE/DX =    0.0                 !
 ! R11   R(4,5)                  1.4426         -DE/DX =    0.0                 !
 ! R12   R(4,15)                 1.0961         -DE/DX =    0.0                 !
 ! R13   R(4,16)                 1.0967         -DE/DX =    0.0                 !
 ! R14   R(6,7)                  1.2056         -DE/DX =    0.0                 !
 ! R15   R(7,8)                  1.4623         -DE/DX =    0.0                 !
 ! R16   R(8,9)                  1.4209         -DE/DX =    0.0                 !
 ! R17   R(8,17)                 1.0958         -DE/DX =    0.0                 !
 ! R18   R(8,18)                 1.1019         -DE/DX =    0.0                 !
 ! R19   R(9,19)                 0.963          -DE/DX =    0.0                 !
 ! A1    A(2,1,10)             110.1045         -DE/DX =    0.0                 !
 ! A2    A(2,1,11)             110.5183         -DE/DX =    0.0                 !
 ! A3    A(2,1,12)             109.8204         -DE/DX =    0.0                 !
 ! A4    A(10,1,11)            108.531          -DE/DX =    0.0                 !
 ! A5    A(10,1,12)            108.7009         -DE/DX =    0.0                 !
 ! A6    A(11,1,12)            109.1261         -DE/DX =    0.0                 !
 ! A7    A(1,2,3)              116.0995         -DE/DX =    0.0                 !
 ! A8    A(1,2,5)              110.8001         -DE/DX =    0.0                 !
 ! A9    A(1,2,6)              111.319          -DE/DX =    0.0                 !
 ! A10   A(3,2,5)               90.4526         -DE/DX =    0.0                 !
 ! A11   A(3,2,6)              114.7939         -DE/DX =    0.0                 !
 ! A12   A(5,2,6)              111.6642         -DE/DX =    0.0                 !
 ! A13   A(2,3,4)               85.0769         -DE/DX =    0.0                 !
 ! A14   A(2,3,13)             113.6514         -DE/DX =    0.0                 !
 ! A15   A(2,3,14)             115.1306         -DE/DX =    0.0                 !
 ! A16   A(4,3,13)             115.4784         -DE/DX =    0.0                 !
 ! A17   A(4,3,14)             116.1081         -DE/DX =    0.0                 !
 ! A18   A(13,3,14)            109.6941         -DE/DX =    0.0                 !
 ! A19   A(3,4,5)               92.0611         -DE/DX =    0.0                 !
 ! A20   A(3,4,15)             116.2552         -DE/DX =    0.0                 !
 ! A21   A(3,4,16)             115.2288         -DE/DX =    0.0                 !
 ! A22   A(5,4,15)             111.8016         -DE/DX =    0.0                 !
 ! A23   A(5,4,16)             111.7961         -DE/DX =    0.0                 !
 ! A24   A(15,4,16)            108.8352         -DE/DX =    0.0                 !
 ! A25   A(2,5,4)               92.3279         -DE/DX =    0.0                 !
 ! A26   A(7,8,9)              113.6431         -DE/DX =    0.0                 !
 ! A27   A(7,8,17)             110.0217         -DE/DX =    0.0                 !
 ! A28   A(7,8,18)             109.1198         -DE/DX =    0.0                 !
 ! A29   A(9,8,17)             105.7565         -DE/DX =    0.0                 !
 ! A30   A(9,8,18)             111.3769         -DE/DX =    0.0                 !
 ! A31   A(17,8,18)            106.6511         -DE/DX =    0.0                 !
 ! A32   A(8,9,19)             107.2996         -DE/DX =    0.0                 !
 ! A33   L(2,6,7,14,-1)        179.9412         -DE/DX =    0.0                 !
 ! A34   L(6,7,8,19,-1)        177.4723         -DE/DX =    0.0                 !
 ! A35   L(2,6,7,14,-2)        178.9607         -DE/DX =    0.0                 !
 ! A36   L(6,7,8,19,-2)        181.3656         -DE/DX =    0.0                 !
 ! D1    D(10,1,2,3)           165.9365         -DE/DX =    0.0                 !
 ! D2    D(10,1,2,5)            64.6625         -DE/DX =    0.0                 !
 ! D3    D(10,1,2,6)           -60.2386         -DE/DX =    0.0                 !
 ! D4    D(11,1,2,3)           -74.1724         -DE/DX =    0.0                 !
 ! D5    D(11,1,2,5)          -175.4464         -DE/DX =    0.0                 !
 ! D6    D(11,1,2,6)            59.6525         -DE/DX =    0.0                 !
 ! D7    D(12,1,2,3)            46.2758         -DE/DX =    0.0                 !
 ! D8    D(12,1,2,5)           -54.9981         -DE/DX =    0.0                 !
 ! D9    D(12,1,2,6)          -179.8992         -DE/DX =    0.0                 !
 ! D10   D(1,2,3,4)           -115.6169         -DE/DX =    0.0                 !
 ! D11   D(1,2,3,13)             0.0813         -DE/DX =    0.0                 !
 ! D12   D(1,2,3,14)           127.8015         -DE/DX =    0.0                 !
 ! D13   D(5,2,3,4)             -2.0817         -DE/DX =    0.0                 !
 ! D14   D(5,2,3,13)           113.6165         -DE/DX =    0.0                 !
 ! D15   D(5,2,3,14)          -118.6633         -DE/DX =    0.0                 !
 ! D16   D(6,2,3,4)            112.1428         -DE/DX =    0.0                 !
 ! D17   D(6,2,3,13)          -132.159          -DE/DX =    0.0                 !
 ! D18   D(6,2,3,14)            -4.4389         -DE/DX =    0.0                 !
 ! D19   D(1,2,5,4)            120.4829         -DE/DX =    0.0                 !
 ! D20   D(3,2,5,4)              2.2134         -DE/DX =    0.0                 !
 ! D21   D(6,2,5,4)           -114.8116         -DE/DX =    0.0                 !
 ! D22   D(1,2,8,9)           -165.1313         -DE/DX =    0.0                 !
 ! D23   D(1,2,8,17)           -46.5357         -DE/DX =    0.0                 !
 ! D24   D(1,2,8,18)            70.8397         -DE/DX =    0.0                 !
 ! D25   D(3,2,8,9)            -30.4649         -DE/DX =    0.0                 !
 ! D26   D(3,2,8,17)            88.1307         -DE/DX =    0.0                 !
 ! D27   D(3,2,8,18)          -154.4939         -DE/DX =    0.0                 !
 ! D28   D(5,2,8,9)             70.3577         -DE/DX =    0.0                 !
 ! D29   D(5,2,8,17)          -171.0467         -DE/DX =    0.0                 !
 ! D30   D(5,2,8,18)           -53.6713         -DE/DX =    0.0                 !
 ! D31   D(2,3,4,5)              2.1105         -DE/DX =    0.0                 !
 ! D32   D(2,3,4,15)           117.7137         -DE/DX =    0.0                 !
 ! D33   D(2,3,4,16)          -113.2099         -DE/DX =    0.0                 !
 ! D34   D(13,3,4,5)          -111.7799         -DE/DX =    0.0                 !
 ! D35   D(13,3,4,15)            3.8233         -DE/DX =    0.0                 !
 ! D36   D(13,3,4,16)          132.8997         -DE/DX =    0.0                 !
 ! D37   D(14,3,4,5)           117.7354         -DE/DX =    0.0                 !
 ! D38   D(14,3,4,15)         -126.6615         -DE/DX =    0.0                 !
 ! D39   D(14,3,4,16)            2.415          -DE/DX =    0.0                 !
 ! D40   D(3,4,5,2)             -2.2466         -DE/DX =    0.0                 !
 ! D41   D(15,4,5,2)          -121.6628         -DE/DX =    0.0                 !
 ! D42   D(16,4,5,2)           116.0307         -DE/DX =    0.0                 !
 ! D43   D(7,8,9,19)           -53.057          -DE/DX =    0.0                 !
 ! D44   D(17,8,9,19)         -173.8449         -DE/DX =    0.0                 !
 ! D45   D(18,8,9,19)           70.6768         -DE/DX =    0.0                 !
 --------------------------------------------------------------------------------
 GradGradGradGradGradGradGradGradGradGradGradGradGradGradGradGradGradGrad

                          Input orientation:                          
 ---------------------------------------------------------------------
 Center     Atomic      Atomic             Coordinates (Angstroms)
 Number     Number       Type             X           Y           Z
 ---------------------------------------------------------------------
      1          6           0        4.514943   -1.023606   -1.076554
      2          6           0        3.955739   -0.002388   -0.089923
      3          6           0        4.633868    1.402792   -0.098267
      4          6           0        5.066514    1.055942    1.336527
      5          8           0        4.462436   -0.251732    1.258182
      6          6           0        2.496452    0.021913   -0.121236
      7          6           0        1.291817    0.042198   -0.165645
      8          6           0       -0.169750    0.085077   -0.151997
      9          8           0       -0.700068    1.236025    0.490575
     10          1           0        4.154631   -2.024869   -0.825694
     11          1           0        4.197730   -0.785207   -2.096403
     12          1           0        5.607557   -1.022719   -1.031733
     13          1           0        5.443832    1.493658   -0.823757
     14          1           0        3.951248    2.245288   -0.202706
     15          1           0        6.146060    0.995549    1.516219
     16          1           0        4.610321    1.668779    2.123404
     17          1           0       -0.553845    0.113502   -1.177872
     18          1           0       -0.553770   -0.841893    0.303344
     19          1           0       -0.298884    1.286453    1.364538
 ---------------------------------------------------------------------
                    Distance matrix (angstroms):
                    1          2          3          4          5
     1  C    0.000000
     2  C    1.526118   0.000000
     3  C    2.618892   1.560275   0.000000
     4  C    3.232910   2.094909   1.538220   0.000000
     5  O    2.459581   1.461609   2.146344   1.442587   0.000000
     6  C    2.465776   1.459825   2.544780   3.130417   2.417181
     7  C    3.514859   2.665371   3.609025   4.187187   3.488051
     8  C    4.902074   4.126883   4.981366   5.529624   4.853780
     9  O    5.895606   4.852544   5.368931   5.831084   5.427162
    10  H    1.093290   2.161330   3.536620   3.872741   2.753416
    11  H    1.094327   2.167331   2.995013   3.991193   3.407037
    12  H    1.093533   2.157911   2.775343   3.197219   2.673842
    13  H    2.695062   2.234074   1.091162   2.236245   2.888597
    14  H    3.430311   2.250509   1.089348   2.242231   2.937791
    15  H    3.668787   2.893627   2.249252   1.096064   2.111133
    16  H    4.183033   2.849578   2.237661   1.096750   2.111597
    17  H    5.195758   4.640411   5.453457   6.228871   5.588455
    18  H    5.256329   4.603813   5.666700   6.021365   5.140265
    19  H    5.870965   4.677434   5.146395   5.370421   5.004746
                    6          7          8          9         10
     6  C    0.000000
     7  C    1.205624   0.000000
     8  C    2.667127   1.462259   0.000000
     9  O    3.473632   2.413183   1.420851   0.000000
    10  H    2.726745   3.592233   4.858602   5.994506   0.000000
    11  H    2.728932   3.585632   4.859319   5.896292   1.775759
    12  H    3.405765   4.528771   5.947976   6.870624   1.777006
    13  H    3.368475   4.447368   5.826463   6.288192   3.747276
    14  H    2.658283   3.453630   4.653140   4.809781   4.320154
    15  H    4.116900   5.225057   6.595556   6.926705   4.309672
    16  H    3.495571   4.347181   5.525815   5.572579   4.748460
    17  H    3.229424   2.106219   1.095790   2.016223   5.183282
    18  H    3.198481   2.099466   1.101853   2.091460   4.984295
    19  H    3.408883   2.533764   1.939035   0.962965   5.966219
                   11         12         13         14         15
    11  H    0.000000
    12  H    1.782568   0.000000
    13  H    2.892339   2.530259   0.000000
    14  H    3.582003   3.756396   1.782824   0.000000
    15  H    4.474161   3.294760   2.493336   3.055118   0.000000
    16  H    4.898883   4.265388   3.067763   2.485463   1.783370
    17  H    4.922280   6.266996   6.164606   5.078517   7.274948
    18  H    5.323415   6.306907   6.534247   5.484703   7.052303
    19  H    6.040647   6.779412   6.149013   4.630253   6.453289
                   16         17         18         19
    16  H    0.000000
    17  H    6.323442   0.000000
    18  H    6.023614   1.762606   0.000000
    19  H    4.982202   2.811524   2.391852   0.000000
 Stoichiometry    C7H10O2
 Framework group  C1[X(C7H10O2)]
 Deg. of freedom    51
 Full point group                 C1      NOp   1
 Largest Abelian subgroup         C1      NOp   1
 Largest concise Abelian subgroup C1      NOp   1
                         Standard orientation:                         
 ---------------------------------------------------------------------
 Center     Atomic      Atomic             Coordinates (Angstroms)
 Number     Number       Type             X           Y           Z
 ---------------------------------------------------------------------
      1          6           0        1.701001    1.780752    0.083563
      2          6           0        1.116417    0.371662    0.041571
      3          6           0        1.711783   -0.649121    1.060394
      4          6           0        2.210381   -1.400389   -0.185848
      5          8           0        1.680447   -0.391340   -1.070183
      6          6           0       -0.342087    0.403523   -0.011735
      7          6           0       -1.546696    0.442511   -0.042203
      8          6           0       -3.007075    0.429887   -0.115244
      9          8           0       -3.581563   -0.835155    0.182160
     10          1           0        1.407398    2.336232   -0.811157
     11          1           0        1.337399    2.320809    0.963155
     12          1           0        2.792627    1.728333    0.121234
     13          1           0        2.491010   -0.227818    1.697531
     14          1           0        0.978685   -1.171624    1.673774
     15          1           0        3.296910   -1.501720   -0.288526
     16          1           0        1.745590   -2.378551   -0.359133
     17          1           0       -3.425505    1.126860    0.619537
     18          1           0       -3.321930    0.790667   -1.107607
     19          1           0       -3.155595   -1.484170   -0.387605
 ---------------------------------------------------------------------
 Rotational constants (GHZ):      3.1961670      0.7890017      0.7076363
 1\1\GINC-ALCHEMY-NA\FOpt\RB3LYP\6-31G(2df,p)\C7H10O2\PUCK\28-Jan-2020\
 0\\# b3lyp 6-31G(2df,p) opt Freq\\titel\\0,1\C,4.5149434499,-1.0236060
 967,-1.0765536803\C,3.9557392913,-0.0023882297,-0.089922956\C,4.633868
 479,1.402791754,-0.0982672747\C,5.0665144811,1.0559415193,1.3365267645
 \O,4.4624356814,-0.2517317509,1.2581817769\C,2.4964520029,0.0219126571
 ,-0.1212358668\C,1.2918169495,0.0421977669,-0.165644899\C,-0.169749619
 6,0.0850769407,-0.1519969083\O,-0.7000678013,1.2360253801,0.4905748136
 \H,4.1546313521,-2.0248693172,-0.825694303\H,4.1977298064,-0.785207002
 2,-2.0964026855\H,5.6075571386,-1.0227186078,-1.0317326761\H,5.4438324
 737,1.4936581116,-0.8237571449\H,3.9512483681,2.2452884181,-0.20270560
 1\H,6.1460602094,0.9955490559,1.5162185911\H,4.6103205754,1.6687794003
 ,2.1234043466\H,-0.5538453347,0.1135015574,-1.1778716337\H,-0.55376959
 13,-0.8418934779,0.3033442383\H,-0.2988837919,1.2864528809,1.364537508
 2\\Version=ES64L-G09RevD.01\State=1-A\HF=-423.1294121\RMSD=6.839e-09\R
 MSF=3.626e-06\Dipole=0.4538123,0.1477868,-0.1903695\Quadrupole=-0.4616
 798,-0.6601021,1.1217819,4.6059495,-2.1985534,2.5770701\PG=C01 [X(C7H1
 0O2)]\\@


 IT IS BETTER TO THINK YOU ARE HALF DRY THAN TO KNOW YOU
 ARE ALL WET.  -- SNOOPY
 Job cpu time:       0 days  0 hours  5 minutes  4.3 seconds.
 File lengths (MBytes):  RWF=     52 Int=      0 D2E=      0 Chk=      7 Scr=      1
 Normal termination of Gaussian 09 at Tue Jan 28 08:12:04 2020.
 Link1:  Proceeding to internal job step number  2.
 ----------------------------------------------------------------------
 #N Geom=AllCheck Guess=TCheck SCRF=Check GenChk RB3LYP/6-31G(2df,p) Fr
 eq
 ----------------------------------------------------------------------
 1/10=4,29=7,30=1,38=1,40=1/1,3;
 2/12=2,40=1/2;
 3/5=1,6=6,7=104,11=2,14=-4,16=1,25=1,30=1,70=2,71=2,74=-5,116=1,140=1/1,2,3;
 4/5=101/1;
 5/5=2,98=1/2;
 8/6=4,10=90,11=11/1;
 11/6=1,8=1,9=11,15=111,16=1/1,2,10;
 10/6=1/2;
 6/7=2,8=2,9=2,10=2,18=1,28=1/1;
 7/8=1,10=1,25=1/1,2,3,16;
 1/10=4,30=1/3;
 99//99;
 Structure from the checkpoint file:  "/scratch/puck/g09_f0598c2d-d4dd-4da5-aab0-dea2e25e9725/Gau-104652.chk"
 -----
 titel
 -----
 Charge =  0 Multiplicity = 1
 Redundant internal coordinates found in file.
 C,0,4.5149434499,-1.0236060967,-1.0765536803
 C,0,3.9557392913,-0.0023882297,-0.089922956
 C,0,4.633868479,1.402791754,-0.0982672747
 C,0,5.0665144811,1.0559415193,1.3365267645
 O,0,4.4624356814,-0.2517317509,1.2581817769
 C,0,2.4964520029,0.0219126571,-0.1212358668
 C,0,1.2918169495,0.0421977669,-0.165644899
 C,0,-0.1697496196,0.0850769407,-0.1519969083
 O,0,-0.7000678013,1.2360253801,0.4905748136
 H,0,4.1546313521,-2.0248693172,-0.825694303
 H,0,4.1977298064,-0.7852070022,-2.0964026855
 H,0,5.6075571386,-1.0227186078,-1.0317326761
 H,0,5.4438324737,1.4936581116,-0.8237571449
 H,0,3.9512483681,2.2452884181,-0.202705601
 H,0,6.1460602094,0.9955490559,1.5162185911
 H,0,4.6103205754,1.6687794003,2.1234043466
 H,0,-0.5538453347,0.1135015574,-1.1778716337
 H,0,-0.5537695913,-0.8418934779,0.3033442383
 H,0,-0.2988837919,1.2864528809,1.3645375082
 Recover connectivity data from disk.

 GradGradGradGradGradGradGradGradGradGradGradGradGradGradGradGradGradGrad
 Berny optimization.
 Initialization pass.
                           ----------------------------
                           !    Initial Parameters    !
                           ! (Angstroms and Degrees)  !
 --------------------------                            --------------------------
 ! Name  Definition              Value          Derivative Info.                !
 --------------------------------------------------------------------------------
 ! R1    R(1,2)                  1.5261         calculate D2E/DX2 analytically  !
 ! R2    R(1,10)                 1.0933         calculate D2E/DX2 analytically  !
 ! R3    R(1,11)                 1.0943         calculate D2E/DX2 analytically  !
 ! R4    R(1,12)                 1.0935         calculate D2E/DX2 analytically  !
 ! R5    R(2,3)                  1.5603         calculate D2E/DX2 analytically  !
 ! R6    R(2,5)                  1.4616         calculate D2E/DX2 analytically  !
 ! R7    R(2,6)                  1.4598         calculate D2E/DX2 analytically  !
 ! R8    R(3,4)                  1.5382         calculate D2E/DX2 analytically  !
 ! R9    R(3,13)                 1.0912         calculate D2E/DX2 analytically  !
 ! R10   R(3,14)                 1.0893         calculate D2E/DX2 analytically  !
 ! R11   R(4,5)                  1.4426         calculate D2E/DX2 analytically  !
 ! R12   R(4,15)                 1.0961         calculate D2E/DX2 analytically  !
 ! R13   R(4,16)                 1.0967         calculate D2E/DX2 analytically  !
 ! R14   R(6,7)                  1.2056         calculate D2E/DX2 analytically  !
 ! R15   R(7,8)                  1.4623         calculate D2E/DX2 analytically  !
 ! R16   R(8,9)                  1.4209         calculate D2E/DX2 analytically  !
 ! R17   R(8,17)                 1.0958         calculate D2E/DX2 analytically  !
 ! R18   R(8,18)                 1.1019         calculate D2E/DX2 analytically  !
 ! R19   R(9,19)                 0.963          calculate D2E/DX2 analytically  !
 ! A1    A(2,1,10)             110.1045         calculate D2E/DX2 analytically  !
 ! A2    A(2,1,11)             110.5183         calculate D2E/DX2 analytically  !
 ! A3    A(2,1,12)             109.8204         calculate D2E/DX2 analytically  !
 ! A4    A(10,1,11)            108.531          calculate D2E/DX2 analytically  !
 ! A5    A(10,1,12)            108.7009         calculate D2E/DX2 analytically  !
 ! A6    A(11,1,12)            109.1261         calculate D2E/DX2 analytically  !
 ! A7    A(1,2,3)              116.0995         calculate D2E/DX2 analytically  !
 ! A8    A(1,2,5)              110.8001         calculate D2E/DX2 analytically  !
 ! A9    A(1,2,6)              111.319          calculate D2E/DX2 analytically  !
 ! A10   A(3,2,5)               90.4526         calculate D2E/DX2 analytically  !
 ! A11   A(3,2,6)              114.7939         calculate D2E/DX2 analytically  !
 ! A12   A(5,2,6)              111.6642         calculate D2E/DX2 analytically  !
 ! A13   A(2,3,4)               85.0769         calculate D2E/DX2 analytically  !
 ! A14   A(2,3,13)             113.6514         calculate D2E/DX2 analytically  !
 ! A15   A(2,3,14)             115.1306         calculate D2E/DX2 analytically  !
 ! A16   A(4,3,13)             115.4784         calculate D2E/DX2 analytically  !
 ! A17   A(4,3,14)             116.1081         calculate D2E/DX2 analytically  !
 ! A18   A(13,3,14)            109.6941         calculate D2E/DX2 analytically  !
 ! A19   A(3,4,5)               92.0611         calculate D2E/DX2 analytically  !
 ! A20   A(3,4,15)             116.2552         calculate D2E/DX2 analytically  !
 ! A21   A(3,4,16)             115.2288         calculate D2E/DX2 analytically  !
 ! A22   A(5,4,15)             111.8016         calculate D2E/DX2 analytically  !
 ! A23   A(5,4,16)             111.7961         calculate D2E/DX2 analytically  !
 ! A24   A(15,4,16)            108.8352         calculate D2E/DX2 analytically  !
 ! A25   A(2,5,4)               92.3279         calculate D2E/DX2 analytically  !
 ! A26   A(7,8,9)              113.6431         calculate D2E/DX2 analytically  !
 ! A27   A(7,8,17)             110.0217         calculate D2E/DX2 analytically  !
 ! A28   A(7,8,18)             109.1198         calculate D2E/DX2 analytically  !
 ! A29   A(9,8,17)             105.7565         calculate D2E/DX2 analytically  !
 ! A30   A(9,8,18)             111.3769         calculate D2E/DX2 analytically  !
 ! A31   A(17,8,18)            106.6511         calculate D2E/DX2 analytically  !
 ! A32   A(8,9,19)             107.2996         calculate D2E/DX2 analytically  !
 ! A33   L(2,6,7,14,-1)        179.9412         calculate D2E/DX2 analytically  !
 ! A34   L(6,7,8,19,-1)        177.4723         calculate D2E/DX2 analytically  !
 ! A35   L(2,6,7,14,-2)        178.9607         calculate D2E/DX2 analytically  !
 ! A36   L(6,7,8,19,-2)        181.3656         calculate D2E/DX2 analytically  !
 ! D1    D(10,1,2,3)           165.9365         calculate D2E/DX2 analytically  !
 ! D2    D(10,1,2,5)            64.6625         calculate D2E/DX2 analytically  !
 ! D3    D(10,1,2,6)           -60.2386         calculate D2E/DX2 analytically  !
 ! D4    D(11,1,2,3)           -74.1724         calculate D2E/DX2 analytically  !
 ! D5    D(11,1,2,5)          -175.4464         calculate D2E/DX2 analytically  !
 ! D6    D(11,1,2,6)            59.6525         calculate D2E/DX2 analytically  !
 ! D7    D(12,1,2,3)            46.2758         calculate D2E/DX2 analytically  !
 ! D8    D(12,1,2,5)           -54.9981         calculate D2E/DX2 analytically  !
 ! D9    D(12,1,2,6)          -179.8992         calculate D2E/DX2 analytically  !
 ! D10   D(1,2,3,4)           -115.6169         calculate D2E/DX2 analytically  !
 ! D11   D(1,2,3,13)             0.0813         calculate D2E/DX2 analytically  !
 ! D12   D(1,2,3,14)           127.8015         calculate D2E/DX2 analytically  !
 ! D13   D(5,2,3,4)             -2.0817         calculate D2E/DX2 analytically  !
 ! D14   D(5,2,3,13)           113.6165         calculate D2E/DX2 analytically  !
 ! D15   D(5,2,3,14)          -118.6633         calculate D2E/DX2 analytically  !
 ! D16   D(6,2,3,4)            112.1428         calculate D2E/DX2 analytically  !
 ! D17   D(6,2,3,13)          -132.159          calculate D2E/DX2 analytically  !
 ! D18   D(6,2,3,14)            -4.4389         calculate D2E/DX2 analytically  !
 ! D19   D(1,2,5,4)            120.4829         calculate D2E/DX2 analytically  !
 ! D20   D(3,2,5,4)              2.2134         calculate D2E/DX2 analytically  !
 ! D21   D(6,2,5,4)           -114.8116         calculate D2E/DX2 analytically  !
 ! D22   D(1,2,8,9)           -165.1313         calculate D2E/DX2 analytically  !
 ! D23   D(1,2,8,17)           -46.5357         calculate D2E/DX2 analytically  !
 ! D24   D(1,2,8,18)            70.8397         calculate D2E/DX2 analytically  !
 ! D25   D(3,2,8,9)            -30.4649         calculate D2E/DX2 analytically  !
 ! D26   D(3,2,8,17)            88.1307         calculate D2E/DX2 analytically  !
 ! D27   D(3,2,8,18)          -154.4939         calculate D2E/DX2 analytically  !
 ! D28   D(5,2,8,9)             70.3577         calculate D2E/DX2 analytically  !
 ! D29   D(5,2,8,17)          -171.0467         calculate D2E/DX2 analytically  !
 ! D30   D(5,2,8,18)           -53.6713         calculate D2E/DX2 analytically  !
 ! D31   D(2,3,4,5)              2.1105         calculate D2E/DX2 analytically  !
 ! D32   D(2,3,4,15)           117.7137         calculate D2E/DX2 analytically  !
 ! D33   D(2,3,4,16)          -113.2099         calculate D2E/DX2 analytically  !
 ! D34   D(13,3,4,5)          -111.7799         calculate D2E/DX2 analytically  !
 ! D35   D(13,3,4,15)            3.8233         calculate D2E/DX2 analytically  !
 ! D36   D(13,3,4,16)          132.8997         calculate D2E/DX2 analytically  !
 ! D37   D(14,3,4,5)           117.7354         calculate D2E/DX2 analytically  !
 ! D38   D(14,3,4,15)         -126.6615         calculate D2E/DX2 analytically  !
 ! D39   D(14,3,4,16)            2.415          calculate D2E/DX2 analytically  !
 ! D40   D(3,4,5,2)             -2.2466         calculate D2E/DX2 analytically  !
 ! D41   D(15,4,5,2)          -121.6628         calculate D2E/DX2 analytically  !
 ! D42   D(16,4,5,2)           116.0307         calculate D2E/DX2 analytically  !
 ! D43   D(7,8,9,19)           -53.057          calculate D2E/DX2 analytically  !
 ! D44   D(17,8,9,19)         -173.8449         calculate D2E/DX2 analytically  !
 ! D45   D(18,8,9,19)           70.6768         calculate D2E/DX2 analytically  !
 --------------------------------------------------------------------------------
 Trust Radius=3.00D-01 FncErr=1.00D-07 GrdErr=1.00D-07
 Number of steps in this run=      2 maximum allowed number of steps=      2.
 GradGradGradGradGradGradGradGradGradGradGradGradGradGradGradGradGradGrad

                          Input orientation:                          
 ---------------------------------------------------------------------
 Center     Atomic      Atomic             Coordinates (Angstroms)
 Number     Number       Type             X           Y           Z
 ---------------------------------------------------------------------
      1          6           0        4.514943   -1.023606   -1.076554
      2          6           0        3.955739   -0.002388   -0.089923
      3          6           0        4.633868    1.402792   -0.098267
      4          6           0        5.066514    1.055942    1.336527
      5          8           0        4.462436   -0.251732    1.258182
      6          6           0        2.496452    0.021913   -0.121236
      7          6           0        1.291817    0.042198   -0.165645
      8          6           0       -0.169750    0.085077   -0.151997
      9          8           0       -0.700068    1.236025    0.490575
     10          1           0        4.154631   -2.024869   -0.825694
     11          1           0        4.197730   -0.785207   -2.096403
     12          1           0        5.607557   -1.022719   -1.031733
     13          1           0        5.443832    1.493658   -0.823757
     14          1           0        3.951248    2.245288   -0.202706
     15          1           0        6.146060    0.995549    1.516219
     16          1           0        4.610321    1.668779    2.123404
     17          1           0       -0.553845    0.113502   -1.177872
     18          1           0       -0.553770   -0.841893    0.303344
     19          1           0       -0.298884    1.286453    1.364538
 ---------------------------------------------------------------------
                    Distance matrix (angstroms):
                    1          2          3          4          5
     1  C    0.000000
     2  C    1.526118   0.000000
     3  C    2.618892   1.560275   0.000000
     4  C    3.232910   2.094909   1.538220   0.000000
     5  O    2.459581   1.461609   2.146344   1.442587   0.000000
     6  C    2.465776   1.459825   2.544780   3.130417   2.417181
     7  C    3.514859   2.665371   3.609025   4.187187   3.488051
     8  C    4.902074   4.126883   4.981366   5.529624   4.853780
     9  O    5.895606   4.852544   5.368931   5.831084   5.427162
    10  H    1.093290   2.161330   3.536620   3.872741   2.753416
    11  H    1.094327   2.167331   2.995013   3.991193   3.407037
    12  H    1.093533   2.157911   2.775343   3.197219   2.673842
    13  H    2.695062   2.234074   1.091162   2.236245   2.888597
    14  H    3.430311   2.250509   1.089348   2.242231   2.937791
    15  H    3.668787   2.893627   2.249252   1.096064   2.111133
    16  H    4.183033   2.849578   2.237661   1.096750   2.111597
    17  H    5.195758   4.640411   5.453457   6.228871   5.588455
    18  H    5.256329   4.603813   5.666700   6.021365   5.140265
    19  H    5.870965   4.677434   5.146395   5.370421   5.004746
                    6          7          8          9         10
     6  C    0.000000
     7  C    1.205624   0.000000
     8  C    2.667127   1.462259   0.000000
     9  O    3.473632   2.413183   1.420851   0.000000
    10  H    2.726745   3.592233   4.858602   5.994506   0.000000
    11  H    2.728932   3.585632   4.859319   5.896292   1.775759
    12  H    3.405765   4.528771   5.947976   6.870624   1.777006
    13  H    3.368475   4.447368   5.826463   6.288192   3.747276
    14  H    2.658283   3.453630   4.653140   4.809781   4.320154
    15  H    4.116900   5.225057   6.595556   6.926705   4.309672
    16  H    3.495571   4.347181   5.525815   5.572579   4.748460
    17  H    3.229424   2.106219   1.095790   2.016223   5.183282
    18  H    3.198481   2.099466   1.101853   2.091460   4.984295
    19  H    3.408883   2.533764   1.939035   0.962965   5.966219
                   11         12         13         14         15
    11  H    0.000000
    12  H    1.782568   0.000000
    13  H    2.892339   2.530259   0.000000
    14  H    3.582003   3.756396   1.782824   0.000000
[...]
 ,-0.00412401,-0.04016918,-0.03633101,-0.04168604,-0.02919996,0.0121359
 4,-0.17205855,0.01949805,0.09133755,0.53202477,0.00475392,-0.00186822,
 0.00271926,-0.06274759,0.01887942,-0.03848790,0.00552626,-0.01622301,-
 0.00875085,-0.08461028,-0.05688159,0.00988221,0.15444580,-0.00716747,0
 .00967569,-0.02248387,-0.00130338,-0.06514441,0.00233146,-0.01618932,-
 0.06319945,0.04215028,-0.03707885,-0.17309831,0.02056413,0.08365345,0.
 32692121,-0.01240754,0.00434730,-0.03739951,-0.00057936,0.04528040,-0.
 14045379,-0.00767171,0.04680136,-0.04737670,-0.01059394,-0.02349831,-0
 .06109704,0.07286018,-0.04594360,0.28912513,-0.02387514,0.00841198,0.0
 1144153,-0.24626183,0.00509396,0.01322670,-0.02232135,-0.01282729,-0.0
 0159832,-0.00145382,0.00107012,-0.00073915,-0.02327055,0.00260918,-0.0
 2801069,1.39571769,0.02497109,-0.00055162,-0.00280061,0.00096185,-0.06
 775599,-0.00263872,-0.02721375,0.00091468,0.00191814,-0.00053712,-0.00
 269611,-0.00076301,0.00737375,0.00448929,0.00303432,-0.02433632,0.0962
 4397,0.02352040,-0.00152783,0.00187718,0.00567681,-0.00072478,-0.05753
 146,0.00332064,-0.00220370,0.00160289,-0.00159769,0.00308227,-0.001751
 96,-0.03651719,0.00000133,-0.01085680,0.04058387,0.00658709,0.09639049
 ,-0.00159071,-0.00333278,-0.00358312,-0.00326792,-0.00155538,0.0005472
 2,0.00118092,0.00476020,0.00165001,0.00028858,0.00121871,0.00053341,0.
 00138028,-0.00058754,0.00121773,-1.07511713,0.01791206,-0.03739891,1.3
 9989233,-0.00091541,-0.00028511,-0.00101953,-0.00111931,0.00336552,0.0
 0152217,0.00050397,-0.00097940,-0.00008523,0.00024963,-0.00012186,0.00
 011894,0.00034810,0.00062270,0.00021910,0.02269281,-0.03222578,0.00079
 157,-0.02804218,0.09309843,-0.00022084,-0.00068473,-0.00060597,-0.0012
 2415,0.00097966,0.00184654,-0.00014097,0.00028193,0.00062116,0.0002882
 2,-0.00042920,0.00001596,0.00001446,0.00030768,0.00036463,-0.03103060,
 0.00119182,-0.03419394,0.03239675,0.00012232,0.09233949,0.00108800,0.0
 0065694,0.00096492,-0.00101106,0.00126437,-0.00101074,0.00040822,-0.00
 089144,-0.00033340,-0.00051848,-0.00098837,-0.00055443,0.00106485,0.00
 041778,0.00070241,-0.00315094,0.00033362,0.00148263,-0.25344812,-0.007
 50397,-0.00787925,0.49061342,-0.00061536,-0.00016677,0.00016998,0.0025
 8075,0.00602475,0.00042791,0.00056792,0.00020084,-0.00038083,0.0000225
 5,0.00098992,0.00020019,-0.00154183,-0.00080610,-0.00129092,-0.0054333
 0,0.00242868,-0.00167647,-0.00553172,-0.06216190,0.00603111,0.03443986
 ,0.48135542,-0.00111908,-0.00011466,-0.00028338,0.00104274,0.00011679,
 0.00663966,0.00000257,0.00027294,-0.00008955,0.00017123,0.00033848,0.0
 0019483,0.00056621,-0.00031201,-0.00026203,-0.00590116,-0.00212912,0.0
 0414367,-0.00160849,0.00314512,-0.06916186,0.04209645,-0.03560065,0.56
 242339,-0.00057977,-0.00034134,-0.00058392,0.00153939,-0.00195032,0.00
 035509,-0.00057346,0.00040859,0.00018722,0.00030126,0.00056295,0.00031
 241,-0.00103034,-0.00015315,-0.00076706,0.00293136,0.00054699,0.000375
 34,-0.03053724,0.03787018,0.02009606,-0.08091780,0.04118229,-0.0034159
 3,0.20532340,0.00020293,0.00017314,0.00022803,-0.00135147,0.00047382,-
 0.00038541,0.00042230,-0.00045855,0.00001266,-0.00011763,-0.00071076,-
 0.00022960,0.00094953,0.00050197,0.00076306,-0.00017713,0.00030807,0.0
 0010806,0.02344827,-0.00822536,-0.00928670,0.04943526,-0.17015308,-0.0
 3612503,-0.09207739,0.25343168,0.00016047,0.00010471,0.00014212,-0.000
 85494,0.00050640,-0.00054901,0.00015486,-0.00021243,-0.00001328,-0.000
 08424,-0.00039997,-0.00020451,0.00054375,0.00018547,0.00060127,0.00074
 050,-0.00004312,0.00069706,0.01199421,-0.00710073,-0.00012651,0.018244
 13,-0.07223845,-0.11381380,0.16836306,0.11628590,0.54267479,-0.0778913
 2,-0.08292998,0.02220231,0.00348329,0.01317642,-0.00404527,-0.00054455
 ,0.00055340,0.00214205,-0.00002287,0.00030539,-0.00011308,-0.00001921,
 -0.00076465,-0.00040867,0.00090238,0.00059891,-0.00040817,0.00015296,-
 0.00019379,0.00003382,-0.00022645,0.00002334,0.00002071,0.00012025,-0.
 00008312,-0.00005353,0.08010536,-0.08164726,-0.26840085,0.05763195,-0.
 00763487,-0.02291900,0.00579377,0.00284513,-0.00084574,-0.00195673,-0.
 00026290,-0.00035673,0.00042175,0.00023024,0.00225279,-0.00023542,-0.0
 0133794,0.00089289,-0.00008078,0.00056934,0.00031173,0.00008818,0.0001
 1448,-0.00012277,0.00003236,-0.00004388,0.00009613,0.00003296,0.088642
 87,0.29314579,0.02183741,0.05940327,-0.06114277,-0.00759701,-0.0219328
 9,0.00418458,0.00216012,-0.00292068,-0.00221238,-0.00045880,-0.0007612
 8,0.00093861,0.00039622,0.00248626,0.00189117,-0.00109534,0.00026050,0
 .00035450,0.00010279,0.00015012,-0.00002735,0.00004709,-0.00005245,0.0
 0002084,-0.00001280,0.00000539,-0.00000928,-0.02504685,-0.06156221,0.0
 6287683,-0.07011770,0.01834011,-0.07282676,0.00239548,-0.00473595,0.01
 065840,0.00031982,-0.00003473,-0.00031512,-0.00036766,0.00001589,0.000
 55944,0.00129205,0.00162255,0.00179245,-0.00030859,-0.00016380,0.00006
 094,0.00019044,0.00009072,-0.00001975,-0.00018623,-0.00001859,0.000084
 97,0.00008556,-0.00004969,-0.00004634,0.00247560,-0.00201185,0.0109256
 6,0.07148446,0.01833831,-0.06000262,0.05568076,-0.00803667,0.00542278,
 -0.01893147,-0.00000486,0.00095101,0.00109380,0.00059735,0.00164129,-0
 .00041773,0.00077535,-0.00314869,-0.00589100,-0.00008705,0.00037204,0.
 00033899,0.00000616,-0.00008420,0.00004567,0.00008101,0.00003865,-0.00
 005199,-0.00004822,-0.00000702,0.00000134,0.00954606,-0.00502380,0.027
 54613,-0.02030287,0.06143902,-0.07109964,0.05435133,-0.27498740,-0.007
 64824,0.00786161,-0.01809231,0.00021578,-0.00015045,0.00073615,0.00105
 042,0.00149337,-0.00045480,0.00087010,-0.00415221,-0.00317984,-0.00074
 531,-0.00020447,0.00076895,0.00050934,0.00007290,0.00043012,0.00012540
 ,0.00001377,-0.00015168,-0.00006634,0.00004895,0.00006434,-0.00202703,
 0.00085330,-0.00584811,0.07900215,-0.05889305,0.30023914,-0.31145307,-
 0.00257350,-0.01244466,-0.01395412,-0.00030114,-0.00190008,0.00057434,
 -0.00101585,0.00006057,-0.00006165,0.00019197,0.00019927,0.00230883,-0
 .00090674,-0.00022966,-0.00108581,0.00228513,0.00202906,0.00009940,0.0
 0002841,0.00014252,0.00045491,-0.00011722,-0.00016362,-0.00028955,0.00
 015381,0.00011439,-0.00921037,0.00074020,-0.00092521,-0.00720976,-0.00
 054378,0.00045999,0.33900994,-0.00503474,-0.04728709,-0.00038527,0.024
 10728,-0.00282770,0.00064208,0.00111216,0.00137079,0.00018298,0.000078
 30,0.00014811,-0.00013983,-0.00132374,0.00078274,0.00176031,0.00143855
 ,-0.00221716,-0.00353356,0.00085311,0.00035121,0.00001414,-0.00034781,
 0.00009037,0.00033843,0.00019230,-0.00006945,-0.00005759,-0.02927433,0
 .00111767,-0.00223963,0.00699091,-0.00105548,0.00003157,0.00174305,0.0
 4982024,-0.01505572,0.00051118,-0.04661722,0.02299336,-0.00165918,-0.0
 0162723,-0.00017180,0.00101417,0.00054324,0.00012699,-0.00067028,0.000
 00900,-0.00086230,0.00162926,0.00208266,0.00112583,-0.00307068,-0.0022
 4715,0.00091951,0.00017924,0.00033406,-0.00039547,0.00012760,0.0001096
 5,0.00021934,-0.00008211,-0.00004561,0.00787766,-0.00013000,-0.0004497
 0,-0.02980784,-0.00101530,0.00028859,0.01317160,0.00274039,0.04748124,
 0.00111713,0.00235456,0.00033371,-0.01178716,0.00202697,0.00756923,-0.
 19984138,-0.01373537,0.13420804,0.01106347,-0.00107821,-0.00923573,0.0
 0068396,0.00086802,0.00091322,-0.00058504,-0.00261812,0.00022202,-0.00
 039150,-0.00019760,-0.00016502,0.00047977,0.00003424,0.00002943,-0.000
 34132,0.00014854,0.00008786,0.00023598,0.00033641,0.00013574,-0.000140
 39,-0.00026142,-0.00028484,0.00063276,-0.00048641,-0.00031561,0.211106
 17,-0.00096846,0.00226634,0.00025987,-0.02004692,0.00011827,0.01624333
 ,-0.01237587,-0.04857556,0.01177606,-0.00139684,-0.00238995,0.00029387
 ,0.00244801,-0.00388339,0.00327283,-0.00046960,-0.00300766,0.00070987,
 -0.00081111,0.00019824,-0.00013947,0.00031453,0.00002104,-0.00005048,-
 0.00021085,0.00018710,0.00008483,0.00019745,0.00037873,0.00009071,-0.0
 0004232,-0.00008253,-0.00033681,0.00043869,-0.00034213,0.00022742,0.01
 515319,0.05047573,0.00038619,-0.00007251,0.00094183,-0.00715022,-0.000
 05127,0.00183369,0.13382757,0.01305688,-0.16531725,0.02317147,-0.00293
 202,-0.01503899,0.00054815,0.00427245,0.00013874,-0.00033575,-0.001446
 34,-0.00006439,-0.00056144,0.00012420,-0.00007065,0.00018119,0.0000735
 1,0.00000425,-0.00011478,0.00006583,0.00004756,-0.00022732,0.00003110,
 0.00004140,-0.00016153,0.00030319,0.00014480,-0.00017252,0.00041766,0.
 00011915,-0.14506115,-0.01538479,0.17577759,-0.00113196,-0.00172511,0.
 00063132,0.01051177,-0.01188120,-0.00085514,-0.16036364,0.13690032,-0.
 01503038,-0.00748696,0.00490186,0.00238526,0.00052636,-0.00032091,0.00
 265780,0.00159745,-0.00026577,-0.00028228,-0.00002107,0.00003804,0.000
 03691,-0.00018211,0.00002685,-0.00000856,0.00013202,-0.00003116,-0.000
 03676,0.00037245,-0.00054417,-0.00057654,-0.00000612,0.00002575,-0.000
 05230,0.00018725,-0.00016394,0.00002662,-0.01329825,0.01840673,-0.0027
 3013,0.16743541,-0.00192566,-0.00273742,0.00162866,0.01895797,-0.01399
 632,-0.00012471,0.13363443,-0.21006999,0.01735704,-0.00246589,-0.00071
 655,-0.00082410,-0.00099337,-0.00225576,0.00467222,0.00189029,0.001681
 06,-0.00031271,-0.00070537,0.00042604,0.00004169,-0.00027258,-0.000070
 37,-0.00006411,0.00020100,-0.00001571,-0.00004518,0.00025327,-0.000832
 94,-0.00085536,0.00001734,-0.00000560,-0.00020914,-0.00013719,0.000181
 90,0.00013239,-0.00254205,0.00355658,-0.00009136,-0.14535987,0.2239670
 4,-0.00066418,-0.00176728,0.00027846,0.00407405,-0.00316826,-0.0034207
 7,-0.01428850,0.01716423,-0.04996832,-0.02003586,0.02046417,0.00261294
 ,0.00281386,0.00454426,-0.00220055,0.00054066,0.00062659,0.00081937,0.
 00010251,-0.00001817,-0.00008509,-0.00004142,0.00004675,-0.00001695,0.
 00000896,-0.00008200,-0.00004636,-0.00016443,-0.00050655,-0.00048313,-
 0.00001692,0.00002225,0.00000255,-0.00034571,0.00020382,0.00008807,0.0
 1321933,-0.01702505,0.00286846,0.01511748,-0.02127508,0.05114712,-0.00
 048184,0.00021124,-0.00008494,-0.00044544,-0.00061998,0.00289124,-0.00
 208281,0.00175344,0.00018718,-0.29518983,0.02641019,-0.03576240,-0.009
 39594,-0.01218414,-0.00524748,-0.00022558,0.00008908,-0.00068216,-0.00
 023699,0.00003914,0.00005356,0.00025935,-0.00007925,-0.00002068,-0.000
 18914,0.00008078,0.00006295,0.00006785,-0.00001840,0.00004122,0.000051
 36,-0.00006219,-0.00013198,0.00011338,-0.00002851,0.00002557,0.0011798
 9,0.00001424,-0.00032263,0.00030306,-0.00070492,-0.00071478,0.32023654
 ,-0.00015651,0.00016976,-0.00027090,-0.00179590,-0.00287195,0.00402256
 ,0.00971759,-0.00013729,-0.00113197,0.03047234,-0.05204198,0.00526735,
 -0.03624766,-0.00583924,-0.00965427,-0.00039613,0.00074768,-0.00179166
 ,-0.00031199,0.00013917,0.00012647,0.00012267,-0.00019458,0.00000053,-
 0.00006729,0.00012298,0.00005746,-0.00003313,0.00007635,0.00011274,0.0
 0009112,-0.00012640,-0.00010933,0.00008248,-0.00006848,-0.00008475,-0.
 00046385,0.00093182,-0.00065762,0.00052499,0.00002134,0.00173846,-0.01
 855948,0.05700651,-0.00051590,-0.00017634,0.00004222,-0.00066608,-0.00
 028184,-0.00274355,-0.02607750,0.00388960,-0.00246458,-0.03567041,0.00
 287489,-0.05836859,-0.00203653,-0.00138828,0.00332340,0.00020820,-0.00
 100517,0.00013249,-0.00034226,0.00006971,0.00007060,0.00020155,0.00000
 201,-0.00003872,-0.00013437,0.00009292,0.00007074,0.00010876,-0.000122
 16,-0.00010676,0.00008637,-0.00000271,0.00000036,0.00012487,-0.0001017
 7,-0.00013398,0.00088808,0.00053651,0.00237770,-0.00188127,-0.00069961
 ,-0.00370416,0.04241647,0.00022517,0.05699455,-0.00034238,0.00002942,-
 0.00064678,-0.00058729,-0.00136812,0.00034601,0.00362329,-0.00356957,-
 0.00688463,-0.10567687,0.06271987,0.08312841,0.00984098,-0.01226785,-0
 .01363694,-0.00010879,-0.00010604,-0.00007101,-0.00012524,0.00003044,0
 .00004702,-0.00000575,-0.00002635,-0.00001009,0.00001826,0.00002438,0.
 00000702,0.00001917,0.00001250,0.00009563,0.00007476,-0.00001219,-0.00
 018368,-0.00002426,-0.00001018,0.00000454,-0.00000436,-0.00051069,-0.0
 0124300,0.00139322,0.00013698,0.00034632,-0.01392367,0.01713537,0.0233
 3018,0.10585819,-0.00045211,0.00100742,-0.00180516,0.00335905,-0.00421
 123,0.00372176,-0.00583563,0.00787965,0.00777351,0.06145072,-0.1164968
 3,-0.09242962,0.00038191,-0.02778729,-0.02376081,-0.00012923,0.0000220
 5,-0.00018494,-0.00020861,0.00007477,0.00012404,0.00017458,-0.00015078
 ,-0.00010498,-0.00010411,0.00013154,0.00009278,-0.00004971,0.00025942,
 0.00026259,0.00016447,-0.00033446,-0.00065319,-0.00003032,-0.00000457,
 0.00013607,0.00045777,0.00016976,0.00230531,-0.00052483,0.00089742,-0.
 00099076,0.00365726,0.00207757,-0.00390364,-0.06221272,0.13647464,-0.0
 0027732,-0.00058776,0.00038269,-0.00025773,0.00019611,-0.00087221,0.01
 352444,-0.01174596,-0.01763986,0.08081341,-0.09536817,-0.18113268,-0.0
 0451375,-0.00418919,0.00541549,0.00029122,-0.00006275,-0.00016324,-0.0
 0035835,0.00009458,0.00007027,0.00020321,-0.00018729,-0.00008162,-0.00
 010100,0.00017745,0.00010143,0.00006987,-0.00025925,-0.00003077,-0.000
 00174,0.00017457,0.00005638,-0.00005894,0.00011584,0.00001437,-0.00246
 010,-0.00053638,-0.00377651,0.00056209,0.00060477,0.00212180,-0.002677
 30,0.00215235,0.00458149,-0.08463279,0.10944767,0.19097056,-0.00054855
 ,-0.00011783,-0.00023216,0.00111908,0.00006835,0.00126693,-0.00003008,
 0.00012968,0.00003945,0.00015085,0.00037443,0.00005194,-0.00043936,-0.
 00022434,-0.00009969,-0.00126192,-0.00059439,0.00102660,-0.01997954,0.
 00275435,-0.03065983,-0.07932685,0.00212793,-0.08996551,0.00618860,0.0
 0288607,0.01431577,-0.00000314,0.00002665,-0.00000784,0.00000568,-0.00
 004051,-0.00003082,-0.00009857,0.00019349,0.00010820,-0.00006003,-0.00
 004908,0.00000691,0.00001669,-0.00001534,-0.00002288,-0.00006337,-0.00
 006179,-0.00000940,0.00000857,-0.00005476,-0.00002225,0.08895273,0.000
 07891,0.00002916,0.00003431,-0.00067623,-0.00012315,-0.00001061,-0.000
 04885,0.00001333,0.00003347,-0.00002741,-0.00019042,-0.00001454,0.0003
 8089,0.00011294,0.00015648,0.00018943,0.00070277,-0.00017150,-0.001694
 44,0.00105095,-0.00118583,0.00644955,-0.04646696,0.02336869,-0.0079875
 7,-0.00705592,-0.03643421,0.00001469,-0.00001934,0.00001282,0.00000204
 ,0.00002362,0.00001744,0.00001720,-0.00005272,-0.00001212,0.00000088,0
 .00000013,-0.00001434,-0.00000102,0.00000018,-0.00001466,0.00002789,0.
 00003990,0.00000672,-0.00000022,0.00002917,0.00001712,-0.00808959,0.05
 693609,0.00008380,-0.00000619,0.00004104,-0.00032263,-0.00017872,-0.00
 026389,-0.00006836,0.00000013,0.00000296,-0.00000011,-0.00005579,0.000
 00251,0.00012439,0.00003550,0.00010514,0.00231772,0.00025244,-0.000274
 52,-0.00504506,0.00100271,0.00420427,-0.08211878,0.01270166,-0.2686932
 4,-0.00285222,-0.00901276,-0.01939124,0.00000332,-0.00000665,-0.000009
 36,-0.00000123,0.00000269,0.00001203,0.00001680,-0.00002965,-0.0000091
 6,-0.00002064,-0.00000971,-0.00000464,0.00000828,0.00001907,-0.0000010
 0,-0.00000151,0.00001279,0.00000114,0.00000322,0.00001639,0.00000647,0
 .09106849,-0.00584982,0.29771017,-0.00010088,-0.00017267,0.00002419,0.
 00108828,0.00053950,-0.00035496,-0.00014721,0.00023748,-0.00003853,0.0
 0002498,0.00030229,0.00015152,-0.00064186,-0.00004962,-0.00059173,-0.0
 0121618,0.00088967,-0.00061561,-0.02205420,-0.02653018,0.01602924,-0.0
 7871987,-0.07421752,0.03836640,0.00719218,0.01670395,-0.00311299,-0.00
 000238,-0.00000686,-0.00002532,-0.00002156,0.00001506,0.00002342,-0.00
 006881,0.00003662,0.00006678,-0.00012939,-0.00009123,-0.00003033,0.000
 05917,0.00009530,0.00002187,-0.00006457,-0.00005306,-0.00002667,-0.000
 00028,-0.00003950,-0.00007131,0.00571143,0.00873287,-0.00564403,0.0893
 6707,-0.00006192,0.00000805,-0.00003759,-0.00025759,0.00001760,-0.0002
 0624,0.00017858,-0.00005645,0.00006394,0.00003644,-0.00000416,-0.00002
 967,-0.00001012,0.00003107,0.00010623,0.00174514,-0.00019249,0.0002267
 0,-0.00624182,0.00301589,0.00176111,-0.07022585,-0.20161445,0.08639396
 ,0.00125813,-0.03760307,-0.00123816,0.00000189,0.00001941,0.00000777,0
 .00001482,-0.00001155,-0.00002314,-0.00000764,0.00002632,-0.00000004,0
 .00002948,0.00003885,0.00001035,-0.00000833,-0.00001725,-0.00001369,-0
 .00000671,-0.00000264,0.00000907,0.00000729,0.00000238,0.00002730,-0.0
 0147997,-0.00066765,0.00315096,0.07446661,0.23662410,-0.00003565,0.000
 03302,-0.00000426,-0.00021317,0.00029234,-0.00016721,0.00007789,-0.000
 08943,0.00001920,-0.00001101,-0.00005023,-0.00004177,0.00010139,0.0000
 0393,0.00012169,-0.00067555,0.00008721,0.00029284,-0.00074466,-0.00127
 511,0.00255937,0.03743365,0.09076038,-0.10034357,-0.00282379,-0.022209
 09,0.00878044,0.00000341,-0.00000839,0.00001540,0.00000819,0.00000480,
 -0.00000828,0.00000777,-0.00000796,-0.00000376,0.00003437,0.00003294,0
 .00001095,-0.00001449,-0.00002772,-0.00001109,0.00001779,0.00000429,0.
 00001101,-0.00000070,0.00000443,0.00001854,0.01104148,0.02433525,-0.01
 351478,-0.04349604,-0.09132486,0.10066484,0.00023079,0.00007587,0.0001
 1182,-0.00067728,0.00001469,-0.00022314,-0.00000216,0.00000378,-0.0000
 1235,-0.00015911,-0.00012080,-0.00000963,0.00033187,0.00002699,0.00010
 070,-0.00090620,-0.00012684,-0.00072530,0.00358475,-0.00014335,0.00220
 185,0.00332516,0.00657541,0.01983241,-0.10937365,-0.00056822,-0.210600
 17,-0.00001502,-0.00000967,0.00000384,-0.00001720,0.00001472,0.0000135
 8,0.00007517,-0.00007612,-0.00005724,0.00007969,0.00000011,-0.00001068
 ,-0.00004474,-0.00006432,0.00004964,0.00008775,0.00000021,-0.00000409,
 -0.00003754,-0.00000423,-0.00003169,-0.00034222,0.00263101,0.00244855,
 -0.00027590,0.00056156,-0.00071088,0.10413586,-0.00010710,-0.00004184,
 -0.00004560,0.00056779,-0.00001359,0.00011118,-0.00012438,0.00012587,-
 0.00000820,0.00006292,0.00030349,0.00008048,-0.00033112,-0.00022775,-0
 .00013927,0.00005253,-0.00015637,0.00036205,0.00025507,0.00142895,0.00
 061011,-0.01357462,-0.00924192,-0.03945428,0.02076170,-0.03112753,0.00
 041801,0.00001503,-0.00002975,-0.00001382,0.00000987,-0.00000603,-0.00
 001244,-0.00004754,0.00003544,0.00002674,-0.00002704,-0.00006136,-0.00
 001023,0.00000177,-0.00001366,0.00005097,-0.00001970,-0.00005052,-0.00
 002506,-0.00001232,-0.00004060,-0.00007100,0.00216665,-0.00436208,-0.0
 0204505,-0.00085871,0.00038603,-0.00056579,-0.00879081,0.04309321,-0.0
 0018671,-0.00007806,-0.00011532,0.00066281,-0.00026456,0.00029743,-0.0
 0012952,0.00005444,0.00002626,0.00006361,0.00019333,0.00016032,-0.0002
 7165,-0.00004286,-0.00034307,-0.00034436,0.00020588,0.00000403,-0.0003
 3119,0.00188610,0.00141491,-0.00934914,0.00087219,-0.02059990,-0.17904
 529,-0.04037554,-0.41898014,0.00003245,-0.00001723,-0.00000371,0.00001
 866,-0.00001092,-0.00002098,-0.00008643,0.00004806,0.00006378,-0.00009
 793,-0.00004555,-0.00003369,0.00004209,0.00007325,-0.00000133,-0.00005
 014,-0.00001963,-0.00004534,0.00000128,-0.00005145,-0.00004258,0.00212
 460,-0.00427466,0.00007609,-0.00067592,0.00111600,0.00160045,0.1876227
 7,0.04073121,0.43654280\\-0.00000087,0.00000455,-0.00000378,0.00001390
 ,-0.00000197,0.00000389,-0.00000604,0.00000292,0.00000158,0.00000528,0
 .00000707,0.00000336,-0.00000392,-0.00000964,-0.00000569,-0.00000598,0
 .00000383,-0.00000144,-0.00000154,-0.00000005,-0.00000014,0.00000348,-
 0.00000446,-0.00000370,-0.00000272,0.00000086,0.00000363,0.00000135,0.
 00000158,-0.00000109,0.00000033,0.00000189,-0.00000087,0.00000059,0.00
 000244,-0.00000214,0.00000032,0.00000128,0.00000293,-0.00000053,0.0000
 0042,0.00000357,-0.00000224,-0.00000286,0.00000178,-0.00000194,-0.0000
 0417,0.00000116,0.00000054,0.00000044,-0.00000062,-0.00000039,-0.00000
 133,-0.00000304,0.00000037,-0.00000281,0.00000061\\\@


      TO SUSPECT YOUR OWN MORTALITY IS TO KNOW THE BEGINNING OF TERROR.
      TO LEARN IRREFUTABLY THAT YOU ARE MORTAL IS TO KNOW THE END
      OF TERROR.

                                                  -- JESSICA
                                                     CHILDREN OF DUNE
                                                     BY FRANK HERBERT
 Job cpu time:       0 days  0 hours 33 minutes 37.3 seconds.
 File lengths (MBytes):  RWF=    152 Int=      0 D2E=      0 Chk=      8 Scr=      1
 Normal termination of Gaussian 09 at Tue Jan 28 08:45:40 2020.
