 Entering Gaussian System, Link 0=/home/puck/opt/gaussian_09/g09
 Input=dsC7O2H10nsd_3355.com
 Output=dsC7O2H10nsd_3355.log
 Initial command:
 /home/puck/opt/gaussian_09/l1.exe "/scratch/puck/g09_26e3e25c-9c3e-4fc8-9546-f6c7b83e608d/Gau-184655.inp" -scrdir="/scratch/puck/g09_26e3e25c-9c3e-4fc8-9546-f6c7b83e608d/"
 Entering Link 1 = /home/puck/opt/gaussian_09/l1.exe PID=    184669.
  
 Copyright (c) 1988,1990,1992,1993,1995,1998,2003,2009,2013,
            Gaussian, Inc.  All Rights Reserved.
  
 This is part of the Gaussian(R) 09 program.  It is based on
 the Gaussian(R) 03 system (copyright 2003, Gaussian, Inc.),
 the Gaussian(R) 98 system (copyright 1998, Gaussian, Inc.),
 the Gaussian(R) 94 system (copyright 1995, Gaussian, Inc.),
 the Gaussian 92(TM) system (copyright 1992, Gaussian, Inc.),
 the Gaussian 90(TM) system (copyright 1990, Gaussian, Inc.),
 the Gaussian 88(TM) system (copyright 1988, Gaussian, Inc.),
 the Gaussian 86(TM) system (copyright 1986, Carnegie Mellon
 University), and the Gaussian 82(TM) system (copyright 1983,
 Carnegie Mellon University). Gaussian is a federally registered
 trademark of Gaussian, Inc.
  
 This software contains proprietary and confidential information,
 including trade secrets, belonging to Gaussian, Inc.
  
 This software is provided under written license and may be
 used, copied, transmitted, or stored only in accord with that
 written license.
  
 The following legend is applicable only to US Government
 contracts under FAR:
  
                    RESTRICTED RIGHTS LEGEND
  
 Use, reproduction and disclosure by the US Government is
 subject to restrictions as set forth in subparagraphs (a)
 and (c) of the Commercial Computer Software - Restricted
 Rights clause in FAR 52.227-19.
  
 Gaussian, Inc.
 340 Quinnipiac St., Bldg. 40, Wallingford CT 06492
  
  
 ---------------------------------------------------------------
 Warning -- This program may not be used in any manner that
 competes with the business of Gaussian, Inc. or will provide
 assistance to any competitor of Gaussian, Inc.  The licensee
 of this program is prohibited from giving any competitor of
 Gaussian, Inc. access to this program.  By using this program,
 the user acknowledges that Gaussian, Inc. is engaged in the
 business of creating and licensing software in the field of
 computational chemistry and represents and warrants to the
 licensee that it is not a competitor of Gaussian, Inc. and that
 it will not use this program in any manner prohibited above.
 ---------------------------------------------------------------
  

 Cite this work as:
 Gaussian 09, Revision D.01,
 M. J. Frisch, G. W. Trucks, H. B. Schlegel, G. E. Scuseria, 
 M. A. Robb, J. R. Cheeseman, G. Scalmani, V. Barone, B. Mennucci, 
 G. A. Petersson, H. Nakatsuji, M. Caricato, X. Li, H. P. Hratchian, 
 A. F. Izmaylov, J. Bloino, G. Zheng, J. L. Sonnenberg, M. Hada, 
 M. Ehara, K. Toyota, R. Fukuda, J. Hasegawa, M. Ishida, T. Nakajima, 
 Y. Honda, O. Kitao, H. Nakai, T. Vreven, J. A. Montgomery, Jr., 
 J. E. Peralta, F. Ogliaro, M. Bearpark, J. J. Heyd, E. Brothers, 
 K. N. Kudin, V. N. Staroverov, T. Keith, R. Kobayashi, J. Normand, 
 K. Raghavachari, A. Rendell, J. C. Burant, S. S. Iyengar, J. Tomasi, 
 M. Cossi, N. Rega, J. M. Millam, M. Klene, J. E. Knox, J. B. Cross, 
 V. Bakken, C. Adamo, J. Jaramillo, R. Gomperts, R. E. Stratmann, 
 O. Yazyev, A. J. Austin, R. Cammi, C. Pomelli, J. W. Ochterski, 
 R. L. Martin, K. Morokuma, V. G. Zakrzewski, G. A. Voth, 
 P. Salvador, J. J. Dannenberg, S. Dapprich, A. D. Daniels, 
 O. Farkas, J. B. Foresman, J. V. Ortiz, J. Cioslowski, 
 and D. J. Fox, Gaussian, Inc., Wallingford CT, 2013.
 
 ******************************************
 Gaussian 09:  ES64L-G09RevD.01 24-Apr-2013
                27-Jan-2020 
 ******************************************
 -----------------------------
 # b3lyp 6-31G(2df,p) opt Freq
 -----------------------------
 1/14=-1,18=20,19=15,26=3,38=1/1,3;
 2/9=110,12=2,17=6,18=5,40=1/2;
 3/5=1,6=6,7=104,11=2,16=1,25=1,30=1,71=1,74=-5/1,2,3;
 4//1;
 5/5=2,38=5/2;
 6/7=2,8=2,9=2,10=2,28=1/1;
 7//1,2,3,16;
 1/14=-1,18=20,19=15,26=3/3(2);
 2/9=110/2;
 99//99;
 2/9=110/2;
 3/5=1,6=6,7=104,11=2,16=1,25=1,30=1,71=1,74=-5/1,2,3;
 4/5=5,16=3,69=1/1;
 5/5=2,38=5/2;
 7//1,2,3,16;
 1/14=-1,18=20,19=15,26=3/3(-5);
 2/9=110/2;
 6/7=2,8=2,9=2,10=2,19=2,28=1/1;
 99/9=1/99;
 -----
 titel
 -----
 Symbolic Z-matrix:
 Charge =  0 Multiplicity = 1
 C                     1.39191   1.30086   0.01438 
 C                     1.28027  -0.22289   0.00644 
 C                     1.98864  -1.07158   1.09979 
 C                     1.47528  -2.46734   0.66117 
 O                     1.45441  -2.39953  -0.78434 
 C                     1.90489  -1.06778  -1.12523 
 C                     3.40534  -1.10288  -0.81401 
 O                     3.93914   0.01717  -0.09557 
 C                     3.4547   -1.1018    0.65381 
 H                     0.88764   1.70237   0.90059 
 H                     2.42016   1.65301   0.01092 
 H                     0.87812   1.71439  -0.86103 
 H                     0.21392  -0.47461   0.01833 
 H                     1.78899  -0.81583   2.1407 
 H                     2.13045  -3.28749   0.97851 
 H                     0.46235  -2.66662   1.03077 
 H                     1.60243  -0.85569  -2.15047 
 H                     4.09743  -1.65038  -1.44551 
 H                     4.19982  -1.64635   1.22692 
 

 GradGradGradGradGradGradGradGradGradGradGradGradGradGradGradGradGradGrad
 Berny optimization.
 Initialization pass.
                           ----------------------------
                           !    Initial Parameters    !
                           ! (Angstroms and Degrees)  !
 --------------------------                            --------------------------
 ! Name  Definition              Value          Derivative Info.                !
 --------------------------------------------------------------------------------
 ! R1    R(1,2)                  1.5279         estimate D2E/DX2                !
 ! R2    R(1,10)                 1.0958         estimate D2E/DX2                !
 ! R3    R(1,11)                 1.0869         estimate D2E/DX2                !
 ! R4    R(1,12)                 1.0961         estimate D2E/DX2                !
 ! R5    R(2,3)                  1.5548         estimate D2E/DX2                !
 ! R6    R(2,6)                  1.5442         estimate D2E/DX2                !
 ! R7    R(2,13)                 1.0957         estimate D2E/DX2                !
 ! R8    R(3,4)                  1.5505         estimate D2E/DX2                !
 ! R9    R(3,9)                  1.5327         estimate D2E/DX2                !
 ! R10   R(3,14)                 1.0903         estimate D2E/DX2                !
 ! R11   R(4,5)                  1.4473         estimate D2E/DX2                !
 ! R12   R(4,15)                 1.0966         estimate D2E/DX2                !
 ! R13   R(4,16)                 1.0965         estimate D2E/DX2                !
 ! R14   R(5,6)                  1.4466         estimate D2E/DX2                !
 ! R15   R(6,7)                  1.5328         estimate D2E/DX2                !
 ! R16   R(6,17)                 1.0898         estimate D2E/DX2                !
 ! R17   R(7,8)                  1.4337         estimate D2E/DX2                !
 ! R18   R(7,9)                  1.4687         estimate D2E/DX2                !
 ! R19   R(7,18)                 1.0851         estimate D2E/DX2                !
 ! R20   R(8,9)                  1.4312         estimate D2E/DX2                !
 ! R21   R(9,19)                 1.0864         estimate D2E/DX2                !
 ! A1    A(2,1,10)             109.6325         estimate D2E/DX2                !
 ! A2    A(2,1,11)             113.0938         estimate D2E/DX2                !
 ! A3    A(2,1,12)             109.7475         estimate D2E/DX2                !
 ! A4    A(10,1,11)            108.615          estimate D2E/DX2                !
 ! A5    A(10,1,12)            106.9754         estimate D2E/DX2                !
 ! A6    A(11,1,12)            108.5837         estimate D2E/DX2                !
 ! A7    A(1,2,3)              120.4934         estimate D2E/DX2                !
 ! A8    A(1,2,6)              121.3258         estimate D2E/DX2                !
 ! A9    A(1,2,13)             107.4678         estimate D2E/DX2                !
 ! A10   A(3,2,6)               91.8567         estimate D2E/DX2                !
 ! A11   A(3,2,13)             108.0806         estimate D2E/DX2                !
 ! A12   A(6,2,13)             106.0157         estimate D2E/DX2                !
 ! A13   A(2,3,4)               98.1405         estimate D2E/DX2                !
 ! A14   A(2,3,9)              104.0009         estimate D2E/DX2                !
 ! A15   A(2,3,14)             117.3793         estimate D2E/DX2                !
 ! A16   A(4,3,9)              102.5116         estimate D2E/DX2                !
 ! A17   A(4,3,14)             114.8726         estimate D2E/DX2                !
 ! A18   A(9,3,14)             117.2303         estimate D2E/DX2                !
 ! A19   A(3,4,5)              104.1902         estimate D2E/DX2                !
 ! A20   A(3,4,15)             113.177          estimate D2E/DX2                !
 ! A21   A(3,4,16)             111.9688         estimate D2E/DX2                !
 ! A22   A(5,4,15)             109.4317         estimate D2E/DX2                !
 ! A23   A(5,4,16)             109.3817         estimate D2E/DX2                !
 ! A24   A(15,4,16)            108.5686         estimate D2E/DX2                !
 ! A25   A(4,5,6)              105.9029         estimate D2E/DX2                !
 ! A26   A(2,6,5)              101.8313         estimate D2E/DX2                !
 ! A27   A(2,6,7)              105.0514         estimate D2E/DX2                !
 ! A28   A(2,6,17)             118.0796         estimate D2E/DX2                !
 ! A29   A(5,6,7)              103.6451         estimate D2E/DX2                !
 ! A30   A(5,6,17)             108.3264         estimate D2E/DX2                !
 ! A31   A(7,6,17)             117.8509         estimate D2E/DX2                !
 ! A32   A(6,7,8)              116.635          estimate D2E/DX2                !
 ! A33   A(6,7,9)              103.6392         estimate D2E/DX2                !
 ! A34   A(6,7,18)             121.1795         estimate D2E/DX2                !
 ! A35   A(8,7,18)             116.6359         estimate D2E/DX2                !
 ! A36   A(9,7,18)             124.0946         estimate D2E/DX2                !
 ! A37   A(3,9,7)              104.9917         estimate D2E/DX2                !
 ! A38   A(3,9,8)              117.4327         estimate D2E/DX2                !
 ! A39   A(3,9,19)             120.8269         estimate D2E/DX2                !
 ! A40   A(7,9,19)             123.362          estimate D2E/DX2                !
 ! A41   A(8,9,19)             115.8471         estimate D2E/DX2                !
 ! D1    D(10,1,2,3)           -66.0448         estimate D2E/DX2                !
 ! D2    D(10,1,2,6)          -179.775          estimate D2E/DX2                !
 ! D3    D(10,1,2,13)           58.2114         estimate D2E/DX2                !
 ! D4    D(11,1,2,3)            55.3239         estimate D2E/DX2                !
 ! D5    D(11,1,2,6)           -58.4063         estimate D2E/DX2                !
 ! D6    D(11,1,2,13)          179.5801         estimate D2E/DX2                !
 ! D7    D(12,1,2,3)           176.7352         estimate D2E/DX2                !
 ! D8    D(12,1,2,6)            63.0049         estimate D2E/DX2                !
 ! D9    D(12,1,2,13)          -59.0087         estimate D2E/DX2                !
 ! D10   D(1,2,3,4)            176.6939         estimate D2E/DX2                !
 ! D11   D(1,2,3,9)            -78.1642         estimate D2E/DX2                !
 ! D12   D(1,2,3,14)            53.1509         estimate D2E/DX2                !
 ! D13   D(6,2,3,4)            -54.788          estimate D2E/DX2                !
 ! D14   D(6,2,3,9)             50.3539         estimate D2E/DX2                !
 ! D15   D(6,2,3,14)          -178.331          estimate D2E/DX2                !
 ! D16   D(13,2,3,4)            52.7277         estimate D2E/DX2                !
 ! D17   D(13,2,3,9)           157.8696         estimate D2E/DX2                !
 ! D18   D(13,2,3,14)          -70.8153         estimate D2E/DX2                !
 ! D19   D(1,2,6,5)           -175.1284         estimate D2E/DX2                !
 ! D20   D(1,2,6,7)             77.0579         estimate D2E/DX2                !
 ! D21   D(1,2,6,17)           -56.7125         estimate D2E/DX2                !
 ! D22   D(3,2,6,5)             56.9867         estimate D2E/DX2                !
 ! D23   D(3,2,6,7)            -50.8269         estimate D2E/DX2                !
 ! D24   D(3,2,6,17)           175.4026         estimate D2E/DX2                !
 ! D25   D(13,2,6,5)           -52.4255         estimate D2E/DX2                !
 ! D26   D(13,2,6,7)          -160.2391         estimate D2E/DX2                !
 ! D27   D(13,2,6,17)           65.9905         estimate D2E/DX2                !
 ! D28   D(2,3,4,5)             36.7269         estimate D2E/DX2                !
 ! D29   D(2,3,4,15)           155.5125         estimate D2E/DX2                !
 ! D30   D(2,3,4,16)           -81.3793         estimate D2E/DX2                !
 ! D31   D(9,3,4,5)            -69.6579         estimate D2E/DX2                !
 ! D32   D(9,3,4,15)            49.1277         estimate D2E/DX2                !
 ! D33   D(9,3,4,16)           172.2359         estimate D2E/DX2                !
 ! D34   D(14,3,4,5)           162.0629         estimate D2E/DX2                !
 ! D35   D(14,3,4,15)          -79.1515         estimate D2E/DX2                !
 ! D36   D(14,3,4,16)           43.9567         estimate D2E/DX2                !
 ! D37   D(2,3,9,7)            -33.6416         estimate D2E/DX2                !
 ! D38   D(2,3,9,8)             29.1366         estimate D2E/DX2                !
 ! D39   D(2,3,9,19)          -179.0053         estimate D2E/DX2                !
 ! D40   D(4,3,9,7)             68.1773         estimate D2E/DX2                !
 ! D41   D(4,3,9,8)            130.9555         estimate D2E/DX2                !
 ! D42   D(4,3,9,19)           -77.1864         estimate D2E/DX2                !
 ! D43   D(14,3,9,7)          -165.0441         estimate D2E/DX2                !
 ! D44   D(14,3,9,8)          -102.2659         estimate D2E/DX2                !
 ! D45   D(14,3,9,19)           49.5922         estimate D2E/DX2                !
 ! D46   D(3,4,5,6)             -0.6052         estimate D2E/DX2                !
 ! D47   D(15,4,5,6)          -121.9161         estimate D2E/DX2                !
 ! D48   D(16,4,5,6)           119.2634         estimate D2E/DX2                !
 ! D49   D(4,5,6,2)            -36.5002         estimate D2E/DX2                !
 ! D50   D(4,5,6,7)             72.3976         estimate D2E/DX2                !
 ! D51   D(4,5,6,17)          -161.6696         estimate D2E/DX2                !
 ! D52   D(2,6,7,8)            -28.2405         estimate D2E/DX2                !
 ! D53   D(2,6,7,9)             33.7319         estimate D2E/DX2                !
 ! D54   D(2,6,7,18)           178.9224         estimate D2E/DX2                !
 ! D55   D(5,6,7,8)           -134.7253         estimate D2E/DX2                !
 ! D56   D(5,6,7,9)            -72.7529         estimate D2E/DX2                !
 ! D57   D(5,6,7,18)            72.4376         estimate D2E/DX2                !
 ! D58   D(17,6,7,8)           105.6564         estimate D2E/DX2                !
 ! D59   D(17,6,7,9)           167.6288         estimate D2E/DX2                !
 ! D60   D(17,6,7,18)          -47.1807         estimate D2E/DX2                !
 ! D61   D(6,7,9,3)              0.2024         estimate D2E/DX2                !
 ! D62   D(6,7,9,19)           144.4445         estimate D2E/DX2                !
 ! D63   D(18,7,9,3)          -143.6574         estimate D2E/DX2                !
 ! D64   D(18,7,9,19)            0.5846         estimate D2E/DX2                !
 --------------------------------------------------------------------------------
 Trust Radius=3.00D-01 FncErr=1.00D-07 GrdErr=1.00D-06
 Number of steps in this run=    114 maximum allowed number of steps=    114.
 GradGradGradGradGradGradGradGradGradGradGradGradGradGradGradGradGradGrad

                          Input orientation:                          
 ---------------------------------------------------------------------
 Center     Atomic      Atomic             Coordinates (Angstroms)
 Number     Number       Type             X           Y           Z
 ---------------------------------------------------------------------
      1          6           0        1.391911    1.300862    0.014380
      2          6           0        1.280271   -0.222886    0.006445
      3          6           0        1.988637   -1.071580    1.099788
      4          6           0        1.475277   -2.467337    0.661172
      5          8           0        1.454407   -2.399525   -0.784338
      6          6           0        1.904893   -1.067776   -1.125228
      7          6           0        3.405345   -1.102880   -0.814008
      8          8           0        3.939137    0.017171   -0.095567
      9          6           0        3.454701   -1.101799    0.653813
     10          1           0        0.887644    1.702371    0.900590
     11          1           0        2.420163    1.653010    0.010916
     12          1           0        0.878122    1.714391   -0.861029
     13          1           0        0.213920   -0.474609    0.018331
     14          1           0        1.788990   -0.815829    2.140704
     15          1           0        2.130454   -3.287493    0.978509
     16          1           0        0.462351   -2.666616    1.030775
     17          1           0        1.602426   -0.855686   -2.150472
     18          1           0        4.097431   -1.650385   -1.445512
     19          1           0        4.199818   -1.646352    1.226917
 ---------------------------------------------------------------------
                    Distance matrix (angstroms):
                    1          2          3          4          5
     1  C    0.000000
     2  C    1.527853   0.000000
     3  C    2.676318   1.554820   0.000000
     4  C    3.824215   2.346115   1.550503   0.000000
     5  O    3.786122   2.322373   2.366172   1.447250   0.000000
     6  C    2.678116   1.544240   2.226596   2.309668   1.446616
     7  C    3.243165   2.442022   2.381315   2.786228   2.342718
     8  O    2.854525   2.671629   2.533516   3.579950   3.533937
     9  C    3.230597   2.433048   1.532695   2.404760   2.784520
    10  H    1.095839   2.158765   2.991099   4.217713   4.470543
    11  H    1.086887   2.195077   2.965679   4.277021   4.241245
    12  H    1.096050   2.160388   3.583250   4.490049   4.154791
    13  H    2.130722   1.095724   2.162301   2.444429   2.426600
    14  H    3.026435   2.272760   1.090309   2.239400   3.343039
    15  H    4.746366   3.325588   2.223756   1.096638   2.086421
    16  H    4.199765   2.773096   2.208721   1.096511   2.085700
    17  H    3.062939   2.270795   3.280238   3.243290   2.066802
    18  H    4.261570   3.475963   3.355679   3.461390   2.825586
    19  H    4.247430   3.469807   2.288197   2.901243   3.485642
                    6          7          8          9         10
     6  C    0.000000
     7  C    1.532791   0.000000
     8  O    2.524968   1.433738   0.000000
     9  C    2.359672   1.468651   1.431203   0.000000
    10  H    3.579448   4.141027   3.625444   3.809732   0.000000
    11  H    2.993160   3.040726   2.234858   3.012069   1.772730
    12  H    2.977333   3.784981   3.582779   4.106633   1.761686
    13  H    2.125786   3.357485   3.759264   3.361528   2.443671
    14  H    3.277686   3.380137   3.212153   2.251048   2.948159
    15  H    3.066550   3.100161   3.917368   2.576105   5.142897
    16  H    3.047223   3.809161   4.534247   3.397780   4.391568
    17  H    1.089767   2.257821   3.231831   3.369794   4.045188
    18  H    2.291122   1.085146   2.151313   2.263010   5.200760
    19  H    3.336768   2.256530   2.141080   1.086363   4.721328
                   11         12         13         14         15
    11  H    0.000000
    12  H    1.772554   0.000000
    13  H    3.065017   2.450746   0.000000
    14  H    3.321076   4.030149   2.664910   0.000000
    15  H    5.042692   5.474584   3.536575   2.752529   0.000000
    16  H    4.851011   4.790095   2.427274   2.533244   1.780670
    17  H    3.410843   2.965227   2.603243   4.295415   3.997877
    18  H    3.980808   4.693323   4.313577   4.345840   3.524911
    19  H    3.941018   5.166021   4.326783   2.708665   2.652795
                   16         17         18         19
    16  H    0.000000
    17  H    3.834002   0.000000
    18  H    4.514258   2.711746   0.000000
    19  H    3.879184   4.333400   2.674393   0.000000
 Stoichiometry    C7H10O2
 Framework group  C1[X(C7H10O2)]
 Deg. of freedom    51
 Full point group                 C1      NOp   1
 Largest Abelian subgroup         C1      NOp   1
 Largest concise Abelian subgroup C1      NOp   1
                         Standard orientation:                         
 ---------------------------------------------------------------------
 Center     Atomic      Atomic             Coordinates (Angstroms)
 Number     Number       Type             X           Y           Z
 ---------------------------------------------------------------------
      1          6           0        1.984675   -1.227922   -0.025729
      2          6           0        0.467382   -1.050979    0.003393
      3          6           0       -0.255213   -0.250357   -1.116574
      4          6           0       -1.713448   -0.470408   -0.637836
      5          8           0       -1.622336   -0.432726    0.806052
      6          6           0       -0.223403   -0.224111    1.109640
      7          6           0        0.016564    1.239151    0.721404
      8          8           0        1.202329    1.517284   -0.035040
      9          6           0       -0.001996    1.215386   -0.746938
     10          1           0        2.267315   -1.841445   -0.888612
     11          1           0        2.522878   -0.285157   -0.079151
     12          1           0        2.311965   -1.766654    0.870918
     13          1           0        0.020524   -2.050386    0.049364
     14          1           0       -0.061814   -0.545270   -2.148270
     15          1           0       -2.402707    0.310733   -0.980410
     16          1           0       -2.105839   -1.444792   -0.952382
     17          1           0       -0.051500   -0.510371    2.146991
     18          1           0       -0.379355    2.051841    1.321674
     19          1           0       -0.408777    2.020472   -1.352373
 ---------------------------------------------------------------------
 Rotational constants (GHZ):      2.4545338      1.9817402      1.6163257
 Standard basis: 6-31G(2df,p) (6D, 7F)
 There are   329 symmetry adapted cartesian basis functions of A   symmetry.
 There are   302 symmetry adapted basis functions of A   symmetry.
   302 basis functions,   466 primitive gaussians,   329 cartesian basis functions
    34 alpha electrons       34 beta electrons
       nuclear repulsion energy       493.5748340635 Hartrees.
 NAtoms=   19 NActive=   19 NUniq=   19 SFac= 1.00D+00 NAtFMM=   60 NAOKFM=F Big=F
 Integral buffers will be    131072 words long.
 Raffenetti 2 integral format.
 Two-electron integral symmetry is turned on.
 One-electron integrals computed using PRISM.
 NBasis=   302 RedAO= T EigKep=  3.30D-04  NBF=   302
 NBsUse=   302 1.00D-06 EigRej= -1.00D+00 NBFU=   302
 ExpMin= 1.61D-01 ExpMax= 5.48D+03 ExpMxC= 8.25D+02 IAcc=1 IRadAn=         1 AccDes= 0.00D+00
 Harris functional with IExCor=  402 and IRadAn=       1 diagonalized for initial guess.
 HarFok:  IExCor=  402 AccDes= 0.00D+00 IRadAn=         1 IDoV= 1 UseB2=F ITyADJ=14
 ICtDFT=  3500011 ScaDFX=  1.000000  1.000000  1.000000  1.000000
 FoFCou: FMM=F IPFlag=           0 FMFlag=      100000 FMFlg1=           0
         NFxFlg=           0 DoJE=T BraDBF=F KetDBF=T FulRan=T
         wScrn=  0.000000 ICntrl=     500 IOpCl=  0 I1Cent=   200000004 NGrid=           0
         NMat0=    1 NMatS0=      1 NMatT0=    0 NMatD0=    1 NMtDS0=    0 NMtDT0=    0
 Petite list used in FoFCou.
 Requested convergence on RMS density matrix=1.00D-08 within 128 cycles.
 Requested convergence on MAX density matrix=1.00D-06.
 Requested convergence on             energy=1.00D-06.
 No special actions if energy rises.
 Integral accuracy reduced to 1.0D-05 until final iterations.
 Initial convergence to 1.0D-05 achieved.  Increase integral accuracy.
 SCF Done:  E(RB3LYP) =  -423.164908252     A.U. after   14 cycles
            NFock= 14  Conv=0.31D-08     -V/T= 2.0074

 **********************************************************************

            Population analysis using the SCF density.

 **********************************************************************

 Orbital symmetries:
       Occupied  (A) (A) (A) (A) (A) (A) (A) (A) (A) (A) (A) (A)
                 (A) (A) (A) (A) (A) (A) (A) (A) (A) (A) (A) (A)
                 (A) (A) (A) (A) (A) (A) (A) (A) (A) (A)
       Virtual   (A) (A) (A) (A) (A) (A) (A) (A) (A) (A) (A) (A)
                 (A) (A) (A) (A) (A) (A) (A) (A) (A) (A) (A) (A)
                 (A) (A) (A) (A) (A) (A) (A) (A) (A) (A) (A) (A)
                 (A) (A) (A) (A) (A) (A) (A) (A) (A) (A) (A) (A)
                 (A) (A) (A) (A) (A) (A) (A) (A) (A) (A) (A) (A)
                 (A) (A) (A) (A) (A) (A) (A) (A) (A) (A) (A) (A)
                 (A) (A) (A) (A) (A) (A) (A) (A) (A) (A) (A) (A)
                 (A) (A) (A) (A) (A) (A) (A) (A) (A) (A) (A) (A)
                 (A) (A) (A) (A) (A) (A) (A) (A) (A) (A) (A) (A)
                 (A) (A) (A) (A) (A) (A) (A) (A) (A) (A) (A) (A)
                 (A) (A) (A) (A) (A) (A) (A) (A) (A) (A) (A) (A)
                 (A) (A) (A) (A) (A) (A) (A) (A) (A) (A) (A) (A)
                 (A) (A) (A) (A) (A) (A) (A) (A) (A) (A) (A) (A)
                 (A) (A) (A) (A) (A) (A) (A) (A) (A) (A) (A) (A)
                 (A) (A) (A) (A) (A) (A) (A) (A) (A) (A) (A) (A)
                 (A) (A) (A) (A) (A) (A) (A) (A) (A) (A) (A) (A)
                 (A) (A) (A) (A) (A) (A) (A) (A) (A) (A) (A) (A)
                 (A) (A) (A) (A) (A) (A) (A) (A) (A) (A) (A) (A)
                 (A) (A) (A) (A) (A) (A) (A) (A) (A) (A) (A) (A)
                 (A) (A) (A) (A) (A) (A) (A) (A) (A) (A) (A) (A)
                 (A) (A) (A) (A) (A) (A) (A) (A) (A) (A) (A) (A)
                 (A) (A) (A) (A) (A) (A) (A) (A) (A) (A) (A) (A)
                 (A) (A) (A) (A)
 The electronic state is 1-A.
 Alpha  occ. eigenvalues --  -19.15447 -19.13747 -10.23734 -10.23529 -10.23304
 Alpha  occ. eigenvalues --  -10.23158 -10.19975 -10.19273 -10.16934  -1.07926
 Alpha  occ. eigenvalues --   -1.02961  -0.81397  -0.75185  -0.71845  -0.64702
 Alpha  occ. eigenvalues --   -0.63347  -0.56615  -0.55483  -0.54119  -0.47794
 Alpha  occ. eigenvalues --   -0.47335  -0.44343  -0.42977  -0.40438  -0.39500
 Alpha  occ. eigenvalues --   -0.38999  -0.38454  -0.35445  -0.34802  -0.33878
 Alpha  occ. eigenvalues --   -0.30585  -0.29873  -0.26279  -0.24507
 Alpha virt. eigenvalues --    0.07840   0.09552   0.10171   0.12711   0.13558
 Alpha virt. eigenvalues --    0.14132   0.14491   0.15549   0.15722   0.15802
 Alpha virt. eigenvalues --    0.17331   0.18265   0.19685   0.20217   0.21975
 Alpha virt. eigenvalues --    0.22756   0.24235   0.25569   0.29079   0.30906
 Alpha virt. eigenvalues --    0.31838   0.41620   0.43355   0.43657   0.45934
 Alpha virt. eigenvalues --    0.48365   0.49354   0.50990   0.51125   0.52132
 Alpha virt. eigenvalues --    0.53684   0.54840   0.55321   0.57419   0.59172
 Alpha virt. eigenvalues --    0.61600   0.64757   0.65682   0.67019   0.69711
 Alpha virt. eigenvalues --    0.71537   0.72856   0.73041   0.74938   0.75376
 Alpha virt. eigenvalues --    0.75978   0.77415   0.77676   0.80116   0.81361
 Alpha virt. eigenvalues --    0.82047   0.83771   0.85780   0.87821   0.90939
 Alpha virt. eigenvalues --    0.91111   0.94073   0.95645   0.97392   0.97548
 Alpha virt. eigenvalues --    1.02335   1.04514   1.07927   1.13544   1.14155
 Alpha virt. eigenvalues --    1.15900   1.18257   1.20275   1.23122   1.24877
 Alpha virt. eigenvalues --    1.28635   1.30483   1.31250   1.34778   1.35484
 Alpha virt. eigenvalues --    1.37199   1.38484   1.39660   1.41804   1.44551
 Alpha virt. eigenvalues --    1.45576   1.46262   1.46811   1.47942   1.50560
 Alpha virt. eigenvalues --    1.51589   1.54127   1.55002   1.56757   1.60723
 Alpha virt. eigenvalues --    1.61831   1.63065   1.63905   1.68553   1.69519
 Alpha virt. eigenvalues --    1.72202   1.73332   1.75991   1.77544   1.81719
 Alpha virt. eigenvalues --    1.82232   1.85285   1.89241   1.90993   1.94811
 Alpha virt. eigenvalues --    1.96719   1.97064   1.99138   2.04606   2.12094
 Alpha virt. eigenvalues --    2.13985   2.15457   2.20417   2.25183   2.31504
 Alpha virt. eigenvalues --    2.31868   2.36162   2.39116   2.40068   2.42899
 Alpha virt. eigenvalues --    2.44435   2.47830   2.52983   2.55707   2.62115
 Alpha virt. eigenvalues --    2.64971   2.66448   2.70249   2.74915   2.77226
 Alpha virt. eigenvalues --    2.78559   2.79468   2.81507   2.83021   2.84915
 Alpha virt. eigenvalues --    2.87249   2.90150   2.91303   2.93063   2.93827
 Alpha virt. eigenvalues --    2.97226   3.00678   3.01790   3.03530   3.06742
 Alpha virt. eigenvalues --    3.07440   3.09385   3.11532   3.13313   3.14208
 Alpha virt. eigenvalues --    3.17349   3.19050   3.20967   3.26826   3.29940
 Alpha virt. eigenvalues --    3.32452   3.33960   3.36873   3.38403   3.39440
 Alpha virt. eigenvalues --    3.42324   3.43372   3.45415   3.47437   3.49115
 Alpha virt. eigenvalues --    3.52678   3.56608   3.58686   3.61012   3.62534
 Alpha virt. eigenvalues --    3.67894   3.72212   3.72780   3.78415   3.78781
 Alpha virt. eigenvalues --    3.87673   3.90651   3.93132   3.95364   3.96843
 Alpha virt. eigenvalues --    4.08298   4.11658   4.14384   4.18337   4.21431
 Alpha virt. eigenvalues --    4.22634   4.27304   4.30027   4.31873   4.32506
 Alpha virt. eigenvalues --    4.35491   4.36349   4.39564   4.41581   4.41993
 Alpha virt. eigenvalues --    4.44062   4.46888   4.48868   4.50979   4.52637
 Alpha virt. eigenvalues --    4.53567   4.55203   4.55592   4.56722   4.57830
 Alpha virt. eigenvalues --    4.61632   4.63422   4.66423   4.67968   4.68139
 Alpha virt. eigenvalues --    4.70589   4.73833   4.75374   4.75586   4.79018
 Alpha virt. eigenvalues --    4.81974   4.82254   4.84251   4.85034   4.88905
 Alpha virt. eigenvalues --    4.90244   4.91785   4.94033   4.99133   5.00089
 Alpha virt. eigenvalues --    5.00535   5.05392   5.08549   5.12330   5.14700
 Alpha virt. eigenvalues --    5.19560   5.25547   5.28218   5.31877   5.34064
 Alpha virt. eigenvalues --    5.37900   5.40631   5.44108   5.46597   5.50323
 Alpha virt. eigenvalues --    5.57162   5.62078   5.69834   5.77546   5.79678
 Alpha virt. eigenvalues --    5.81597   5.88201   5.95709   5.97801   6.03363
 Alpha virt. eigenvalues --    6.07220   6.07982   6.10151   6.17655   6.25741
 Alpha virt. eigenvalues --    6.62907   6.90971   7.17249   7.64935  10.93926
 Alpha virt. eigenvalues --   11.49626  11.52373  11.83093  12.10380  12.62331
 Alpha virt. eigenvalues --   12.77588  13.37827  13.76128
          Condensed to atoms (all electrons):
               1          2          3          4          5          6
     1  C    5.080719   0.385015  -0.030165   0.002846   0.002462  -0.028460
     2  C    0.385015   4.745891   0.359155  -0.022943  -0.040359   0.337227
     3  C   -0.030165   0.359155   4.980933   0.344794  -0.040102   0.002477
     4  C    0.002846  -0.022943   0.344794   4.822106   0.359704  -0.103204
     5  O    0.002462  -0.040359  -0.040102   0.359704   7.770782   0.354063
     6  C   -0.028460   0.337227   0.002477  -0.103204   0.354063   4.839649
     7  C    0.000065  -0.008562  -0.028928  -0.017683  -0.033178   0.318409
     8  O   -0.010355  -0.008853  -0.029703   0.001922   0.001941  -0.023746
     9  C   -0.002399  -0.023610   0.358796  -0.002936  -0.014227  -0.020451
    10  H    0.363265  -0.020293  -0.002586  -0.000050  -0.000061   0.002916
    11  H    0.367885  -0.016444  -0.005023   0.000174  -0.000023  -0.004404
    12  H    0.365506  -0.023303   0.003507  -0.000114   0.000035  -0.002652
    13  H   -0.048106   0.370127  -0.042322  -0.000777  -0.001251  -0.035447
    14  H   -0.000784  -0.039912   0.368375  -0.034727   0.002265   0.004680
    15  H   -0.000116   0.002883  -0.030526   0.363908  -0.027738   0.005701
    16  H   -0.000093  -0.003554  -0.022254   0.360169  -0.028171   0.001576
    17  H   -0.000077  -0.046994   0.004453   0.007485  -0.025261   0.378490
    18  H   -0.000075   0.004931   0.001207   0.000309   0.002207  -0.060372
    19  H   -0.000063   0.004768  -0.065526  -0.000562   0.000336   0.000188
               7          8          9         10         11         12
     1  C    0.000065  -0.010355  -0.002399   0.363265   0.367885   0.365506
     2  C   -0.008562  -0.008853  -0.023610  -0.020293  -0.016444  -0.023303
     3  C   -0.028928  -0.029703   0.358796  -0.002586  -0.005023   0.003507
     4  C   -0.017683   0.001922  -0.002936  -0.000050   0.000174  -0.000114
     5  O   -0.033178   0.001941  -0.014227  -0.000061  -0.000023   0.000035
     6  C    0.318409  -0.023746  -0.020451   0.002916  -0.004404  -0.002652
     7  C    4.870504   0.254677   0.288787   0.000151  -0.000189  -0.000334
     8  O    0.254677   7.800136   0.294264   0.000744   0.019336   0.000667
     9  C    0.288787   0.294264   4.748032  -0.000233  -0.000136   0.000268
    10  H    0.000151   0.000744  -0.000233   0.607873  -0.028100  -0.031301
    11  H   -0.000189   0.019336  -0.000136  -0.028100   0.536154  -0.028277
    12  H   -0.000334   0.000667   0.000268  -0.031301  -0.028277   0.606491
    13  H    0.004631  -0.000011   0.003375  -0.004349   0.005261  -0.003451
    14  H    0.006901   0.000412  -0.039981   0.001923   0.000243  -0.000064
    15  H    0.000648   0.000010  -0.006929  -0.000003   0.000004   0.000004
    16  H    0.000267  -0.000043   0.002696   0.000024   0.000006  -0.000004
    17  H   -0.055945   0.001484   0.006995  -0.000105   0.000073   0.001941
    18  H    0.385169  -0.022598  -0.030566   0.000008   0.000003   0.000009
    19  H   -0.028933  -0.022728   0.383234   0.000012  -0.000008   0.000008
              13         14         15         16         17         18
     1  C   -0.048106  -0.000784  -0.000116  -0.000093  -0.000077  -0.000075
     2  C    0.370127  -0.039912   0.002883  -0.003554  -0.046994   0.004931
     3  C   -0.042322   0.368375  -0.030526  -0.022254   0.004453   0.001207
     4  C   -0.000777  -0.034727   0.363908   0.360169   0.007485   0.000309
     5  O   -0.001251   0.002265  -0.027738  -0.028171  -0.025261   0.002207
     6  C   -0.035447   0.004680   0.005701   0.001576   0.378490  -0.060372
     7  C    0.004631   0.006901   0.000648   0.000267  -0.055945   0.385169
     8  O   -0.000011   0.000412   0.000010  -0.000043   0.001484  -0.022598
     9  C    0.003375  -0.039981  -0.006929   0.002696   0.006995  -0.030566
    10  H   -0.004349   0.001923  -0.000003   0.000024  -0.000105   0.000008
    11  H    0.005261   0.000243   0.000004   0.000006   0.000073   0.000003
    12  H   -0.003451  -0.000064   0.000004  -0.000004   0.001941   0.000009
    13  H    0.669129  -0.000589   0.000260   0.000856  -0.002063  -0.000156
    14  H   -0.000589   0.659470   0.002145  -0.000237  -0.000187  -0.000071
    15  H    0.000260   0.002145   0.641489  -0.055254  -0.000176  -0.000104
    16  H    0.000856  -0.000237  -0.055254   0.641089  -0.000031   0.000012
    17  H   -0.002063  -0.000187  -0.000176  -0.000031   0.657331  -0.001965
    18  H   -0.000156  -0.000071  -0.000104   0.000012  -0.001965   0.617719
    19  H   -0.000147  -0.001581   0.003191  -0.000268  -0.000075  -0.001705
              19
     1  C   -0.000063
     2  C    0.004768
     3  C   -0.065526
     4  C   -0.000562
     5  O    0.000336
     6  C    0.000188
     7  C   -0.028933
     8  O   -0.022728
     9  C    0.383234
    10  H    0.000012
    11  H   -0.000008
    12  H    0.000008
    13  H   -0.000147
    14  H   -0.001581
    15  H    0.003191
    16  H   -0.000268
    17  H   -0.000075
    18  H   -0.001705
    19  H    0.627502
 Mulliken charges:
               1
     1  C   -0.447068
     2  C    0.044829
     3  C   -0.126562
     4  C   -0.080424
     5  O   -0.283424
     6  C    0.033360
     7  C    0.043542
     8  O   -0.257557
     9  C    0.055021
    10  H    0.110166
    11  H    0.153465
    12  H    0.111065
    13  H    0.085030
    14  H    0.071717
    15  H    0.100604
    16  H    0.103213
    17  H    0.074628
    18  H    0.106037
    19  H    0.102356
 Sum of Mulliken charges =   0.00000
 Mulliken charges with hydrogens summed into heavy atoms:
               1
     1  C   -0.072372
     2  C    0.129859
     3  C   -0.054845
     4  C    0.123394
     5  O   -0.283424
     6  C    0.107988
     7  C    0.149579
     8  O   -0.257557
     9  C    0.157377
 Electronic spatial extent (au):  <R**2>=            926.4422
 Charge=              0.0000 electrons
 Dipole moment (field-independent basis, Debye):
    X=             -0.5076    Y=             -0.4549    Z=             -0.9812  Tot=              1.1948
 Quadrupole moment (field-independent basis, Debye-Ang):
   XX=            -57.8645   YY=            -52.5480   ZZ=            -50.3197
   XY=             -3.5423   XZ=              3.2901   YZ=              0.7713
 Traceless Quadrupole moment (field-independent basis, Debye-Ang):
   XX=             -4.2871   YY=              1.0294   ZZ=              3.2577
   XY=             -3.5423   XZ=              3.2901   YZ=              0.7713
 Octapole moment (field-independent basis, Debye-Ang**2):
  XXX=             -1.9079  YYY=              3.9597  ZZZ=              4.2851  XYY=             -6.5822
  XXY=             -0.9653  XXZ=             -5.4616  XZZ=              1.2323  YZZ=              3.4464
  YYZ=              0.5434  XYZ=             -1.5190
 Hexadecapole moment (field-independent basis, Debye-Ang**3):
 XXXX=           -536.2424 YYYY=           -400.8730 ZZZZ=           -248.4767 XXXY=              6.6309
 XXXZ=              8.0398 YYYX=              0.9040 YYYZ=              0.2696 ZZZX=             -3.9215
 ZZZY=             -1.6869 XXYY=           -161.0892 XXZZ=           -134.4743 YYZZ=           -103.2594
 XXYZ=              2.2160 YYXZ=              0.4512 ZZXY=             -0.0378
 N-N= 4.935748340635D+02 E-N=-1.973881915992D+03  KE= 4.200498541957D+02
 Calling FoFJK, ICntrl=      2127 FMM=F ISym2X=0 I1Cent= 0 IOpClX= 0 NMat=1 NMatS=1 NMatT=0.
 ***** Axes restored to original set *****
 -------------------------------------------------------------------
 Center     Atomic                   Forces (Hartrees/Bohr)
 Number     Number              X              Y              Z
 -------------------------------------------------------------------
      1        6           0.000005467    0.000001463    0.000000345
      2        6           0.000004231   -0.000007650   -0.000003694
      3        6          -0.000035828    0.000004723    0.000012587
      4        6           0.000011839    0.000037848    0.000027838
      5        8          -0.000003984    0.000004332   -0.000015374
      6        6          -0.000057666   -0.000033874    0.000012562
      7        6           0.000102257    0.000058862    0.000083270
      8        8          -0.000039870   -0.000069129   -0.000016441
      9        6           0.000071390    0.000039146   -0.000073714
     10        1           0.000004692    0.000001479    0.000003959
     11        1           0.000010048   -0.000004697   -0.000002535
     12        1          -0.000001340    0.000003507    0.000005045
     13        1          -0.000017783    0.000002911    0.000005801
     14        1           0.000016044    0.000005974   -0.000005636
     15        1          -0.000002146   -0.000012722   -0.000009483
     16        1          -0.000006230   -0.000009628   -0.000010225
     17        1          -0.000000366    0.000000691    0.000004595
     18        1          -0.000041265   -0.000016080   -0.000033901
     19        1          -0.000019489   -0.000007156    0.000015001
 -------------------------------------------------------------------
 Cartesian Forces:  Max     0.000102257 RMS     0.000030655

 GradGradGradGradGradGradGradGradGradGradGradGradGradGradGradGradGradGrad
 Berny optimization.
 FormGI is forming the generalized inverse of G from B-inverse, IUseBI=4.
 Internal  Forces:  Max     0.000045804 RMS     0.000011103
 Search for a local minimum.
 Step number   1 out of a maximum of  114
 All quantities printed in internal units (Hartrees-Bohrs-Radians)
 Mixed Optimization -- En-DIIS/RFO-DIIS
 Second derivative matrix not updated -- first step.
 ITU=  0
     Eigenvalues ---    0.00398   0.00810   0.01427   0.01587   0.01960
     Eigenvalues ---    0.02241   0.02958   0.03461   0.03628   0.03992
     Eigenvalues ---    0.04607   0.04998   0.05337   0.05653   0.05798
     Eigenvalues ---    0.06544   0.07259   0.08976   0.09452   0.10058
     Eigenvalues ---    0.10631   0.11068   0.12083   0.12650   0.13392
     Eigenvalues ---    0.16000   0.16000   0.16000   0.16224   0.21024
     Eigenvalues ---    0.22041   0.22531   0.23515   0.24360   0.26736
     Eigenvalues ---    0.29110   0.29136   0.29623   0.34057   0.34071
     Eigenvalues ---    0.34123   0.34146   0.34159   0.34777   0.34840
     Eigenvalues ---    0.35175   0.35236   0.35287   0.35380   0.36844
     Eigenvalues ---    0.38922
 RFO step:  Lambda=-8.81597266D-08 EMin= 3.97504304D-03
 Linear search not attempted -- first point.
 Iteration  1 RMS(Cart)=  0.00010487 RMS(Int)=  0.00000001
 Iteration  2 RMS(Cart)=  0.00000001 RMS(Int)=  0.00000000
 Variable       Old X    -DE/DX   Delta X   Delta X   Delta X     New X
                                 (Linear)    (Quad)   (Total)
    R1        2.88722   0.00000   0.00000  -0.00001  -0.00001   2.88722
    R2        2.07084   0.00000   0.00000   0.00001   0.00001   2.07084
    R3        2.05392   0.00000   0.00000   0.00001   0.00001   2.05393
    R4        2.07123   0.00000   0.00000   0.00000   0.00000   2.07123
    R5        2.93818  -0.00001   0.00000  -0.00004  -0.00004   2.93814
    R6        2.91819  -0.00001   0.00000  -0.00002  -0.00002   2.91817
    R7        2.07062   0.00002   0.00000   0.00005   0.00005   2.07067
    R8        2.93003   0.00000   0.00000   0.00002   0.00002   2.93005
    R9        2.89637   0.00004   0.00000   0.00013   0.00013   2.89651
   R10        2.06038  -0.00001   0.00000  -0.00002  -0.00002   2.06036
   R11        2.73491   0.00000   0.00000   0.00000   0.00000   2.73491
   R12        2.07234   0.00001   0.00000   0.00002   0.00002   2.07236
   R13        2.07211   0.00000   0.00000   0.00001   0.00001   2.07211
   R14        2.73371  -0.00002   0.00000  -0.00007  -0.00007   2.73364
   R15        2.89655   0.00005   0.00000   0.00015   0.00015   2.89670
   R16        2.05936   0.00000   0.00000  -0.00001  -0.00001   2.05935
   R17        2.70937  -0.00005   0.00000  -0.00013  -0.00013   2.70924
   R18        2.77535  -0.00002   0.00000  -0.00006  -0.00006   2.77528
   R19        2.05063   0.00000   0.00000   0.00000   0.00000   2.05063
   R20        2.70458  -0.00004   0.00000  -0.00007  -0.00007   2.70451
   R21        2.05293   0.00000   0.00000   0.00000   0.00000   2.05292
    A1        1.91345   0.00000   0.00000  -0.00002  -0.00002   1.91343
    A2        1.97386  -0.00001   0.00000  -0.00005  -0.00005   1.97381
    A3        1.91546   0.00001   0.00000   0.00004   0.00004   1.91550
    A4        1.89569   0.00000   0.00000   0.00001   0.00001   1.89570
    A5        1.86707   0.00000   0.00000  -0.00001  -0.00001   1.86706
    A6        1.89514   0.00000   0.00000   0.00003   0.00003   1.89517
    A7        2.10301  -0.00001   0.00000  -0.00010  -0.00010   2.10290
    A8        2.11753   0.00000   0.00000  -0.00001  -0.00001   2.11752
    A9        1.87567   0.00000   0.00000   0.00004   0.00004   1.87570
   A10        1.60320   0.00000   0.00000  -0.00004  -0.00004   1.60317
   A11        1.88636   0.00001   0.00000   0.00006   0.00006   1.88642
   A12        1.85032   0.00000   0.00000   0.00007   0.00007   1.85039
   A13        1.71288  -0.00001   0.00000  -0.00001  -0.00001   1.71287
   A14        1.81516   0.00001   0.00000   0.00003   0.00003   1.81519
   A15        2.04865   0.00000   0.00000  -0.00001  -0.00001   2.04864
   A16        1.78917   0.00000   0.00000   0.00000   0.00000   1.78917
   A17        2.00490   0.00001   0.00000   0.00007   0.00007   2.00498
   A18        2.04605   0.00000   0.00000  -0.00008  -0.00008   2.04598
   A19        1.81846   0.00000   0.00000   0.00003   0.00003   1.81849
   A20        1.97531   0.00001   0.00000   0.00011   0.00011   1.97542
   A21        1.95422   0.00002   0.00000   0.00015   0.00015   1.95437
   A22        1.90994  -0.00001   0.00000  -0.00012  -0.00012   1.90982
   A23        1.90907  -0.00001   0.00000  -0.00017  -0.00017   1.90890
   A24        1.89488  -0.00001   0.00000  -0.00002  -0.00002   1.89486
   A25        1.84835  -0.00001   0.00000  -0.00007  -0.00007   1.84828
   A26        1.77729   0.00001   0.00000   0.00007   0.00007   1.77736
   A27        1.83349   0.00000   0.00000   0.00003   0.00003   1.83352
   A28        2.06088   0.00000   0.00000  -0.00001  -0.00001   2.06086
   A29        1.80895   0.00000   0.00000   0.00001   0.00001   1.80896
   A30        1.89065   0.00000   0.00000   0.00001   0.00001   1.89066
   A31        2.05689   0.00000   0.00000  -0.00008  -0.00008   2.05681
   A32        2.03566   0.00001   0.00000   0.00003   0.00003   2.03569
   A33        1.80885   0.00000   0.00000  -0.00001  -0.00001   1.80883
   A34        2.11498  -0.00003   0.00000  -0.00025  -0.00025   2.11473
   A35        2.03568   0.00002   0.00000   0.00020   0.00020   2.03588
   A36        2.16586   0.00003   0.00000   0.00020   0.00020   2.16606
   A37        1.83245   0.00000   0.00000  -0.00003  -0.00003   1.83242
   A38        2.04959   0.00000   0.00000   0.00006   0.00006   2.04964
   A39        2.10883  -0.00002   0.00000  -0.00017  -0.00017   2.10866
   A40        2.15307   0.00002   0.00000   0.00016   0.00016   2.15323
   A41        2.02191   0.00002   0.00000   0.00012   0.00012   2.02203
    D1       -1.15270   0.00000   0.00000   0.00009   0.00009  -1.15261
    D2       -3.13767   0.00000   0.00000   0.00025   0.00025  -3.13742
    D3        1.01598   0.00000   0.00000   0.00013   0.00013   1.01611
    D4        0.96559   0.00000   0.00000   0.00006   0.00006   0.96564
    D5       -1.01938   0.00000   0.00000   0.00022   0.00022  -1.01916
    D6        3.13426   0.00000   0.00000   0.00010   0.00010   3.13437
    D7        3.08461   0.00000   0.00000   0.00009   0.00009   3.08470
    D8        1.09964   0.00000   0.00000   0.00025   0.00025   1.09989
    D9       -1.02990   0.00000   0.00000   0.00013   0.00013  -1.02977
   D10        3.08389   0.00000   0.00000   0.00013   0.00013   3.08402
   D11       -1.36422   0.00000   0.00000   0.00013   0.00013  -1.36409
   D12        0.92766   0.00000   0.00000   0.00005   0.00005   0.92770
   D13       -0.95623   0.00000   0.00000   0.00003   0.00003  -0.95620
   D14        0.87884   0.00000   0.00000   0.00004   0.00004   0.87888
   D15       -3.11246   0.00000   0.00000  -0.00005  -0.00005  -3.11251
   D16        0.92027   0.00000   0.00000   0.00010   0.00010   0.92037
   D17        2.75534   0.00000   0.00000   0.00011   0.00011   2.75545
   D18       -1.23596   0.00000   0.00000   0.00002   0.00002  -1.23594
   D19       -3.05657   0.00000   0.00000  -0.00012  -0.00012  -3.05669
   D20        1.34491  -0.00001   0.00000  -0.00017  -0.00017   1.34475
   D21       -0.98982   0.00000   0.00000  -0.00007  -0.00007  -0.98989
   D22        0.99461   0.00001   0.00000   0.00004   0.00004   0.99465
   D23       -0.88710   0.00000   0.00000   0.00000   0.00000  -0.88710
   D24        3.06135   0.00001   0.00000   0.00010   0.00010   3.06145
   D25       -0.91500   0.00000   0.00000  -0.00002  -0.00002  -0.91502
   D26       -2.79670   0.00000   0.00000  -0.00006  -0.00006  -2.79676
   D27        1.15175   0.00000   0.00000   0.00003   0.00003   1.15179
   D28        0.64101   0.00000   0.00000   0.00000   0.00000   0.64101
   D29        2.71421   0.00000   0.00000  -0.00007  -0.00007   2.71414
   D30       -1.42034   0.00001   0.00000   0.00011   0.00011  -1.42022
   D31       -1.21576   0.00000   0.00000  -0.00003  -0.00003  -1.21579
   D32        0.85744  -0.00001   0.00000  -0.00010  -0.00010   0.85734
   D33        3.00608   0.00000   0.00000   0.00008   0.00008   3.00617
   D34        2.82853   0.00000   0.00000   0.00002   0.00002   2.82856
   D35       -1.38145   0.00000   0.00000  -0.00005  -0.00005  -1.38150
   D36        0.76719   0.00001   0.00000   0.00013   0.00013   0.76732
   D37       -0.58716   0.00000   0.00000  -0.00006  -0.00006  -0.58722
   D38        0.50853   0.00000   0.00000  -0.00011  -0.00011   0.50842
   D39       -3.12423   0.00000   0.00000  -0.00006  -0.00006  -3.12429
   D40        1.18992   0.00000   0.00000  -0.00006  -0.00006   1.18986
   D41        2.28560  -0.00001   0.00000  -0.00010  -0.00010   2.28550
   D42       -1.34716  -0.00001   0.00000  -0.00006  -0.00006  -1.34722
   D43       -2.88056   0.00000   0.00000  -0.00001  -0.00001  -2.88058
   D44       -1.78488   0.00000   0.00000  -0.00006  -0.00006  -1.78493
   D45        0.86555   0.00000   0.00000  -0.00002  -0.00002   0.86553
   D46       -0.01056   0.00000   0.00000   0.00001   0.00001  -0.01055
   D47       -2.12784  -0.00001   0.00000  -0.00008  -0.00008  -2.12792
   D48        2.08154   0.00001   0.00000   0.00012   0.00012   2.08166
   D49       -0.63705   0.00000   0.00000  -0.00003  -0.00003  -0.63707
   D50        1.26358   0.00000   0.00000   0.00003   0.00003   1.26361
   D51       -2.82167   0.00000   0.00000  -0.00005  -0.00005  -2.82172
   D52       -0.49289   0.00000   0.00000  -0.00003  -0.00003  -0.49292
   D53        0.58873   0.00000   0.00000  -0.00002  -0.00002   0.58871
   D54        3.12278   0.00001   0.00000  -0.00002  -0.00002   3.12276
   D55       -2.35140  -0.00001   0.00000  -0.00012  -0.00012  -2.35152
   D56       -1.26978  -0.00001   0.00000  -0.00012  -0.00012  -1.26989
   D57        1.26427   0.00000   0.00000  -0.00011  -0.00011   1.26416
   D58        1.84405   0.00000   0.00000  -0.00009  -0.00009   1.84396
   D59        2.92567   0.00000   0.00000  -0.00009  -0.00009   2.92559
   D60       -0.82346   0.00000   0.00000  -0.00008  -0.00008  -0.82354
   D61        0.00353   0.00000   0.00000   0.00005   0.00005   0.00358
   D62        2.52103  -0.00002   0.00000  -0.00010  -0.00010   2.52093
   D63       -2.50730   0.00002   0.00000   0.00025   0.00025  -2.50704
   D64        0.01020   0.00001   0.00000   0.00010   0.00010   0.01031
         Item               Value     Threshold  Converged?
 Maximum Force            0.000046     0.000450     YES
 RMS     Force            0.000011     0.000300     YES
 Maximum Displacement     0.000398     0.001800     YES
 RMS     Displacement     0.000105     0.001200     YES
 Predicted change in Energy=-4.408077D-08
 Optimization completed.
    -- Stationary point found.
                           ----------------------------
                           !   Optimized Parameters   !
                           ! (Angstroms and Degrees)  !
 --------------------------                            --------------------------
 ! Name  Definition              Value          Derivative Info.                !
 --------------------------------------------------------------------------------
 ! R1    R(1,2)                  1.5279         -DE/DX =    0.0                 !
 ! R2    R(1,10)                 1.0958         -DE/DX =    0.0                 !
 ! R3    R(1,11)                 1.0869         -DE/DX =    0.0                 !
 ! R4    R(1,12)                 1.0961         -DE/DX =    0.0                 !
 ! R5    R(2,3)                  1.5548         -DE/DX =    0.0                 !
 ! R6    R(2,6)                  1.5442         -DE/DX =    0.0                 !
 ! R7    R(2,13)                 1.0957         -DE/DX =    0.0                 !
 ! R8    R(3,4)                  1.5505         -DE/DX =    0.0                 !
 ! R9    R(3,9)                  1.5327         -DE/DX =    0.0                 !
 ! R10   R(3,14)                 1.0903         -DE/DX =    0.0                 !
 ! R11   R(4,5)                  1.4473         -DE/DX =    0.0                 !
 ! R12   R(4,15)                 1.0966         -DE/DX =    0.0                 !
 ! R13   R(4,16)                 1.0965         -DE/DX =    0.0                 !
 ! R14   R(5,6)                  1.4466         -DE/DX =    0.0                 !
 ! R15   R(6,7)                  1.5328         -DE/DX =    0.0                 !
 ! R16   R(6,17)                 1.0898         -DE/DX =    0.0                 !
 ! R17   R(7,8)                  1.4337         -DE/DX =    0.0                 !
 ! R18   R(7,9)                  1.4687         -DE/DX =    0.0                 !
 ! R19   R(7,18)                 1.0851         -DE/DX =    0.0                 !
 ! R20   R(8,9)                  1.4312         -DE/DX =    0.0                 !
 ! R21   R(9,19)                 1.0864         -DE/DX =    0.0                 !
 ! A1    A(2,1,10)             109.6325         -DE/DX =    0.0                 !
 ! A2    A(2,1,11)             113.0938         -DE/DX =    0.0                 !
 ! A3    A(2,1,12)             109.7475         -DE/DX =    0.0                 !
 ! A4    A(10,1,11)            108.615          -DE/DX =    0.0                 !
 ! A5    A(10,1,12)            106.9754         -DE/DX =    0.0                 !
 ! A6    A(11,1,12)            108.5837         -DE/DX =    0.0                 !
 ! A7    A(1,2,3)              120.4934         -DE/DX =    0.0                 !
 ! A8    A(1,2,6)              121.3258         -DE/DX =    0.0                 !
 ! A9    A(1,2,13)             107.4678         -DE/DX =    0.0                 !
 ! A10   A(3,2,6)               91.8567         -DE/DX =    0.0                 !
 ! A11   A(3,2,13)             108.0806         -DE/DX =    0.0                 !
 ! A12   A(6,2,13)             106.0157         -DE/DX =    0.0                 !
 ! A13   A(2,3,4)               98.1405         -DE/DX =    0.0                 !
 ! A14   A(2,3,9)              104.0009         -DE/DX =    0.0                 !
 ! A15   A(2,3,14)             117.3793         -DE/DX =    0.0                 !
 ! A16   A(4,3,9)              102.5116         -DE/DX =    0.0                 !
 ! A17   A(4,3,14)             114.8726         -DE/DX =    0.0                 !
 ! A18   A(9,3,14)             117.2303         -DE/DX =    0.0                 !
 ! A19   A(3,4,5)              104.1902         -DE/DX =    0.0                 !
 ! A20   A(3,4,15)             113.177          -DE/DX =    0.0                 !
 ! A21   A(3,4,16)             111.9688         -DE/DX =    0.0                 !
 ! A22   A(5,4,15)             109.4317         -DE/DX =    0.0                 !
 ! A23   A(5,4,16)             109.3817         -DE/DX =    0.0                 !
 ! A24   A(15,4,16)            108.5686         -DE/DX =    0.0                 !
 ! A25   A(4,5,6)              105.9029         -DE/DX =    0.0                 !
 ! A26   A(2,6,5)              101.8313         -DE/DX =    0.0                 !
 ! A27   A(2,6,7)              105.0514         -DE/DX =    0.0                 !
 ! A28   A(2,6,17)             118.0796         -DE/DX =    0.0                 !
 ! A29   A(5,6,7)              103.6451         -DE/DX =    0.0                 !
 ! A30   A(5,6,17)             108.3264         -DE/DX =    0.0                 !
 ! A31   A(7,6,17)             117.8509         -DE/DX =    0.0                 !
 ! A32   A(6,7,8)              116.635          -DE/DX =    0.0                 !
 ! A33   A(6,7,9)              103.6392         -DE/DX =    0.0                 !
 ! A34   A(6,7,18)             121.1795         -DE/DX =    0.0                 !
 ! A35   A(8,7,18)             116.6359         -DE/DX =    0.0                 !
 ! A36   A(9,7,18)             124.0946         -DE/DX =    0.0                 !
 ! A37   A(3,9,7)              104.9917         -DE/DX =    0.0                 !
 ! A38   A(3,9,8)              117.4327         -DE/DX =    0.0                 !
 ! A39   A(3,9,19)             120.8269         -DE/DX =    0.0                 !
 ! A40   A(7,9,19)             123.362          -DE/DX =    0.0                 !
 ! A41   A(8,9,19)             115.8471         -DE/DX =    0.0                 !
 ! D1    D(10,1,2,3)           -66.0448         -DE/DX =    0.0                 !
 ! D2    D(10,1,2,6)          -179.775          -DE/DX =    0.0                 !
 ! D3    D(10,1,2,13)           58.2114         -DE/DX =    0.0                 !
 ! D4    D(11,1,2,3)            55.3239         -DE/DX =    0.0                 !
 ! D5    D(11,1,2,6)           -58.4063         -DE/DX =    0.0                 !
 ! D6    D(11,1,2,13)          179.5801         -DE/DX =    0.0                 !
 ! D7    D(12,1,2,3)           176.7352         -DE/DX =    0.0                 !
 ! D8    D(12,1,2,6)            63.0049         -DE/DX =    0.0                 !
 ! D9    D(12,1,2,13)          -59.0087         -DE/DX =    0.0                 !
 ! D10   D(1,2,3,4)            176.6939         -DE/DX =    0.0                 !
 ! D11   D(1,2,3,9)            -78.1642         -DE/DX =    0.0                 !
 ! D12   D(1,2,3,14)            53.1509         -DE/DX =    0.0                 !
 ! D13   D(6,2,3,4)            -54.788          -DE/DX =    0.0                 !
 ! D14   D(6,2,3,9)             50.3539         -DE/DX =    0.0                 !
 ! D15   D(6,2,3,14)          -178.331          -DE/DX =    0.0                 !
 ! D16   D(13,2,3,4)            52.7277         -DE/DX =    0.0                 !
 ! D17   D(13,2,3,9)           157.8696         -DE/DX =    0.0                 !
 ! D18   D(13,2,3,14)          -70.8153         -DE/DX =    0.0                 !
 ! D19   D(1,2,6,5)           -175.1284         -DE/DX =    0.0                 !
 ! D20   D(1,2,6,7)             77.0579         -DE/DX =    0.0                 !
 ! D21   D(1,2,6,17)           -56.7125         -DE/DX =    0.0                 !
 ! D22   D(3,2,6,5)             56.9867         -DE/DX =    0.0                 !
 ! D23   D(3,2,6,7)            -50.8269         -DE/DX =    0.0                 !
 ! D24   D(3,2,6,17)           175.4026         -DE/DX =    0.0                 !
 ! D25   D(13,2,6,5)           -52.4255         -DE/DX =    0.0                 !
 ! D26   D(13,2,6,7)          -160.2391         -DE/DX =    0.0                 !
 ! D27   D(13,2,6,17)           65.9905         -DE/DX =    0.0                 !
 ! D28   D(2,3,4,5)             36.7269         -DE/DX =    0.0                 !
 ! D29   D(2,3,4,15)           155.5125         -DE/DX =    0.0                 !
 ! D30   D(2,3,4,16)           -81.3793         -DE/DX =    0.0                 !
 ! D31   D(9,3,4,5)            -69.6579         -DE/DX =    0.0                 !
 ! D32   D(9,3,4,15)            49.1277         -DE/DX =    0.0                 !
 ! D33   D(9,3,4,16)           172.2359         -DE/DX =    0.0                 !
 ! D34   D(14,3,4,5)           162.0629         -DE/DX =    0.0                 !
 ! D35   D(14,3,4,15)          -79.1515         -DE/DX =    0.0                 !
 ! D36   D(14,3,4,16)           43.9567         -DE/DX =    0.0                 !
 ! D37   D(2,3,9,7)            -33.6416         -DE/DX =    0.0                 !
 ! D38   D(2,3,9,8)             29.1366         -DE/DX =    0.0                 !
 ! D39   D(2,3,9,19)          -179.0053         -DE/DX =    0.0                 !
 ! D40   D(4,3,9,7)             68.1773         -DE/DX =    0.0                 !
 ! D41   D(4,3,9,8)            130.9555         -DE/DX =    0.0                 !
 ! D42   D(4,3,9,19)           -77.1864         -DE/DX =    0.0                 !
 ! D43   D(14,3,9,7)          -165.0441         -DE/DX =    0.0                 !
 ! D44   D(14,3,9,8)          -102.2659         -DE/DX =    0.0                 !
 ! D45   D(14,3,9,19)           49.5922         -DE/DX =    0.0                 !
 ! D46   D(3,4,5,6)             -0.6052         -DE/DX =    0.0                 !
 ! D47   D(15,4,5,6)          -121.9161         -DE/DX =    0.0                 !
 ! D48   D(16,4,5,6)           119.2634         -DE/DX =    0.0                 !
 ! D49   D(4,5,6,2)            -36.5002         -DE/DX =    0.0                 !
 ! D50   D(4,5,6,7)             72.3976         -DE/DX =    0.0                 !
 ! D51   D(4,5,6,17)          -161.6696         -DE/DX =    0.0                 !
 ! D52   D(2,6,7,8)            -28.2405         -DE/DX =    0.0                 !
 ! D53   D(2,6,7,9)             33.7319         -DE/DX =    0.0                 !
 ! D54   D(2,6,7,18)           178.9224         -DE/DX =    0.0                 !
 ! D55   D(5,6,7,8)           -134.7253         -DE/DX =    0.0                 !
 ! D56   D(5,6,7,9)            -72.7529         -DE/DX =    0.0                 !
 ! D57   D(5,6,7,18)            72.4376         -DE/DX =    0.0                 !
 ! D58   D(17,6,7,8)           105.6564         -DE/DX =    0.0                 !
 ! D59   D(17,6,7,9)           167.6288         -DE/DX =    0.0                 !
 ! D60   D(17,6,7,18)          -47.1807         -DE/DX =    0.0                 !
 ! D61   D(6,7,9,3)              0.2024         -DE/DX =    0.0                 !
 ! D62   D(6,7,9,19)           144.4445         -DE/DX =    0.0                 !
 ! D63   D(18,7,9,3)          -143.6574         -DE/DX =    0.0                 !
 ! D64   D(18,7,9,19)            0.5846         -DE/DX =    0.0                 !
 --------------------------------------------------------------------------------
 GradGradGradGradGradGradGradGradGradGradGradGradGradGradGradGradGradGrad

                          Input orientation:                          
 ---------------------------------------------------------------------
 Center     Atomic      Atomic             Coordinates (Angstroms)
 Number     Number       Type             X           Y           Z
 ---------------------------------------------------------------------
      1          6           0        1.391911    1.300862    0.014380
      2          6           0        1.280271   -0.222886    0.006445
      3          6           0        1.988637   -1.071580    1.099788
      4          6           0        1.475277   -2.467337    0.661172
      5          8           0        1.454407   -2.399525   -0.784338
      6          6           0        1.904893   -1.067776   -1.125228
      7          6           0        3.405345   -1.102880   -0.814008
      8          8           0        3.939137    0.017171   -0.095567
      9          6           0        3.454701   -1.101799    0.653813
     10          1           0        0.887644    1.702371    0.900590
     11          1           0        2.420163    1.653010    0.010916
     12          1           0        0.878122    1.714391   -0.861029
     13          1           0        0.213920   -0.474609    0.018331
     14          1           0        1.788990   -0.815829    2.140704
     15          1           0        2.130454   -3.287493    0.978509
     16          1           0        0.462351   -2.666616    1.030775
     17          1           0        1.602426   -0.855686   -2.150472
     18          1           0        4.097431   -1.650385   -1.445512
     19          1           0        4.199818   -1.646352    1.226917
 ---------------------------------------------------------------------
                    Distance matrix (angstroms):
                    1          2          3          4          5
     1  C    0.000000
     2  C    1.527853   0.000000
     3  C    2.676318   1.554820   0.000000
     4  C    3.824215   2.346115   1.550503   0.000000
     5  O    3.786122   2.322373   2.366172   1.447250   0.000000
     6  C    2.678116   1.544240   2.226596   2.309668   1.446616
     7  C    3.243165   2.442022   2.381315   2.786228   2.342718
     8  O    2.854525   2.671629   2.533516   3.579950   3.533937
     9  C    3.230597   2.433048   1.532695   2.404760   2.784520
    10  H    1.095839   2.158765   2.991099   4.217713   4.470543
    11  H    1.086887   2.195077   2.965679   4.277021   4.241245
    12  H    1.096050   2.160388   3.583250   4.490049   4.154791
    13  H    2.130722   1.095724   2.162301   2.444429   2.426600
    14  H    3.026435   2.272760   1.090309   2.239400   3.343039
    15  H    4.746366   3.325588   2.223756   1.096638   2.086421
    16  H    4.199765   2.773096   2.208721   1.096511   2.085700
    17  H    3.062939   2.270795   3.280238   3.243290   2.066802
    18  H    4.261570   3.475963   3.355679   3.461390   2.825586
    19  H    4.247430   3.469807   2.288197   2.901243   3.485642
                    6          7          8          9         10
     6  C    0.000000
     7  C    1.532791   0.000000
     8  O    2.524968   1.433738   0.000000
     9  C    2.359672   1.468651   1.431203   0.000000
    10  H    3.579448   4.141027   3.625444   3.809732   0.000000
    11  H    2.993160   3.040726   2.234858   3.012069   1.772730
    12  H    2.977333   3.784981   3.582779   4.106633   1.761686
    13  H    2.125786   3.357485   3.759264   3.361528   2.443671
    14  H    3.277686   3.380137   3.212153   2.251048   2.948159
    15  H    3.066550   3.100161   3.917368   2.576105   5.142897
    16  H    3.047223   3.809161   4.534247   3.397780   4.391568
    17  H    1.089767   2.257821   3.231831   3.369794   4.045188
    18  H    2.291122   1.085146   2.151313   2.263010   5.200760
    19  H    3.336768   2.256530   2.141080   1.086363   4.721328
                   11         12         13         14         15
    11  H    0.000000
    12  H    1.772554   0.000000
    13  H    3.065017   2.450746   0.000000
    14  H    3.321076   4.030149   2.664910   0.000000
    15  H    5.042692   5.474584   3.536575   2.752529   0.000000
    16  H    4.851011   4.790095   2.427274   2.533244   1.780670
    17  H    3.410843   2.965227   2.603243   4.295415   3.997877
    18  H    3.980808   4.693323   4.313577   4.345840   3.524911
    19  H    3.941018   5.166021   4.326783   2.708665   2.652795
                   16         17         18         19
    16  H    0.000000
    17  H    3.834002   0.000000
    18  H    4.514258   2.711746   0.000000
    19  H    3.879184   4.333400   2.674393   0.000000
 Stoichiometry    C7H10O2
 Framework group  C1[X(C7H10O2)]
 Deg. of freedom    51
 Full point group                 C1      NOp   1
 Largest Abelian subgroup         C1      NOp   1
 Largest concise Abelian subgroup C1      NOp   1
                         Standard orientation:                         
 ---------------------------------------------------------------------
 Center     Atomic      Atomic             Coordinates (Angstroms)
 Number     Number       Type             X           Y           Z
 ---------------------------------------------------------------------
      1          6           0        1.984675   -1.227922   -0.025729
      2          6           0        0.467382   -1.050979    0.003393
      3          6           0       -0.255213   -0.250357   -1.116574
      4          6           0       -1.713448   -0.470408   -0.637836
      5          8           0       -1.622336   -0.432726    0.806052
      6          6           0       -0.223403   -0.224111    1.109640
      7          6           0        0.016564    1.239151    0.721404
      8          8           0        1.202329    1.517284   -0.035040
      9          6           0       -0.001996    1.215386   -0.746938
     10          1           0        2.267315   -1.841445   -0.888612
     11          1           0        2.522878   -0.285157   -0.079151
     12          1           0        2.311965   -1.766654    0.870918
     13          1           0        0.020524   -2.050386    0.049364
     14          1           0       -0.061814   -0.545270   -2.148270
     15          1           0       -2.402707    0.310733   -0.980410
     16          1           0       -2.105839   -1.444792   -0.952382
     17          1           0       -0.051500   -0.510371    2.146991
     18          1           0       -0.379355    2.051841    1.321674
     19          1           0       -0.408777    2.020472   -1.352373
 ---------------------------------------------------------------------
 Rotational constants (GHZ):      2.4545338      1.9817402      1.6163257
 1\1\GINC-ALCHEMY-MN\FOpt\RB3LYP\6-31G(2df,p)\C7H10O2\PUCK\28-Jan-2020\
 0\\# b3lyp 6-31G(2df,p) opt Freq\\titel\\0,1\C,1.3919110734,1.30086209
 2,0.0143795654\C,1.2802710312,-0.2228861293,0.0064449364\C,1.988636745
 8,-1.0715802295,1.099788466\C,1.4752767977,-2.467337253,0.6611721819\O
 ,1.4544066443,-2.3995250959,-0.7843379801\C,1.9048925511,-1.0677760866
 ,-1.1252284577\C,3.4053449023,-1.1028801459,-0.8140083667\O,3.93913679
 92,0.0171705156,-0.0955668763\C,3.4547014877,-1.1017990376,0.653813030
 5\H,0.8876435055,1.7023712844,0.9005895834\H,2.4201632785,1.6530103598
 ,0.0109164286\H,0.8781217894,1.7143907432,-0.8610292407\H,0.2139196771
 ,-0.4746087184,0.0183310064\H,1.7889904408,-0.81582914,2.140704199\H,2
 .1304535054,-3.2874928191,0.9785087066\H,0.4623513966,-2.6666161905,1.
 0307748902\H,1.6024256095,-0.8556855724,-2.1504717236\H,4.0974307751,-
 1.6503847827,-1.445511869\H,4.1998182694,-1.6463517741,1.2269171695\\V
 ersion=ES64L-G09RevD.01\State=1-A\HF=-423.1649083\RMSD=3.111e-09\RMSF=
 3.066e-05\Dipole=-0.1929081,-0.1586434,0.3982046\Quadrupole=-0.4403595
 ,-2.1225973,2.5629568,-3.2993955,-0.8393464,-2.0807027\PG=C01 [X(C7H10
 O2)]\\@


 ... THIS SEEMS PLAINLY ABSURD; BUT WHOEVER WISHES TO BECOME A 
 PHILOSOPHER MUST LEARN NOT TO BE FRIGHTENED BY ABSURDITIES.

                          -- BERTRAND RUSSELL
 Job cpu time:       0 days  0 hours  8 minutes 31.2 seconds.
 File lengths (MBytes):  RWF=     52 Int=      0 D2E=      0 Chk=      7 Scr=      1
 Normal termination of Gaussian 09 at Tue Jan 28 00:03:19 2020.
 Link1:  Proceeding to internal job step number  2.
 ----------------------------------------------------------------------
 #N Geom=AllCheck Guess=TCheck SCRF=Check GenChk RB3LYP/6-31G(2df,p) Fr
 eq
 ----------------------------------------------------------------------
 1/10=4,29=7,30=1,38=1,40=1/1,3;
 2/12=2,40=1/2;
 3/5=1,6=6,7=104,11=2,14=-4,16=1,25=1,30=1,70=2,71=2,74=-5,116=1,140=1/1,2,3;
 4/5=101/1;
 5/5=2,98=1/2;
 8/6=4,10=90,11=11/1;
 11/6=1,8=1,9=11,15=111,16=1/1,2,10;
 10/6=1/2;
 6/7=2,8=2,9=2,10=2,18=1,28=1/1;
 7/8=1,10=1,25=1/1,2,3,16;
 1/10=4,30=1/3;
 99//99;
 Structure from the checkpoint file:  "/scratch/puck/g09_26e3e25c-9c3e-4fc8-9546-f6c7b83e608d/Gau-184669.chk"
 -----
 titel
 -----
 Charge =  0 Multiplicity = 1
 Redundant internal coordinates found in file.
 C,0,1.3919110734,1.300862092,0.0143795654
 C,0,1.2802710312,-0.2228861293,0.0064449364
 C,0,1.9886367458,-1.0715802295,1.099788466
 C,0,1.4752767977,-2.467337253,0.6611721819
 O,0,1.4544066443,-2.3995250959,-0.7843379801
 C,0,1.9048925511,-1.0677760866,-1.1252284577
 C,0,3.4053449023,-1.1028801459,-0.8140083667
 O,0,3.9391367992,0.0171705156,-0.0955668763
 C,0,3.4547014877,-1.1017990376,0.6538130305
 H,0,0.8876435055,1.7023712844,0.9005895834
 H,0,2.4201632785,1.6530103598,0.0109164286
 H,0,0.8781217894,1.7143907432,-0.8610292407
 H,0,0.2139196771,-0.4746087184,0.0183310064
 H,0,1.7889904408,-0.81582914,2.140704199
 H,0,2.1304535054,-3.2874928191,0.9785087066
 H,0,0.4623513966,-2.6666161905,1.0307748902
 H,0,1.6024256095,-0.8556855724,-2.1504717236
 H,0,4.0974307751,-1.6503847827,-1.445511869
 H,0,4.1998182694,-1.6463517741,1.2269171695
 Recover connectivity data from disk.

 GradGradGradGradGradGradGradGradGradGradGradGradGradGradGradGradGradGrad
 Berny optimization.
 Initialization pass.
                           ----------------------------
                           !    Initial Parameters    !
                           ! (Angstroms and Degrees)  !
 --------------------------                            --------------------------
 ! Name  Definition              Value          Derivative Info.                !
 --------------------------------------------------------------------------------
 ! R1    R(1,2)                  1.5279         calculate D2E/DX2 analytically  !
 ! R2    R(1,10)                 1.0958         calculate D2E/DX2 analytically  !
 ! R3    R(1,11)                 1.0869         calculate D2E/DX2 analytically  !
 ! R4    R(1,12)                 1.0961         calculate D2E/DX2 analytically  !
 ! R5    R(2,3)                  1.5548         calculate D2E/DX2 analytically  !
 ! R6    R(2,6)                  1.5442         calculate D2E/DX2 analytically  !
 ! R7    R(2,13)                 1.0957         calculate D2E/DX2 analytically  !
 ! R8    R(3,4)                  1.5505         calculate D2E/DX2 analytically  !
 ! R9    R(3,9)                  1.5327         calculate D2E/DX2 analytically  !
 ! R10   R(3,14)                 1.0903         calculate D2E/DX2 analytically  !
 ! R11   R(4,5)                  1.4473         calculate D2E/DX2 analytically  !
 ! R12   R(4,15)                 1.0966         calculate D2E/DX2 analytically  !
 ! R13   R(4,16)                 1.0965         calculate D2E/DX2 analytically  !
 ! R14   R(5,6)                  1.4466         calculate D2E/DX2 analytically  !
 ! R15   R(6,7)                  1.5328         calculate D2E/DX2 analytically  !
 ! R16   R(6,17)                 1.0898         calculate D2E/DX2 analytically  !
 ! R17   R(7,8)                  1.4337         calculate D2E/DX2 analytically  !
 ! R18   R(7,9)                  1.4687         calculate D2E/DX2 analytically  !
 ! R19   R(7,18)                 1.0851         calculate D2E/DX2 analytically  !
 ! R20   R(8,9)                  1.4312         calculate D2E/DX2 analytically  !
 ! R21   R(9,19)                 1.0864         calculate D2E/DX2 analytically  !
 ! A1    A(2,1,10)             109.6325         calculate D2E/DX2 analytically  !
 ! A2    A(2,1,11)             113.0938         calculate D2E/DX2 analytically  !
 ! A3    A(2,1,12)             109.7475         calculate D2E/DX2 analytically  !
 ! A4    A(10,1,11)            108.615          calculate D2E/DX2 analytically  !
 ! A5    A(10,1,12)            106.9754         calculate D2E/DX2 analytically  !
 ! A6    A(11,1,12)            108.5837         calculate D2E/DX2 analytically  !
 ! A7    A(1,2,3)              120.4934         calculate D2E/DX2 analytically  !
 ! A8    A(1,2,6)              121.3258         calculate D2E/DX2 analytically  !
 ! A9    A(1,2,13)             107.4678         calculate D2E/DX2 analytically  !
 ! A10   A(3,2,6)               91.8567         calculate D2E/DX2 analytically  !
 ! A11   A(3,2,13)             108.0806         calculate D2E/DX2 analytically  !
 ! A12   A(6,2,13)             106.0157         calculate D2E/DX2 analytically  !
 ! A13   A(2,3,4)               98.1405         calculate D2E/DX2 analytically  !
 ! A14   A(2,3,9)              104.0009         calculate D2E/DX2 analytically  !
 ! A15   A(2,3,14)             117.3793         calculate D2E/DX2 analytically  !
 ! A16   A(4,3,9)              102.5116         calculate D2E/DX2 analytically  !
 ! A17   A(4,3,14)             114.8726         calculate D2E/DX2 analytically  !
 ! A18   A(9,3,14)             117.2303         calculate D2E/DX2 analytically  !
 ! A19   A(3,4,5)              104.1902         calculate D2E/DX2 analytically  !
 ! A20   A(3,4,15)             113.177          calculate D2E/DX2 analytically  !
 ! A21   A(3,4,16)             111.9688         calculate D2E/DX2 analytically  !
 ! A22   A(5,4,15)             109.4317         calculate D2E/DX2 analytically  !
 ! A23   A(5,4,16)             109.3817         calculate D2E/DX2 analytically  !
 ! A24   A(15,4,16)            108.5686         calculate D2E/DX2 analytically  !
 ! A25   A(4,5,6)              105.9029         calculate D2E/DX2 analytically  !
 ! A26   A(2,6,5)              101.8313         calculate D2E/DX2 analytically  !
 ! A27   A(2,6,7)              105.0514         calculate D2E/DX2 analytically  !
 ! A28   A(2,6,17)             118.0796         calculate D2E/DX2 analytically  !
 ! A29   A(5,6,7)              103.6451         calculate D2E/DX2 analytically  !
 ! A30   A(5,6,17)             108.3264         calculate D2E/DX2 analytically  !
 ! A31   A(7,6,17)             117.8509         calculate D2E/DX2 analytically  !
 ! A32   A(6,7,8)              116.635          calculate D2E/DX2 analytically  !
 ! A33   A(6,7,9)              103.6392         calculate D2E/DX2 analytically  !
 ! A34   A(6,7,18)             121.1795         calculate D2E/DX2 analytically  !
 ! A35   A(8,7,18)             116.6359         calculate D2E/DX2 analytically  !
 ! A36   A(9,7,18)             124.0946         calculate D2E/DX2 analytically  !
 ! A37   A(3,9,7)              104.9917         calculate D2E/DX2 analytically  !
 ! A38   A(3,9,8)              117.4327         calculate D2E/DX2 analytically  !
 ! A39   A(3,9,19)             120.8269         calculate D2E/DX2 analytically  !
 ! A40   A(7,9,19)             123.362          calculate D2E/DX2 analytically  !
 ! A41   A(8,9,19)             115.8471         calculate D2E/DX2 analytically  !
 ! D1    D(10,1,2,3)           -66.0448         calculate D2E/DX2 analytically  !
 ! D2    D(10,1,2,6)          -179.775          calculate D2E/DX2 analytically  !
 ! D3    D(10,1,2,13)           58.2114         calculate D2E/DX2 analytically  !
 ! D4    D(11,1,2,3)            55.3239         calculate D2E/DX2 analytically  !
 ! D5    D(11,1,2,6)           -58.4063         calculate D2E/DX2 analytically  !
 ! D6    D(11,1,2,13)          179.5801         calculate D2E/DX2 analytically  !
 ! D7    D(12,1,2,3)           176.7352         calculate D2E/DX2 analytically  !
 ! D8    D(12,1,2,6)            63.0049         calculate D2E/DX2 analytically  !
 ! D9    D(12,1,2,13)          -59.0087         calculate D2E/DX2 analytically  !
 ! D10   D(1,2,3,4)            176.6939         calculate D2E/DX2 analytically  !
 ! D11   D(1,2,3,9)            -78.1642         calculate D2E/DX2 analytically  !
 ! D12   D(1,2,3,14)            53.1509         calculate D2E/DX2 analytically  !
 ! D13   D(6,2,3,4)            -54.788          calculate D2E/DX2 analytically  !
 ! D14   D(6,2,3,9)             50.3539         calculate D2E/DX2 analytically  !
 ! D15   D(6,2,3,14)          -178.331          calculate D2E/DX2 analytically  !
 ! D16   D(13,2,3,4)            52.7277         calculate D2E/DX2 analytically  !
[...]
 28052,-0.00213378,-0.04393581,0.01047467,-0.02208754,-0.13235601,-0.00
 709394,-0.03116817,0.53467083,-0.00067970,-0.00020108,-0.00656492,0.00
 615680,0.01090689,0.00588109,-0.00322066,-0.01701473,-0.07322407,-0.03
 702032,-0.08764507,0.38997108,0.00121321,0.00048539,0.00181129,0.00441
 393,0.01010720,0.00132452,-0.00056877,0.00036642,-0.01115671,-0.065699
 44,-0.01011661,0.00163373,0.12580527,0.00298526,0.00088643,-0.00964112
 ,-0.01006414,-0.05887326,-0.00333857,0.00010855,-0.00463424,-0.0263440
 8,-0.00862073,-0.08570131,0.01449835,0.08405646,0.32715786,0.00014086,
 0.00018524,-0.00099553,-0.00524762,-0.01145696,-0.00093643,-0.00453540
 ,-0.01769324,-0.04009053,-0.00459062,-0.01783212,-0.15595062,-0.001008
 59,-0.01021729,0.34019846,0.00154474,0.00091694,-0.00682712,-0.0904349
 6,0.01194009,0.02663296,0.00641192,-0.00476263,-0.00924961,-0.00507538
 ,0.00210457,0.00986629,-0.06396395,-0.03316809,0.00276151,0.42674806,0
 .00868209,-0.01366810,-0.01858139,0.02059510,-0.07746981,-0.03419797,-
 0.00520784,0.00720012,-0.00289026,0.00129927,-0.00887435,0.03600056,-0
 .03816371,-0.14609107,0.02116513,-0.02471438,0.36693810,-0.00359533,-0
 .00127147,0.00533859,0.02584845,-0.02186861,-0.11892600,0.00391581,0.0
 0088349,-0.05918058,0.01128012,0.03977145,-0.03304931,-0.00621019,-0.0
 1605777,-0.08466412,0.07810744,-0.04208351,0.69591938,0.00011538,0.000
 99388,-0.00097257,-0.02733894,0.00656808,0.00939457,-0.00662065,0.0113
 6749,0.03108853,0.00065881,-0.00064455,0.00281753,-0.01843937,-0.02045
 482,-0.00001253,-0.16398626,0.02548976,-0.01280753,0.52175801,0.000299
 85,0.00106076,0.00070739,0.02700457,0.00255935,-0.00128405,-0.00410833
 ,-0.00470516,-0.00050191,-0.00459928,0.00001636,0.00112614,-0.04124184
 ,-0.02317422,0.00265926,0.02743662,-0.06300350,-0.00300681,-0.08938889
 ,0.35367081,-0.00030089,0.00024050,-0.00028368,0.02078194,0.00121543,0
 .00165816,0.01662908,-0.00786009,-0.02677090,0.00087957,-0.00193790,-0
 .00146128,-0.00300133,-0.00000837,0.00286468,-0.01926492,-0.00381198,-
 0.07873214,-0.08104090,0.16498813,0.58740687,-0.00447466,0.00393084,0.
 00068662,0.00542896,0.00087634,0.00074210,-0.00637122,-0.03046040,0.00
 079653,-0.00848741,0.00084116,0.00046463,-0.01146949,-0.00681625,0.000
 88067,0.00045900,-0.02997902,-0.00033247,-0.08020198,-0.03604952,-0.03
 365596,0.16167451,0.00212236,-0.00560035,-0.00076702,-0.00190840,-0.00
 173536,0.00069339,-0.00602268,0.00068371,0.00253072,-0.00050601,0.0011
 0370,-0.00078357,-0.00455303,0.00098781,-0.00000391,-0.00235726,-0.001
 44992,-0.00080085,-0.04240934,-0.15669176,-0.09867886,0.10030878,0.353
 93042,0.00025862,-0.00038688,0.00295437,-0.00070617,-0.00016697,-0.000
 82080,0.00810584,0.01913127,-0.00495721,0.00297363,-0.00167386,-0.0055
 3362,-0.00314017,-0.00234227,0.00393496,-0.00429793,-0.01426667,-0.007
 10145,-0.01997419,-0.06003408,-0.06069727,-0.00073456,-0.00340819,0.15
 620405,0.00074056,0.00052883,0.00192417,-0.03097942,0.00424165,-0.0101
 6140,-0.15825231,0.01670608,0.02311249,-0.01950073,-0.01557617,-0.0043
 1708,0.00295363,0.00157877,0.00392657,-0.01145991,0.01296637,-0.034936
 44,-0.03706966,0.02086914,0.00752120,-0.07426592,-0.03429029,0.0201193
 7,0.53020059,0.00092773,0.00109352,-0.00036566,0.02729725,0.00059317,-
 0.00058195,0.01712805,-0.06961977,-0.00019128,-0.03597302,-0.00846506,
 0.00491986,-0.00243464,-0.00029938,-0.00025685,-0.00431509,-0.00502625
 ,0.00155287,0.02436402,-0.00564586,0.03300505,-0.03172336,-0.16004679,
 0.06121334,-0.09667079,0.35683003,0.00041251,-0.00039556,-0.00047033,-
 0.01778957,-0.00234949,0.00378206,0.02447226,-0.00229647,-0.08297161,0
 .00080570,0.00722500,0.00719496,0.00697854,0.00496673,-0.00425099,-0.0
 2365407,0.00629926,-0.02409161,-0.02071048,-0.03448913,-0.27427786,0.0
 3335643,0.10029364,-0.06540911,0.08021144,-0.15604183,0.57325421,-0.10
 327316,0.04182133,0.09895905,0.00032606,-0.00112164,-0.00272635,-0.000
 03605,0.00004789,0.00052421,0.00010806,0.00015343,-0.00001760,-0.00000
 958,-0.00009020,-0.00007819,0.00088376,-0.00104784,-0.00022412,-0.0000
 5554,-0.00101332,-0.00042900,-0.00120774,0.00206647,-0.00046959,-0.000
 51310,-0.00043864,0.00025265,0.10727508,0.04125859,-0.07749602,-0.0737
 9082,0.01696693,-0.01568461,-0.02967014,0.00005320,0.00195486,-0.00073
 845,-0.00041154,0.00025998,-0.00131779,0.00038196,-0.00344496,-0.00009
 407,-0.00242690,-0.00253633,0.00331446,-0.00065357,-0.00019845,-0.0004
 1451,0.00044961,0.00041149,0.00018654,0.00007202,0.00015938,-0.0000914
 2,-0.04610685,0.08806008,0.09803231,-0.07511862,-0.21711418,-0.0007137
 9,0.00066554,0.00036070,-0.00014383,-0.00020694,0.00093230,0.00009601,
 -0.00009387,-0.00008681,0.00015490,-0.00020010,0.00023468,-0.00072016,
 0.00098211,0.00096403,-0.00011164,0.00003981,-0.00007794,0.00006588,-0
 .00001906,0.00000257,-0.00005547,0.00010353,0.00002320,-0.10829169,0.0
 8268290,0.23502193,-0.30011691,-0.08853814,0.00045179,0.00035599,-0.00
 056220,-0.00009621,0.00013802,-0.00030857,-0.00033699,-0.00002226,0.00
 003348,-0.00010045,-0.00015408,-0.00009096,0.00008666,0.00016543,-0.00
 019412,0.00044998,0.00022290,-0.00018899,0.00040153,-0.00604702,0.0054
 8972,0.00030981,0.00026708,-0.00018602,-0.00041703,-0.01128814,-0.0033
 1457,-0.00081352,0.32666208,-0.08244848,-0.07359766,0.00054301,-0.0329
 8986,-0.00905394,0.00000193,-0.00008124,0.00159683,0.00003523,-0.00008
 135,0.00015668,-0.00017456,0.00107693,-0.00014553,-0.00011503,-0.00099
 985,0.00103966,0.00023540,-0.00082348,-0.00234304,-0.00103449,0.002342
 97,0.00239395,-0.00005208,-0.00080438,-0.00243852,0.00122790,0.0112222
 2,0.00328328,0.00098768,0.09091772,0.08189494,0.00066925,0.00041940,-0
 .04981383,-0.00021016,0.00002992,-0.00110609,0.00062095,-0.00013169,0.
 00014634,0.00008631,0.00008615,0.00006056,0.00011112,-0.00006322,-0.00
 016279,-0.00077425,-0.00004832,0.00020235,0.00035453,-0.00039971,0.000
 16357,0.00025580,0.00005554,-0.00033840,-0.00049860,0.00035543,0.00037
 103,0.02647646,0.00921984,0.00046305,-0.00089782,-0.00034707,0.0485525
 2,-0.10547063,0.04376306,-0.09923126,0.00020498,-0.00093355,0.00265229
 ,0.00109514,-0.00076865,0.00021069,0.00002931,-0.00013649,-0.00010279,
 0.00008787,0.00017316,0.00022645,-0.00000328,0.00014412,-0.00072410,-0
 .00044814,-0.00032420,-0.00019044,-0.00101045,0.00180304,0.00063022,-0
 .00006387,-0.00109163,0.00044903,0.00703404,-0.00639428,0.01284291,-0.
 01157397,0.01160768,-0.02620886,0.10945752,0.04312138,-0.07997847,0.07
 511013,0.01697398,-0.01484039,0.02827146,-0.00213755,-0.00502168,-0.00
 229483,0.00138466,-0.00088760,0.00180865,-0.00024864,0.00073289,-0.000
 46013,0.00037824,0.00133220,0.00101260,0.00000987,0.00010283,0.0000328
 4,0.00036491,0.00053948,-0.00025292,-0.00104364,-0.00031434,0.00044346
 ,-0.00632124,0.00400198,-0.00910772,-0.00344011,0.00338715,-0.00919886
 ,-0.04863345,0.09047047,-0.09830174,0.07631109,-0.21277620,0.00080169,
 -0.00080012,0.00086176,0.00077391,-0.00055840,0.00098094,-0.00023625,-
 0.00013808,-0.00008433,0.00001488,0.00032724,0.00015482,0.00023107,-0.
 00001556,0.00076988,0.00006162,-0.00009673,0.00003367,-0.00009640,0.00
 000159,-0.00006642,0.00007812,-0.00001654,-0.00004763,-0.01326947,0.00
 951804,-0.02139335,0.00092302,-0.00110439,0.00060405,0.10874282,-0.084
 10549,0.23034862,-0.00269763,-0.00136181,0.00012783,-0.28851279,-0.054
 86667,0.00316681,-0.01379108,-0.00097474,0.00072908,-0.00056333,-0.000
 83834,-0.00043566,0.00312302,-0.00086736,-0.00038546,-0.01512833,-0.00
 236615,0.00041098,-0.00031442,0.00107943,0.00163108,0.00116018,0.00037
 990,0.00000408,-0.00037314,0.00120087,-0.00190667,0.00065425,-0.000299
 49,-0.00042306,0.00148716,-0.00030998,0.00002720,0.00057976,-0.0003711
 9,0.00038215,0.31378558,-0.03353318,-0.01359828,0.00053757,-0.06050139
 ,-0.05766475,0.00170554,0.01380980,0.00035554,-0.00054243,0.00297635,-
 0.00071281,0.00118837,0.00091102,0.00074133,-0.00078797,0.01390985,-0.
 00031039,-0.00081441,0.00113643,-0.00229285,-0.00168729,-0.00059632,0.
 00108690,-0.00000967,0.00159452,-0.00234163,0.00201619,0.00028015,0.00
 139166,-0.00038378,0.00040597,-0.00682521,-0.00000776,0.00031681,0.001
 28236,0.00038517,0.05856516,0.07847795,-0.00040583,-0.00015019,0.00082
 238,0.00220154,0.00049554,-0.04594268,-0.02663444,-0.00279490,0.000175
 30,-0.00108094,-0.00097812,0.00152094,-0.00157776,0.00295846,0.0003944
 0,0.03014905,0.00273366,-0.00207187,0.00115933,-0.00392098,-0.00427408
 ,-0.00008939,-0.00001300,-0.00005952,-0.00129441,0.00346613,-0.0045570
 2,-0.00051893,0.00014742,0.00016778,-0.00000913,-0.00014422,0.00107622
 ,0.00043523,-0.00005014,0.00013860,-0.00312557,-0.00201553,0.05004116,
 0.00043492,-0.00060117,0.00062427,0.00343193,-0.00579771,-0.01177450,-
 0.05733632,0.01188623,0.04748409,0.00130164,0.00085678,-0.00916778,0.0
 0059947,-0.00134706,-0.00416314,-0.00278974,0.00010205,-0.00270198,-0.
 00590042,0.00157135,0.00176298,0.00037216,-0.00162481,0.00044916,-0.00
 005454,0.00809661,0.02829455,0.00003154,0.00017168,0.00016772,0.000007
 94,0.00021312,0.00009994,-0.00005279,-0.00010686,0.00007005,0.00021607
 ,-0.00040986,0.00038301,0.05823927,-0.00065043,0.00137500,-0.00042699,
 -0.00601161,0.00614252,0.01735912,0.01152022,-0.06186793,-0.06163798,0
 .00687014,-0.00069136,-0.02498899,-0.00160744,-0.00393788,-0.00479142,
 0.00167212,-0.00431092,0.00427059,0.00021835,0.00031981,0.00048989,0.0
 0023619,0.00046280,0.00027523,0.00019777,-0.00052356,0.00095530,0.0001
 7143,-0.00023266,-0.00040119,-0.00007387,-0.00015136,0.00001556,0.0000
 6103,0.00007566,-0.00022988,0.00003872,0.00021869,-0.00070358,-0.01200
 302,0.06132699,0.00030156,-0.00060494,0.00074256,0.00476415,-0.0066973
 6,-0.01324853,0.04700224,-0.06258607,-0.29408701,0.00119174,0.00173963
 ,-0.00382427,0.00012080,0.00021621,0.00021454,-0.00172328,0.00142206,-
 0.00291100,-0.00014382,-0.00071166,0.00043975,0.00061668,0.00090604,-0
 .00047669,-0.00069254,-0.00082788,-0.00290161,-0.00025897,0.00073139,0
 .00017079,0.00013368,0.00008508,-0.00005892,-0.00006231,0.00004369,0.0
 0021771,-0.00037623,-0.00009052,0.00024937,-0.05150600,0.06767237,0.31
 572048,0.00050012,-0.00019574,0.00061299,-0.00095591,-0.00216927,-0.00
 064419,0.00705962,-0.00878660,0.00397516,-0.14912726,0.11665293,-0.038
 61167,0.00667615,-0.00263287,-0.00475194,-0.00090648,-0.00134514,0.001
 18947,0.00000834,0.00012236,-0.00016243,0.00035417,0.00042836,-0.00024
 644,0.00041214,-0.00147902,0.00100700,-0.00000364,0.00006479,0.0000056
 8,0.00002285,0.00007674,-0.00002942,-0.00003181,-0.00026222,0.00000335
 ,0.00044767,-0.00012231,0.00027446,0.00010765,0.00041493,-0.00009388,0
 .15392975,0.00060830,0.00009727,0.00177115,-0.00233573,-0.00432744,-0.
 00239557,0.01506977,-0.01843862,0.00721087,0.11430379,-0.19001113,0.04
 865465,-0.00105435,0.00284915,0.00437245,0.00082012,0.00018693,-0.0004
 2978,0.00035230,-0.00024463,0.00098152,-0.00022016,0.00119959,-0.00027
 925,0.00227849,0.00010280,-0.00098745,-0.00002608,0.00012134,-0.000030
 77,0.00000964,-0.00013714,-0.00002411,-0.00004212,-0.00067872,0.000039
 66,-0.00009212,0.00013538,-0.00018876,-0.00017376,-0.00064617,-0.00036
 603,-0.12443085,0.20493044,0.00001830,0.00008874,0.00131079,-0.0009393
 0,-0.00260739,-0.00156294,0.00820913,-0.00714665,0.00598539,-0.0365085
 0,0.04380649,-0.05898902,-0.01457691,0.02888361,-0.02644458,-0.0052818
 4,-0.00262242,-0.00364445,-0.00071703,-0.00023811,0.00020482,0.0005197
 5,0.00006780,0.00030781,0.00049055,0.00080440,0.00007300,0.00001007,0.
 00021166,0.00002587,-0.00000114,-0.00009135,-0.00001140,0.00001963,-0.
 00041467,0.00007787,-0.00025437,-0.00010341,-0.00035970,0.00012293,0.0
 0067767,-0.00012488,0.04351357,-0.05718936,0.07771089,0.00032327,-0.00
 016878,-0.00020830,0.00004071,0.00065401,-0.00003509,-0.00871236,-0.00
 001855,0.00189645,-0.27450591,-0.03977580,0.07161759,0.00952086,-0.000
 03730,0.00465719,-0.00010519,0.00132625,-0.00102458,0.00074162,0.00018
 624,-0.00081815,-0.00067650,-0.00044500,-0.00006944,0.00027632,-0.0022
 8570,-0.00012266,0.00000059,-0.00009395,-0.00003316,-0.00003175,0.0001
 9532,-0.00002774,0.00001227,-0.00001690,0.00001482,0.00070733,0.000077
 61,0.00060292,0.00019372,-0.00041625,-0.00046390,-0.01860567,-0.003649
 82,0.00470741,0.29046630,0.00042054,-0.00001021,-0.00026815,-0.0015419
 5,0.00173539,-0.00041089,-0.02702012,-0.00463299,0.00815683,-0.0371773
 4,-0.05948123,0.01412208,-0.00249108,0.00363687,0.00130481,-0.00080213
 ,-0.00135336,0.00080546,0.00071028,-0.00027433,-0.00002483,-0.00218697
 ,-0.00006511,0.00117948,0.00106704,-0.00518692,-0.00152399,-0.00000032
 ,-0.00009632,-0.00003538,-0.00000526,0.00025204,0.00000674,0.00002473,
 0.00001215,-0.00000625,0.00083356,-0.00030223,0.00034167,0.00059662,0.
 00122089,-0.00029225,0.02366210,0.00486505,-0.00603127,0.04425291,0.05
 961097,-0.00013709,-0.00015939,0.00007503,0.00036318,0.00059609,0.0001
 6365,-0.01132645,-0.00080332,0.00481559,0.06858442,0.01191066,-0.06493
 537,0.02790029,0.01279682,-0.02978659,0.00171318,-0.00535956,-0.002786
 62,-0.00073142,0.00038618,-0.00131139,-0.00070688,-0.00041825,0.001555
 41,0.00015128,-0.00261753,0.00014337,0.00001431,0.00013725,0.00002741,
 0.00000025,0.00003380,-0.00003156,0.00004477,0.00001291,-0.00003936,-0
 .00003802,0.00051429,0.00008173,0.00024364,0.00082498,0.00038839,-0.00
 584001,-0.00113647,0.00551400,-0.08078978,-0.01752425,0.08610927,0.000
 21872,-0.00058149,-0.00022741,0.00491375,-0.00349089,0.01115027,-0.001
 57264,0.00084801,0.00262876,0.00017503,-0.00225426,0.00150123,0.003464
 53,-0.00285459,0.01257549,-0.07373607,0.01676360,-0.07627619,-0.002320
 94,0.00567456,-0.02714345,-0.00055788,-0.00170539,-0.00123831,-0.00584
 690,0.00160038,-0.00094053,-0.00006067,0.00000253,-0.00007882,-0.00003
 052,0.00019168,-0.00008142,0.00004479,0.00009445,-0.00017306,0.0004630
 4,-0.00050199,-0.00055502,0.00065693,-0.00055036,0.00050765,-0.0000509
 9,-0.00017958,0.00052478,0.00006582,-0.00000723,0.00051185,0.07378576,
 -0.00045394,0.00137932,0.00042508,-0.00771183,0.00661553,-0.01563440,0
 .00152022,-0.00254545,-0.00390080,0.00015643,-0.00596653,-0.00108168,0
 .00275508,-0.01255435,0.03479967,0.01484664,-0.05365082,0.03764397,0.0
 0113230,0.00204489,-0.00083774,0.00062717,-0.00015425,0.00074745,-0.00
 003221,0.00077702,-0.00068971,0.00010354,0.00000987,0.00019821,-0.0000
 5589,-0.00008446,-0.00000399,0.00017217,-0.00027648,0.00043574,0.00014
 588,0.00027847,0.00080504,-0.00056790,0.00125197,-0.00074800,-0.000069
 79,0.00005574,0.00179133,0.00002487,-0.00007409,0.00066844,-0.01235197
 ,0.06305889,-0.00014940,0.00045485,0.00026339,-0.00698568,0.00524432,-
 0.01259401,0.00148739,-0.00127320,-0.00267233,-0.00071828,0.00030209,0
 .00082663,0.00087927,0.00391635,-0.00543040,-0.07283931,0.04650975,-0.
 29080164,0.00128637,-0.00037586,0.00022948,-0.00099256,-0.00066677,-0.
 00050680,0.00101645,0.00018931,0.00041074,0.00007936,-0.00018144,0.000
 20314,-0.00009855,-0.00004707,-0.00002556,0.00024385,-0.00071983,0.000
 15932,0.00036509,0.00026177,0.00062367,-0.00053127,0.00076463,-0.00058
 686,0.00012070,0.00005184,-0.00027635,0.00000472,0.00005734,-0.0001792
 3,0.07750359,-0.05454484,0.31017852,-0.00000740,-0.00031138,0.00035673
 ,-0.00476105,-0.00142061,-0.00198745,-0.00029744,0.00074006,-0.0006421
 2,0.00022580,0.00027893,-0.00033784,0.00202478,-0.00163728,-0.00057208
 ,-0.00797238,0.01473495,0.01679418,-0.17856422,0.09424770,0.11294371,0
 .01246198,-0.00846640,-0.01212399,-0.00199210,-0.00280455,-0.00403189,
 0.00007688,0.00026362,0.00000941,-0.00003665,0.00036903,-0.00011660,0.
 00005750,0.00001637,-0.00001545,-0.00059436,0.00080321,0.00152754,0.00
 011043,-0.00015412,0.00010115,-0.00000009,-0.00018517,0.00010867,0.000
 11431,0.00008286,-0.00001221,0.00036178,-0.00008323,-0.00058135,0.1780
 0683,-0.00024961,-0.00030898,0.00012119,-0.00004248,0.00008718,0.00107
 015,0.00023740,0.00171183,0.00249692,0.00035124,0.00030518,0.00043249,
 0.00160552,0.00170130,-0.00057594,-0.00045073,-0.00065160,-0.00057856,
 0.09591150,-0.10541625,-0.08071057,0.01318891,-0.01793147,-0.02284695,
 -0.01349989,0.00425394,0.00497674,0.00014404,-0.00001142,-0.00004369,0
 .00004931,0.00039236,-0.00005182,0.00014118,0.00003264,0.00001227,0.00
 003623,0.00007098,-0.00015802,-0.00097647,-0.00004721,0.00018572,-0.00
 004673,-0.00003618,-0.00003466,-0.00001797,-0.00001747,-0.00004460,0.0
 0018782,0.00002928,0.00009703,-0.09693563,0.11610780,0.00006474,-0.000
 32186,0.00002330,-0.00312050,-0.00066346,-0.00120003,-0.00097092,-0.00
 094935,-0.00190471,0.00029442,-0.00058166,-0.00071648,0.00053442,0.000
 24277,0.00012748,-0.00686007,0.00705520,0.00711916,0.10640741,-0.08322
 218,-0.13731198,-0.00090029,-0.00249892,-0.00893678,0.01412600,-0.0177
 8671,-0.00806416,0.00006357,0.00009143,0.00005648,0.00010264,0.0001744
 4,-0.00003259,0.00007367,-0.00004254,0.00001414,-0.00029528,0.00035181
 ,0.00092873,0.00097528,-0.00000850,0.00001001,-0.00002185,0.00007557,0
 .00001745,0.00007652,0.00018781,0.00011629,0.00078381,0.00007347,0.000
 01255,-0.11139398,0.09674483,0.14856402,-0.00004088,-0.00026224,-0.000
 35666,-0.00428596,-0.00156581,0.00211018,-0.00971164,0.01179437,-0.015
 28279,0.00056517,0.00216873,-0.00004625,0.00042196,-0.00022056,0.00009
 018,-0.00065098,0.00091463,0.00083652,-0.00224450,-0.00157743,0.003456
 39,0.01285933,-0.00831002,0.01015004,-0.19447872,0.09878752,-0.1066671
 9,0.00005737,0.00001620,0.00001035,-0.00002816,0.00032521,0.00014330,0
 .00005175,0.00023797,-0.00000513,-0.00064899,0.00087817,-0.00144167,0.
 00043014,0.00006621,0.00058130,0.00016340,-0.00105266,0.00003427,0.000
 17425,-0.00041822,0.00005468,0.00002647,-0.00015754,-0.00009039,0.0007
 8539,0.00036635,0.00006040,0.19655459,-0.00038685,-0.00030268,-0.00023
 920,-0.00006570,0.00039596,-0.00081106,0.00031246,0.00036931,0.0004711
 3,0.00077989,0.00101731,-0.00045056,0.00016539,0.00016257,-0.00020161,
 -0.00002813,0.00169940,-0.00257855,-0.01387961,0.00421523,-0.00394673,
 0.01486512,-0.01912486,0.02298650,0.09981669,-0.10390177,0.07046085,0.
 00015564,0.00004686,-0.00001863,0.00005283,0.00037999,0.00008796,0.000
 11739,0.00002786,0.00004063,0.00006810,0.00000890,0.00016952,0.0001141
 7,0.00001472,-0.00007750,0.00011834,-0.00002367,0.00014759,0.00020881,
 0.00016092,0.00018194,-0.00088528,-0.00019455,-0.00004028,0.00046164,-
 0.00027191,0.00107786,-0.10199088,0.11532039,-0.00014217,0.00029157,0.
 00007385,0.00340048,0.00081196,-0.00135939,0.00851463,-0.00700332,0.00
 764622,-0.00047033,-0.00062204,-0.00103517,-0.00079211,-0.00059375,0.0
 0058857,0.00203106,0.00170991,-0.00235260,-0.01534778,0.01837428,-0.00
 780249,-0.00087658,0.00350968,-0.01005510,-0.10072169,0.07307634,-0.11
 821064,-0.00009575,0.00005770,0.00001835,-0.00008853,-0.00021421,-0.00
 005855,-0.00005180,-0.00008861,0.00004593,0.00039602,-0.00051795,0.001
 04459,-0.00083295,-0.00011681,0.00006618,-0.00030056,-0.00013016,0.000
 18542,0.00001518,-0.00004497,0.00007997,-0.00097319,-0.00014725,0.0001
 6575,-0.00002641,-0.00109252,0.00117714,0.10636248,-0.08725985,0.12978
 197\\-0.00000545,-0.00000143,-0.00000033,-0.00000423,0.00000764,0.0000
 0371,0.00003587,-0.00000472,-0.00001256,-0.00001185,-0.00003785,-0.000
 02782,0.00000396,-0.00000436,0.00001537,0.00005769,0.00003389,-0.00001
 259,-0.00010225,-0.00005884,-0.00008325,0.00003984,0.00006908,0.000016
 47,-0.00007138,-0.00003911,0.00007369,-0.00000469,-0.00000148,-0.00000
 396,-0.00001005,0.00000469,0.00000253,0.00000133,-0.00000350,-0.000005
 06,0.00001776,-0.00000291,-0.00000580,-0.00001605,-0.00000598,0.000005
 62,0.00000215,0.00001272,0.00000948,0.00000623,0.00000963,0.00001022,0
 .00000036,-0.00000069,-0.00000460,0.00004127,0.00001607,0.00003389,0.0
 0001948,0.00000716,-0.00001501\\\@


 WE ARE REACHING THE STAGE WHERE THE PROBLEMS WE MUST SOLVE ARE 
 GOING TO BECOME INSOLUBLE WITHOUT COMPUTERS.
 I DO NOT FEAR COMPUTERS.  I FEAR THE LACK OF THEM.

                                   -- ISSAC ASIMOV
 Job cpu time:       0 days  0 hours 50 minutes 59.8 seconds.
 File lengths (MBytes):  RWF=    152 Int=      0 D2E=      0 Chk=      8 Scr=      1
 Normal termination of Gaussian 09 at Tue Jan 28 00:54:24 2020.
