 Entering Gaussian System, Link 0=/home/puck/opt/gaussian_09/g09
 Input=dsC7O2H10nsd_1577.com
 Output=dsC7O2H10nsd_1577.log
 Initial command:
 /home/puck/opt/gaussian_09/l1.exe "/scratch/puck/g09_4aea6450-182f-49b3-a042-c0f8be3413fb/Gau-176965.inp" -scrdir="/scratch/puck/g09_4aea6450-182f-49b3-a042-c0f8be3413fb/"
 Entering Link 1 = /home/puck/opt/gaussian_09/l1.exe PID=    176968.
  
 Copyright (c) 1988,1990,1992,1993,1995,1998,2003,2009,2013,
            Gaussian, Inc.  All Rights Reserved.
  
 This is part of the Gaussian(R) 09 program.  It is based on
 the Gaussian(R) 03 system (copyright 2003, Gaussian, Inc.),
 the Gaussian(R) 98 system (copyright 1998, Gaussian, Inc.),
 the Gaussian(R) 94 system (copyright 1995, Gaussian, Inc.),
 the Gaussian 92(TM) system (copyright 1992, Gaussian, Inc.),
 the Gaussian 90(TM) system (copyright 1990, Gaussian, Inc.),
 the Gaussian 88(TM) system (copyright 1988, Gaussian, Inc.),
 the Gaussian 86(TM) system (copyright 1986, Carnegie Mellon
 University), and the Gaussian 82(TM) system (copyright 1983,
 Carnegie Mellon University). Gaussian is a federally registered
 trademark of Gaussian, Inc.
  
 This software contains proprietary and confidential information,
 including trade secrets, belonging to Gaussian, Inc.
  
 This software is provided under written license and may be
 used, copied, transmitted, or stored only in accord with that
 written license.
  
 The following legend is applicable only to US Government
 contracts under FAR:
  
                    RESTRICTED RIGHTS LEGEND
  
 Use, reproduction and disclosure by the US Government is
 subject to restrictions as set forth in subparagraphs (a)
 and (c) of the Commercial Computer Software - Restricted
 Rights clause in FAR 52.227-19.
  
 Gaussian, Inc.
 340 Quinnipiac St., Bldg. 40, Wallingford CT 06492
  
  
 ---------------------------------------------------------------
 Warning -- This program may not be used in any manner that
 competes with the business of Gaussian, Inc. or will provide
 assistance to any competitor of Gaussian, Inc.  The licensee
 of this program is prohibited from giving any competitor of
 Gaussian, Inc. access to this program.  By using this program,
 the user acknowledges that Gaussian, Inc. is engaged in the
 business of creating and licensing software in the field of
 computational chemistry and represents and warrants to the
 licensee that it is not a competitor of Gaussian, Inc. and that
 it will not use this program in any manner prohibited above.
 ---------------------------------------------------------------
  

 Cite this work as:
 Gaussian 09, Revision D.01,
 M. J. Frisch, G. W. Trucks, H. B. Schlegel, G. E. Scuseria, 
 M. A. Robb, J. R. Cheeseman, G. Scalmani, V. Barone, B. Mennucci, 
 G. A. Petersson, H. Nakatsuji, M. Caricato, X. Li, H. P. Hratchian, 
 A. F. Izmaylov, J. Bloino, G. Zheng, J. L. Sonnenberg, M. Hada, 
 M. Ehara, K. Toyota, R. Fukuda, J. Hasegawa, M. Ishida, T. Nakajima, 
 Y. Honda, O. Kitao, H. Nakai, T. Vreven, J. A. Montgomery, Jr., 
 J. E. Peralta, F. Ogliaro, M. Bearpark, J. J. Heyd, E. Brothers, 
 K. N. Kudin, V. N. Staroverov, T. Keith, R. Kobayashi, J. Normand, 
 K. Raghavachari, A. Rendell, J. C. Burant, S. S. Iyengar, J. Tomasi, 
 M. Cossi, N. Rega, J. M. Millam, M. Klene, J. E. Knox, J. B. Cross, 
 V. Bakken, C. Adamo, J. Jaramillo, R. Gomperts, R. E. Stratmann, 
 O. Yazyev, A. J. Austin, R. Cammi, C. Pomelli, J. W. Ochterski, 
 R. L. Martin, K. Morokuma, V. G. Zakrzewski, G. A. Voth, 
 P. Salvador, J. J. Dannenberg, S. Dapprich, A. D. Daniels, 
 O. Farkas, J. B. Foresman, J. V. Ortiz, J. Cioslowski, 
 and D. J. Fox, Gaussian, Inc., Wallingford CT, 2013.
 
 ******************************************
 Gaussian 09:  ES64L-G09RevD.01 24-Apr-2013
                27-Jan-2020 
 ******************************************
 -----------------------------
 # b3lyp 6-31G(2df,p) opt Freq
 -----------------------------
 1/14=-1,18=20,19=15,26=3,38=1/1,3;
 2/9=110,12=2,17=6,18=5,40=1/2;
 3/5=1,6=6,7=104,11=2,16=1,25=1,30=1,71=1,74=-5/1,2,3;
 4//1;
 5/5=2,38=5/2;
 6/7=2,8=2,9=2,10=2,28=1/1;
 7//1,2,3,16;
 1/14=-1,18=20,19=15,26=3/3(2);
 2/9=110/2;
 99//99;
 2/9=110/2;
 3/5=1,6=6,7=104,11=2,16=1,25=1,30=1,71=1,74=-5/1,2,3;
 4/5=5,16=3,69=1/1;
 5/5=2,38=5/2;
 7//1,2,3,16;
 1/14=-1,18=20,19=15,26=3/3(-5);
 2/9=110/2;
 6/7=2,8=2,9=2,10=2,19=2,28=1/1;
 99/9=1/99;
 -----
 titel
 -----
 Symbolic Z-matrix:
 Charge =  0 Multiplicity = 1
 C                     0.16878  -1.04462  -0.59558 
 C                     1.23759  -0.05104  -0.13744 
 C                     2.21104  -0.66919   0.86322 
 C                     1.95156   0.62742  -1.33145 
 O                     1.20545   1.82036  -1.54183 
 C                     0.83168   2.23518  -0.24789 
 O                     0.5528    1.06274   0.48919 
 C                     1.88818   3.03961   0.39989 
 C                     2.73698   3.70899   0.92496 
 H                    -0.45415  -1.34458   0.25164 
 H                    -0.47535  -0.58625  -1.35125 
 H                     0.62668  -1.94309  -1.02255 
 H                     1.66931  -1.08806   1.71595 
 H                     2.78593  -1.47592   0.39544 
 H                     2.90767   0.08658   1.23502 
 H                     2.99781   0.86051  -1.09026 
 H                     1.91364   0.0401   -2.25075 
 H                    -0.0861    2.8263   -0.33804 
 H                     3.48479   4.30312   1.3901 
 

 GradGradGradGradGradGradGradGradGradGradGradGradGradGradGradGradGradGrad
 Berny optimization.
 Initialization pass.
                           ----------------------------
                           !    Initial Parameters    !
                           ! (Angstroms and Degrees)  !
 --------------------------                            --------------------------
 ! Name  Definition              Value          Derivative Info.                !
 --------------------------------------------------------------------------------
 ! R1    R(1,2)                  1.5295         estimate D2E/DX2                !
 ! R2    R(1,10)                 1.0935         estimate D2E/DX2                !
 ! R3    R(1,11)                 1.0936         estimate D2E/DX2                !
 ! R4    R(1,12)                 1.0951         estimate D2E/DX2                !
 ! R5    R(2,3)                  1.5268         estimate D2E/DX2                !
 ! R6    R(2,4)                  1.5478         estimate D2E/DX2                !
 ! R7    R(2,7)                  1.4499         estimate D2E/DX2                !
 ! R8    R(3,13)                 1.0937         estimate D2E/DX2                !
 ! R9    R(3,14)                 1.0955         estimate D2E/DX2                !
 ! R10   R(3,15)                 1.093          estimate D2E/DX2                !
 ! R11   R(4,5)                  1.4227         estimate D2E/DX2                !
 ! R12   R(4,16)                 1.0987         estimate D2E/DX2                !
 ! R13   R(4,17)                 1.0916         estimate D2E/DX2                !
 ! R14   R(5,6)                  1.4093         estimate D2E/DX2                !
 ! R15   R(6,7)                  1.4127         estimate D2E/DX2                !
 ! R16   R(6,8)                  1.4775         estimate D2E/DX2                !
 ! R17   R(6,18)                 1.0954         estimate D2E/DX2                !
 ! R18   R(8,9)                  1.2018         estimate D2E/DX2                !
 ! R19   R(9,19)                 1.0623         estimate D2E/DX2                !
 ! A1    A(2,1,10)             110.132          estimate D2E/DX2                !
 ! A2    A(2,1,11)             110.2595         estimate D2E/DX2                !
 ! A3    A(2,1,12)             110.9504         estimate D2E/DX2                !
 ! A4    A(10,1,11)            108.3483         estimate D2E/DX2                !
 ! A5    A(10,1,12)            108.3736         estimate D2E/DX2                !
 ! A6    A(11,1,12)            108.7082         estimate D2E/DX2                !
 ! A7    A(1,2,3)              112.2624         estimate D2E/DX2                !
 ! A8    A(1,2,4)              112.0866         estimate D2E/DX2                !
 ! A9    A(1,2,7)              107.3632         estimate D2E/DX2                !
 ! A10   A(3,2,4)              112.89           estimate D2E/DX2                !
 ! A11   A(3,2,7)              109.2021         estimate D2E/DX2                !
 ! A12   A(4,2,7)              102.3887         estimate D2E/DX2                !
 ! A13   A(2,3,13)             110.5044         estimate D2E/DX2                !
 ! A14   A(2,3,14)             110.6636         estimate D2E/DX2                !
 ! A15   A(2,3,15)             110.4484         estimate D2E/DX2                !
 ! A16   A(13,3,14)            108.109          estimate D2E/DX2                !
 ! A17   A(13,3,15)            108.3786         estimate D2E/DX2                !
 ! A18   A(14,3,15)            108.6606         estimate D2E/DX2                !
 ! A19   A(2,4,5)              103.8696         estimate D2E/DX2                !
 ! A20   A(2,4,16)             111.2787         estimate D2E/DX2                !
 ! A21   A(2,4,17)             113.4415         estimate D2E/DX2                !
 ! A22   A(5,4,16)             110.7303         estimate D2E/DX2                !
 ! A23   A(5,4,17)             107.9634         estimate D2E/DX2                !
 ! A24   A(16,4,17)            109.3968         estimate D2E/DX2                !
 ! A25   A(4,5,6)              104.4858         estimate D2E/DX2                !
 ! A26   A(5,6,7)              106.6855         estimate D2E/DX2                !
 ! A27   A(5,6,8)              111.9108         estimate D2E/DX2                !
 ! A28   A(5,6,18)             107.788          estimate D2E/DX2                !
 ! A29   A(7,6,8)              111.3632         estimate D2E/DX2                !
 ! A30   A(7,6,18)             108.9904         estimate D2E/DX2                !
 ! A31   A(8,6,18)             109.9626         estimate D2E/DX2                !
 ! A32   A(2,7,6)              108.5913         estimate D2E/DX2                !
 ! A33   L(6,8,9,15,-1)        180.849          estimate D2E/DX2                !
 ! A34   L(8,9,19,15,-1)       180.15           estimate D2E/DX2                !
 ! A35   L(6,8,9,15,-2)        180.2406         estimate D2E/DX2                !
 ! A36   L(8,9,19,15,-2)       180.1424         estimate D2E/DX2                !
 ! D1    D(10,1,2,3)            63.6231         estimate D2E/DX2                !
 ! D2    D(10,1,2,4)          -168.0834         estimate D2E/DX2                !
 ! D3    D(10,1,2,7)           -56.4006         estimate D2E/DX2                !
 ! D4    D(11,1,2,3)          -176.859          estimate D2E/DX2                !
 ! D5    D(11,1,2,4)           -48.5654         estimate D2E/DX2                !
 ! D6    D(11,1,2,7)            63.1173         estimate D2E/DX2                !
 ! D7    D(12,1,2,3)           -56.3666         estimate D2E/DX2                !
 ! D8    D(12,1,2,4)            71.927          estimate D2E/DX2                !
 ! D9    D(12,1,2,7)          -176.3903         estimate D2E/DX2                !
 ! D10   D(1,2,3,13)           -55.2501         estimate D2E/DX2                !
 ! D11   D(1,2,3,14)            64.4664         estimate D2E/DX2                !
 ! D12   D(1,2,3,15)          -175.1639         estimate D2E/DX2                !
 ! D13   D(4,2,3,13)           176.8808         estimate D2E/DX2                !
 ! D14   D(4,2,3,14)           -63.4027         estimate D2E/DX2                !
 ! D15   D(4,2,3,15)            56.967          estimate D2E/DX2                !
 ! D16   D(7,2,3,13)            63.6992         estimate D2E/DX2                !
 ! D17   D(7,2,3,14)          -176.5844         estimate D2E/DX2                !
 ! D18   D(7,2,3,15)           -56.2147         estimate D2E/DX2                !
 ! D19   D(1,2,4,5)             92.7909         estimate D2E/DX2                !
 ! D20   D(1,2,4,16)          -148.037          estimate D2E/DX2                !
 ! D21   D(1,2,4,17)           -24.1653         estimate D2E/DX2                !
 ! D22   D(3,2,4,5)           -139.248          estimate D2E/DX2                !
 ! D23   D(3,2,4,16)           -20.0759         estimate D2E/DX2                !
 ! D24   D(3,2,4,17)           103.7958         estimate D2E/DX2                !
 ! D25   D(7,2,4,5)            -21.9726         estimate D2E/DX2                !
 ! D26   D(7,2,4,16)            97.1995         estimate D2E/DX2                !
 ! D27   D(7,2,4,17)          -138.9288         estimate D2E/DX2                !
 ! D28   D(1,2,7,6)           -118.0684         estimate D2E/DX2                !
 ! D29   D(3,2,7,6)            119.9789         estimate D2E/DX2                !
 ! D30   D(4,2,7,6)              0.0979         estimate D2E/DX2                !
 ! D31   D(2,4,5,6)             35.8855         estimate D2E/DX2                !
 ! D32   D(16,4,5,6)           -83.6609         estimate D2E/DX2                !
 ! D33   D(17,4,5,6)           156.6033         estimate D2E/DX2                !
 ! D34   D(4,5,6,7)            -36.9315         estimate D2E/DX2                !
 ! D35   D(4,5,6,8)             85.105          estimate D2E/DX2                !
 ! D36   D(4,5,6,18)          -153.8636         estimate D2E/DX2                !
 ! D37   D(5,6,7,2)             22.3428         estimate D2E/DX2                !
 ! D38   D(8,6,7,2)           -100.0386         estimate D2E/DX2                !
 ! D39   D(18,6,7,2)           138.4743         estimate D2E/DX2                !
 --------------------------------------------------------------------------------
 Trust Radius=3.00D-01 FncErr=1.00D-07 GrdErr=1.00D-06
 Number of steps in this run=    104 maximum allowed number of steps=    114.
 GradGradGradGradGradGradGradGradGradGradGradGradGradGradGradGradGradGrad

                          Input orientation:                          
 ---------------------------------------------------------------------
 Center     Atomic      Atomic             Coordinates (Angstroms)
 Number     Number       Type             X           Y           Z
 ---------------------------------------------------------------------
      1          6           0        0.168778   -1.044622   -0.595582
      2          6           0        1.237593   -0.051041   -0.137437
      3          6           0        2.211038   -0.669186    0.863216
      4          6           0        1.951557    0.627419   -1.331451
      5          8           0        1.205450    1.820360   -1.541825
      6          6           0        0.831679    2.235183   -0.247888
      7          8           0        0.552798    1.062741    0.489187
      8          6           0        1.888182    3.039606    0.399888
      9          6           0        2.736980    3.708990    0.924962
     10          1           0       -0.454147   -1.344581    0.251640
     11          1           0       -0.475349   -0.586251   -1.351246
     12          1           0        0.626680   -1.943094   -1.022549
     13          1           0        1.669313   -1.088064    1.715952
     14          1           0        2.785930   -1.475917    0.395438
     15          1           0        2.907674    0.086575    1.235025
     16          1           0        2.997813    0.860511   -1.090264
     17          1           0        1.913635    0.040104   -2.250749
     18          1           0       -0.086096    2.826296   -0.338042
     19          1           0        3.484791    4.303124    1.390095
 ---------------------------------------------------------------------
                    Distance matrix (angstroms):
                    1          2          3          4          5
     1  C    0.000000
     2  C    1.529532   0.000000
     3  C    2.537690   1.526763   0.000000
     4  C    2.552553   1.547813   2.562241   0.000000
     5  O    3.190328   2.339975   3.604618   1.422688   0.000000
     6  C    3.364142   2.324605   3.401844   2.239004   1.409275
     7  O    2.401078   1.449867   2.426774   2.336826   2.263836
     8  C    4.541831   3.203761   3.751539   2.969881   2.392265
     9  C    5.612891   4.185056   4.410086   3.899278   3.463748
    10  H    1.093525   2.164858   2.816629   3.490326   3.998454
    11  H    1.093632   2.166553   3.482441   2.713533   2.941629
    12  H    1.095092   2.176351   2.772930   2.908309   3.842943
    13  H    2.756208   2.167221   1.093656   3.508448   4.391721
    14  H    2.831541   2.170616   1.095506   2.846462   4.137191
    15  H    3.483142   2.166047   1.093032   2.791678   3.689779
    16  H    3.446401   2.199359   2.602897   1.098705   2.082735
    17  H    2.638321   2.220682   3.207541   1.091552   2.042892
    18  H    3.887840   3.173557   4.351809   3.158156   2.032017
    19  H    6.598276   5.132447   5.159837   4.823736   4.467177
                    6          7          8          9         10
     6  C    0.000000
     7  O    1.412683   0.000000
     8  C    1.477467   2.387303   0.000000
     9  C    2.679152   3.458783   1.201764   0.000000
    10  H    3.836351   2.620223   4.972884   6.014585   0.000000
    11  H    3.299426   2.676463   4.669002   5.826601   1.773346
    12  H    4.254424   3.365390   5.333105   6.339734   1.774814
    13  H    3.949971   2.716159   4.337924   4.977681   2.592122
    14  H    4.243257   3.382374   4.603903   5.212107   3.245925
    15  H    3.335461   2.656052   3.233760   3.639666   3.783794
    16  H    2.700270   2.917818   2.863614   3.499001   4.310356
    17  H    3.162349   3.225665   4.002940   4.921764   3.712910
    18  H    1.095378   2.050029   2.118446   3.216222   4.228405
    19  H    3.741439   4.461871   2.264100   1.062339   6.979104
                   11         12         13         14         15
    11  H    0.000000
    12  H    1.778632   0.000000
    13  H    3.776122   3.052466   0.000000
    14  H    3.805043   2.625130   1.772293   0.000000
    15  H    4.311187   3.797253   1.773304   1.777951   0.000000
    16  H    3.771483   3.672473   3.665611   2.776887   2.452360
    17  H    2.628436   2.664171   4.131244   3.171991   3.625036
    18  H    3.581002   4.870697   4.756319   5.224516   4.352386
    19  H    6.863210   7.280446   5.697987   5.905512   4.258685
                   16         17         18         19
    16  H    0.000000
    17  H    1.787521   0.000000
    18  H    3.733717   3.926861   0.000000
    19  H    4.270939   5.822166   4.233049   0.000000
 Stoichiometry    C7H10O2
 Framework group  C1[X(C7H10O2)]
 Deg. of freedom    51
 Full point group                 C1      NOp   1
 Largest Abelian subgroup         C1      NOp   1
 Largest concise Abelian subgroup C1      NOp   1
                         Standard orientation:                         
 ---------------------------------------------------------------------
 Center     Atomic      Atomic             Coordinates (Angstroms)
 Number     Number       Type             X           Y           Z
 ---------------------------------------------------------------------
      1          6           0       -2.406758   -0.390749   -0.443305
      2          6           0       -1.092787    0.245079    0.013501
      3          6           0       -1.243362    1.735392    0.308960
      4          6           0       -0.442288   -0.537216    1.179944
      5          8           0        0.443065   -1.442611    0.531522
      6          6           0        0.938627   -0.720987   -0.572893
      7          8           0       -0.130534    0.065827   -1.056103
      8          6           0        2.100651    0.115536   -0.208425
      9          6           0        3.056837    0.784601    0.078449
     10          1           0       -2.729315    0.050794   -1.390296
     11          1           0       -2.275471   -1.466250   -0.591947
     12          1           0       -3.196914   -0.232516    0.298209
     13          1           0       -1.654745    2.258358   -0.559000
     14          1           0       -1.920417    1.895247    1.155232
     15          1           0       -0.272828    2.177010    0.549285
     16          1           0        0.110901    0.134312    1.850903
     17          1           0       -1.156455   -1.123085    1.761501
     18          1           0        1.225656   -1.444348   -1.343749
     19          1           0        3.903821    1.374812    0.329116
 ---------------------------------------------------------------------
 Rotational constants (GHZ):      2.9695732      1.2931487      1.1443654
 Standard basis: 6-31G(2df,p) (6D, 7F)
 There are   329 symmetry adapted cartesian basis functions of A   symmetry.
 There are   302 symmetry adapted basis functions of A   symmetry.
   302 basis functions,   466 primitive gaussians,   329 cartesian basis functions
    34 alpha electrons       34 beta electrons
       nuclear repulsion energy       465.2602559605 Hartrees.
 NAtoms=   19 NActive=   19 NUniq=   19 SFac= 1.00D+00 NAtFMM=   60 NAOKFM=F Big=F
 Integral buffers will be    131072 words long.
 Raffenetti 2 integral format.
 Two-electron integral symmetry is turned on.
 One-electron integrals computed using PRISM.
 NBasis=   302 RedAO= T EigKep=  1.29D-04  NBF=   302
 NBsUse=   302 1.00D-06 EigRej= -1.00D+00 NBFU=   302
 ExpMin= 1.61D-01 ExpMax= 5.48D+03 ExpMxC= 8.25D+02 IAcc=1 IRadAn=         1 AccDes= 0.00D+00
 Harris functional with IExCor=  402 and IRadAn=       1 diagonalized for initial guess.
 HarFok:  IExCor=  402 AccDes= 0.00D+00 IRadAn=         1 IDoV= 1 UseB2=F ITyADJ=14
 ICtDFT=  3500011 ScaDFX=  1.000000  1.000000  1.000000  1.000000
 FoFCou: FMM=F IPFlag=           0 FMFlag=      100000 FMFlg1=           0
         NFxFlg=           0 DoJE=T BraDBF=F KetDBF=T FulRan=T
         wScrn=  0.000000 ICntrl=     500 IOpCl=  0 I1Cent=   200000004 NGrid=           0
         NMat0=    1 NMatS0=      1 NMatT0=    0 NMatD0=    1 NMtDS0=    0 NMtDT0=    0
 Petite list used in FoFCou.
 Requested convergence on RMS density matrix=1.00D-08 within 128 cycles.
 Requested convergence on MAX density matrix=1.00D-06.
 Requested convergence on             energy=1.00D-06.
 No special actions if energy rises.
 Integral accuracy reduced to 1.0D-05 until final iterations.
 Initial convergence to 1.0D-05 achieved.  Increase integral accuracy.
 SCF Done:  E(RB3LYP) =  -423.154137544     A.U. after   14 cycles
            NFock= 14  Conv=0.64D-08     -V/T= 2.0074

 **********************************************************************

            Population analysis using the SCF density.

 **********************************************************************

 Orbital symmetries:
       Occupied  (A) (A) (A) (A) (A) (A) (A) (A) (A) (A) (A) (A)
                 (A) (A) (A) (A) (A) (A) (A) (A) (A) (A) (A) (A)
                 (A) (A) (A) (A) (A) (A) (A) (A) (A) (A)
       Virtual   (A) (A) (A) (A) (A) (A) (A) (A) (A) (A) (A) (A)
                 (A) (A) (A) (A) (A) (A) (A) (A) (A) (A) (A) (A)
                 (A) (A) (A) (A) (A) (A) (A) (A) (A) (A) (A) (A)
                 (A) (A) (A) (A) (A) (A) (A) (A) (A) (A) (A) (A)
                 (A) (A) (A) (A) (A) (A) (A) (A) (A) (A) (A) (A)
                 (A) (A) (A) (A) (A) (A) (A) (A) (A) (A) (A) (A)
                 (A) (A) (A) (A) (A) (A) (A) (A) (A) (A) (A) (A)
                 (A) (A) (A) (A) (A) (A) (A) (A) (A) (A) (A) (A)
                 (A) (A) (A) (A) (A) (A) (A) (A) (A) (A) (A) (A)
                 (A) (A) (A) (A) (A) (A) (A) (A) (A) (A) (A) (A)
                 (A) (A) (A) (A) (A) (A) (A) (A) (A) (A) (A) (A)
                 (A) (A) (A) (A) (A) (A) (A) (A) (A) (A) (A) (A)
                 (A) (A) (A) (A) (A) (A) (A) (A) (A) (A) (A) (A)
                 (A) (A) (A) (A) (A) (A) (A) (A) (A) (A) (A) (A)
                 (A) (A) (A) (A) (A) (A) (A) (A) (A) (A) (A) (A)
                 (A) (A) (A) (A) (A) (A) (A) (A) (A) (A) (A) (A)
                 (A) (A) (A) (A) (A) (A) (A) (A) (A) (A) (A) (A)
                 (A) (A) (A) (A) (A) (A) (A) (A) (A) (A) (A) (A)
                 (A) (A) (A) (A) (A) (A) (A) (A) (A) (A) (A) (A)
                 (A) (A) (A) (A) (A) (A) (A) (A) (A) (A) (A) (A)
                 (A) (A) (A) (A) (A) (A) (A) (A) (A) (A) (A) (A)
                 (A) (A) (A) (A) (A) (A) (A) (A) (A) (A) (A) (A)
                 (A) (A) (A) (A)
 The electronic state is 1-A.
 Alpha  occ. eigenvalues --  -19.15623 -19.14570 -10.30164 -10.24623 -10.23380
 Alpha  occ. eigenvalues --  -10.18487 -10.18236 -10.17846 -10.17706  -1.09447
 Alpha  occ. eigenvalues --   -0.99715  -0.81249  -0.75549  -0.70293  -0.69549
 Alpha  occ. eigenvalues --   -0.65160  -0.57904  -0.54934  -0.51387  -0.50535
 Alpha  occ. eigenvalues --   -0.47488  -0.45173  -0.42733  -0.42556  -0.40644
 Alpha  occ. eigenvalues --   -0.38441  -0.37926  -0.35958  -0.33889  -0.32693
 Alpha  occ. eigenvalues --   -0.29508  -0.27898  -0.27271  -0.25861
 Alpha virt. eigenvalues --    0.03344   0.03898   0.08965   0.11559   0.12064
 Alpha virt. eigenvalues --    0.12685   0.14000   0.14600   0.15052   0.16032
 Alpha virt. eigenvalues --    0.16763   0.18703   0.19334   0.19847   0.20553
 Alpha virt. eigenvalues --    0.24094   0.25444   0.26944   0.27294   0.30920
 Alpha virt. eigenvalues --    0.37956   0.39511   0.41471   0.43889   0.45886
 Alpha virt. eigenvalues --    0.46593   0.48737   0.51119   0.51959   0.52626
 Alpha virt. eigenvalues --    0.53335   0.54721   0.55536   0.60141   0.61694
 Alpha virt. eigenvalues --    0.62977   0.64658   0.67094   0.67975   0.68603
 Alpha virt. eigenvalues --    0.69587   0.71768   0.72157   0.73027   0.73621
 Alpha virt. eigenvalues --    0.74332   0.74555   0.75219   0.77592   0.78118
 Alpha virt. eigenvalues --    0.79269   0.82329   0.83699   0.85020   0.86013
 Alpha virt. eigenvalues --    0.87444   0.88336   0.90187   0.91088   0.93315
 Alpha virt. eigenvalues --    0.95006   0.97399   1.05625   1.06705   1.08962
 Alpha virt. eigenvalues --    1.10645   1.12660   1.15984   1.17171   1.19724
 Alpha virt. eigenvalues --    1.22010   1.22717   1.23920   1.24654   1.27015
 Alpha virt. eigenvalues --    1.29415   1.34834   1.35827   1.37470   1.39593
 Alpha virt. eigenvalues --    1.41094   1.44326   1.45294   1.45764   1.47608
 Alpha virt. eigenvalues --    1.50733   1.51601   1.53339   1.54848   1.57253
 Alpha virt. eigenvalues --    1.59183   1.60834   1.65836   1.68269   1.69523
 Alpha virt. eigenvalues --    1.71931   1.73431   1.75781   1.77255   1.82127
 Alpha virt. eigenvalues --    1.82499   1.85238   1.85624   1.91550   1.93556
 Alpha virt. eigenvalues --    1.95035   1.95907   1.98873   2.00857   2.01612
 Alpha virt. eigenvalues --    2.05950   2.14117   2.21350   2.26547   2.28931
 Alpha virt. eigenvalues --    2.31782   2.33570   2.37291   2.38816   2.44543
 Alpha virt. eigenvalues --    2.45906   2.50125   2.51269   2.54522   2.56264
 Alpha virt. eigenvalues --    2.57029   2.65578   2.66287   2.67080   2.68495
 Alpha virt. eigenvalues --    2.69932   2.72187   2.74090   2.74534   2.77260
 Alpha virt. eigenvalues --    2.81164   2.82273   2.84803   2.86596   2.87599
 Alpha virt. eigenvalues --    2.90398   2.92822   2.93870   2.95740   2.98180
 Alpha virt. eigenvalues --    2.99053   3.02302   3.04970   3.06506   3.07030
 Alpha virt. eigenvalues --    3.07965   3.09584   3.10338   3.13788   3.18016
 Alpha virt. eigenvalues --    3.20563   3.22407   3.29905   3.33172   3.35785
 Alpha virt. eigenvalues --    3.39018   3.40973   3.42019   3.43233   3.44565
 Alpha virt. eigenvalues --    3.47097   3.47801   3.50979   3.52830   3.54878
 Alpha virt. eigenvalues --    3.55693   3.59243   3.63788   3.64181   3.65975
 Alpha virt. eigenvalues --    3.67533   3.71497   3.74147   3.78653   3.81539
 Alpha virt. eigenvalues --    3.85948   3.89998   3.92319   3.94825   3.98244
 Alpha virt. eigenvalues --    4.02070   4.09800   4.16815   4.18569   4.21492
 Alpha virt. eigenvalues --    4.22197   4.23044   4.25279   4.27871   4.31668
 Alpha virt. eigenvalues --    4.34033   4.35137   4.36819   4.38507   4.40956
 Alpha virt. eigenvalues --    4.43696   4.45549   4.47427   4.48416   4.49693
 Alpha virt. eigenvalues --    4.52295   4.53979   4.58259   4.60095   4.62082
 Alpha virt. eigenvalues --    4.62887   4.66435   4.67908   4.68835   4.72094
 Alpha virt. eigenvalues --    4.72497   4.74011   4.75048   4.76444   4.78545
 Alpha virt. eigenvalues --    4.81542   4.82179   4.85226   4.85766   4.88231
 Alpha virt. eigenvalues --    4.90544   4.95057   4.97457   4.99884   5.02444
 Alpha virt. eigenvalues --    5.12381   5.15909   5.20141   5.30362   5.30748
 Alpha virt. eigenvalues --    5.31006   5.35266   5.42052   5.44874   5.45331
 Alpha virt. eigenvalues --    5.50658   5.59282   5.62906   5.69383   5.77352
 Alpha virt. eigenvalues --    5.84010   5.85902   5.90744   5.96096   6.03310
 Alpha virt. eigenvalues --    6.06786   6.13953   6.17978   6.27361   6.28618
 Alpha virt. eigenvalues --    6.33447   6.90744   7.23582   7.50268   9.70541
 Alpha virt. eigenvalues --   10.91371  11.37593  11.77843  11.87931  12.06420
 Alpha virt. eigenvalues --   12.65347  13.51188  13.81896
          Condensed to atoms (all electrons):
               1          2          3          4          5          6
     1  C    5.084453   0.398737  -0.080540  -0.033650   0.001596   0.001270
     2  C    0.398737   4.434197   0.389442   0.355276  -0.045463  -0.107200
     3  C   -0.080540   0.389442   5.101126  -0.042499   0.001265   0.007389
     4  C   -0.033650   0.355276  -0.042499   4.954983   0.375273  -0.119135
     5  O    0.001596  -0.045463   0.001265   0.375273   7.721002   0.360820
     6  C    0.001270  -0.107200   0.007389  -0.119135   0.360820   4.867223
     7  O   -0.036842   0.344112  -0.029631  -0.041887  -0.052791   0.362000
     8  C    0.000176  -0.001696  -0.000878   0.004518  -0.049712   0.291991
     9  C   -0.000002  -0.000277  -0.000005  -0.000089  -0.013118  -0.037089
    10  H    0.366251  -0.015534  -0.003406   0.004309  -0.000078  -0.000163
    11  H    0.360417  -0.016342   0.005653  -0.005420   0.003034   0.002582
    12  H    0.355909  -0.019957   0.000670  -0.001897   0.000156  -0.000078
    13  H   -0.004220  -0.015159   0.367512   0.004299  -0.000076  -0.000165
    14  H    0.001496  -0.020182   0.358165  -0.002435   0.000085  -0.000216
    15  H    0.005317  -0.009600   0.355491  -0.004959   0.000084  -0.000564
    16  H    0.006021  -0.033817  -0.006958   0.345425  -0.033335   0.004700
    17  H   -0.008497  -0.014036   0.004229   0.355613  -0.014717   0.005131
    18  H   -0.000108   0.004251  -0.000294   0.006582  -0.020259   0.385345
    19  H    0.000000   0.000003   0.000002   0.000022  -0.000053  -0.000856
               7          8          9         10         11         12
     1  C   -0.036842   0.000176  -0.000002   0.366251   0.360417   0.355909
     2  C    0.344112  -0.001696  -0.000277  -0.015534  -0.016342  -0.019957
     3  C   -0.029631  -0.000878  -0.000005  -0.003406   0.005653   0.000670
     4  C   -0.041887   0.004518  -0.000089   0.004309  -0.005420  -0.001897
     5  O   -0.052791  -0.049712  -0.013118  -0.000078   0.003034   0.000156
     6  C    0.362000   0.291991  -0.037089  -0.000163   0.002582  -0.000078
     7  O    7.835538  -0.058847  -0.013482  -0.000656  -0.000556   0.002844
     8  C   -0.058847   4.623061   0.918307  -0.000023   0.000139   0.000023
     9  C   -0.013482   0.918307   5.219037  -0.000001   0.000003   0.000001
    10  H   -0.000656  -0.000023  -0.000001   0.580227  -0.030039  -0.029854
    11  H   -0.000556   0.000139   0.000003  -0.030039   0.580697  -0.028252
    12  H    0.002844   0.000023   0.000001  -0.029854  -0.028252   0.606854
    13  H   -0.001379   0.000071   0.000000   0.003572  -0.000050   0.000207
    14  H    0.002532  -0.000016  -0.000006  -0.000029  -0.000079   0.000624
    15  H   -0.000916   0.003078   0.001730  -0.000084  -0.000202  -0.000020
    16  H   -0.002380   0.005785   0.005084  -0.000206   0.000261  -0.000041
    17  H    0.002330  -0.000562  -0.000088   0.000048   0.001429   0.001303
    18  H   -0.021635  -0.073318  -0.005928   0.000002  -0.000219  -0.000004
    19  H   -0.000053  -0.008829   0.379038   0.000000   0.000000   0.000000
              13         14         15         16         17         18
     1  C   -0.004220   0.001496   0.005317   0.006021  -0.008497  -0.000108
     2  C   -0.015159  -0.020182  -0.009600  -0.033817  -0.014036   0.004251
     3  C    0.367512   0.358165   0.355491  -0.006958   0.004229  -0.000294
     4  C    0.004299  -0.002435  -0.004959   0.345425   0.355613   0.006582
     5  O   -0.000076   0.000085   0.000084  -0.033335  -0.014717  -0.020259
     6  C   -0.000165  -0.000216  -0.000564   0.004700   0.005131   0.385345
     7  O   -0.001379   0.002532  -0.000916  -0.002380   0.002330  -0.021635
     8  C    0.000071  -0.000016   0.003078   0.005785  -0.000562  -0.073318
     9  C    0.000000  -0.000006   0.001730   0.005084  -0.000088  -0.005928
    10  H    0.003572  -0.000029  -0.000084  -0.000206   0.000048   0.000002
    11  H   -0.000050  -0.000079  -0.000202   0.000261   0.001429  -0.000219
    12  H    0.000207   0.000624  -0.000020  -0.000041   0.001303  -0.000004
    13  H    0.579693  -0.031276  -0.028861  -0.000018  -0.000208  -0.000002
    14  H   -0.031276   0.603349  -0.027443   0.000996  -0.000015   0.000009
    15  H   -0.028861  -0.027443   0.571397   0.005240  -0.000045   0.000019
    16  H   -0.000018   0.000996   0.005240   0.646836  -0.048038  -0.000185
    17  H   -0.000208  -0.000015  -0.000045  -0.048038   0.597516  -0.000174
    18  H   -0.000002   0.000009   0.000019  -0.000185  -0.000174   0.608258
    19  H    0.000000   0.000000   0.000007   0.000073   0.000000  -0.000138
              19
     1  C    0.000000
     2  C    0.000003
     3  C    0.000002
     4  C    0.000022
     5  O   -0.000053
     6  C   -0.000856
     7  O   -0.000053
     8  C   -0.008829
     9  C    0.379038
    10  H    0.000000
    11  H    0.000000
    12  H    0.000000
    13  H    0.000000
    14  H    0.000000
    15  H    0.000007
    16  H    0.000073
    17  H    0.000000
    18  H   -0.000138
    19  H    0.429889
 Mulliken charges:
               1
     1  C   -0.417784
     2  C    0.373243
     3  C   -0.426733
     4  C   -0.154327
     5  O   -0.233713
     6  C   -0.022986
     7  O   -0.288300
     8  C    0.346732
     9  C   -0.453117
    10  H    0.125663
    11  H    0.126945
    12  H    0.111513
    13  H    0.126057
    14  H    0.114441
    15  H    0.130332
    16  H    0.104556
    17  H    0.118781
    18  H    0.117798
    19  H    0.200897
 Sum of Mulliken charges =   0.00000
 Mulliken charges with hydrogens summed into heavy atoms:
               1
     1  C   -0.053663
     2  C    0.373243
     3  C   -0.055902
     4  C    0.069009
     5  O   -0.233713
     6  C    0.094812
     7  O   -0.288300
     8  C    0.346732
     9  C   -0.252220
 Electronic spatial extent (au):  <R**2>=           1155.4915
 Charge=              0.0000 electrons
 Dipole moment (field-independent basis, Debye):
    X=             -0.7398    Y=              0.8628    Z=              0.9250  Tot=              1.4653
 Quadrupole moment (field-independent basis, Debye-Ang):
   XX=            -47.8035   YY=            -53.9605   ZZ=            -53.6638
   XY=              2.4318   XZ=             -0.9974   YZ=              2.4913
 Traceless Quadrupole moment (field-independent basis, Debye-Ang):
   XX=              4.0058   YY=             -2.1512   ZZ=             -1.8546
   XY=              2.4318   XZ=             -0.9974   YZ=              2.4913
 Octapole moment (field-independent basis, Debye-Ang**2):
  XXX=             17.0330  YYY=             -1.8070  ZZZ=              1.0357  XYY=              2.2924
  XXY=             11.8026  XXZ=              3.4250  XZZ=             -3.4580  YZZ=             -4.1309
  YYZ=             -3.4626  XYZ=              6.0388
 Hexadecapole moment (field-independent basis, Debye-Ang**3):
 XXXX=           -877.9776 YYYY=           -359.3596 ZZZZ=           -213.0684 XXXY=             58.2959
 XXXZ=             19.5612 YYYX=              6.4427 YYYZ=              2.0907 ZZZX=             -1.3876
 ZZZY=             -2.5894 XXYY=           -199.9723 XXZZ=           -198.8241 YYZZ=            -91.3011
 XXYZ=              7.9737 YYXZ=              0.5777 ZZXY=             -3.6572
 N-N= 4.652602559605D+02 E-N=-1.917116639160D+03  KE= 4.200334878353D+02
 Calling FoFJK, ICntrl=      2127 FMM=F ISym2X=0 I1Cent= 0 IOpClX= 0 NMat=1 NMatS=1 NMatT=0.
 ***** Axes restored to original set *****
 -------------------------------------------------------------------
 Center     Atomic                   Forces (Hartrees/Bohr)
 Number     Number              X              Y              Z
 -------------------------------------------------------------------
      1        6           0.000018758    0.000007143    0.000003160
      2        6          -0.000027355    0.000000667    0.000036674
      3        6          -0.000013432    0.000006777   -0.000017135
      4        6           0.000017994   -0.000015825   -0.000020913
      5        8          -0.000003541    0.000019255   -0.000035076
      6        6           0.000002762    0.000000667    0.000031157
      7        8           0.000012886   -0.000019041   -0.000016391
      8        6           0.000004972    0.000012031   -0.000007387
      9        6          -0.000023450   -0.000018836   -0.000020826
     10        1          -0.000008354   -0.000001824    0.000001070
     11        1          -0.000007080    0.000003243    0.000004294
     12        1          -0.000009826    0.000001071    0.000002842
     13        1          -0.000002685    0.000006681    0.000006525
     14        1          -0.000003137   -0.000004234    0.000006274
     15        1           0.000008077   -0.000006685    0.000005486
     16        1          -0.000009580   -0.000003251    0.000006609
     17        1          -0.000005472    0.000005798    0.000008693
     18        1           0.000017735   -0.000002741   -0.000002790
     19        1           0.000030729    0.000009103    0.000007733
 -------------------------------------------------------------------
 Cartesian Forces:  Max     0.000036674 RMS     0.000014051

 GradGradGradGradGradGradGradGradGradGradGradGradGradGradGradGradGradGrad
 Berny optimization.
 FormGI is forming the generalized inverse of G from B-inverse, IUseBI=4.
 GSVD:  received Info=                   1 from GESDD.
 Internal  Forces:  Max     0.000027891 RMS     0.000007253
 Search for a local minimum.
 Step number   1 out of a maximum of  104
 All quantities printed in internal units (Hartrees-Bohrs-Radians)
 Mixed Optimization -- En-DIIS/RFO-DIIS
 Second derivative matrix not updated -- first step.
 ITU=  0
     Eigenvalues ---    0.00375   0.00412   0.00601   0.00601   0.00641
     Eigenvalues ---    0.01762   0.04008   0.04709   0.04711   0.04711
     Eigenvalues ---    0.05581   0.05624   0.05650   0.05652   0.05680
     Eigenvalues ---    0.05838   0.08404   0.08955   0.10665   0.11016
     Eigenvalues ---    0.11135   0.11780   0.14392   0.16000   0.16000
     Eigenvalues ---    0.16000   0.16000   0.16000   0.16000   0.17550
     Eigenvalues ---    0.18887   0.22686   0.26629   0.29467   0.29724
     Eigenvalues ---    0.33826   0.34184   0.34198   0.34231   0.34394
     Eigenvalues ---    0.34396   0.34408   0.34465   0.34634   0.34861
     Eigenvalues ---    0.35911   0.38215   0.39862   0.41353   0.42555
     Eigenvalues ---    1.03942
 RFO step:  Lambda=-5.42090973D-08 EMin= 3.75301978D-03
 Linear search not attempted -- first point.
 Iteration  1 RMS(Cart)=  0.00040861 RMS(Int)=  0.00000031
 Iteration  2 RMS(Cart)=  0.00000032 RMS(Int)=  0.00000000
 Variable       Old X    -DE/DX   Delta X   Delta X   Delta X     New X
                                 (Linear)    (Quad)   (Total)
    R1        2.89040  -0.00001   0.00000  -0.00002  -0.00002   2.89037
    R2        2.06646   0.00000   0.00000   0.00001   0.00001   2.06647
    R3        2.06667   0.00000   0.00000   0.00000   0.00000   2.06667
    R4        2.06942   0.00000   0.00000  -0.00001  -0.00001   2.06942
    R5        2.88516  -0.00001   0.00000  -0.00002  -0.00002   2.88515
    R6        2.92494   0.00002   0.00000   0.00007   0.00007   2.92501
    R7        2.73985  -0.00003   0.00000  -0.00007  -0.00007   2.73978
    R8        2.06671   0.00000   0.00000   0.00001   0.00001   2.06672
    R9        2.07021   0.00000   0.00000   0.00000   0.00000   2.07021
   R10        2.06553   0.00000   0.00000   0.00001   0.00001   2.06554
   R11        2.68849   0.00002   0.00000   0.00004   0.00004   2.68853
   R12        2.07625  -0.00001   0.00000  -0.00002  -0.00002   2.07623
   R13        2.06273  -0.00001   0.00000  -0.00003  -0.00003   2.06270
   R14        2.66314   0.00002   0.00000   0.00004   0.00004   2.66318
   R15        2.66958   0.00000   0.00000   0.00001   0.00001   2.66959
   R16        2.79201  -0.00001   0.00000  -0.00002  -0.00002   2.79199
   R17        2.06997  -0.00001   0.00000  -0.00004  -0.00004   2.06992
   R18        2.27100  -0.00001   0.00000  -0.00001  -0.00001   2.27099
   R19        2.00753   0.00003   0.00000   0.00007   0.00007   2.00760
    A1        1.92217   0.00001   0.00000   0.00006   0.00006   1.92222
    A2        1.92439   0.00000   0.00000  -0.00001  -0.00001   1.92439
    A3        1.93645   0.00000   0.00000   0.00003   0.00003   1.93648
    A4        1.89103  -0.00001   0.00000  -0.00004  -0.00004   1.89100
    A5        1.89148  -0.00001   0.00000  -0.00003  -0.00003   1.89144
    A6        1.89732   0.00000   0.00000  -0.00001  -0.00001   1.89731
    A7        1.95935   0.00000   0.00000  -0.00001  -0.00001   1.95934
    A8        1.95628   0.00000   0.00000  -0.00002  -0.00002   1.95626
    A9        1.87384   0.00001   0.00000   0.00004   0.00004   1.87389
   A10        1.97030   0.00000   0.00000   0.00002   0.00002   1.97032
   A11        1.90594   0.00000   0.00000   0.00000   0.00000   1.90594
   A12        1.78702   0.00000   0.00000  -0.00003  -0.00003   1.78699
   A13        1.92867   0.00000   0.00000  -0.00003  -0.00003   1.92864
   A14        1.93144   0.00000   0.00000   0.00004   0.00004   1.93148
   A15        1.92769   0.00001   0.00000   0.00009   0.00009   1.92778
   A16        1.88686   0.00000   0.00000  -0.00001  -0.00001   1.88685
   A17        1.89156  -0.00001   0.00000  -0.00005  -0.00005   1.89151
   A18        1.89649  -0.00001   0.00000  -0.00004  -0.00004   1.89645
   A19        1.81287   0.00001   0.00000   0.00003   0.00003   1.81290
   A20        1.94218  -0.00001   0.00000  -0.00007  -0.00007   1.94211
   A21        1.97993   0.00000   0.00000   0.00003   0.00003   1.97996
   A22        1.93261   0.00000   0.00000  -0.00003  -0.00003   1.93258
   A23        1.88432  -0.00001   0.00000  -0.00002  -0.00002   1.88430
   A24        1.90934   0.00001   0.00000   0.00006   0.00006   1.90939
   A25        1.82362  -0.00002   0.00000  -0.00008  -0.00008   1.82354
   A26        1.86201   0.00001   0.00000   0.00003   0.00003   1.86204
   A27        1.95321   0.00000   0.00000  -0.00001  -0.00001   1.95320
   A28        1.88126  -0.00001   0.00000  -0.00005  -0.00005   1.88121
   A29        1.94365   0.00001   0.00000   0.00007   0.00007   1.94372
   A30        1.90224   0.00000   0.00000   0.00000   0.00000   1.90224
   A31        1.91921   0.00000   0.00000  -0.00004  -0.00004   1.91917
   A32        1.89528   0.00001   0.00000   0.00003   0.00003   1.89530
   A33        3.15641  -0.00001   0.00000  -0.00021  -0.00021   3.15620
   A34        3.14421  -0.00001   0.00000  -0.00162  -0.00162   3.14259
   A35        3.14579   0.00000   0.00000  -0.00003  -0.00003   3.14576
   A36        3.14408   0.00000   0.00000  -0.00040  -0.00040   3.14368
    D1        1.11043   0.00000   0.00000  -0.00033  -0.00033   1.11010
    D2       -2.93361   0.00000   0.00000  -0.00034  -0.00034  -2.93394
    D3       -0.98438   0.00000   0.00000  -0.00036  -0.00036  -0.98473
    D4       -3.08677   0.00000   0.00000  -0.00035  -0.00035  -3.08712
    D5       -0.84763   0.00000   0.00000  -0.00035  -0.00035  -0.84798
    D6        1.10160   0.00000   0.00000  -0.00037  -0.00037   1.10123
    D7       -0.98378   0.00000   0.00000  -0.00035  -0.00035  -0.98413
    D8        1.25536   0.00000   0.00000  -0.00035  -0.00035   1.25501
    D9       -3.07859   0.00000   0.00000  -0.00037  -0.00037  -3.07896
   D10       -0.96430   0.00000   0.00000  -0.00061  -0.00061  -0.96490
   D11        1.12515  -0.00001   0.00000  -0.00061  -0.00061   1.12454
   D12       -3.05719   0.00000   0.00000  -0.00058  -0.00058  -3.05777
   D13        3.08715   0.00000   0.00000  -0.00058  -0.00058   3.08657
   D14       -1.10659   0.00000   0.00000  -0.00059  -0.00059  -1.10718
   D15        0.99426   0.00000   0.00000  -0.00056  -0.00056   0.99371
   D16        1.11176   0.00000   0.00000  -0.00056  -0.00056   1.11120
   D17       -3.08198   0.00000   0.00000  -0.00057  -0.00057  -3.08254
   D18       -0.98113   0.00000   0.00000  -0.00053  -0.00053  -0.98166
   D19        1.61951   0.00000   0.00000   0.00000   0.00000   1.61951
   D20       -2.58373   0.00000   0.00000  -0.00005  -0.00005  -2.58378
   D21       -0.42176   0.00000   0.00000  -0.00001  -0.00001  -0.42177
   D22       -2.43034   0.00000   0.00000  -0.00002  -0.00002  -2.43035
   D23       -0.35039   0.00000   0.00000  -0.00007  -0.00007  -0.35046
   D24        1.81158   0.00000   0.00000  -0.00003  -0.00003   1.81155
   D25       -0.38349   0.00000   0.00000  -0.00002  -0.00002  -0.38352
   D26        1.69645   0.00000   0.00000  -0.00008  -0.00008   1.69637
   D27       -2.42476   0.00000   0.00000  -0.00004  -0.00004  -2.42480
   D28       -2.06068   0.00000   0.00000   0.00002   0.00002  -2.06066
   D29        2.09403   0.00000   0.00000   0.00000   0.00000   2.09403
   D30        0.00171   0.00000   0.00000   0.00000   0.00000   0.00171
   D31        0.62632   0.00000   0.00000   0.00001   0.00001   0.62633
   D32       -1.46016   0.00000   0.00000   0.00009   0.00009  -1.46007
   D33        2.73324   0.00000   0.00000   0.00005   0.00005   2.73329
   D34       -0.64458   0.00000   0.00000  -0.00001  -0.00001  -0.64458
   D35        1.48536   0.00001   0.00000   0.00009   0.00009   1.48545
   D36       -2.68543   0.00000   0.00000   0.00000   0.00000  -2.68543
   D37        0.38995   0.00001   0.00000   0.00002   0.00002   0.38998
   D38       -1.74600   0.00000   0.00000  -0.00002  -0.00002  -1.74603
   D39        2.41683   0.00000   0.00000  -0.00002  -0.00002   2.41682
         Item               Value     Threshold  Converged?
 Maximum Force            0.000028     0.000450     YES
 RMS     Force            0.000007     0.000300     YES
 Maximum Displacement     0.002466     0.001800     NO 
 RMS     Displacement     0.000409     0.001200     YES
 Predicted change in Energy=-2.710456D-08
 GradGradGradGradGradGradGradGradGradGradGradGradGradGradGradGradGradGrad

                          Input orientation:                          
 ---------------------------------------------------------------------
 Center     Atomic      Atomic             Coordinates (Angstroms)
 Number     Number       Type             X           Y           Z
 ---------------------------------------------------------------------
      1          6           0        0.168912   -1.044683   -0.595603
      2          6           0        1.237579   -0.050980   -0.137417
      3          6           0        2.211024   -0.669007    0.863294
      4          6           0        1.951536    0.627539   -1.331450
      5          8           0        1.205322    1.820420   -1.541934
      6          6           0        0.831493    2.235204   -0.247978
      7          8           0        0.552694    1.062749    0.489118
      8          6           0        1.887865    3.039820    0.399750
      9          6           0        2.736687    3.709149    0.924843
     10          1           0       -0.453849   -1.344997    0.251619
     11          1           0       -0.475441   -0.586274   -1.351054
     12          1           0        0.626912   -1.942966   -1.022855
     13          1           0        1.669309   -1.087381    1.716286
     14          1           0        2.785609   -1.476103    0.395765
     15          1           0        2.907978    0.086642    1.234752
     16          1           0        2.997720    0.860769   -1.090137
     17          1           0        1.913747    0.040219   -2.250729
     18          1           0       -0.086319    2.826211   -0.338187
     19          1           0        3.485519    4.301819    1.390289
 ---------------------------------------------------------------------
                    Distance matrix (angstroms):
                    1          2          3          4          5
     1  C    0.000000
     2  C    1.529519   0.000000
     3  C    2.537663   1.526753   0.000000
     4  C    2.552556   1.547849   2.562278   0.000000
     5  O    3.190377   2.340053   3.604693   1.422710   0.000000
     6  C    3.364151   2.324600   3.401834   2.238972   1.409297
     7  O    2.401078   1.449829   2.426736   2.336800   2.263882
     8  C    4.541882   3.203820   3.751627   2.969884   2.392267
     9  C    5.612855   4.185008   4.410030   3.899185   3.463722
    10  H    1.093529   2.164892   2.816498   3.490399   3.998693
    11  H    1.093634   2.166539   3.482424   2.713658   2.941696
    12  H    1.095089   2.176357   2.773074   2.908153   3.842796
    13  H    2.756419   2.167195   1.093658   3.508462   4.391651
    14  H    2.831260   2.170634   1.095506   2.846798   4.137517
    15  H    3.483185   2.166107   1.093037   2.791549   3.689853
    16  H    3.446369   2.199331   2.602883   1.098694   2.082724
    17  H    2.638352   2.220723   3.207572   1.091534   2.042883
    18  H    3.887830   3.173522   4.351769   3.158098   2.031984
    19  H    6.597631   5.131664   5.158602   4.822998   4.467054
                    6          7          8          9         10
     6  C    0.000000
     7  O    1.412688   0.000000
     8  C    1.477458   2.387357   0.000000
     9  C    2.679140   3.458774   1.201759   0.000000
    10  H    3.836605   2.620454   4.973147   6.014744   0.000000
    11  H    3.299332   2.676298   4.668949   5.826503   1.773326
    12  H    4.254338   3.365397   5.333101   6.339644   1.774794
    13  H    3.949663   2.715848   4.337606   4.977186   2.592184
    14  H    4.243438   3.382365   4.604293   5.212404   3.245312
    15  H    3.335655   2.656336   3.234056   3.639773   3.783916
    16  H    2.700155   2.917703   2.863530   3.498793   4.310341
    17  H    3.162316   3.225646   4.002914   4.921640   3.712961
    18  H    1.095357   2.050017   2.118391   3.216238   4.228703
    19  H    3.741480   4.461518   2.264135   1.062378   6.978662
                   11         12         13         14         15
    11  H    0.000000
    12  H    1.778626   0.000000
    13  H    3.776193   3.053115   0.000000
    14  H    3.804946   2.624960   1.772289   0.000000
    15  H    4.311233   3.797283   1.773276   1.777932   0.000000
    16  H    3.771585   3.672355   3.665512   2.777385   2.452027
    17  H    2.628712   2.663952   4.131397   3.172271   3.624808
    18  H    3.580834   4.870577   4.755974   5.224611   4.352608
    19  H    6.862771   7.279577   5.696348   5.904518   4.257402
                   16         17         18         19
    16  H    0.000000
    17  H    1.787533   0.000000
    18  H    3.733588   3.926810   0.000000
    19  H    4.269811   5.821402   4.233565   0.000000
 Stoichiometry    C7H10O2
 Framework group  C1[X(C7H10O2)]
 Deg. of freedom    51
 Full point group                 C1      NOp   1
 Largest Abelian subgroup         C1      NOp   1
 Largest concise Abelian subgroup C1      NOp   1
                         Standard orientation:                         
 ---------------------------------------------------------------------
 Center     Atomic      Atomic             Coordinates (Angstroms)
 Number     Number       Type             X           Y           Z
 ---------------------------------------------------------------------
      1          6           0       -2.406774   -0.390738   -0.443183
      2          6           0       -1.092772    0.245092    0.013489
      3          6           0       -1.243322    1.735411    0.308883
      4          6           0       -0.442205   -0.537191    1.179950
      5          8           0        0.443114   -1.442665    0.531543
      6          6           0        0.938609   -0.721024   -0.572919
      7          8           0       -0.130573    0.065786   -1.056104
      8          6           0        2.100713    0.115408   -0.208534
      9          6           0        3.056811    0.784575    0.078376
     10          1           0       -2.729625    0.050968   -1.390003
     11          1           0       -2.275414   -1.466190   -0.592124
     12          1           0       -3.196797   -0.232778    0.298526
     13          1           0       -1.654194    2.258410   -0.559302
     14          1           0       -1.920798    1.895377    1.154797
     15          1           0       -0.272894    2.177006    0.549703
     16          1           0        0.111060    0.134398    1.850767
     17          1           0       -1.156316   -1.123012    1.761591
     18          1           0        1.225580   -1.444406   -1.343745
     19          1           0        3.902705    1.376049    0.329907
 ---------------------------------------------------------------------
 Rotational constants (GHZ):      2.9694719      1.2931814      1.1443708
 Standard basis: 6-31G(2df,p) (6D, 7F)
 There are   329 symmetry adapted cartesian basis functions of A   symmetry.
 There are   302 symmetry adapted basis functions of A   symmetry.
   302 basis functions,   466 primitive gaussians,   329 cartesian basis functions
    34 alpha electrons       34 beta electrons
       nuclear repulsion energy       465.2598766158 Hartrees.
 NAtoms=   19 NActive=   19 NUniq=   19 SFac= 1.00D+00 NAtFMM=   60 NAOKFM=F Big=F
 Integral buffers will be    131072 words long.
 Raffenetti 2 integral format.
 Two-electron integral symmetry is turned on.
 One-electron integrals computed using PRISM.
 NBasis=   302 RedAO= T EigKep=  1.29D-04  NBF=   302
 NBsUse=   302 1.00D-06 EigRej= -1.00D+00 NBFU=   302
 Initial guess from the checkpoint file:  "/scratch/puck/g09_4aea6450-182f-49b3-a042-c0f8be3413fb/Gau-176968.chk"
 B after Tr=     0.000000    0.000000    0.000000
         Rot=    1.000000    0.000011   -0.000005   -0.000007 Ang=   0.00 deg.
 Requested convergence on RMS density matrix=1.00D-08 within 128 cycles.
 Requested convergence on MAX density matrix=1.00D-06.
 Requested convergence on             energy=1.00D-06.
 No special actions if energy rises.
 SCF Done:  E(RB3LYP) =  -423.154137511     A.U. after    7 cycles
            NFock=  7  Conv=0.30D-08     -V/T= 2.0074
 Calling FoFJK, ICntrl=      2127 FMM=F ISym2X=0 I1Cent= 0 IOpClX= 0 NMat=1 NMatS=1 NMatT=0.
 ***** Axes restored to original set *****
 -------------------------------------------------------------------
 Center     Atomic                   Forces (Hartrees/Bohr)
 Number     Number              X              Y              Z
 -------------------------------------------------------------------
      1        6           0.000003653    0.000003299    0.000002681
      2        6          -0.000010597    0.000007340    0.000012562
      3        6          -0.000004804    0.000001586   -0.000007329
      4        6           0.000011442   -0.000012385   -0.000011681
      5        8           0.000002780   -0.000002795   -0.000005778
      6        6          -0.000021353    0.000030425    0.000011907
      7        8           0.000014424    0.000003192   -0.000009981
      8        6           0.000007151   -0.000010483   -0.000003933
      9        6           0.000043125   -0.000048587    0.000007159
     10        1          -0.000006226    0.000001222    0.000002576
     11        1          -0.000003946    0.000003357    0.000002992
     12        1          -0.000006448    0.000001161    0.000003131
     13        1          -0.000004435    0.000004560    0.000003100
     14        1          -0.000004051   -0.000003034    0.000003848
     15        1           0.000002311   -0.000003350    0.000001818
     16        1          -0.000001889   -0.000004117    0.000001331
     17        1          -0.000003499   -0.000001749    0.000001472
     18        1          -0.000000123   -0.000000977   -0.000002802
     19        1          -0.000017516    0.000031334   -0.000013074
 -------------------------------------------------------------------
 Cartesian Forces:  Max     0.000048587 RMS     0.000012529

 GradGradGradGradGradGradGradGradGradGradGradGradGradGradGradGradGradGrad
 Berny optimization.
 Using GEDIIS/GDIIS optimizer.
 FormGI is forming the generalized inverse of G from B-inverse, IUseBI=4.
 GSVD:  received Info=                   1 from GESDD.
 Internal  Forces:  Max     0.000084642 RMS     0.000010636
 Search for a local minimum.
 Step number   2 out of a maximum of  104
 All quantities printed in internal units (Hartrees-Bohrs-Radians)
 Mixed Optimization -- En-DIIS/RFO-DIIS
 Swapping is turned off.
 Update second derivatives using D2CorX and points    1    2
 DE=  3.31D-08 DEPred=-2.71D-08 R=-1.22D+00
 Trust test=-1.22D+00 RLast= 2.65D-03 DXMaxT set to 1.50D-01
 ITU= -1  0
     Eigenvalues ---    0.00239   0.00385   0.00600   0.00640   0.01762
     Eigenvalues ---    0.02868   0.03994   0.04691   0.04711   0.05538
     Eigenvalues ---    0.05582   0.05630   0.05652   0.05678   0.05822
     Eigenvalues ---    0.07557   0.08458   0.08959   0.10606   0.11065
     Eigenvalues ---    0.11579   0.11761   0.14135   0.14910   0.16000
     Eigenvalues ---    0.16000   0.16000   0.16000   0.16017   0.17328
     Eigenvalues ---    0.18882   0.22485   0.26232   0.29328   0.29673
     Eigenvalues ---    0.32477   0.33880   0.34184   0.34231   0.34359
     Eigenvalues ---    0.34395   0.34400   0.34425   0.34487   0.34793
     Eigenvalues ---    0.34977   0.37873   0.39892   0.41164   0.42645
     Eigenvalues ---    1.03823
 En-DIIS/RFO-DIIS IScMMF=        0 using points:     2    1
 RFO step:  Lambda=-3.94195296D-08.
 DidBck=T Rises=F RFO-DIIS coefs:    0.27214    0.72786
 Iteration  1 RMS(Cart)=  0.00049476 RMS(Int)=  0.00000036
 Iteration  2 RMS(Cart)=  0.00000035 RMS(Int)=  0.00000000
 Variable       Old X    -DE/DX   Delta X   Delta X   Delta X     New X
                                 (Linear)    (Quad)   (Total)
    R1        2.89037   0.00000   0.00002  -0.00005  -0.00003   2.89034
    R2        2.06647   0.00000  -0.00001   0.00002   0.00001   2.06648
    R3        2.06667   0.00000   0.00000   0.00001   0.00000   2.06667
    R4        2.06942   0.00000   0.00000  -0.00001  -0.00001   2.06941
    R5        2.88515   0.00000   0.00001  -0.00004  -0.00003   2.88512
    R6        2.92501   0.00000  -0.00005   0.00014   0.00009   2.92510
    R7        2.73978  -0.00001   0.00005  -0.00014  -0.00009   2.73969
    R8        2.06672   0.00000   0.00000   0.00001   0.00001   2.06672
    R9        2.07021   0.00000   0.00000   0.00000   0.00000   2.07021
   R10        2.06554   0.00000  -0.00001   0.00002   0.00001   2.06556
   R11        2.68853   0.00001  -0.00003   0.00009   0.00006   2.68859
   R12        2.07623   0.00000   0.00002  -0.00004  -0.00003   2.07620
   R13        2.06270   0.00000   0.00002  -0.00007  -0.00004   2.06266
   R14        2.66318   0.00001  -0.00003   0.00009   0.00006   2.66324
   R15        2.66959  -0.00001  -0.00001   0.00001   0.00001   2.66960
   R16        2.79199   0.00000   0.00001  -0.00004  -0.00002   2.79197
   R17        2.06992   0.00000   0.00003  -0.00008  -0.00005   2.06987
   R18        2.27099   0.00000   0.00001  -0.00002  -0.00001   2.27098
   R19        2.00760   0.00000  -0.00005   0.00014   0.00009   2.00769
    A1        1.92222   0.00001  -0.00004   0.00012   0.00008   1.92230
    A2        1.92439   0.00000   0.00000  -0.00001  -0.00001   1.92438
    A3        1.93648   0.00000  -0.00002   0.00005   0.00003   1.93651
    A4        1.89100   0.00000   0.00003  -0.00008  -0.00005   1.89095
    A5        1.89144   0.00000   0.00002  -0.00007  -0.00004   1.89140
    A6        1.89731   0.00000   0.00001  -0.00002  -0.00001   1.89729
    A7        1.95934   0.00000   0.00001  -0.00002  -0.00002   1.95932
    A8        1.95626   0.00000   0.00002  -0.00005  -0.00003   1.95623
    A9        1.87389   0.00000  -0.00003   0.00009   0.00006   1.87395
   A10        1.97032   0.00000  -0.00001   0.00004   0.00002   1.97034
   A11        1.90594   0.00000   0.00000   0.00000   0.00000   1.90593
   A12        1.78699   0.00000   0.00002  -0.00005  -0.00003   1.78696
   A13        1.92864   0.00000   0.00002  -0.00006  -0.00004   1.92860
   A14        1.93148   0.00000  -0.00003   0.00008   0.00005   1.93153
   A15        1.92778   0.00001  -0.00006   0.00018   0.00012   1.92790
   A16        1.88685   0.00000   0.00001  -0.00002  -0.00001   1.88684
   A17        1.89151   0.00000   0.00004  -0.00011  -0.00007   1.89144
   A18        1.89645   0.00000   0.00003  -0.00008  -0.00005   1.89640
   A19        1.81290  -0.00001  -0.00002   0.00006   0.00003   1.81293
   A20        1.94211   0.00000   0.00005  -0.00015  -0.00009   1.94201
   A21        1.97996   0.00000  -0.00002   0.00006   0.00004   1.98000
   A22        1.93258   0.00000   0.00002  -0.00006  -0.00004   1.93254
   A23        1.88430   0.00000   0.00001  -0.00004  -0.00002   1.88427
   A24        1.90939   0.00000  -0.00004   0.00012   0.00008   1.90947
   A25        1.82354   0.00000   0.00006  -0.00014  -0.00009   1.82346
   A26        1.86204  -0.00001  -0.00002   0.00005   0.00003   1.86207
   A27        1.95320   0.00000   0.00001  -0.00003  -0.00002   1.95318
   A28        1.88121   0.00000   0.00003  -0.00009  -0.00005   1.88116
   A29        1.94372  -0.00001  -0.00005   0.00012   0.00007   1.94380
   A30        1.90224   0.00000   0.00000   0.00000   0.00000   1.90224
   A31        1.91917   0.00001   0.00003  -0.00006  -0.00003   1.91914
   A32        1.89530   0.00001  -0.00002   0.00006   0.00004   1.89534
   A33        3.15620   0.00005   0.00015  -0.00015   0.00001   3.15621
   A34        3.14259   0.00008   0.00118   0.00066   0.00184   3.14443
   A35        3.14576   0.00001   0.00002  -0.00001   0.00001   3.14577
   A36        3.14368   0.00002   0.00029  -0.00006   0.00023   3.14391
    D1        1.11010   0.00000   0.00024  -0.00069  -0.00045   1.10965
    D2       -2.93394   0.00000   0.00025  -0.00070  -0.00045  -2.93440
    D3       -0.98473   0.00000   0.00026  -0.00073  -0.00047  -0.98521
    D4       -3.08712   0.00000   0.00025  -0.00072  -0.00046  -3.08758
    D5       -0.84798   0.00000   0.00026  -0.00073  -0.00047  -0.84845
    D6        1.10123   0.00000   0.00027  -0.00076  -0.00049   1.10074
    D7       -0.98413   0.00000   0.00025  -0.00072  -0.00047  -0.98460
    D8        1.25501   0.00000   0.00026  -0.00073  -0.00047   1.25454
    D9       -3.07896   0.00000   0.00027  -0.00076  -0.00049  -3.07946
   D10       -0.96490   0.00000   0.00044  -0.00127  -0.00082  -0.96573
   D11        1.12454   0.00000   0.00045  -0.00128  -0.00084   1.12370
   D12       -3.05777   0.00000   0.00042  -0.00121  -0.00078  -3.05855
   D13        3.08657   0.00000   0.00043  -0.00121  -0.00079   3.08578
   D14       -1.10718   0.00000   0.00043  -0.00123  -0.00080  -1.10798
   D15        0.99371   0.00000   0.00040  -0.00115  -0.00075   0.99296
   D16        1.11120   0.00000   0.00041  -0.00117  -0.00076   1.11044
   D17       -3.08254   0.00000   0.00041  -0.00118  -0.00077  -3.08332
   D18       -0.98166   0.00000   0.00039  -0.00111  -0.00072  -0.98238
   D19        1.61951   0.00000   0.00000   0.00001   0.00001   1.61952
   D20       -2.58378   0.00000   0.00004  -0.00010  -0.00006  -2.58385
   D21       -0.42177   0.00000   0.00001  -0.00001   0.00000  -0.42178
   D22       -2.43035   0.00000   0.00001  -0.00003  -0.00002  -2.43037
   D23       -0.35046   0.00000   0.00005  -0.00014  -0.00009  -0.35055
   D24        1.81155   0.00000   0.00002  -0.00005  -0.00003   1.81152
   D25       -0.38352   0.00000   0.00002  -0.00005  -0.00003  -0.38355
   D26        1.69637   0.00000   0.00006  -0.00016  -0.00010   1.69627
   D27       -2.42480   0.00000   0.00003  -0.00007  -0.00004  -2.42485
   D28       -2.06066   0.00000  -0.00001   0.00004   0.00003  -2.06063
   D29        2.09403   0.00000   0.00000   0.00002   0.00001   2.09405
   D30        0.00171   0.00000   0.00000   0.00001   0.00001   0.00172
   D31        0.62633   0.00000  -0.00001   0.00002   0.00001   0.62634
   D32       -1.46007   0.00000  -0.00007   0.00018   0.00012  -1.45995
   D33        2.73329   0.00000  -0.00004   0.00010   0.00006   2.73336
   D34       -0.64458   0.00000   0.00001  -0.00001  -0.00001  -0.64459
   D35        1.48545  -0.00001  -0.00007   0.00016   0.00009   1.48554
   D36       -2.68543   0.00000   0.00000   0.00001   0.00000  -2.68542
   D37        0.38998   0.00000  -0.00002   0.00004   0.00002   0.39000
   D38       -1.74603   0.00001   0.00002  -0.00003  -0.00001  -1.74604
   D39        2.41682   0.00000   0.00001  -0.00003  -0.00002   2.41679
         Item               Value     Threshold  Converged?
 Maximum Force            0.000085     0.000450     YES
 RMS     Force            0.000011     0.000300     YES
 Maximum Displacement     0.002860     0.001800     NO 
 RMS     Displacement     0.000495     0.001200     YES
 Predicted change in Energy=-8.618994D-08
 GradGradGradGradGradGradGradGradGradGradGradGradGradGradGradGradGradGrad

                          Input orientation:                          
 ---------------------------------------------------------------------
 Center     Atomic      Atomic             Coordinates (Angstroms)
 Number     Number       Type             X           Y           Z
 ---------------------------------------------------------------------
      1          6           0        0.168895   -1.044683   -0.595699
      2          6           0        1.237573   -0.051068   -0.137402
      3          6           0        2.210942   -0.669231    0.863279
      4          6           0        1.951597    0.627510   -1.331423
      5          8           0        1.205452    1.820474   -1.541885
      6          6           0        0.831676    2.235150   -0.247845
      7          8           0        0.552808    1.062653    0.489163
      8          6           0        1.888077    3.039723    0.399861
      9          6           0        2.736913    3.709027    0.924950
     10          1           0       -0.453669   -1.345444    0.251516
     11          1           0       -0.475704   -0.586022   -1.350791
     12          1           0        0.626838   -1.942755   -1.023446
     13          1           0        1.669190   -1.086903    1.716598
     14          1           0        2.784930   -1.476884    0.395981
     15          1           0        2.908488    0.086091    1.234311
     16          1           0        2.997742    0.860700   -1.089969
     17          1           0        1.913826    0.040285   -2.250736
     18          1           0       -0.086082    2.826198   -0.338019
     19          1           0        3.484806    4.303333    1.389925
 ---------------------------------------------------------------------
                    Distance matrix (angstroms):
                    1          2          3          4          5
     1  C    0.000000
     2  C    1.529503   0.000000
     3  C    2.537625   1.526740   0.000000
     4  C    2.552556   1.547897   2.562326   0.000000
     5  O    3.190429   2.340144   3.604782   1.422740   0.000000
     6  C    3.364161   2.324595   3.401823   2.238944   1.409327
     7  O    2.401079   1.449780   2.426684   2.336770   2.263933
     8  C    4.541926   3.203872   3.751711   2.969874   2.392263
     9  C    5.612918   4.185084   4.410169   3.899191   3.463709
    10  H    1.093534   2.164941   2.816322   3.490494   3.999000
    11  H    1.093637   2.166520   3.482398   2.713820   2.941772
    12  H    1.095086   2.176362   2.773262   2.907937   3.842586
    13  H    2.756698   2.167155   1.093662   3.508474   4.391537
    14  H    2.830878   2.170659   1.095506   2.847252   4.137952
    15  H    3.483240   2.166187   1.093045   2.791374   3.689943
    16  H    3.446325   2.199295   2.602868   1.098680   2.082713
    17  H    2.638387   2.220776   3.207613   1.091511   2.042875
    18  H    3.887818   3.173479   4.351719   3.158039   2.031953
    19  H    6.598427   5.132601   5.160085   4.823706   4.467164
                    6          7          8          9         10
     6  C    0.000000
     7  O    1.412691   0.000000
     8  C    1.477445   2.387409   0.000000
     9  C    2.679121   3.458832   1.201752   0.000000
    10  H    3.836942   2.620765   4.973477   6.015065   0.000000
    11  H    3.299203   2.676079   4.668861   5.826435   1.773301
    12  H    4.254222   3.365405   5.333068   6.339662   1.774768
    13  H    3.949240   2.715418   4.337136   4.976714   2.592266
    14  H    4.243691   3.382352   4.604791   5.213040   3.244484
    15  H    3.335924   2.656717   3.234422   3.640166   3.784083
    16  H    2.700023   2.917557   2.863405   3.498699   4.310324
    17  H    3.162286   3.225625   4.002869   4.921598   3.713023
    18  H    1.095330   2.050000   2.118340   3.216174   4.229098
    19  H    3.741493   4.462061   2.264173   1.062424   6.979702
                   11         12         13         14         15
    11  H    0.000000
    12  H    1.778617   0.000000
    13  H    3.776285   3.053985   0.000000
    14  H    3.804811   2.624724   1.772284   0.000000
    15  H    4.311293   3.797317   1.773238   1.777908   0.000000
    16  H    3.771718   3.672189   3.665381   2.778063   2.451584
    17  H    2.629071   2.663649   4.131602   3.172655   3.624501
    18  H    3.580608   4.870418   4.755500   5.224747   4.352913
    19  H    6.863159   7.280519   5.697176   5.906662   4.259282
                   16         17         18         19
    16  H    0.000000
    17  H    1.787550   0.000000
    18  H    3.733440   3.926758   0.000000
    19  H    4.270694   5.822025   4.233079   0.000000
 Stoichiometry    C7H10O2
 Framework group  C1[X(C7H10O2)]
 Deg. of freedom    51
 Full point group                 C1      NOp   1
 Largest Abelian subgroup         C1      NOp   1
 Largest concise Abelian subgroup C1      NOp   1
                         Standard orientation:                         
 ---------------------------------------------------------------------
 Center     Atomic      Atomic             Coordinates (Angstroms)
 Number     Number       Type             X           Y           Z
 ---------------------------------------------------------------------
      1          6           0       -2.406785   -0.390807   -0.443190
      2          6           0       -1.092827    0.245071    0.013487
      3          6           0       -1.243500    1.735337    0.309017
      4          6           0       -0.442180   -0.537320    1.179894
      5          8           0        0.443214   -1.442711    0.531407
      6          6           0        0.938632   -0.720836   -0.572975
      7          8           0       -0.130616    0.065951   -1.056059
      8          6           0        2.100721    0.115546   -0.208477
      9          6           0        3.056814    0.784676    0.078506
     10          1           0       -2.730011    0.051232   -1.389733
     11          1           0       -2.275220   -1.466160   -0.592687
     12          1           0       -3.196690   -0.233400    0.298757
     13          1           0       -1.653669    2.258474   -0.559423
     14          1           0       -1.921618    1.895262    1.154424
     15          1           0       -0.273272    2.176952    0.550637
     16          1           0        0.111081    0.134292    1.850666
     17          1           0       -1.156203   -1.123236    1.761504
     18          1           0        1.225637   -1.444097   -1.343865
     19          1           0        3.903931    1.374765    0.329371
 ---------------------------------------------------------------------
 Rotational constants (GHZ):      2.9695998      1.2931225      1.1443238
 Standard basis: 6-31G(2df,p) (6D, 7F)
 There are   329 symmetry adapted cartesian basis functions of A   symmetry.
 There are   302 symmetry adapted basis functions of A   symmetry.
   302 basis functions,   466 primitive gaussians,   329 cartesian basis functions
    34 alpha electrons       34 beta electrons
       nuclear repulsion energy       465.2572986133 Hartrees.
 NAtoms=   19 NActive=   19 NUniq=   19 SFac= 1.00D+00 NAtFMM=   60 NAOKFM=F Big=F
 Integral buffers will be    131072 words long.
 Raffenetti 2 integral format.
 Two-electron integral symmetry is turned on.
 One-electron integrals computed using PRISM.
 NBasis=   302 RedAO= T EigKep=  1.29D-04  NBF=   302
 NBsUse=   302 1.00D-06 EigRej= -1.00D+00 NBFU=   302
 Initial guess from the checkpoint file:  "/scratch/puck/g09_4aea6450-182f-49b3-a042-c0f8be3413fb/Gau-176968.chk"
 B after Tr=     0.000000    0.000000    0.000000
         Rot=    1.000000   -0.000053   -0.000001   -0.000013 Ang=  -0.01 deg.
 Requested convergence on RMS density matrix=1.00D-08 within 128 cycles.
 Requested convergence on MAX density matrix=1.00D-06.
 Requested convergence on             energy=1.00D-06.
 No special actions if energy rises.
 SCF Done:  E(RB3LYP) =  -423.154137563     A.U. after    7 cycles
            NFock=  7  Conv=0.30D-08     -V/T= 2.0074
 Calling FoFJK, ICntrl=      2127 FMM=F ISym2X=0 I1Cent= 0 IOpClX= 0 NMat=1 NMatS=1 NMatT=0.
 ***** Axes restored to original set *****
 -------------------------------------------------------------------
 Center     Atomic                   Forces (Hartrees/Bohr)
 Number     Number              X              Y              Z
 -------------------------------------------------------------------
      1        6          -0.000016090   -0.000002104    0.000001615
      2        6           0.000009294    0.000014153   -0.000018500
      3        6           0.000006319   -0.000004623    0.000006751
      4        6          -0.000000776   -0.000005721    0.000002836
      5        8           0.000005344   -0.000027762    0.000026733
      6        6          -0.000005140    0.000013101   -0.000005065
      7        8           0.000003915    0.000021272   -0.000001026
      8        6           0.000003463   -0.000025121   -0.000000674
      9        6           0.000039574    0.000041807    0.000010309
     10        1          -0.000003003    0.000005649    0.000004475
     11        1           0.000000005    0.000003395    0.000001223
     12        1          -0.000002201    0.000000969    0.000003323
     13        1          -0.000006444    0.000001504   -0.000001358
     14        1          -0.000005117   -0.000001264    0.000000558
     15        1          -0.000004868    0.000000998   -0.000002754
     16        1           0.000007807   -0.000004231   -0.000005130
     17        1          -0.000000832   -0.000010862   -0.000007673
     18        1          -0.000013409    0.000009615    0.000001824
     19        1          -0.000017841   -0.000030775   -0.000017466
 -------------------------------------------------------------------
 Cartesian Forces:  Max     0.000041807 RMS     0.000013004

 GradGradGradGradGradGradGradGradGradGradGradGradGradGradGradGradGradGrad
 Berny optimization.
 Using GEDIIS/GDIIS optimizer.
 FormGI is forming the generalized inverse of G from B-inverse, IUseBI=4.
 GSVD:  received Info=                   1 from GESDD.
 Internal  Forces:  Max     0.000039646 RMS     0.000007847
 Search for a local minimum.
 Step number   3 out of a maximum of  104
 All quantities printed in internal units (Hartrees-Bohrs-Radians)
 Mixed Optimization -- En-DIIS/RFO-DIIS
 Swapping is turned off.
 Update second derivatives using D2CorX and points    1    2    3
 DE= -5.25D-08 DEPred=-8.62D-08 R= 6.09D-01
 Trust test= 6.09D-01 RLast= 3.33D-03 DXMaxT set to 1.50D-01
 ITU=  0 -1  0
     Eigenvalues ---    0.00245   0.00385   0.00637   0.00647   0.01762
     Eigenvalues ---    0.03270   0.03984   0.04708   0.04739   0.05511
     Eigenvalues ---    0.05585   0.05633   0.05652   0.05682   0.05846
     Eigenvalues ---    0.07988   0.08497   0.08960   0.10616   0.11056
     Eigenvalues ---    0.11569   0.11921   0.14246   0.15119   0.16000
     Eigenvalues ---    0.16000   0.16000   0.16000   0.16095   0.17886
     Eigenvalues ---    0.18896   0.24107   0.26483   0.29391   0.29648
     Eigenvalues ---    0.33489   0.33915   0.34185   0.34234   0.34391
     Eigenvalues ---    0.34395   0.34406   0.34441   0.34491   0.34813
     Eigenvalues ---    0.34977   0.39387   0.40392   0.41122   0.43835
     Eigenvalues ---    1.04163
 En-DIIS/RFO-DIIS IScMMF=        0 using points:     3    2    1
 RFO step:  Lambda=-1.13518338D-08.
 DidBck=T Rises=F RFO-DIIS coefs:    0.57142    0.12709    0.30149
 Iteration  1 RMS(Cart)=  0.00016492 RMS(Int)=  0.00000005
 Iteration  2 RMS(Cart)=  0.00000005 RMS(Int)=  0.00000000
 Variable       Old X    -DE/DX   Delta X   Delta X   Delta X     New X
                                 (Linear)    (Quad)   (Total)
    R1        2.89034   0.00000   0.00002   0.00000   0.00002   2.89036
    R2        2.06648   0.00000  -0.00001   0.00001   0.00000   2.06648
    R3        2.06667   0.00000   0.00000   0.00000   0.00000   2.06667
    R4        2.06941   0.00000   0.00000   0.00000   0.00000   2.06942
    R5        2.88512   0.00000   0.00002  -0.00001   0.00000   2.88512
    R6        2.92510  -0.00001  -0.00006   0.00001  -0.00005   2.92505
    R7        2.73969   0.00001   0.00006  -0.00002   0.00004   2.73973
    R8        2.06672   0.00000   0.00000   0.00000   0.00000   2.06672
    R9        2.07021   0.00000   0.00000   0.00000   0.00000   2.07021
   R10        2.06556   0.00000  -0.00001   0.00000  -0.00001   2.06555
   R11        2.68859  -0.00001  -0.00004   0.00002  -0.00002   2.68857
   R12        2.07620   0.00001   0.00002   0.00000   0.00002   2.07622
   R13        2.06266   0.00001   0.00003   0.00000   0.00003   2.06268
   R14        2.66324   0.00000  -0.00004   0.00003  -0.00001   2.66323
   R15        2.66960  -0.00002  -0.00001  -0.00002  -0.00003   2.66957
   R16        2.79197   0.00000   0.00002  -0.00001   0.00000   2.79197
   R17        2.06987   0.00002   0.00003   0.00001   0.00004   2.06991
   R18        2.27098   0.00001   0.00001   0.00000   0.00001   2.27099
   R19        2.00769  -0.00004  -0.00006  -0.00002  -0.00008   2.00761
    A1        1.92230   0.00000  -0.00005   0.00004  -0.00002   1.92229
    A2        1.92438   0.00000   0.00001  -0.00001  -0.00001   1.92437
    A3        1.93651   0.00000  -0.00002   0.00000  -0.00002   1.93648
    A4        1.89095   0.00000   0.00003  -0.00001   0.00003   1.89097
    A5        1.89140   0.00000   0.00003  -0.00001   0.00002   1.89142
    A6        1.89729   0.00000   0.00001   0.00000   0.00001   1.89730
    A7        1.95932   0.00000   0.00001  -0.00001   0.00000   1.95932
    A8        1.95623   0.00000   0.00002  -0.00002   0.00000   1.95622
[...]
 02377180,0.02468400,0.01091943,0.00650480,-0.01537749,0.55572930,-0.01
 353365,-0.01013737,0.01466618,-0.03267842,-0.07843336,0.02970002,-0.00
 384136,-0.00646986,0.01256189,0.01815226,0.46772744,-0.00071453,0.0005
 2405,0.00874590,0.02734791,0.01530751,-0.11397202,0.00471523,0.0120873
 1,-0.01820678,0.01233962,0.12058807,0.56554117,0.00043836,0.00016996,-
 0.00216605,0.00260423,0.00861371,-0.00085043,0.00080381,0.00002023,-0.
 00051639,-0.10404592,0.06166530,-0.02497285,0.19213216,-0.00043513,0.0
 0115199,0.00197628,0.01721208,-0.04023722,0.02284416,-0.00650539,-0.00
 117950,0.00384000,0.05472058,-0.15265047,0.03556966,-0.12626200,0.3230
 9074,-0.00128361,0.00051154,0.00022272,-0.00057752,0.01139514,-0.02013
 737,0.00214769,0.00149194,-0.00266210,-0.00936192,0.00495477,-0.088541
 46,-0.03016127,0.00401029,0.36549917,-0.00096531,-0.00069273,0.0009751
 7,0.00454133,0.00726574,-0.01548444,-0.00304215,0.00499426,0.00428402,
 -0.01579378,0.02862813,0.02671777,-0.07962064,0.02665974,0.01536711,0.
 57166130,0.00035366,-0.00105504,0.00049380,0.01212436,-0.05829035,0.00
 242629,-0.00000033,0.00024119,0.00011091,0.01870283,-0.02900556,-0.033
 00381,0.01584657,-0.09286986,-0.01001918,-0.10906363,0.53692695,0.0043
 7871,-0.00518262,-0.00452613,-0.02216689,0.01505301,0.01571887,0.00373
 141,-0.00025718,-0.00290302,0.02305926,-0.03463578,-0.00449891,0.01806
 577,-0.04528582,-0.16395080,0.02675742,0.04023743,0.38387824,0.0109706
 7,-0.00932812,-0.00524014,-0.08196028,0.01665979,0.03954236,-0.0144653
 7,0.02413407,0.01071316,-0.01474931,0.01590968,0.02465423,0.00130803,-
 0.00120702,0.01464737,-0.07636861,-0.00593173,0.02703772,0.16467359,0.
 01825905,-0.03967431,-0.02297724,0.02540654,-0.10757037,-0.03164080,0.
 02111908,-0.02591413,-0.01357108,0.01289468,-0.00934379,-0.01379302,-0
 .01064996,0.00314086,0.03414652,-0.00966048,-0.15086093,0.05060220,-0.
 02495008,0.39516966,0.00498542,-0.01592186,-0.00416879,0.02950584,-0.0
 0979682,-0.09289122,-0.00647528,0.01263400,0.01128616,0.01474993,-0.00
 884951,-0.03071963,0.03191179,0.02333588,-0.05718608,0.02588650,0.0171
 2882,-0.09454773,-0.10916299,-0.03213786,0.25629307,-0.00006616,-0.000
 05552,-0.00031685,-0.00135462,0.00133348,0.00066371,0.00037640,-0.0002
 9385,-0.00018746,0.00339432,-0.00047593,0.00130364,0.01144638,-0.00067
 219,-0.00821007,-0.16989732,-0.04944750,-0.05698646,-0.00418185,-0.026
 00781,0.00746902,0.75550367,0.00046223,-0.00085525,-0.00059212,-0.0036
 5991,0.00112508,0.00090135,0.00034676,-0.00004401,0.00013977,-0.000306
 80,-0.00068822,-0.00097581,-0.00876190,-0.00716816,-0.02233801,-0.0532
 7576,-0.10300331,-0.03905149,-0.03082730,-0.03955386,0.00243717,0.5197
 4145,0.50261998,-0.00089487,0.00088878,0.00061088,0.00428666,-0.001452
 54,-0.00088301,-0.00000699,-0.00001476,0.00017302,-0.00292635,0.002593
 74,-0.00147206,-0.01753251,-0.03013888,-0.04128677,-0.05688227,-0.0377
 5855,-0.08414909,0.00725939,0.01297958,0.00893285,0.41042683,0.3213483
 7,0.34927845,0.00048258,-0.00048025,-0.00019465,-0.00177349,0.00140533
 ,0.00054215,-0.00042109,-0.00026894,-0.00030435,-0.00218559,0.00182273
 ,-0.00037098,-0.00002545,-0.00192014,-0.00115424,0.00670657,0.00438639
 ,0.00284990,0.00037621,-0.00242004,-0.00055911,-0.57317334,-0.43105442
 ,-0.33806067,0.78992473,0.00022036,-0.00011767,-0.00007530,-0.00069142
 ,0.00089292,0.00017523,0.00014954,-0.00004614,0.00006495,-0.00041161,0
 .00085576,-0.00015650,0.00009164,-0.00083850,-0.00111426,0.00157026,0.
 00700430,0.00218145,-0.00019979,-0.00108126,0.00000404,-0.43058760,-0.
 36567969,-0.26581771,0.59005378,0.50877811,0.00031432,-0.00031318,-0.0
 0008975,-0.00108772,0.00104781,0.00018662,-0.00032715,-0.00018229,-0.0
 0014551,-0.00075350,0.00068073,-0.00019749,0.00004273,-0.00104055,0.00
 024797,0.00198278,0.00330021,0.00406203,0.00011334,-0.00187271,0.00065
 031,-0.33777944,-0.26589018,-0.23694890,0.46159723,0.36491493,0.331227
 29,-0.13034874,-0.04009106,0.11583658,-0.01482445,-0.00667403,0.020251
 36,0.00084128,0.00005286,0.00135512,-0.00285233,-0.00147276,-0.0028488
 3,0.00052173,-0.00105597,-0.00011413,0.00005336,0.00015245,0.00085146,
 0.00124053,0.00204181,-0.00089236,0.00007936,0.00011376,-0.00012887,-0
 .00000567,-0.00001859,-0.00002190,0.14160522,-0.03879780,-0.06437891,0
 .05512038,-0.01318714,-0.00832139,0.01783603,0.00119616,0.00008057,0.0
 0045175,-0.00359314,-0.00137488,-0.00278977,0.00051030,-0.00041329,-0.
 00028853,-0.00013683,-0.00001929,0.00117189,0.00087128,0.00264067,0.00
 003099,0.00005495,0.00013744,-0.00020786,0.00006498,0.00001193,0.00001
 990,0.04632008,0.06779989,0.11794401,0.05674075,-0.21040954,-0.0065484
 9,-0.00341471,0.00730544,0.00014314,-0.00008332,0.00080329,-0.00132548
 ,-0.00152043,-0.00060224,0.00023945,-0.00016994,0.00047726,-0.00002865
 ,0.00008431,-0.00021685,-0.00044817,0.00108631,0.00099127,-0.00001499,
 -0.00002004,0.00001497,0.00002933,0.00003097,0.00002791,-0.12786464,-0
 .06097614,0.22589742,-0.13628757,0.06530879,-0.10565309,-0.01675938,0.
 01165437,-0.01634627,-0.00255241,-0.00469223,-0.00078960,0.00036304,0.
 00121089,-0.00130194,0.00075960,0.00010721,0.00086305,0.00020032,-0.00
 038077,-0.00109635,0.00165107,0.00029997,0.00206971,-0.00003881,0.0000
 1363,0.00014106,0.00010355,0.00001601,0.00006291,0.01157410,-0.0082099
 7,0.01286812,0.14922370,0.06833016,-0.09630704,0.08056192,-0.01397629,
 0.00823679,-0.01651149,-0.00271374,-0.00307926,-0.00108275,0.00007278,
 0.00125239,-0.00021952,0.00048319,0.00040500,0.00035905,-0.00021148,-0
 .00048875,-0.00069264,0.00054716,0.00215659,0.00118157,-0.00005386,0.0
 0003964,0.00006741,0.00010941,0.00001112,0.00004386,0.00509927,-0.0042
 2145,0.00466652,-0.07081770,0.10159090,-0.10655095,0.07868808,-0.17387
 642,-0.00584674,0.00465037,-0.00763480,-0.00101662,-0.00203618,0.00018
 078,0.00059897,0.00054429,0.00015551,0.00081351,-0.00046020,0.00021876
 ,-0.00051428,-0.00040569,-0.00010583,0.00135195,0.00025333,0.00084274,
 -0.00000105,0.00003715,-0.00001273,0.00008265,-0.00000126,0.00004928,-
 0.01529804,0.01041042,-0.01634333,0.11846171,-0.08624055,0.18586849,-0
 .09599318,0.09148724,0.04346545,0.01018146,-0.01591595,-0.00767757,0.0
 0038409,0.00060891,0.00021165,0.00074815,0.00039857,-0.00003686,0.0000
 8464,0.00031958,0.00021326,0.00020402,-0.00006905,-0.00148480,-0.00087
 081,-0.00638427,-0.00163481,0.00000565,-0.00013019,0.00021807,-0.00011
 786,-0.00004338,-0.00008124,-0.00769526,0.01517141,0.00540694,-0.00779
 715,0.01388019,0.00869014,0.10101155,0.08911860,-0.22092383,-0.0831106
 1,0.01215031,-0.01469426,-0.00588991,0.00096259,0.00036190,0.00029826,
 0.00092369,-0.00017624,-0.00082840,-0.00073653,0.00053848,0.00073234,0
 .00041294,0.00138203,-0.00230601,-0.00290213,-0.00585534,-0.00152925,-
 0.00015495,-0.00041672,0.00036918,-0.00022292,-0.00012658,-0.00013166,
 -0.00399727,0.00829414,0.00369396,0.00465101,-0.01032561,-0.00562765,-
 0.09917522,0.24098357,0.04198926,-0.08289458,-0.08647809,0.00599952,-0
 .00509310,-0.00476677,0.00022787,0.00018991,0.00019464,-0.00032443,0.0
 0015826,-0.00001306,0.00012680,0.00052633,0.00046704,-0.00012854,0.000
 27472,-0.00156927,-0.00084267,-0.00356793,0.00114252,-0.00009552,-0.00
 023230,0.00028100,-0.00010023,-0.00004977,-0.00006920,0.00960178,-0.02
 120468,-0.00916807,-0.00887634,0.01876978,0.00984830,-0.04706689,0.092
 92216,0.09001721,0.00131848,0.00042851,0.00008780,0.01072868,0.0089922
 8,-0.01881918,-0.11546834,-0.05236715,0.10541775,-0.00341581,0.0008305
 1,-0.00137298,0.00026012,0.00171959,-0.00077125,0.00023734,-0.00030387
 ,-0.00055829,0.00112068,-0.00190478,0.00041724,-0.00002898,-0.00006038
 ,0.00001695,0.00008468,-0.00003062,0.00001560,-0.00020343,-0.00004390,
 0.00001146,0.00015340,0.00008647,0.00022403,-0.00004457,-0.00013166,0.
 00002763,0.12329907,-0.00046546,0.00016441,-0.00078998,-0.00718009,-0.
 00673562,0.01117940,-0.05137426,-0.08400847,0.07720028,0.00173004,0.00
 046805,0.00117012,0.00049158,-0.00098223,0.00015717,-0.00059248,-0.000
 17761,0.00070556,-0.00058639,0.00147779,-0.00083746,0.00004957,0.00001
 706,-0.00010837,0.00007364,-0.00005486,-0.00001798,0.00026857,0.000527
 38,-0.00009264,0.00004493,-0.00013949,-0.00014214,0.00012314,0.0000441
 1,-0.00013867,0.05550764,0.08779788,0.00135690,0.00006232,0.00079777,0
 .01238519,0.00843442,-0.01929977,0.10307070,0.07776602,-0.20620477,-0.
 00371693,0.00042198,0.00010732,-0.00022539,0.00172439,-0.00052545,0.00
 036016,-0.00030319,-0.00100745,-0.00026283,-0.00128409,0.00162514,-0.0
 0001777,-0.00001168,0.00010129,0.00007209,0.00003112,0.00005755,-0.000
 99958,-0.00034686,0.00013313,-0.00009419,-0.00007603,0.00048497,-0.000
 10967,-0.00003358,-0.00013338,-0.11219237,-0.08725596,0.22485009,0.000
 36905,-0.00011001,0.00054356,-0.00904111,0.01229757,0.01193461,-0.1182
 5308,0.09926233,0.05705603,0.00025463,-0.00018696,0.00019866,0.0002367
 8,-0.00008947,-0.00039946,-0.00201002,-0.00090827,0.00070765,-0.001387
 66,0.00476597,-0.00268152,0.00001387,-0.00006224,-0.00006766,0.0001787
 2,0.00000893,0.00012814,0.00001551,0.00008263,-0.00012098,0.00034963,-
 0.00023000,-0.00014349,-0.00035356,-0.00046621,-0.00063860,-0.00868460
 ,0.01218102,0.00615576,0.12580653,-0.00047091,-0.00025515,-0.00033495,
 0.00401258,-0.01027889,-0.00765465,0.10019641,-0.18738585,-0.08255104,
 0.00060188,0.00025730,-0.00002752,-0.00074601,0.00048651,0.00041857,0.
 00124155,0.00117289,-0.00136725,0.00284876,-0.00225102,0.00272144,-0.0
 0022966,-0.00015550,0.00002644,0.00000085,-0.00008794,0.00003374,-0.00
 010882,0.00010208,0.00002425,-0.00011188,0.00010062,0.00020663,-0.0002
 5527,0.00064033,-0.00000732,-0.00716842,0.00995214,0.00525929,-0.11189
 201,0.20347019,0.00053720,-0.00055149,0.00025021,-0.00928120,0.0145884
 9,0.01036058,0.05817744,-0.08372046,-0.09696641,0.00013938,0.00012511,
 0.00049295,0.00032470,-0.00086982,0.00009430,-0.00132997,-0.00012582,0
 .00077663,-0.00366539,0.00457559,-0.00164644,0.00003306,-0.00005884,-0
 .00005938,0.00011441,0.00002151,0.00010665,-0.00007729,-0.00007091,-0.
 00002452,0.00028482,0.00011819,0.00007300,-0.00048022,0.00000954,-0.00
 002317,0.01190068,-0.01948934,-0.01024971,-0.06308200,0.09132484,0.102
 22575,-0.00199701,0.00340390,-0.00313303,-0.01539633,-0.01601336,-0.00
 771261,-0.15297599,-0.11769334,-0.05579789,0.00010241,-0.00025356,0.00
 160259,0.00006160,0.00044622,0.00027826,-0.00046279,0.00006758,-0.0008
 9779,0.00223733,-0.00028754,0.00155433,-0.00017064,-0.00023139,-0.0001
 3348,0.00024509,-0.00008637,0.00024289,0.00038510,0.00016547,0.0001242
 9,-0.00089485,-0.00105722,-0.00067776,0.00025591,-0.00011193,0.0000401
 8,-0.01000350,-0.01070969,-0.00585935,0.01212854,0.01255211,0.00601415
 ,0.16563772,0.00177261,-0.00087403,0.00169387,0.00976810,0.00822538,0.
 00540057,-0.12052522,-0.17830163,-0.06316862,0.00006905,0.00077765,-0.
 00008634,0.00019191,-0.00014330,-0.00009261,0.00001099,0.00027766,0.00
 038800,-0.00069138,0.00158024,-0.00005212,0.00007227,0.00007177,0.0001
 1068,-0.00017211,-0.00015187,-0.00012746,0.00008740,-0.00008843,-0.000
 01008,0.00057690,0.00069380,0.00034409,-0.00000001,0.00019837,0.000259
 92,-0.00598321,-0.00814044,-0.00443066,-0.01514016,-0.01515001,-0.0062
 4159,0.12955867,0.19090915,-0.00219835,0.00290482,-0.00268397,-0.01339
 397,-0.01708528,-0.00924545,-0.05570287,-0.06013307,-0.07658753,-0.001
 77026,-0.00121960,0.00083992,0.00070567,-0.00004169,0.00005144,-0.0004
 2530,-0.00004387,0.00018515,0.00188331,0.00022014,0.00094872,-0.000057
 80,-0.00012111,-0.00016422,0.00018182,-0.00004995,-0.00000151,-0.00030
 318,-0.00004466,0.00012803,-0.00134733,-0.00082592,-0.00001495,0.00029
 861,0.00030598,0.00012960,0.01585574,0.01804763,0.00938442,-0.00883729
 ,-0.00867131,-0.00517111,0.06419590,0.06619081,0.08234037,-0.00039028,
 -0.00002977,0.00272403,-0.01279206,-0.00605595,-0.00445675,0.00082828,
 0.00092232,-0.00167567,-0.26558073,-0.06033510,-0.04882225,-0.02026548
 ,0.01412148,-0.00425567,-0.00065341,-0.00149708,-0.00466082,0.00055160
 ,-0.00044965,0.00104690,-0.00011773,-0.00043405,0.00058678,0.00083893,
 0.00017704,0.00021595,-0.00053669,-0.00057794,-0.00020924,0.00023690,0
 .00023445,-0.00001526,0.00007150,-0.00010443,-0.00005291,0.00032972,0.
 00037234,-0.00011629,0.00015609,-0.00041409,0.00028383,0.00058912,0.00
 027380,0.00071579,0.29685232,-0.00156929,-0.00040080,0.00320052,-0.012
 80280,-0.00405986,-0.00381177,-0.00089545,0.00056154,-0.00046299,-0.06
 369538,-0.06557028,-0.01874798,0.04030274,-0.00329523,0.00771191,0.001
 09000,0.00207048,0.00531548,-0.00053491,0.00091144,-0.00028077,-0.0009
 1472,-0.00018346,-0.00062155,-0.00034774,-0.00039526,-0.00001192,-0.00
 075879,-0.00082179,-0.00006519,0.00030693,0.00001493,0.00005593,0.0001
 1100,0.00015332,-0.00006467,0.00030468,0.00003981,-0.00004457,0.000007
 53,-0.00027776,-0.00013479,0.00031789,0.00011928,0.00052708,0.05511701
 ,0.07325443,0.00153785,0.00097183,-0.00353391,0.02251756,0.00846160,0.
 00479244,0.00135563,0.00024593,0.00143820,-0.05147587,-0.01842141,-0.0
 6702309,-0.00753842,0.00445536,0.00215630,0.00089325,0.00042078,-0.000
 86213,-0.00041496,-0.00049170,-0.00046607,-0.00039568,-0.00011799,0.00
 050270,0.00021033,-0.00002231,-0.00009683,0.00095184,0.00096696,0.0005
 8550,0.00013741,-0.00017266,0.00002721,-0.00004701,0.00025186,0.000026
 38,-0.00007272,-0.00019305,0.00016151,-0.00016783,0.00004732,0.0000728
 7,-0.00008942,-0.00013765,-0.00045618,0.05792835,0.01134162,0.06719732
 ,0.00093353,0.00028801,0.00052878,0.00098114,0.00652391,0.01069410,-0.
 00073268,-0.00063551,0.00024954,-0.05082134,-0.01381603,-0.01996696,-0
 .00160479,0.01437731,0.01745920,-0.00206144,0.00282004,0.00100996,-0.0
 0177220,0.00193977,0.00192080,-0.00027685,-0.00001793,0.00034251,0.000
 48587,0.00005652,0.00011348,0.00013909,0.00010991,-0.00020490,-0.00024
 320,0.00030278,-0.00012296,-0.00002950,-0.00023433,0.00007996,0.000331
 96,0.00004070,0.00022901,0.00009462,0.00000381,-0.00000385,0.00017204,
 0.00016171,0.00016233,-0.00017429,-0.01593959,-0.02522270,0.05472789,-
 0.00007968,0.00061485,0.00042022,0.00129350,0.00958545,0.01049162,-0.0
 0016011,-0.00034669,0.00021308,-0.00990993,-0.11761478,-0.11421594,0.0
 0867416,-0.02373889,-0.02678511,0.00029060,-0.00602327,0.00455000,-0.0
 0277838,0.00193839,0.00323859,0.00031841,0.00032880,-0.00040370,-0.000
 25770,-0.00010131,-0.00009775,0.00007683,0.00009016,0.00001404,0.00007
 458,0.00007221,-0.00016238,0.00000886,-0.00003393,0.00019797,0.0001512
 6,-0.00031079,0.00008646,0.00005986,-0.00007297,0.00004609,-0.00009026
 ,-0.00000810,0.00006654,-0.00177861,-0.00159269,-0.00758328,0.00376783
 ,0.13730331,-0.00118031,-0.00139443,0.00110772,-0.00338309,-0.01247253
 ,-0.01419980,0.00130336,0.00052148,-0.00098260,-0.01192545,-0.12265356
 ,-0.24573753,0.00116505,0.00465432,0.00965496,-0.00042072,0.00347946,-
 0.00082243,0.00223374,-0.00142959,-0.00238872,-0.00026284,-0.00013501,
 0.00009884,0.00004438,-0.00001856,-0.00002326,-0.00027149,-0.00005834,
 0.00040950,0.00057151,0.00009949,0.00025941,0.00006864,0.00081091,0.00
 012397,-0.00026119,0.00061287,-0.00034890,-0.00028639,0.00031947,-0.00
 011056,0.00022243,0.00001825,0.00026827,0.00032503,-0.00315277,-0.0046
 7196,0.01214522,0.13091190,0.25708379,0.00004748,-0.00006839,-0.000075
 90,0.00068472,-0.00170340,0.00089341,0.00017705,-0.00035491,-0.0003298
 9,0.00060106,-0.00198060,0.00155223,-0.00444472,0.00864776,0.00596152,
 -0.23657637,0.11613598,-0.01898417,0.01203356,-0.00442918,-0.00028790,
 -0.02567534,0.00525530,-0.00837828,-0.00011181,-0.00061529,-0.00032376
 ,0.00000847,0.00000627,0.00000301,-0.00003517,-0.00007211,-0.00002583,
 -0.00005196,-0.00001065,0.00001516,-0.00001143,0.00003225,-0.00002691,
 0.00013627,-0.00010108,0.00011054,0.00003316,0.00000033,0.00002721,0.0
 0002072,-0.00013763,-0.00012429,-0.00017214,0.00031672,-0.00011273,0.2
 5281960,0.00030825,-0.00011220,0.00010048,0.00135035,0.00043658,0.0045
 6692,0.00069644,-0.00155555,-0.00092529,0.00068754,0.00016397,-0.00038
 224,0.00967878,-0.00530541,-0.00539945,0.10475007,-0.11152343,0.009859
 51,0.01799449,-0.02786895,0.00639259,-0.01525718,0.01066515,-0.0033531
 9,-0.00132756,-0.00173202,-0.00114877,-0.00003374,-0.00003771,0.000017
 73,-0.00006437,-0.00001401,-0.00012428,-0.00014811,-0.00008295,-0.0000
 6610,-0.00004595,0.00005146,-0.00000086,0.00041753,-0.00029016,0.00043
 589,0.00000596,0.00002143,-0.00002266,0.00043027,-0.00044731,0.0000185
 6,0.00025239,-0.00009355,-0.00013136,-0.12032426,0.13832884,-0.0001461
 9,0.00001819,0.00013356,-0.00026955,-0.00038364,-0.00440146,-0.0005827
 6,0.00062981,0.00070896,0.00253381,0.00061927,-0.00503410,0.02986770,-
 0.02609937,-0.00579128,-0.02630681,0.01490600,-0.04958857,-0.00894386,
 0.01991598,0.00144154,-0.01715559,0.00315999,0.00229275,-0.00057189,-0
 .00087606,-0.00043133,-0.00005271,-0.00004533,-0.00000200,0.00006576,-
 0.00003395,-0.00001617,0.00006228,0.00008342,0.00000520,0.00006278,-0.
 00003777,0.00008679,-0.00029655,0.00023964,-0.00019724,0.00002269,-0.0
 0004324,-0.00000425,0.00048884,-0.00072873,0.00019497,0.00061365,-0.00
 105132,0.00029094,0.02009819,-0.00991124,0.06054043,-0.00003394,0.0000
 3592,0.00001330,0.00017716,-0.00029892,-0.00011499,-0.00002417,0.00004
 542,0.00002713,-0.00010766,-0.00004373,-0.00002372,-0.00065046,-0.0001
 8424,-0.00064832,0.00384758,-0.00298763,-0.00161368,-0.00040717,0.0004
 1691,0.00017650,0.00416200,0.00288914,0.00173371,-0.22161264,-0.159659
 40,-0.12445468,0.00000280,-0.00000672,-0.00000419,-0.00000676,-0.00001
 346,-0.00000997,0.00000690,0.00002907,0.00001797,-0.00000348,-0.000007
 04,-0.00000853,-0.00001023,0.00004020,-0.00000028,0.00005308,-0.000031
 66,0.00000996,0.00003550,0.00003853,0.00001668,0.00002227,0.00002203,0
 .00002486,0.00051686,0.00062909,0.00051022,0.21403238,-0.00005418,0.00
 004705,0.00004081,0.00024213,-0.00013492,-0.00009399,-0.00007108,-0.00
 006969,-0.00003780,0.00006430,-0.00003774,-0.00001987,0.00041630,0.000
 00849,0.00014792,-0.00328089,0.00424189,-0.00128573,0.00097199,0.00095
 831,0.00030055,0.00258065,0.00274328,0.00149292,-0.15944528,-0.1471410
 3,-0.09920673,-0.00000199,-0.00000711,-0.00000634,0.00001170,0.0000016
 4,0.00001005,0.00001254,0.00003920,0.00002006,0.00001899,0.00000941,0.
 00000147,0.00000196,0.00002320,0.00001780,0.00001686,-0.00001692,-0.00
 000389,0.00002795,-0.00008079,-0.00004179,-0.00000131,0.00000381,0.000
 01802,-0.00059712,-0.00060417,-0.00036164,0.15908649,0.14001608,0.0000
 5592,-0.00004724,-0.00006228,-0.00029802,-0.00001078,0.00009704,0.0000
 2315,0.00002149,-0.00003009,0.00022260,-0.00031400,0.00013560,0.000700
 14,0.00116959,0.00099139,-0.00170321,-0.00120263,0.00412730,-0.0004555
 7,-0.00101363,-0.00013962,0.00158525,0.00152080,0.00268941,-0.12440815
 ,-0.09924253,-0.09861184,0.00002490,0.00002478,-0.00000717,-0.00002094
 ,-0.00001227,-0.00000421,-0.00001597,-0.00002055,-0.00001484,0.0000103
 2,0.00003034,-0.00002055,-0.00000263,-0.00000761,-0.00000439,0.0000036
 1,-0.00001582,0.00005324,-0.00005063,-0.00002482,-0.00004522,-0.000027
 17,0.00006297,-0.00001162,0.00000839,0.00007373,-0.00022873,0.12434803
 ,0.09900819,0.09108659\\0.00001610,0.00000213,-0.00000161,-0.00000930,
 -0.00001406,0.00001850,-0.00000634,0.00000463,-0.00000677,0.00000074,0
 .00000570,-0.00000282,-0.00000530,0.00002773,-0.00002675,0.00000507,-0
 .00001315,0.00000511,-0.00000386,-0.00002129,0.00000097,-0.00000347,0.
 00002513,0.00000066,-0.00003956,-0.00004180,-0.00001030,0.00000300,-0.
 00000565,-0.00000447,0.,-0.00000340,-0.00000122,0.00000220,-0.00000098
 ,-0.00000333,0.00000645,-0.00000151,0.00000136,0.00000512,0.00000126,-
 0.00000056,0.00000487,-0.00000100,0.00000276,-0.00000781,0.00000423,0.
 00000512,0.00000083,0.00001087,0.00000768,0.00001342,-0.00000961,-0.00
 000182,0.00001784,0.00003077,0.00001747\\\@


 CONFIDENCE: THAT QUIET ASSURED FEELING YOU HAVE
 JUST BEFORE YOU FALL FLAT ON YOUR FACE.
 Job cpu time:       0 days  0 hours 41 minutes 52.8 seconds.
 File lengths (MBytes):  RWF=    152 Int=      0 D2E=      0 Chk=      8 Scr=      1
 Normal termination of Gaussian 09 at Mon Jan 27 17:13:25 2020.
