 Entering Gaussian System, Link 0=/home/puck/opt/gaussian_09/g09
 Input=dsC7O2H10nsd_4070.com
 Output=dsC7O2H10nsd_4070.log
 Initial command:
 /home/puck/opt/gaussian_09/l1.exe "/scratch/puck/g09_068e55d1-c08e-4d44-9200-c4d0c6f58f86/Gau-89736.inp" -scrdir="/scratch/puck/g09_068e55d1-c08e-4d44-9200-c4d0c6f58f86/"
 Entering Link 1 = /home/puck/opt/gaussian_09/l1.exe PID=     89753.
  
 Copyright (c) 1988,1990,1992,1993,1995,1998,2003,2009,2013,
            Gaussian, Inc.  All Rights Reserved.
  
 This is part of the Gaussian(R) 09 program.  It is based on
 the Gaussian(R) 03 system (copyright 2003, Gaussian, Inc.),
 the Gaussian(R) 98 system (copyright 1998, Gaussian, Inc.),
 the Gaussian(R) 94 system (copyright 1995, Gaussian, Inc.),
 the Gaussian 92(TM) system (copyright 1992, Gaussian, Inc.),
 the Gaussian 90(TM) system (copyright 1990, Gaussian, Inc.),
 the Gaussian 88(TM) system (copyright 1988, Gaussian, Inc.),
 the Gaussian 86(TM) system (copyright 1986, Carnegie Mellon
 University), and the Gaussian 82(TM) system (copyright 1983,
 Carnegie Mellon University). Gaussian is a federally registered
 trademark of Gaussian, Inc.
  
 This software contains proprietary and confidential information,
 including trade secrets, belonging to Gaussian, Inc.
  
 This software is provided under written license and may be
 used, copied, transmitted, or stored only in accord with that
 written license.
  
 The following legend is applicable only to US Government
 contracts under FAR:
  
                    RESTRICTED RIGHTS LEGEND
  
 Use, reproduction and disclosure by the US Government is
 subject to restrictions as set forth in subparagraphs (a)
 and (c) of the Commercial Computer Software - Restricted
 Rights clause in FAR 52.227-19.
  
 Gaussian, Inc.
 340 Quinnipiac St., Bldg. 40, Wallingford CT 06492
  
  
 ---------------------------------------------------------------
 Warning -- This program may not be used in any manner that
 competes with the business of Gaussian, Inc. or will provide
 assistance to any competitor of Gaussian, Inc.  The licensee
 of this program is prohibited from giving any competitor of
 Gaussian, Inc. access to this program.  By using this program,
 the user acknowledges that Gaussian, Inc. is engaged in the
 business of creating and licensing software in the field of
 computational chemistry and represents and warrants to the
 licensee that it is not a competitor of Gaussian, Inc. and that
 it will not use this program in any manner prohibited above.
 ---------------------------------------------------------------
  

 Cite this work as:
 Gaussian 09, Revision D.01,
 M. J. Frisch, G. W. Trucks, H. B. Schlegel, G. E. Scuseria, 
 M. A. Robb, J. R. Cheeseman, G. Scalmani, V. Barone, B. Mennucci, 
 G. A. Petersson, H. Nakatsuji, M. Caricato, X. Li, H. P. Hratchian, 
 A. F. Izmaylov, J. Bloino, G. Zheng, J. L. Sonnenberg, M. Hada, 
 M. Ehara, K. Toyota, R. Fukuda, J. Hasegawa, M. Ishida, T. Nakajima, 
 Y. Honda, O. Kitao, H. Nakai, T. Vreven, J. A. Montgomery, Jr., 
 J. E. Peralta, F. Ogliaro, M. Bearpark, J. J. Heyd, E. Brothers, 
 K. N. Kudin, V. N. Staroverov, T. Keith, R. Kobayashi, J. Normand, 
 K. Raghavachari, A. Rendell, J. C. Burant, S. S. Iyengar, J. Tomasi, 
 M. Cossi, N. Rega, J. M. Millam, M. Klene, J. E. Knox, J. B. Cross, 
 V. Bakken, C. Adamo, J. Jaramillo, R. Gomperts, R. E. Stratmann, 
 O. Yazyev, A. J. Austin, R. Cammi, C. Pomelli, J. W. Ochterski, 
 R. L. Martin, K. Morokuma, V. G. Zakrzewski, G. A. Voth, 
 P. Salvador, J. J. Dannenberg, S. Dapprich, A. D. Daniels, 
 O. Farkas, J. B. Foresman, J. V. Ortiz, J. Cioslowski, 
 and D. J. Fox, Gaussian, Inc., Wallingford CT, 2013.
 
 ******************************************
 Gaussian 09:  ES64L-G09RevD.01 24-Apr-2013
                28-Jan-2020 
 ******************************************
 -----------------------------
 # b3lyp 6-31G(2df,p) opt Freq
 -----------------------------
 1/14=-1,18=20,19=15,26=3,38=1/1,3;
 2/9=110,12=2,17=6,18=5,40=1/2;
 3/5=1,6=6,7=104,11=2,16=1,25=1,30=1,71=1,74=-5/1,2,3;
 4//1;
 5/5=2,38=5/2;
 6/7=2,8=2,9=2,10=2,28=1/1;
 7//1,2,3,16;
 1/14=-1,18=20,19=15,26=3/3(2);
 2/9=110/2;
 99//99;
 2/9=110/2;
 3/5=1,6=6,7=104,11=2,16=1,25=1,30=1,71=1,74=-5/1,2,3;
 4/5=5,16=3,69=1/1;
 5/5=2,38=5/2;
 7//1,2,3,16;
 1/14=-1,18=20,19=15,26=3/3(-5);
 2/9=110/2;
 6/7=2,8=2,9=2,10=2,19=2,28=1/1;
 99/9=1/99;
 -----
 titel
 -----
 Symbolic Z-matrix:
 Charge =  0 Multiplicity = 1
 C                     0.84861   0.9479    0.07437 
 C                     0.85768  -0.56805   0.24087 
 C                     1.42444  -1.36876  -0.97962 
 C                     2.60852  -1.89417  -0.11763 
 C                     2.36152  -3.21079   0.66053 
 O                     0.96199  -3.28343   0.97723 
 C                     1.80278  -2.49022   1.81601 
 C                     2.02761  -1.12014   1.12399 
 O                     2.76338  -0.27853   1.95507 
 H                     0.62525   1.45454   1.01901 
 H                     1.81245   1.32604  -0.29259 
 H                     0.09308   1.2512   -0.6576 
 H                    -0.12494  -0.91404   0.57151 
 H                     0.76271  -2.14228  -1.37079 
 H                     1.74648  -0.7239   -1.80211 
 H                     3.6321   -1.73657  -0.45808 
 H                     2.89426  -4.15311   0.59783 
 H                     1.80647  -2.6974    2.88079 
 H                     3.03277   0.49585   1.45035 
 

 GradGradGradGradGradGradGradGradGradGradGradGradGradGradGradGradGradGrad
 Berny optimization.
 Initialization pass.
                           ----------------------------
                           !    Initial Parameters    !
                           ! (Angstroms and Degrees)  !
 --------------------------                            --------------------------
 ! Name  Definition              Value          Derivative Info.                !
 --------------------------------------------------------------------------------
 ! R1    R(1,2)                  1.5251         estimate D2E/DX2                !
 ! R2    R(1,10)                 1.0949         estimate D2E/DX2                !
 ! R3    R(1,11)                 1.0985         estimate D2E/DX2                !
 ! R4    R(1,12)                 1.0948         estimate D2E/DX2                !
 ! R5    R(2,3)                  1.5659         estimate D2E/DX2                !
 ! R6    R(2,8)                  1.5663         estimate D2E/DX2                !
 ! R7    R(2,13)                 1.093          estimate D2E/DX2                !
 ! R8    R(3,4)                  1.556          estimate D2E/DX2                !
 ! R9    R(3,14)                 1.0905         estimate D2E/DX2                !
 ! R10   R(3,15)                 1.0936         estimate D2E/DX2                !
 ! R11   R(4,5)                  1.5492         estimate D2E/DX2                !
 ! R12   R(4,8)                  1.5742         estimate D2E/DX2                !
 ! R13   R(4,16)                 1.0902         estimate D2E/DX2                !
 ! R14   R(5,6)                  1.4368         estimate D2E/DX2                !
 ! R15   R(5,7)                  1.4719         estimate D2E/DX2                !
 ! R16   R(5,17)                 1.0843         estimate D2E/DX2                !
 ! R17   R(6,7)                  1.4282         estimate D2E/DX2                !
 ! R18   R(7,8)                  1.5513         estimate D2E/DX2                !
 ! R19   R(7,18)                 1.0848         estimate D2E/DX2                !
 ! R20   R(8,9)                  1.393          estimate D2E/DX2                !
 ! R21   R(9,19)                 0.9628         estimate D2E/DX2                !
 ! A1    A(2,1,10)             111.5287         estimate D2E/DX2                !
 ! A2    A(2,1,11)             111.9272         estimate D2E/DX2                !
 ! A3    A(2,1,12)             110.6385         estimate D2E/DX2                !
 ! A4    A(10,1,11)            107.9334         estimate D2E/DX2                !
 ! A5    A(10,1,12)            107.9292         estimate D2E/DX2                !
 ! A6    A(11,1,12)            106.6666         estimate D2E/DX2                !
 ! A7    A(1,2,3)              115.1729         estimate D2E/DX2                !
 ! A8    A(1,2,8)              114.6045         estimate D2E/DX2                !
 ! A9    A(1,2,13)             110.0194         estimate D2E/DX2                !
 ! A10   A(3,2,8)               89.3627         estimate D2E/DX2                !
 ! A11   A(3,2,13)             113.5358         estimate D2E/DX2                !
 ! A12   A(8,2,13)             112.9149         estimate D2E/DX2                !
 ! A13   A(2,3,4)               90.9345         estimate D2E/DX2                !
 ! A14   A(2,3,14)             115.0029         estimate D2E/DX2                !
 ! A15   A(2,3,15)             113.0325         estimate D2E/DX2                !
 ! A16   A(4,3,14)             114.8957         estimate D2E/DX2                !
 ! A17   A(4,3,15)             113.0574         estimate D2E/DX2                !
 ! A18   A(14,3,15)            109.096          estimate D2E/DX2                !
 ! A19   A(3,4,5)              116.3531         estimate D2E/DX2                !
 ! A20   A(3,4,8)               89.4323         estimate D2E/DX2                !
 ! A21   A(3,4,16)             119.517          estimate D2E/DX2                !
 ! A22   A(5,4,8)               87.872          estimate D2E/DX2                !
 ! A23   A(5,4,16)             115.431          estimate D2E/DX2                !
 ! A24   A(8,4,16)             121.4471         estimate D2E/DX2                !
 ! A25   A(4,5,6)              107.999          estimate D2E/DX2                !
 ! A26   A(4,5,7)               92.2226         estimate D2E/DX2                !
 ! A27   A(4,5,17)             129.1391         estimate D2E/DX2                !
 ! A28   A(6,5,17)             116.5769         estimate D2E/DX2                !
 ! A29   A(7,5,17)             131.0972         estimate D2E/DX2                !
 ! A30   A(5,7,8)               91.5559         estimate D2E/DX2                !
 ! A31   A(5,7,18)             132.5141         estimate D2E/DX2                !
 ! A32   A(6,7,8)              108.2914         estimate D2E/DX2                !
 ! A33   A(6,7,18)             118.1917         estimate D2E/DX2                !
 ! A34   A(8,7,18)             127.305          estimate D2E/DX2                !
 ! A35   A(2,8,4)               90.243          estimate D2E/DX2                !
 ! A36   A(2,8,7)              117.0364         estimate D2E/DX2                !
 ! A37   A(2,8,9)              121.1948         estimate D2E/DX2                !
 ! A38   A(4,8,7)               88.3423         estimate D2E/DX2                !
 ! A39   A(4,8,9)              124.9401         estimate D2E/DX2                !
 ! A40   A(7,8,9)              110.1211         estimate D2E/DX2                !
 ! A41   A(8,9,19)             108.7223         estimate D2E/DX2                !
 ! D1    D(10,1,2,3)          -169.1305         estimate D2E/DX2                !
 ! D2    D(10,1,2,8)           -67.4939         estimate D2E/DX2                !
 ! D3    D(10,1,2,13)           61.0149         estimate D2E/DX2                !
 ! D4    D(11,1,2,3)           -48.0917         estimate D2E/DX2                !
 ! D5    D(11,1,2,8)            53.5449         estimate D2E/DX2                !
 ! D6    D(11,1,2,13)         -177.9463         estimate D2E/DX2                !
 ! D7    D(12,1,2,3)            70.7235         estimate D2E/DX2                !
 ! D8    D(12,1,2,8)           172.3601         estimate D2E/DX2                !
 ! D9    D(12,1,2,13)          -59.131          estimate D2E/DX2                !
 ! D10   D(1,2,3,4)            115.7904         estimate D2E/DX2                !
 ! D11   D(1,2,3,14)          -126.0346         estimate D2E/DX2                !
 ! D12   D(1,2,3,15)             0.1596         estimate D2E/DX2                !
 ! D13   D(8,2,3,4)             -1.2644         estimate D2E/DX2                !
 ! D14   D(8,2,3,14)           116.9106         estimate D2E/DX2                !
 ! D15   D(8,2,3,15)          -116.8952         estimate D2E/DX2                !
 ! D16   D(13,2,3,4)          -116.0911         estimate D2E/DX2                !
 ! D17   D(13,2,3,14)            2.0839         estimate D2E/DX2                !
 ! D18   D(13,2,3,15)          128.2781         estimate D2E/DX2                !
 ! D19   D(1,2,8,4)           -116.316          estimate D2E/DX2                !
 ! D20   D(1,2,8,7)            155.4211         estimate D2E/DX2                !
 ! D21   D(1,2,8,9)             15.9133         estimate D2E/DX2                !
 ! D22   D(3,2,8,4)              1.2496         estimate D2E/DX2                !
 ! D23   D(3,2,8,7)            -87.0133         estimate D2E/DX2                !
 ! D24   D(3,2,8,9)            133.4788         estimate D2E/DX2                !
 ! D25   D(13,2,8,4)           116.6447         estimate D2E/DX2                !
 ! D26   D(13,2,8,7)            28.3818         estimate D2E/DX2                !
 ! D27   D(13,2,8,9)          -111.126          estimate D2E/DX2                !
 ! D28   D(2,3,4,5)             88.6014         estimate D2E/DX2                !
 ! D29   D(2,3,4,8)              1.258          estimate D2E/DX2                !
 ! D30   D(2,3,4,16)          -125.1793         estimate D2E/DX2                !
 ! D31   D(14,3,4,5)           -29.6665         estimate D2E/DX2                !
 ! D32   D(14,3,4,8)          -117.0099         estimate D2E/DX2                !
 ! D33   D(14,3,4,16)          116.5527         estimate D2E/DX2                !
 ! D34   D(15,3,4,5)          -155.7899         estimate D2E/DX2                !
 ! D35   D(15,3,4,8)           116.8667         estimate D2E/DX2                !
 ! D36   D(15,3,4,16)           -9.5706         estimate D2E/DX2                !
 ! D37   D(3,4,5,6)            -29.839          estimate D2E/DX2                !
 ! D38   D(3,4,5,7)            -87.6637         estimate D2E/DX2                !
 ! D39   D(3,4,5,17)           120.7267         estimate D2E/DX2                !
 ! D40   D(8,4,5,6)             58.4721         estimate D2E/DX2                !
 ! D41   D(8,4,5,7)              0.6474         estimate D2E/DX2                !
 ! D42   D(8,4,5,17)          -150.9623         estimate D2E/DX2                !
 ! D43   D(16,4,5,6)          -177.4432         estimate D2E/DX2                !
 ! D44   D(16,4,5,7)           124.7321         estimate D2E/DX2                !
 ! D45   D(16,4,5,17)          -26.8776         estimate D2E/DX2                !
 ! D46   D(3,4,8,2)             -1.2575         estimate D2E/DX2                !
 ! D47   D(3,4,8,7)            115.7836         estimate D2E/DX2                !
 ! D48   D(3,4,8,9)           -130.6631         estimate D2E/DX2                !
 ! D49   D(5,4,8,2)           -117.6551         estimate D2E/DX2                !
 ! D50   D(5,4,8,7)             -0.614          estimate D2E/DX2                !
 ! D51   D(5,4,8,9)            112.9393         estimate D2E/DX2                !
 ! D52   D(16,4,8,2)           123.5955         estimate D2E/DX2                !
 ! D53   D(16,4,8,7)          -119.3634         estimate D2E/DX2                !
 ! D54   D(16,4,8,9)            -5.8101         estimate D2E/DX2                !
 ! D55   D(4,5,7,8)             -0.6567         estimate D2E/DX2                !
 ! D56   D(4,5,7,18)          -148.5882         estimate D2E/DX2                !
 ! D57   D(17,5,7,8)           150.0441         estimate D2E/DX2                !
 ! D58   D(17,5,7,18)            2.1126         estimate D2E/DX2                !
 ! D59   D(5,7,8,2)             90.0728         estimate D2E/DX2                !
 ! D60   D(5,7,8,4)              0.6461         estimate D2E/DX2                !
 ! D61   D(5,7,8,9)           -126.195          estimate D2E/DX2                !
 ! D62   D(6,7,8,2)             31.9296         estimate D2E/DX2                !
 ! D63   D(6,7,8,4)            -57.4971         estimate D2E/DX2                !
 ! D64   D(6,7,8,9)            175.6618         estimate D2E/DX2                !
 ! D65   D(18,7,8,2)          -119.4001         estimate D2E/DX2                !
 ! D66   D(18,7,8,4)           151.1732         estimate D2E/DX2                !
 ! D67   D(18,7,8,9)            24.3321         estimate D2E/DX2                !
 ! D68   D(2,8,9,19)           -48.5474         estimate D2E/DX2                !
 ! D69   D(4,8,9,19)            66.8617         estimate D2E/DX2                !
 ! D70   D(7,8,9,19)           169.4755         estimate D2E/DX2                !
 --------------------------------------------------------------------------------
 Trust Radius=3.00D-01 FncErr=1.00D-07 GrdErr=1.00D-06
 Number of steps in this run=    114 maximum allowed number of steps=    114.
 GradGradGradGradGradGradGradGradGradGradGradGradGradGradGradGradGradGrad

                          Input orientation:                          
 ---------------------------------------------------------------------
 Center     Atomic      Atomic             Coordinates (Angstroms)
 Number     Number       Type             X           Y           Z
 ---------------------------------------------------------------------
      1          6           0        0.848611    0.947898    0.074374
      2          6           0        0.857684   -0.568053    0.240866
      3          6           0        1.424439   -1.368758   -0.979616
      4          6           0        2.608523   -1.894166   -0.117625
      5          6           0        2.361518   -3.210789    0.660529
      6          8           0        0.961992   -3.283432    0.977234
      7          6           0        1.802780   -2.490220    1.816010
      8          6           0        2.027606   -1.120142    1.123990
      9          8           0        2.763377   -0.278532    1.955068
     10          1           0        0.625251    1.454541    1.019010
     11          1           0        1.812447    1.326037   -0.292586
     12          1           0        0.093082    1.251200   -0.657599
     13          1           0       -0.124940   -0.914042    0.571508
     14          1           0        0.762705   -2.142281   -1.370791
     15          1           0        1.746476   -0.723901   -1.802111
     16          1           0        3.632098   -1.736571   -0.458077
     17          1           0        2.894260   -4.153110    0.597831
     18          1           0        1.806473   -2.697397    2.880792
     19          1           0        3.032771    0.495850    1.450353
 ---------------------------------------------------------------------
                    Distance matrix (angstroms):
                    1          2          3          4          5
     1  C    0.000000
     2  C    1.525093   0.000000
     3  C    2.609477   1.565860   0.000000
     4  C    3.348355   2.225428   1.556000   0.000000
     5  C    4.463983   3.069477   2.638422   1.549204   0.000000
     6  O    4.328066   2.815387   2.776525   2.416576   1.436751
     7  C    3.970440   2.658762   3.035844   2.177946   1.471919
     8  C    2.601636   1.566342   2.202449   1.574226   2.167279
     9  O    2.950842   2.579530   3.404956   2.632549   3.230396
    10  H    1.094949   2.179545   3.550243   4.054522   4.990836
    11  H    1.098466   2.187171   2.807932   3.321755   4.668265
    12  H    1.094807   2.168302   2.956414   4.063538   5.176158
    13  H    2.159112   1.092970   2.239046   2.984521   3.386066
    14  H    3.412490   2.254918   1.090526   2.244778   2.797172
    15  H    2.668758   2.233382   1.093639   2.224891   3.553517
    16  H    3.903547   3.090522   2.298053   1.090160   2.244765
    17  H    5.520776   4.138563   3.521552   2.386703   1.084303
    18  H    4.699112   3.521863   4.100486   3.206083   2.345467
    19  H    2.620728   2.706612   3.459515   2.889761   3.848841
                    6          7          8          9         10
     6  O    0.000000
     7  C    1.428166   0.000000
     8  C    2.415966   1.551307   0.000000
     9  O    3.637386   2.415295   1.392967   0.000000
    10  H    4.750108   4.193200   2.933703   2.907117   0.000000
    11  H    4.856224   4.360056   2.834920   2.920763   1.773761
    12  H    4.898016   4.800004   3.541145   4.036903   1.770754
    13  H    2.638189   2.783744   2.231853   3.265040   2.524525
    14  H    2.618236   3.370240   2.978032   4.305530   4.320552
    15  H    3.858934   4.026644   2.966161   3.917760   3.736506
    16  H    3.403287   3.014276   2.336090   2.950224   4.626674
    17  H    2.152661   2.332486   3.197941   4.107503   6.063955
    18  H    2.163359   1.084756   2.371284   2.761076   4.701076
    19  H    4.335313   3.250108   1.930881   0.962797   2.627032
                   11         12         13         14         15
    11  H    0.000000
    12  H    1.759276   0.000000
    13  H    3.085138   2.499302   0.000000
    14  H    3.780703   3.531678   2.463536   0.000000
    15  H    2.546619   2.818624   3.028600   1.779225   0.000000
    16  H    3.566243   4.635862   3.981448   3.038266   2.527350
    17  H    5.655459   6.215245   4.428072   3.530217   4.340116
    18  H    5.124293   5.572014   3.499072   4.412886   5.082113
    19  H    2.283908   3.695374   3.568095   4.480155   3.704170
                   16         17         18         19
    16  H    0.000000
    17  H    2.738432   0.000000
    18  H    3.924811   2.917926   0.000000
    19  H    2.997499   4.728510   3.707667   0.000000
 Stoichiometry    C7H10O2
 Framework group  C1[X(C7H10O2)]
 Deg. of freedom    51
 Full point group                 C1      NOp   1
 Largest Abelian subgroup         C1      NOp   1
 Largest concise Abelian subgroup C1      NOp   1
                         Standard orientation:                         
 ---------------------------------------------------------------------
 Center     Atomic      Atomic             Coordinates (Angstroms)
 Number     Number       Type             X           Y           Z
 ---------------------------------------------------------------------
      1          6           0        2.517000   -0.242270   -0.390272
      2          6           0        1.020863   -0.494173   -0.545281
      3          6           0        0.405796   -1.504739    0.480567
      4          6           0       -0.481957   -0.382767    1.092293
      5          6           0       -1.869144   -0.169084    0.436486
      6          8           0       -1.765017   -0.530299   -0.950213
      7          6           0       -1.319146    0.768068   -0.556386
      8          6           0        0.105454    0.632720    0.042569
      9          8           0        0.617530    1.891121    0.350083
     10          1           0        2.847242    0.604620   -1.000706
     11          1           0        2.792180   -0.035048    0.652782
     12          1           0        3.090434   -1.122910   -0.697275
     13          1           0        0.787400   -0.732383   -1.586114
     14          1           0       -0.144658   -2.334784    0.036412
     15          1           0        1.142336   -1.900366    1.185574
     16          1           0       -0.434922   -0.184589    2.163256
     17          1           0       -2.854984   -0.237125    0.882808
     18          1           0       -1.740228    1.629984   -1.062832
     19          1           0        1.421907    1.779498    0.867282
 ---------------------------------------------------------------------
 Rotational constants (GHZ):      2.7812005      1.6242620      1.3415284
 Standard basis: 6-31G(2df,p) (6D, 7F)
 There are   329 symmetry adapted cartesian basis functions of A   symmetry.
 There are   302 symmetry adapted basis functions of A   symmetry.
   302 basis functions,   466 primitive gaussians,   329 cartesian basis functions
    34 alpha electrons       34 beta electrons
       nuclear repulsion energy       479.1282791735 Hartrees.
 NAtoms=   19 NActive=   19 NUniq=   19 SFac= 1.00D+00 NAtFMM=   60 NAOKFM=F Big=F
 Integral buffers will be    131072 words long.
 Raffenetti 2 integral format.
 Two-electron integral symmetry is turned on.
 One-electron integrals computed using PRISM.
 NBasis=   302 RedAO= T EigKep=  2.05D-04  NBF=   302
 NBsUse=   302 1.00D-06 EigRej= -1.00D+00 NBFU=   302
 ExpMin= 1.61D-01 ExpMax= 5.48D+03 ExpMxC= 8.25D+02 IAcc=1 IRadAn=         1 AccDes= 0.00D+00
 Harris functional with IExCor=  402 and IRadAn=       1 diagonalized for initial guess.
 HarFok:  IExCor=  402 AccDes= 0.00D+00 IRadAn=         1 IDoV= 1 UseB2=F ITyADJ=14
 ICtDFT=  3500011 ScaDFX=  1.000000  1.000000  1.000000  1.000000
 FoFCou: FMM=F IPFlag=           0 FMFlag=      100000 FMFlg1=           0
         NFxFlg=           0 DoJE=T BraDBF=F KetDBF=T FulRan=T
         wScrn=  0.000000 ICntrl=     500 IOpCl=  0 I1Cent=   200000004 NGrid=           0
         NMat0=    1 NMatS0=      1 NMatT0=    0 NMatD0=    1 NMtDS0=    0 NMtDT0=    0
 Petite list used in FoFCou.
 Requested convergence on RMS density matrix=1.00D-08 within 128 cycles.
 Requested convergence on MAX density matrix=1.00D-06.
 Requested convergence on             energy=1.00D-06.
 No special actions if energy rises.
 Integral accuracy reduced to 1.0D-05 until final iterations.
 Initial convergence to 1.0D-05 achieved.  Increase integral accuracy.
 SCF Done:  E(RB3LYP) =  -423.121068772     A.U. after   13 cycles
            NFock= 13  Conv=0.73D-08     -V/T= 2.0074

 **********************************************************************

            Population analysis using the SCF density.

 **********************************************************************

 Orbital symmetries:
       Occupied  (A) (A) (A) (A) (A) (A) (A) (A) (A) (A) (A) (A)
                 (A) (A) (A) (A) (A) (A) (A) (A) (A) (A) (A) (A)
                 (A) (A) (A) (A) (A) (A) (A) (A) (A) (A)
       Virtual   (A) (A) (A) (A) (A) (A) (A) (A) (A) (A) (A) (A)
                 (A) (A) (A) (A) (A) (A) (A) (A) (A) (A) (A) (A)
                 (A) (A) (A) (A) (A) (A) (A) (A) (A) (A) (A) (A)
                 (A) (A) (A) (A) (A) (A) (A) (A) (A) (A) (A) (A)
                 (A) (A) (A) (A) (A) (A) (A) (A) (A) (A) (A) (A)
                 (A) (A) (A) (A) (A) (A) (A) (A) (A) (A) (A) (A)
                 (A) (A) (A) (A) (A) (A) (A) (A) (A) (A) (A) (A)
                 (A) (A) (A) (A) (A) (A) (A) (A) (A) (A) (A) (A)
                 (A) (A) (A) (A) (A) (A) (A) (A) (A) (A) (A) (A)
                 (A) (A) (A) (A) (A) (A) (A) (A) (A) (A) (A) (A)
                 (A) (A) (A) (A) (A) (A) (A) (A) (A) (A) (A) (A)
                 (A) (A) (A) (A) (A) (A) (A) (A) (A) (A) (A) (A)
                 (A) (A) (A) (A) (A) (A) (A) (A) (A) (A) (A) (A)
                 (A) (A) (A) (A) (A) (A) (A) (A) (A) (A) (A) (A)
                 (A) (A) (A) (A) (A) (A) (A) (A) (A) (A) (A) (A)
                 (A) (A) (A) (A) (A) (A) (A) (A) (A) (A) (A) (A)
                 (A) (A) (A) (A) (A) (A) (A) (A) (A) (A) (A) (A)
                 (A) (A) (A) (A) (A) (A) (A) (A) (A) (A) (A) (A)
                 (A) (A) (A) (A) (A) (A) (A) (A) (A) (A) (A) (A)
                 (A) (A) (A) (A) (A) (A) (A) (A) (A) (A) (A) (A)
                 (A) (A) (A) (A) (A) (A) (A) (A) (A) (A) (A) (A)
                 (A) (A) (A) (A) (A) (A) (A) (A) (A) (A) (A) (A)
                 (A) (A) (A) (A)
 The electronic state is 1-A.
 Alpha  occ. eigenvalues --  -19.15314 -19.14932 -10.23600 -10.23514 -10.23263
 Alpha  occ. eigenvalues --  -10.18454 -10.18247 -10.18088 -10.17767  -1.07963
 Alpha  occ. eigenvalues --   -1.03183  -0.84060  -0.75034  -0.69357  -0.66169
 Alpha  occ. eigenvalues --   -0.59771  -0.58077  -0.55136  -0.52274  -0.49682
 Alpha  occ. eigenvalues --   -0.46221  -0.43394  -0.41560  -0.40643  -0.39550
 Alpha  occ. eigenvalues --   -0.38938  -0.37511  -0.36595  -0.33023  -0.32072
 Alpha  occ. eigenvalues --   -0.30962  -0.28427  -0.25323  -0.23764
 Alpha virt. eigenvalues --    0.05987   0.07747   0.09291   0.10409   0.13681
 Alpha virt. eigenvalues --    0.14358   0.15010   0.15294   0.16217   0.16630
 Alpha virt. eigenvalues --    0.17243   0.17825   0.19422   0.20525   0.21392
 Alpha virt. eigenvalues --    0.24133   0.26038   0.26628   0.29069   0.35327
 Alpha virt. eigenvalues --    0.40381   0.42475   0.43739   0.44816   0.46442
 Alpha virt. eigenvalues --    0.47367   0.48579   0.49460   0.50888   0.53141
 Alpha virt. eigenvalues --    0.55090   0.56603   0.57438   0.58400   0.60887
 Alpha virt. eigenvalues --    0.61790   0.62461   0.63585   0.65895   0.67463
 Alpha virt. eigenvalues --    0.68969   0.71200   0.72251   0.74631   0.75464
 Alpha virt. eigenvalues --    0.75884   0.76731   0.77207   0.78022   0.81117
 Alpha virt. eigenvalues --    0.81758   0.83597   0.85410   0.87253   0.89573
 Alpha virt. eigenvalues --    0.91307   0.92592   0.94631   0.96761   0.97544
 Alpha virt. eigenvalues --    1.01153   1.03997   1.09044   1.10853   1.11861
 Alpha virt. eigenvalues --    1.13281   1.15947   1.18341   1.19894   1.22366
 Alpha virt. eigenvalues --    1.23494   1.27356   1.28678   1.32221   1.33245
 Alpha virt. eigenvalues --    1.36600   1.37844   1.40346   1.42529   1.44698
 Alpha virt. eigenvalues --    1.45535   1.47228   1.48911   1.50261   1.51818
 Alpha virt. eigenvalues --    1.53290   1.54057   1.56090   1.59512   1.61069
 Alpha virt. eigenvalues --    1.63657   1.64698   1.65419   1.67861   1.69971
 Alpha virt. eigenvalues --    1.73093   1.74361   1.75834   1.78091   1.79922
 Alpha virt. eigenvalues --    1.82681   1.83684   1.86276   1.90392   1.93275
 Alpha virt. eigenvalues --    1.95752   1.97479   2.03228   2.04434   2.09674
 Alpha virt. eigenvalues --    2.13559   2.21891   2.22553   2.27330   2.30108
 Alpha virt. eigenvalues --    2.33846   2.35598   2.36863   2.40403   2.43857
 Alpha virt. eigenvalues --    2.46323   2.49718   2.51679   2.54805   2.56967
 Alpha virt. eigenvalues --    2.58514   2.63505   2.66789   2.70555   2.73668
 Alpha virt. eigenvalues --    2.76827   2.79294   2.79803   2.81521   2.82250
 Alpha virt. eigenvalues --    2.86163   2.86947   2.89729   2.90137   2.92082
 Alpha virt. eigenvalues --    2.93654   2.96291   2.99041   3.01150   3.01469
 Alpha virt. eigenvalues --    3.04812   3.06967   3.11218   3.12261   3.14154
 Alpha virt. eigenvalues --    3.15166   3.16511   3.21339   3.21572   3.24515
 Alpha virt. eigenvalues --    3.26366   3.31508   3.33909   3.35338   3.36958
 Alpha virt. eigenvalues --    3.39982   3.43297   3.46274   3.47457   3.50807
 Alpha virt. eigenvalues --    3.52336   3.57033   3.58577   3.62884   3.63659
 Alpha virt. eigenvalues --    3.68986   3.71175   3.76221   3.76991   3.80564
 Alpha virt. eigenvalues --    3.90026   3.90989   3.92727   3.96339   3.99498
 Alpha virt. eigenvalues --    4.01245   4.08894   4.10936   4.12703   4.16123
 Alpha virt. eigenvalues --    4.20954   4.24018   4.28966   4.29600   4.31672
 Alpha virt. eigenvalues --    4.33969   4.37330   4.40574   4.40695   4.43016
 Alpha virt. eigenvalues --    4.44719   4.47248   4.48281   4.48920   4.50888
 Alpha virt. eigenvalues --    4.54724   4.55822   4.57643   4.58443   4.61704
 Alpha virt. eigenvalues --    4.62038   4.64345   4.65893   4.67599   4.69399
 Alpha virt. eigenvalues --    4.71952   4.73188   4.74019   4.77512   4.78608
 Alpha virt. eigenvalues --    4.80135   4.81415   4.83286   4.86386   4.87130
 Alpha virt. eigenvalues --    4.89499   4.93116   4.94226   4.99797   5.00550
 Alpha virt. eigenvalues --    5.03139   5.05592   5.11375   5.12776   5.15651
 Alpha virt. eigenvalues --    5.21712   5.27417   5.28594   5.32805   5.36417
 Alpha virt. eigenvalues --    5.38621   5.40816   5.45071   5.48202   5.51622
 Alpha virt. eigenvalues --    5.52368   5.56703   5.60447   5.61280   5.71721
 Alpha virt. eigenvalues --    5.75720   5.81355   5.91087   5.95423   6.01589
 Alpha virt. eigenvalues --    6.04740   6.06857   6.10819   6.18734   6.38895
 Alpha virt. eigenvalues --    6.81627   6.90815   7.23747   7.87122  10.65262
 Alpha virt. eigenvalues --   11.41727  11.63701  11.90501  12.26426  12.69725
 Alpha virt. eigenvalues --   13.21608  13.44397  13.61600
          Condensed to atoms (all electrons):
               1          2          3          4          5          6
     1  C    5.066767   0.336644  -0.019673  -0.000466   0.001012   0.000559
     2  C    0.336644   4.967242   0.361799  -0.109446  -0.020687   0.012042
     3  C   -0.019673   0.361799   5.053338   0.277407   0.018534  -0.003790
     4  C   -0.000466  -0.109446   0.277407   5.206406   0.287683  -0.033557
     5  C    0.001012  -0.020687   0.018534   0.287683   4.835564   0.272444
     6  O    0.000559   0.012042  -0.003790  -0.033557   0.272444   7.796589
     7  C    0.000808  -0.024342  -0.006936  -0.080654   0.311177   0.290016
     8  C   -0.003037   0.295550  -0.038716   0.352140  -0.019246  -0.066625
     9  O    0.000172  -0.056461   0.004369  -0.046449   0.003678   0.000174
    10  H    0.371806  -0.021679   0.004319   0.000201  -0.000026   0.000000
    11  H    0.360846  -0.023277  -0.007935   0.002715   0.000039  -0.000008
    12  H    0.371051  -0.017008  -0.003393   0.000150  -0.000023   0.000002
    13  H   -0.048648   0.353136  -0.038090   0.007454   0.002753   0.006145
    14  H    0.003998  -0.012777   0.345071  -0.007004  -0.015119   0.008352
    15  H   -0.013405  -0.020064   0.340494  -0.010545   0.001517   0.000444
    16  H   -0.000320   0.009884  -0.039392   0.350641  -0.035010   0.002144
    17  H    0.000019  -0.000720   0.002078  -0.058274   0.375902  -0.025961
    18  H   -0.000103   0.001601  -0.000710   0.010953  -0.035383  -0.021083
    19  H    0.005566  -0.007065   0.000370  -0.002525  -0.000373  -0.000120
               7          8          9         10         11         12
     1  C    0.000808  -0.003037   0.000172   0.371806   0.360846   0.371051
     2  C   -0.024342   0.295550  -0.056461  -0.021679  -0.023277  -0.017008
     3  C   -0.006936  -0.038716   0.004369   0.004319  -0.007935  -0.003393
     4  C   -0.080654   0.352140  -0.046449   0.000201   0.002715   0.000150
     5  C    0.311177  -0.019246   0.003678  -0.000026   0.000039  -0.000023
     6  O    0.290016  -0.066625   0.000174   0.000000  -0.000008   0.000002
     7  C    4.870822   0.319774  -0.013605   0.000089   0.000056  -0.000064
     8  C    0.319774   4.551149   0.426469  -0.003881  -0.004690   0.001896
     9  O   -0.013605   0.426469   7.838715   0.003051   0.000070   0.000277
    10  H    0.000089  -0.003881   0.003051   0.588735  -0.035420  -0.030399
    11  H    0.000056  -0.004690   0.000070  -0.035420   0.626401  -0.032379
    12  H   -0.000064   0.001896   0.000277  -0.030399  -0.032379   0.587578
    13  H   -0.009877  -0.026025   0.002013  -0.002261   0.006150  -0.002267
    14  H    0.001983  -0.003570  -0.000139  -0.000143  -0.000065   0.000095
    15  H    0.000310  -0.003223  -0.000023   0.000052   0.004519   0.001964
    16  H    0.009116  -0.031462  -0.000841   0.000020  -0.000377   0.000023
    17  H   -0.029778   0.003843  -0.000067   0.000000   0.000001   0.000000
    18  H    0.367556  -0.053519   0.000026   0.000004   0.000004   0.000001
    19  H    0.006760  -0.070511   0.321707   0.000512   0.004593  -0.000258
              13         14         15         16         17         18
     1  C   -0.048648   0.003998  -0.013405  -0.000320   0.000019  -0.000103
     2  C    0.353136  -0.012777  -0.020064   0.009884  -0.000720   0.001601
     3  C   -0.038090   0.345071   0.340494  -0.039392   0.002078  -0.000710
     4  C    0.007454  -0.007004  -0.010545   0.350641  -0.058274   0.010953
     5  C    0.002753  -0.015119   0.001517  -0.035010   0.375902  -0.035383
     6  O    0.006145   0.008352   0.000444   0.002144  -0.025961  -0.021083
     7  C   -0.009877   0.001983   0.000310   0.009116  -0.029778   0.367556
     8  C   -0.026025  -0.003570  -0.003223  -0.031462   0.003843  -0.053519
     9  O    0.002013  -0.000139  -0.000023  -0.000841  -0.000067   0.000026
    10  H   -0.002261  -0.000143   0.000052   0.000020   0.000000   0.000004
    11  H    0.006150  -0.000065   0.004519  -0.000377   0.000001   0.000004
    12  H   -0.002267   0.000095   0.001964   0.000023   0.000000   0.000001
    13  H    0.667960  -0.006417   0.005249  -0.000552   0.000094   0.000713
    14  H   -0.006417   0.607520  -0.038863   0.003887   0.000281   0.000077
    15  H    0.005249  -0.038863   0.646360  -0.005896  -0.000104   0.000024
    16  H   -0.000552   0.003887  -0.005896   0.666458  -0.002546  -0.000262
    17  H    0.000094   0.000281  -0.000104  -0.002546   0.633288  -0.001641
    18  H    0.000713   0.000077   0.000024  -0.000262  -0.001641   0.627325
    19  H   -0.000018  -0.000007  -0.000122   0.001045   0.000016  -0.000412
              19
     1  C    0.005566
     2  C   -0.007065
     3  C    0.000370
     4  C   -0.002525
     5  C   -0.000373
     6  O   -0.000120
     7  C    0.006760
     8  C   -0.070511
     9  O    0.321707
    10  H    0.000512
    11  H    0.004593
    12  H   -0.000258
    13  H   -0.000018
    14  H   -0.000007
    15  H   -0.000122
    16  H    0.001045
    17  H    0.000016
    18  H   -0.000412
    19  H    0.457053
 Mulliken charges:
               1
     1  C   -0.433595
     2  C   -0.024371
     3  C   -0.249144
     4  C   -0.146829
     5  C    0.015566
     6  O   -0.237766
     7  C   -0.013213
     8  C    0.373684
     9  O   -0.483134
    10  H    0.125020
    11  H    0.098760
    12  H    0.122753
    13  H    0.082488
    14  H    0.112839
    15  H    0.091310
    16  H    0.073441
    17  H    0.103569
    18  H    0.104830
    19  H    0.283791
 Sum of Mulliken charges =   0.00000
 Mulliken charges with hydrogens summed into heavy atoms:
               1
     1  C   -0.087061
     2  C    0.058117
     3  C   -0.044995
     4  C   -0.073387
     5  C    0.119135
     6  O   -0.237766
     7  C    0.091617
     8  C    0.373684
     9  O   -0.199343
 Electronic spatial extent (au):  <R**2>=           1021.0063
 Charge=              0.0000 electrons
 Dipole moment (field-independent basis, Debye):
    X=              1.1239    Y=              0.0551    Z=              1.5353  Tot=              1.9035
 Quadrupole moment (field-independent basis, Debye-Ang):
   XX=            -50.2817   YY=            -55.9632   ZZ=            -52.2668
   XY=             -0.9526   XZ=             -1.0611   YZ=             -0.8719
 Traceless Quadrupole moment (field-independent basis, Debye-Ang):
   XX=              2.5555   YY=             -3.1260   ZZ=              0.5705
   XY=             -0.9526   XZ=             -1.0611   YZ=             -0.8719
 Octapole moment (field-independent basis, Debye-Ang**2):
  XXX=             -4.2899  YYY=             -0.4569  ZZZ=              0.6589  XYY=             -0.0087
  XXY=              8.8988  XXZ=              7.4989  XZZ=              2.4564  YZZ=              5.6673
  YYZ=             -1.4993  XYZ=              6.5615
 Hexadecapole moment (field-independent basis, Debye-Ang**3):
 XXXX=           -726.9386 YYYY=           -376.1653 ZZZZ=           -207.2328 XXXY=             10.8031
 XXXZ=             -5.0643 YYYX=             10.0587 YYYZ=              6.5263 ZZZX=              7.3935
 ZZZY=              5.7857 XXYY=           -172.1817 XXZZ=           -156.4984 YYZZ=            -92.9066
 XXYZ=             -0.1203 YYXZ=             10.1519 ZZXY=              2.5971
 N-N= 4.791282791735D+02 E-N=-1.945205248398D+03  KE= 4.200201722386D+02
 Calling FoFJK, ICntrl=      2127 FMM=F ISym2X=0 I1Cent= 0 IOpClX= 0 NMat=1 NMatS=1 NMatT=0.
 ***** Axes restored to original set *****
 -------------------------------------------------------------------
 Center     Atomic                   Forces (Hartrees/Bohr)
 Number     Number              X              Y              Z
 -------------------------------------------------------------------
      1        6           0.000006200   -0.000000240   -0.000000912
      2        6           0.000008136    0.000008173    0.000004798
      3        6           0.000001364   -0.000009662    0.000003022
      4        6           0.000003503    0.000014447   -0.000012664
      5        6           0.000025909   -0.000026669   -0.000013158
      6        8          -0.000009087    0.000001936    0.000004228
      7        6          -0.000008990    0.000032414    0.000018009
      8        6          -0.000015362   -0.000016653   -0.000004807
      9        8           0.000010154   -0.000004423    0.000006898
     10        1           0.000004428    0.000001772    0.000004665
     11        1           0.000000046   -0.000002166   -0.000001317
     12        1           0.000000187    0.000001046    0.000005441
     13        1          -0.000005242   -0.000000600    0.000001085
     14        1          -0.000002547    0.000004059   -0.000002266
     15        1          -0.000003509    0.000005657    0.000000534
     16        1          -0.000007942   -0.000007864   -0.000004439
     17        1          -0.000011798    0.000001807    0.000005273
     18        1           0.000000642   -0.000009319   -0.000007668
     19        1           0.000003909    0.000006286   -0.000006720
 -------------------------------------------------------------------
 Cartesian Forces:  Max     0.000032414 RMS     0.000009595

 GradGradGradGradGradGradGradGradGradGradGradGradGradGradGradGradGradGrad
 Berny optimization.
 FormGI is forming the generalized inverse of G from B-inverse, IUseBI=4.
 Internal  Forces:  Max     0.000013399 RMS     0.000003323
 Search for a local minimum.
 Step number   1 out of a maximum of  114
 All quantities printed in internal units (Hartrees-Bohrs-Radians)
 Mixed Optimization -- En-DIIS/RFO-DIIS
 Second derivative matrix not updated -- first step.
 ITU=  0
     Eigenvalues ---    0.00385   0.00434   0.01239   0.01708   0.01785
     Eigenvalues ---    0.02021   0.02386   0.02754   0.03387   0.03694
     Eigenvalues ---    0.04366   0.04863   0.05004   0.05422   0.05581
     Eigenvalues ---    0.05606   0.06288   0.06846   0.07275   0.09174
     Eigenvalues ---    0.09772   0.10923   0.11451   0.12506   0.13294
     Eigenvalues ---    0.16000   0.16000   0.16000   0.16000   0.17197
     Eigenvalues ---    0.20683   0.21701   0.23123   0.25060   0.26582
     Eigenvalues ---    0.26757   0.27478   0.27647   0.29881   0.33852
     Eigenvalues ---    0.34247   0.34263   0.34395   0.34472   0.34752
     Eigenvalues ---    0.34794   0.35426   0.35479   0.38589   0.46806
     Eigenvalues ---    0.54876
 RFO step:  Lambda=-1.66122035D-08 EMin= 3.85272774D-03
 Linear search not attempted -- first point.
 Iteration  1 RMS(Cart)=  0.00015307 RMS(Int)=  0.00000001
 Iteration  2 RMS(Cart)=  0.00000002 RMS(Int)=  0.00000000
 Variable       Old X    -DE/DX   Delta X   Delta X   Delta X     New X
                                 (Linear)    (Quad)   (Total)
    R1        2.88201   0.00000   0.00000  -0.00002  -0.00002   2.88199
    R2        2.06915   0.00000   0.00000   0.00001   0.00001   2.06916
    R3        2.07580   0.00000   0.00000  -0.00001  -0.00001   2.07579
    R4        2.06889   0.00000   0.00000   0.00000   0.00000   2.06888
    R5        2.95905   0.00000   0.00000   0.00001   0.00001   2.95906
    R6        2.95996  -0.00001   0.00000  -0.00003  -0.00003   2.95993
    R7        2.06541   0.00001   0.00000   0.00002   0.00002   2.06543
    R8        2.94041   0.00000   0.00000   0.00000   0.00000   2.94041
    R9        2.06080   0.00000   0.00000   0.00000   0.00000   2.06079
   R10        2.06668   0.00000   0.00000   0.00001   0.00001   2.06669
   R11        2.92757   0.00001   0.00000   0.00006   0.00006   2.92763
   R12        2.97486   0.00001   0.00000   0.00002   0.00002   2.97488
   R13        2.06010  -0.00001   0.00000  -0.00002  -0.00002   2.06009
   R14        2.71507   0.00001   0.00000   0.00002   0.00002   2.71509
   R15        2.78152   0.00001   0.00000   0.00005   0.00005   2.78157
   R16        2.04904  -0.00001   0.00000  -0.00002  -0.00002   2.04902
   R17        2.69884   0.00000   0.00000  -0.00001  -0.00001   2.69884
   R18        2.93155  -0.00001   0.00000  -0.00005  -0.00005   2.93149
   R19        2.04989  -0.00001   0.00000  -0.00002  -0.00002   2.04988
   R20        2.63233   0.00001   0.00000   0.00002   0.00002   2.63235
   R21        1.81942   0.00001   0.00000   0.00002   0.00002   1.81944
    A1        1.94654   0.00000   0.00000  -0.00001  -0.00001   1.94653
    A2        1.95350   0.00000   0.00000   0.00000   0.00000   1.95350
    A3        1.93101   0.00000   0.00000  -0.00001  -0.00001   1.93100
    A4        1.88379   0.00000   0.00000   0.00001   0.00001   1.88381
    A5        1.88372   0.00000   0.00000  -0.00001  -0.00001   1.88371
    A6        1.86168   0.00000   0.00000   0.00001   0.00001   1.86170
    A7        2.01015   0.00000   0.00000   0.00002   0.00002   2.01016
    A8        2.00023   0.00000   0.00000  -0.00001  -0.00001   2.00021
    A9        1.92020   0.00000   0.00000   0.00000   0.00000   1.92020
   A10        1.55967   0.00000   0.00000   0.00000   0.00000   1.55967
   A11        1.98157   0.00000   0.00000  -0.00001  -0.00001   1.98156
   A12        1.97074   0.00000   0.00000   0.00001   0.00001   1.97075
   A13        1.58711   0.00000   0.00000   0.00001   0.00001   1.58712
   A14        2.00718   0.00000   0.00000   0.00003   0.00003   2.00721
   A15        1.97279   0.00000   0.00000  -0.00006  -0.00006   1.97273
   A16        2.00531   0.00000   0.00000   0.00003   0.00003   2.00534
   A17        1.97322   0.00000   0.00000   0.00001   0.00001   1.97323
   A18        1.90408   0.00000   0.00000  -0.00001  -0.00001   1.90408
   A19        2.03074   0.00000   0.00000   0.00007   0.00007   2.03081
   A20        1.56089   0.00000   0.00000  -0.00002  -0.00002   1.56087
   A21        2.08597   0.00000   0.00000  -0.00003  -0.00003   2.08594
   A22        1.53366   0.00000   0.00000  -0.00003  -0.00003   1.53363
   A23        2.01465   0.00000   0.00000  -0.00003  -0.00003   2.01462
   A24        2.11965   0.00000   0.00000   0.00004   0.00004   2.11970
   A25        1.88494  -0.00001   0.00000  -0.00001  -0.00001   1.88493
   A26        1.60959   0.00000   0.00000  -0.00001  -0.00001   1.60958
   A27        2.25390   0.00001   0.00000   0.00005   0.00005   2.25396
   A28        2.03465   0.00000   0.00000  -0.00002  -0.00002   2.03463
   A29        2.28808   0.00000   0.00000  -0.00005  -0.00005   2.28803
   A30        1.59795   0.00000   0.00000   0.00000   0.00000   1.59795
   A31        2.31281  -0.00001   0.00000  -0.00005  -0.00005   2.31276
   A32        1.89004   0.00000   0.00000  -0.00002  -0.00002   1.89002
   A33        2.06284   0.00000   0.00000  -0.00003  -0.00003   2.06280
   A34        2.22189   0.00001   0.00000   0.00006   0.00006   2.22196
   A35        1.57504   0.00000   0.00000   0.00002   0.00002   1.57506
   A36        2.04267   0.00000   0.00000  -0.00005  -0.00005   2.04262
   A37        2.11525   0.00000   0.00000   0.00001   0.00001   2.11525
   A38        1.54186   0.00000   0.00000   0.00004   0.00004   1.54190
   A39        2.18062   0.00000   0.00000  -0.00002  -0.00002   2.18060
   A40        1.92198   0.00000   0.00000   0.00001   0.00001   1.92199
   A41        1.89756   0.00000   0.00000  -0.00001  -0.00001   1.89755
    D1       -2.95188   0.00000   0.00000   0.00029   0.00029  -2.95160
    D2       -1.17799   0.00000   0.00000   0.00028   0.00028  -1.17771
    D3        1.06491   0.00000   0.00000   0.00029   0.00029   1.06520
    D4       -0.83936   0.00000   0.00000   0.00030   0.00030  -0.83906
    D5        0.93453   0.00000   0.00000   0.00030   0.00030   0.93483
    D6       -3.10575   0.00000   0.00000   0.00030   0.00030  -3.10545
    D7        1.23436   0.00000   0.00000   0.00031   0.00031   1.23466
    D8        3.00825   0.00000   0.00000   0.00030   0.00030   3.00856
    D9       -1.03203   0.00000   0.00000   0.00031   0.00031  -1.03172
   D10        2.02092   0.00000   0.00000   0.00014   0.00014   2.02106
   D11       -2.19972   0.00000   0.00000   0.00018   0.00018  -2.19954
   D12        0.00279   0.00000   0.00000   0.00014   0.00014   0.00293
   D13       -0.02207   0.00000   0.00000   0.00015   0.00015  -0.02192
   D14        2.04048   0.00000   0.00000   0.00019   0.00019   2.04067
   D15       -2.04021   0.00000   0.00000   0.00015   0.00015  -2.04006
   D16       -2.02617   0.00000   0.00000   0.00014   0.00014  -2.02603
   D17        0.03637   0.00000   0.00000   0.00019   0.00019   0.03656
   D18        2.23888   0.00000   0.00000   0.00014   0.00014   2.23902
   D19       -2.03010   0.00000   0.00000  -0.00016  -0.00016  -2.03026
   D20        2.71261   0.00000   0.00000  -0.00021  -0.00021   2.71240
   D21        0.27774   0.00000   0.00000  -0.00017  -0.00017   0.27757
   D22        0.02181   0.00000   0.00000  -0.00015  -0.00015   0.02166
   D23       -1.51867   0.00000   0.00000  -0.00020  -0.00020  -1.51887
   D24        2.32965   0.00000   0.00000  -0.00015  -0.00015   2.32949
   D25        2.03583   0.00000   0.00000  -0.00016  -0.00016   2.03567
   D26        0.49536   0.00000   0.00000  -0.00021  -0.00021   0.49514
   D27       -1.93951   0.00000   0.00000  -0.00017  -0.00017  -1.93968
   D28        1.54639   0.00000   0.00000  -0.00019  -0.00019   1.54620
   D29        0.02196   0.00000   0.00000  -0.00015  -0.00015   0.02181
   D30       -2.18479   0.00000   0.00000  -0.00018  -0.00018  -2.18497
   D31       -0.51778   0.00000   0.00000  -0.00023  -0.00023  -0.51801
   D32       -2.04221   0.00000   0.00000  -0.00019  -0.00019  -2.04240
   D33        2.03423   0.00000   0.00000  -0.00022  -0.00022   2.03401
   D34       -2.71905   0.00000   0.00000  -0.00025  -0.00025  -2.71930
   D35        2.03971   0.00000   0.00000  -0.00021  -0.00021   2.03950
   D36       -0.16704   0.00000   0.00000  -0.00024  -0.00024  -0.16728
   D37       -0.52079   0.00000   0.00000  -0.00002  -0.00002  -0.52080
   D38       -1.53002   0.00000   0.00000   0.00001   0.00001  -1.53001
   D39        2.10708   0.00000   0.00000   0.00003   0.00003   2.10711
   D40        1.02053   0.00000   0.00000  -0.00005  -0.00005   1.02048
   D41        0.01130   0.00000   0.00000  -0.00003  -0.00003   0.01127
   D42       -2.63479   0.00000   0.00000   0.00000   0.00000  -2.63479
   D43       -3.09697   0.00000   0.00000  -0.00002  -0.00002  -3.09699
   D44        2.17699   0.00000   0.00000   0.00000   0.00000   2.17698
   D45       -0.46910   0.00000   0.00000   0.00002   0.00002  -0.46908
   D46       -0.02195   0.00000   0.00000   0.00015   0.00015  -0.02180
   D47        2.02080   0.00000   0.00000   0.00010   0.00010   2.02090
   D48       -2.28050   0.00000   0.00000   0.00014   0.00014  -2.28036
   D49       -2.05347   0.00000   0.00000   0.00008   0.00008  -2.05339
   D50       -0.01072   0.00000   0.00000   0.00003   0.00003  -0.01069
   D51        1.97116   0.00000   0.00000   0.00007   0.00007   1.97123
   D52        2.15715   0.00000   0.00000   0.00012   0.00012   2.15727
   D53       -2.08328   0.00000   0.00000   0.00007   0.00007  -2.08321
   D54       -0.10140   0.00000   0.00000   0.00011   0.00011  -0.10130
   D55       -0.01146   0.00000   0.00000   0.00003   0.00003  -0.01143
   D56       -2.59335  -0.00001   0.00000  -0.00002  -0.00002  -2.59338
   D57        2.61876   0.00001   0.00000   0.00005   0.00005   2.61881
   D58        0.03687   0.00000   0.00000  -0.00001  -0.00001   0.03687
   D59        1.57207   0.00000   0.00000   0.00001   0.00001   1.57208
   D60        0.01128   0.00000   0.00000  -0.00003  -0.00003   0.01125
   D61       -2.20252   0.00000   0.00000  -0.00003  -0.00003  -2.20255
   D62        0.55728   0.00000   0.00000   0.00001   0.00001   0.55728
   D63       -1.00351   0.00000   0.00000  -0.00003  -0.00003  -1.00355
   D64        3.06588   0.00000   0.00000  -0.00003  -0.00003   3.06585
   D65       -2.08392   0.00000   0.00000   0.00001   0.00001  -2.08392
   D66        2.63847   0.00000   0.00000  -0.00003  -0.00003   2.63844
   D67        0.42467   0.00000   0.00000  -0.00003  -0.00003   0.42464
   D68       -0.84731   0.00000   0.00000   0.00005   0.00005  -0.84726
   D69        1.16696   0.00000   0.00000   0.00006   0.00006   1.16702
   D70        2.95791   0.00000   0.00000   0.00011   0.00011   2.95802
         Item               Value     Threshold  Converged?
 Maximum Force            0.000013     0.000450     YES
 RMS     Force            0.000003     0.000300     YES
 Maximum Displacement     0.000573     0.001800     YES
 RMS     Displacement     0.000153     0.001200     YES
 Predicted change in Energy=-8.306049D-09
 Optimization completed.
    -- Stationary point found.
                           ----------------------------
                           !   Optimized Parameters   !
                           ! (Angstroms and Degrees)  !
 --------------------------                            --------------------------
 ! Name  Definition              Value          Derivative Info.                !
 --------------------------------------------------------------------------------
 ! R1    R(1,2)                  1.5251         -DE/DX =    0.0                 !
 ! R2    R(1,10)                 1.0949         -DE/DX =    0.0                 !
 ! R3    R(1,11)                 1.0985         -DE/DX =    0.0                 !
 ! R4    R(1,12)                 1.0948         -DE/DX =    0.0                 !
 ! R5    R(2,3)                  1.5659         -DE/DX =    0.0                 !
 ! R6    R(2,8)                  1.5663         -DE/DX =    0.0                 !
 ! R7    R(2,13)                 1.093          -DE/DX =    0.0                 !
 ! R8    R(3,4)                  1.556          -DE/DX =    0.0                 !
 ! R9    R(3,14)                 1.0905         -DE/DX =    0.0                 !
 ! R10   R(3,15)                 1.0936         -DE/DX =    0.0                 !
 ! R11   R(4,5)                  1.5492         -DE/DX =    0.0                 !
 ! R12   R(4,8)                  1.5742         -DE/DX =    0.0                 !
 ! R13   R(4,16)                 1.0902         -DE/DX =    0.0                 !
 ! R14   R(5,6)                  1.4368         -DE/DX =    0.0                 !
 ! R15   R(5,7)                  1.4719         -DE/DX =    0.0                 !
 ! R16   R(5,17)                 1.0843         -DE/DX =    0.0                 !
 ! R17   R(6,7)                  1.4282         -DE/DX =    0.0                 !
 ! R18   R(7,8)                  1.5513         -DE/DX =    0.0                 !
 ! R19   R(7,18)                 1.0848         -DE/DX =    0.0                 !
 ! R20   R(8,9)                  1.393          -DE/DX =    0.0                 !
 ! R21   R(9,19)                 0.9628         -DE/DX =    0.0                 !
 ! A1    A(2,1,10)             111.5287         -DE/DX =    0.0                 !
 ! A2    A(2,1,11)             111.9272         -DE/DX =    0.0                 !
 ! A3    A(2,1,12)             110.6385         -DE/DX =    0.0                 !
 ! A4    A(10,1,11)            107.9334         -DE/DX =    0.0                 !
 ! A5    A(10,1,12)            107.9292         -DE/DX =    0.0                 !
 ! A6    A(11,1,12)            106.6666         -DE/DX =    0.0                 !
 ! A7    A(1,2,3)              115.1729         -DE/DX =    0.0                 !
 ! A8    A(1,2,8)              114.6045         -DE/DX =    0.0                 !
 ! A9    A(1,2,13)             110.0194         -DE/DX =    0.0                 !
 ! A10   A(3,2,8)               89.3627         -DE/DX =    0.0                 !
 ! A11   A(3,2,13)             113.5358         -DE/DX =    0.0                 !
 ! A12   A(8,2,13)             112.9149         -DE/DX =    0.0                 !
 ! A13   A(2,3,4)               90.9345         -DE/DX =    0.0                 !
 ! A14   A(2,3,14)             115.0029         -DE/DX =    0.0                 !
 ! A15   A(2,3,15)             113.0325         -DE/DX =    0.0                 !
 ! A16   A(4,3,14)             114.8957         -DE/DX =    0.0                 !
 ! A17   A(4,3,15)             113.0574         -DE/DX =    0.0                 !
 ! A18   A(14,3,15)            109.096          -DE/DX =    0.0                 !
 ! A19   A(3,4,5)              116.3531         -DE/DX =    0.0                 !
 ! A20   A(3,4,8)               89.4323         -DE/DX =    0.0                 !
 ! A21   A(3,4,16)             119.517          -DE/DX =    0.0                 !
 ! A22   A(5,4,8)               87.872          -DE/DX =    0.0                 !
 ! A23   A(5,4,16)             115.431          -DE/DX =    0.0                 !
 ! A24   A(8,4,16)             121.4471         -DE/DX =    0.0                 !
 ! A25   A(4,5,6)              107.999          -DE/DX =    0.0                 !
 ! A26   A(4,5,7)               92.2226         -DE/DX =    0.0                 !
 ! A27   A(4,5,17)             129.1391         -DE/DX =    0.0                 !
 ! A28   A(6,5,17)             116.5769         -DE/DX =    0.0                 !
 ! A29   A(7,5,17)             131.0972         -DE/DX =    0.0                 !
 ! A30   A(5,7,8)               91.5559         -DE/DX =    0.0                 !
 ! A31   A(5,7,18)             132.5141         -DE/DX =    0.0                 !
 ! A32   A(6,7,8)              108.2914         -DE/DX =    0.0                 !
 ! A33   A(6,7,18)             118.1917         -DE/DX =    0.0                 !
 ! A34   A(8,7,18)             127.305          -DE/DX =    0.0                 !
 ! A35   A(2,8,4)               90.243          -DE/DX =    0.0                 !
 ! A36   A(2,8,7)              117.0364         -DE/DX =    0.0                 !
 ! A37   A(2,8,9)              121.1948         -DE/DX =    0.0                 !
 ! A38   A(4,8,7)               88.3423         -DE/DX =    0.0                 !
 ! A39   A(4,8,9)              124.9401         -DE/DX =    0.0                 !
 ! A40   A(7,8,9)              110.1211         -DE/DX =    0.0                 !
 ! A41   A(8,9,19)             108.7223         -DE/DX =    0.0                 !
 ! D1    D(10,1,2,3)          -169.1305         -DE/DX =    0.0                 !
 ! D2    D(10,1,2,8)           -67.4939         -DE/DX =    0.0                 !
 ! D3    D(10,1,2,13)           61.0149         -DE/DX =    0.0                 !
 ! D4    D(11,1,2,3)           -48.0917         -DE/DX =    0.0                 !
 ! D5    D(11,1,2,8)            53.5449         -DE/DX =    0.0                 !
 ! D6    D(11,1,2,13)         -177.9463         -DE/DX =    0.0                 !
 ! D7    D(12,1,2,3)            70.7235         -DE/DX =    0.0                 !
 ! D8    D(12,1,2,8)           172.3601         -DE/DX =    0.0                 !
 ! D9    D(12,1,2,13)          -59.131          -DE/DX =    0.0                 !
 ! D10   D(1,2,3,4)            115.7904         -DE/DX =    0.0                 !
 ! D11   D(1,2,3,14)          -126.0346         -DE/DX =    0.0                 !
 ! D12   D(1,2,3,15)             0.1596         -DE/DX =    0.0                 !
 ! D13   D(8,2,3,4)             -1.2644         -DE/DX =    0.0                 !
 ! D14   D(8,2,3,14)           116.9106         -DE/DX =    0.0                 !
 ! D15   D(8,2,3,15)          -116.8952         -DE/DX =    0.0                 !
 ! D16   D(13,2,3,4)          -116.0911         -DE/DX =    0.0                 !
 ! D17   D(13,2,3,14)            2.0839         -DE/DX =    0.0                 !
 ! D18   D(13,2,3,15)          128.2781         -DE/DX =    0.0                 !
 ! D19   D(1,2,8,4)           -116.316          -DE/DX =    0.0                 !
 ! D20   D(1,2,8,7)            155.4211         -DE/DX =    0.0                 !
 ! D21   D(1,2,8,9)             15.9133         -DE/DX =    0.0                 !
 ! D22   D(3,2,8,4)              1.2496         -DE/DX =    0.0                 !
 ! D23   D(3,2,8,7)            -87.0133         -DE/DX =    0.0                 !
 ! D24   D(3,2,8,9)            133.4788         -DE/DX =    0.0                 !
 ! D25   D(13,2,8,4)           116.6447         -DE/DX =    0.0                 !
 ! D26   D(13,2,8,7)            28.3818         -DE/DX =    0.0                 !
 ! D27   D(13,2,8,9)          -111.126          -DE/DX =    0.0                 !
 ! D28   D(2,3,4,5)             88.6014         -DE/DX =    0.0                 !
 ! D29   D(2,3,4,8)              1.258          -DE/DX =    0.0                 !
 ! D30   D(2,3,4,16)          -125.1793         -DE/DX =    0.0                 !
 ! D31   D(14,3,4,5)           -29.6665         -DE/DX =    0.0                 !
 ! D32   D(14,3,4,8)          -117.0099         -DE/DX =    0.0                 !
 ! D33   D(14,3,4,16)          116.5527         -DE/DX =    0.0                 !
 ! D34   D(15,3,4,5)          -155.7899         -DE/DX =    0.0                 !
 ! D35   D(15,3,4,8)           116.8667         -DE/DX =    0.0                 !
 ! D36   D(15,3,4,16)           -9.5706         -DE/DX =    0.0                 !
 ! D37   D(3,4,5,6)            -29.839          -DE/DX =    0.0                 !
 ! D38   D(3,4,5,7)            -87.6637         -DE/DX =    0.0                 !
 ! D39   D(3,4,5,17)           120.7267         -DE/DX =    0.0                 !
 ! D40   D(8,4,5,6)             58.4721         -DE/DX =    0.0                 !
 ! D41   D(8,4,5,7)              0.6474         -DE/DX =    0.0                 !
 ! D42   D(8,4,5,17)          -150.9623         -DE/DX =    0.0                 !
 ! D43   D(16,4,5,6)          -177.4432         -DE/DX =    0.0                 !
 ! D44   D(16,4,5,7)           124.7321         -DE/DX =    0.0                 !
 ! D45   D(16,4,5,17)          -26.8776         -DE/DX =    0.0                 !
 ! D46   D(3,4,8,2)             -1.2575         -DE/DX =    0.0                 !
 ! D47   D(3,4,8,7)            115.7836         -DE/DX =    0.0                 !
 ! D48   D(3,4,8,9)           -130.6631         -DE/DX =    0.0                 !
 ! D49   D(5,4,8,2)           -117.6551         -DE/DX =    0.0                 !
 ! D50   D(5,4,8,7)             -0.614          -DE/DX =    0.0                 !
 ! D51   D(5,4,8,9)            112.9393         -DE/DX =    0.0                 !
 ! D52   D(16,4,8,2)           123.5955         -DE/DX =    0.0                 !
 ! D53   D(16,4,8,7)          -119.3634         -DE/DX =    0.0                 !
 ! D54   D(16,4,8,9)            -5.8101         -DE/DX =    0.0                 !
 ! D55   D(4,5,7,8)             -0.6567         -DE/DX =    0.0                 !
 ! D56   D(4,5,7,18)          -148.5882         -DE/DX =    0.0                 !
 ! D57   D(17,5,7,8)           150.0441         -DE/DX =    0.0                 !
 ! D58   D(17,5,7,18)            2.1126         -DE/DX =    0.0                 !
 ! D59   D(5,7,8,2)             90.0728         -DE/DX =    0.0                 !
 ! D60   D(5,7,8,4)              0.6461         -DE/DX =    0.0                 !
 ! D61   D(5,7,8,9)           -126.195          -DE/DX =    0.0                 !
 ! D62   D(6,7,8,2)             31.9296         -DE/DX =    0.0                 !
 ! D63   D(6,7,8,4)            -57.4971         -DE/DX =    0.0                 !
 ! D64   D(6,7,8,9)            175.6618         -DE/DX =    0.0                 !
 ! D65   D(18,7,8,2)          -119.4001         -DE/DX =    0.0                 !
 ! D66   D(18,7,8,4)           151.1732         -DE/DX =    0.0                 !
 ! D67   D(18,7,8,9)            24.3321         -DE/DX =    0.0                 !
 ! D68   D(2,8,9,19)           -48.5474         -DE/DX =    0.0                 !
 ! D69   D(4,8,9,19)            66.8617         -DE/DX =    0.0                 !
 ! D70   D(7,8,9,19)           169.4755         -DE/DX =    0.0                 !
 --------------------------------------------------------------------------------
 GradGradGradGradGradGradGradGradGradGradGradGradGradGradGradGradGradGrad

                          Input orientation:                          
 ---------------------------------------------------------------------
 Center     Atomic      Atomic             Coordinates (Angstroms)
 Number     Number       Type             X           Y           Z
 ---------------------------------------------------------------------
      1          6           0        0.848611    0.947898    0.074374
      2          6           0        0.857684   -0.568053    0.240866
      3          6           0        1.424439   -1.368758   -0.979616
      4          6           0        2.608523   -1.894166   -0.117625
      5          6           0        2.361518   -3.210789    0.660529
      6          8           0        0.961992   -3.283432    0.977234
      7          6           0        1.802780   -2.490220    1.816010
      8          6           0        2.027606   -1.120142    1.123990
      9          8           0        2.763377   -0.278532    1.955068
     10          1           0        0.625251    1.454541    1.019010
     11          1           0        1.812447    1.326037   -0.292586
     12          1           0        0.093082    1.251200   -0.657599
     13          1           0       -0.124940   -0.914042    0.571508
     14          1           0        0.762705   -2.142281   -1.370791
     15          1           0        1.746476   -0.723901   -1.802111
     16          1           0        3.632098   -1.736571   -0.458077
     17          1           0        2.894260   -4.153110    0.597831
     18          1           0        1.806473   -2.697397    2.880792
     19          1           0        3.032771    0.495850    1.450353
 ---------------------------------------------------------------------
                    Distance matrix (angstroms):
                    1          2          3          4          5
     1  C    0.000000
     2  C    1.525093   0.000000
     3  C    2.609477   1.565860   0.000000
     4  C    3.348355   2.225428   1.556000   0.000000
     5  C    4.463983   3.069477   2.638422   1.549204   0.000000
     6  O    4.328066   2.815387   2.776525   2.416576   1.436751
     7  C    3.970440   2.658762   3.035844   2.177946   1.471919
     8  C    2.601636   1.566342   2.202449   1.574226   2.167279
     9  O    2.950842   2.579530   3.404956   2.632549   3.230396
    10  H    1.094949   2.179545   3.550243   4.054522   4.990836
    11  H    1.098466   2.187171   2.807932   3.321755   4.668265
    12  H    1.094807   2.168302   2.956414   4.063538   5.176158
    13  H    2.159112   1.092970   2.239046   2.984521   3.386066
    14  H    3.412490   2.254918   1.090526   2.244778   2.797172
    15  H    2.668758   2.233382   1.093639   2.224891   3.553517
    16  H    3.903547   3.090522   2.298053   1.090160   2.244765
    17  H    5.520776   4.138563   3.521552   2.386703   1.084303
    18  H    4.699112   3.521863   4.100486   3.206083   2.345467
    19  H    2.620728   2.706612   3.459515   2.889761   3.848841
                    6          7          8          9         10
     6  O    0.000000
     7  C    1.428166   0.000000
     8  C    2.415966   1.551307   0.000000
     9  O    3.637386   2.415295   1.392967   0.000000
    10  H    4.750108   4.193200   2.933703   2.907117   0.000000
    11  H    4.856224   4.360056   2.834920   2.920763   1.773761
    12  H    4.898016   4.800004   3.541145   4.036903   1.770754
    13  H    2.638189   2.783744   2.231853   3.265040   2.524525
    14  H    2.618236   3.370240   2.978032   4.305530   4.320552
    15  H    3.858934   4.026644   2.966161   3.917760   3.736506
    16  H    3.403287   3.014276   2.336090   2.950224   4.626674
    17  H    2.152661   2.332486   3.197941   4.107503   6.063955
    18  H    2.163359   1.084756   2.371284   2.761076   4.701076
    19  H    4.335313   3.250108   1.930881   0.962797   2.627032
                   11         12         13         14         15
    11  H    0.000000
    12  H    1.759276   0.000000
    13  H    3.085138   2.499302   0.000000
    14  H    3.780703   3.531678   2.463536   0.000000
    15  H    2.546619   2.818624   3.028600   1.779225   0.000000
    16  H    3.566243   4.635862   3.981448   3.038266   2.527350
    17  H    5.655459   6.215245   4.428072   3.530217   4.340116
    18  H    5.124293   5.572014   3.499072   4.412886   5.082113
    19  H    2.283908   3.695374   3.568095   4.480155   3.704170
                   16         17         18         19
    16  H    0.000000
    17  H    2.738432   0.000000
    18  H    3.924811   2.917926   0.000000
    19  H    2.997499   4.728510   3.707667   0.000000
 Stoichiometry    C7H10O2
 Framework group  C1[X(C7H10O2)]
 Deg. of freedom    51
 Full point group                 C1      NOp   1
 Largest Abelian subgroup         C1      NOp   1
 Largest concise Abelian subgroup C1      NOp   1
                         Standard orientation:                         
 ---------------------------------------------------------------------
 Center     Atomic      Atomic             Coordinates (Angstroms)
 Number     Number       Type             X           Y           Z
 ---------------------------------------------------------------------
      1          6           0        2.517000   -0.242270   -0.390272
      2          6           0        1.020863   -0.494173   -0.545281
      3          6           0        0.405796   -1.504739    0.480567
      4          6           0       -0.481957   -0.382767    1.092293
      5          6           0       -1.869144   -0.169084    0.436486
      6          8           0       -1.765017   -0.530299   -0.950213
      7          6           0       -1.319146    0.768068   -0.556386
      8          6           0        0.105454    0.632720    0.042569
      9          8           0        0.617530    1.891121    0.350083
     10          1           0        2.847242    0.604620   -1.000706
     11          1           0        2.792180   -0.035048    0.652782
     12          1           0        3.090434   -1.122910   -0.697275
     13          1           0        0.787400   -0.732383   -1.586114
     14          1           0       -0.144658   -2.334784    0.036412
     15          1           0        1.142336   -1.900366    1.185574
     16          1           0       -0.434922   -0.184589    2.163256
     17          1           0       -2.854984   -0.237125    0.882808
     18          1           0       -1.740228    1.629984   -1.062832
     19          1           0        1.421907    1.779498    0.867282
 ---------------------------------------------------------------------
 Rotational constants (GHZ):      2.7812005      1.6242620      1.3415284
 1\1\GINC-ALCHEMY-TC\FOpt\RB3LYP\6-31G(2df,p)\C7H10O2\PUCK\28-Jan-2020\
 0\\# b3lyp 6-31G(2df,p) opt Freq\\titel\\0,1\C,0.8486113165,0.94789788
 46,0.0743744667\C,0.857684361,-0.5680525121,0.2408658577\C,1.424438885
 ,-1.3687583233,-0.9796162517\C,2.6085227168,-1.8941661375,-0.117625290
 1\C,2.3615178479,-3.2107894219,0.6605288032\O,0.9619915094,-3.28343169
 3,0.9772335502\C,1.8027804813,-2.4902203814,1.8160104681\C,2.027605975
 ,-1.1201419994,1.1239899303\O,2.7633773395,-0.2785315394,1.9550679899\
 H,0.6252510793,1.4545411471,1.0190095218\H,1.8124466028,1.3260367404,-
 0.2925857334\H,0.0930817454,1.2511995422,-0.6575994848\H,-0.1249397347
 ,-0.9140417918,0.5715082702\H,0.7627053602,-2.1422812507,-1.3707907529
 \H,1.7464755848,-0.7239013824,-1.8021112773\H,3.6320975717,-1.73657143
 28,-0.4580770207\H,2.8942597618,-4.1531104162,0.5978314237\H,1.8064732
 303,-2.697397133,2.8807921792\H,3.032771136,0.4958500605,1.4503527098\
 \Version=ES64L-G09RevD.01\State=1-A\HF=-423.1210688\RMSD=7.329e-09\RMS
 F=9.595e-06\Dipole=0.4665558,0.4654786,-0.3556771\Quadrupole=-0.218760
 6,1.1393189,-0.9205584,-1.6573851,-1.0920629,-1.0504805\PG=C01 [X(C7H1
 0O2)]\\@


 THE UNDERLYING PHYSICAL LAWS NECESSARY FOR THE 
 MATHEMATICAL THEORY OF A LARGE PART OF PHYSICS AND THE
 WHOLE OF CHEMISTRY ARE THUS COMPLETELY KNOWN, AND THE
 DIFFICULTY IS ONLY THAT THE EXACT APPLICATION OF THESE
 LAWS LEADS TO EQUATIONS MUCH TOO COMPLICATED 
 TO BE SOLUBLE.

                                        -- P. A. M. DIRAC, 1929
 Job cpu time:       0 days  0 hours  8 minutes 19.7 seconds.
 File lengths (MBytes):  RWF=     52 Int=      0 D2E=      0 Chk=      7 Scr=      1
 Normal termination of Gaussian 09 at Tue Jan 28 02:56:43 2020.
 Link1:  Proceeding to internal job step number  2.
 ----------------------------------------------------------------------
 #N Geom=AllCheck Guess=TCheck SCRF=Check GenChk RB3LYP/6-31G(2df,p) Fr
 eq
 ----------------------------------------------------------------------
 1/10=4,29=7,30=1,38=1,40=1/1,3;
 2/12=2,40=1/2;
 3/5=1,6=6,7=104,11=2,14=-4,16=1,25=1,30=1,70=2,71=2,74=-5,116=1,140=1/1,2,3;
 4/5=101/1;
 5/5=2,98=1/2;
 8/6=4,10=90,11=11/1;
 11/6=1,8=1,9=11,15=111,16=1/1,2,10;
 10/6=1/2;
 6/7=2,8=2,9=2,10=2,18=1,28=1/1;
 7/8=1,10=1,25=1/1,2,3,16;
 1/10=4,30=1/3;
 99//99;
 Structure from the checkpoint file:  "/scratch/puck/g09_068e55d1-c08e-4d44-9200-c4d0c6f58f86/Gau-89753.chk"
 -----
 titel
 -----
 Charge =  0 Multiplicity = 1
 Redundant internal coordinates found in file.
 C,0,0.8486113165,0.9478978846,0.0743744667
 C,0,0.857684361,-0.5680525121,0.2408658577
 C,0,1.424438885,-1.3687583233,-0.9796162517
 C,0,2.6085227168,-1.8941661375,-0.1176252901
 C,0,2.3615178479,-3.2107894219,0.6605288032
 O,0,0.9619915094,-3.283431693,0.9772335502
 C,0,1.8027804813,-2.4902203814,1.8160104681
 C,0,2.027605975,-1.1201419994,1.1239899303
 O,0,2.7633773395,-0.2785315394,1.9550679899
 H,0,0.6252510793,1.4545411471,1.0190095218
 H,0,1.8124466028,1.3260367404,-0.2925857334
 H,0,0.0930817454,1.2511995422,-0.6575994848
 H,0,-0.1249397347,-0.9140417918,0.5715082702
 H,0,0.7627053602,-2.1422812507,-1.3707907529
 H,0,1.7464755848,-0.7239013824,-1.8021112773
 H,0,3.6320975717,-1.7365714328,-0.4580770207
 H,0,2.8942597618,-4.1531104162,0.5978314237
 H,0,1.8064732303,-2.697397133,2.8807921792
 H,0,3.032771136,0.4958500605,1.4503527098
 Recover connectivity data from disk.

 GradGradGradGradGradGradGradGradGradGradGradGradGradGradGradGradGradGrad
 Berny optimization.
 Initialization pass.
                           ----------------------------
                           !    Initial Parameters    !
                           ! (Angstroms and Degrees)  !
 --------------------------                            --------------------------
 ! Name  Definition              Value          Derivative Info.                !
 --------------------------------------------------------------------------------
 ! R1    R(1,2)                  1.5251         calculate D2E/DX2 analytically  !
 ! R2    R(1,10)                 1.0949         calculate D2E/DX2 analytically  !
 ! R3    R(1,11)                 1.0985         calculate D2E/DX2 analytically  !
 ! R4    R(1,12)                 1.0948         calculate D2E/DX2 analytically  !
 ! R5    R(2,3)                  1.5659         calculate D2E/DX2 analytically  !
 ! R6    R(2,8)                  1.5663         calculate D2E/DX2 analytically  !
 ! R7    R(2,13)                 1.093          calculate D2E/DX2 analytically  !
 ! R8    R(3,4)                  1.556          calculate D2E/DX2 analytically  !
 ! R9    R(3,14)                 1.0905         calculate D2E/DX2 analytically  !
 ! R10   R(3,15)                 1.0936         calculate D2E/DX2 analytically  !
 ! R11   R(4,5)                  1.5492         calculate D2E/DX2 analytically  !
 ! R12   R(4,8)                  1.5742         calculate D2E/DX2 analytically  !
 ! R13   R(4,16)                 1.0902         calculate D2E/DX2 analytically  !
 ! R14   R(5,6)                  1.4368         calculate D2E/DX2 analytically  !
 ! R15   R(5,7)                  1.4719         calculate D2E/DX2 analytically  !
 ! R16   R(5,17)                 1.0843         calculate D2E/DX2 analytically  !
 ! R17   R(6,7)                  1.4282         calculate D2E/DX2 analytically  !
 ! R18   R(7,8)                  1.5513         calculate D2E/DX2 analytically  !
 ! R19   R(7,18)                 1.0848         calculate D2E/DX2 analytically  !
 ! R20   R(8,9)                  1.393          calculate D2E/DX2 analytically  !
 ! R21   R(9,19)                 0.9628         calculate D2E/DX2 analytically  !
 ! A1    A(2,1,10)             111.5287         calculate D2E/DX2 analytically  !
 ! A2    A(2,1,11)             111.9272         calculate D2E/DX2 analytically  !
 ! A3    A(2,1,12)             110.6385         calculate D2E/DX2 analytically  !
 ! A4    A(10,1,11)            107.9334         calculate D2E/DX2 analytically  !
 ! A5    A(10,1,12)            107.9292         calculate D2E/DX2 analytically  !
 ! A6    A(11,1,12)            106.6666         calculate D2E/DX2 analytically  !
 ! A7    A(1,2,3)              115.1729         calculate D2E/DX2 analytically  !
 ! A8    A(1,2,8)              114.6045         calculate D2E/DX2 analytically  !
 ! A9    A(1,2,13)             110.0194         calculate D2E/DX2 analytically  !
 ! A10   A(3,2,8)               89.3627         calculate D2E/DX2 analytically  !
 ! A11   A(3,2,13)             113.5358         calculate D2E/DX2 analytically  !
 ! A12   A(8,2,13)             112.9149         calculate D2E/DX2 analytically  !
 ! A13   A(2,3,4)               90.9345         calculate D2E/DX2 analytically  !
 ! A14   A(2,3,14)             115.0029         calculate D2E/DX2 analytically  !
 ! A15   A(2,3,15)             113.0325         calculate D2E/DX2 analytically  !
 ! A16   A(4,3,14)             114.8957         calculate D2E/DX2 analytically  !
 ! A17   A(4,3,15)             113.0574         calculate D2E/DX2 analytically  !
 ! A18   A(14,3,15)            109.096          calculate D2E/DX2 analytically  !
 ! A19   A(3,4,5)              116.3531         calculate D2E/DX2 analytically  !
 ! A20   A(3,4,8)               89.4323         calculate D2E/DX2 analytically  !
 ! A21   A(3,4,16)             119.517          calculate D2E/DX2 analytically  !
 ! A22   A(5,4,8)               87.872          calculate D2E/DX2 analytically  !
 ! A23   A(5,4,16)             115.431          calculate D2E/DX2 analytically  !
 ! A24   A(8,4,16)             121.4471         calculate D2E/DX2 analytically  !
 ! A25   A(4,5,6)              107.999          calculate D2E/DX2 analytically  !
 ! A26   A(4,5,7)               92.2226         calculate D2E/DX2 analytically  !
 ! A27   A(4,5,17)             129.1391         calculate D2E/DX2 analytically  !
 ! A28   A(6,5,17)             116.5769         calculate D2E/DX2 analytically  !
 ! A29   A(7,5,17)             131.0972         calculate D2E/DX2 analytically  !
 ! A30   A(5,7,8)               91.5559         calculate D2E/DX2 analytically  !
 ! A31   A(5,7,18)             132.5141         calculate D2E/DX2 analytically  !
 ! A32   A(6,7,8)              108.2914         calculate D2E/DX2 analytically  !
 ! A33   A(6,7,18)             118.1917         calculate D2E/DX2 analytically  !
 ! A34   A(8,7,18)             127.305          calculate D2E/DX2 analytically  !
 ! A35   A(2,8,4)               90.243          calculate D2E/DX2 analytically  !
 ! A36   A(2,8,7)              117.0364         calculate D2E/DX2 analytically  !
 ! A37   A(2,8,9)              121.1948         calculate D2E/DX2 analytically  !
[...]
 -0.12321938,0.01578366,-0.03974832,0.62413773,-0.00058053,0.00011162,-
 0.00127169,0.04085170,-0.01318804,-0.01165820,0.00379248,-0.07704093,0
 .02338371,0.00968323,0.36048505,0.00065365,-0.00058874,-0.00181604,0.0
 0373441,-0.01030478,-0.00341992,-0.04338224,0.03021439,-0.07884729,-0.
 09083250,-0.06490493,0.40678605,-0.00036131,0.00005208,0.00025029,-0.0
 0041681,0.00045268,0.00022989,0.01008763,0.01799185,-0.00262547,-0.072
 96552,-0.00054006,-0.00434527,0.41052878,-0.00015084,0.00015944,0.0010
 6031,0.00267280,-0.00244633,0.00009572,0.00363566,-0.00686512,0.005585
 45,-0.00655150,-0.13152451,0.04567099,-0.19117625,0.62123831,-0.000324
 39,-0.00008544,-0.00087312,-0.00102563,0.00244078,-0.00323439,-0.00218
 604,0.02102183,-0.01357342,-0.00532654,0.05705711,-0.06978668,-0.11790
 373,0.03822963,0.36574099,0.00182340,0.00015654,0.00036502,-0.00140791
 ,0.00015351,0.00121589,-0.00050863,0.00123193,-0.00199867,-0.01683681,
 -0.01430326,0.00755565,-0.20999707,0.00951757,0.04652348,0.34908239,-0
 .00106639,0.00020290,-0.00075644,0.00104947,0.00063499,-0.00123321,0.0
 0048676,0.00117677,0.00092202,-0.02302506,0.00119421,-0.00202173,-0.01
 281194,-0.05436073,0.02342770,0.09219763,0.16962344,0.00068715,0.00030
 441,0.00023545,-0.00130055,0.00132286,-0.00032845,0.00070626,-0.003073
 65,-0.00077713,0.03450551,0.00642276,-0.00383976,0.00164483,0.01469206
 ,-0.03091802,0.03836705,0.04122318,0.15477297,-0.00374204,-0.00068528,
 -0.00350187,0.00841685,0.01829973,-0.01083770,-0.00128078,0.00198379,0
 .00011248,-0.00493538,-0.00891925,0.03537525,-0.03178996,0.04686758,0.
 05842158,-0.10244525,-0.04955408,-0.05902811,0.24506811,-0.00040571,0.
 00025171,0.00056489,0.00531833,-0.00990323,0.01133014,0.00283581,-0.00
 205489,0.00547713,0.00555423,-0.01157686,0.02144469,0.08409505,-0.0775
 3652,-0.10791088,-0.08171067,-0.09906473,-0.03790277,0.01259937,0.4152
 4893,-0.00101985,-0.00100771,-0.00101806,0.00336479,0.00668791,-0.0033
 0581,0.00029449,0.00109786,-0.00110165,0.01608587,0.01846837,-0.061196
 08,0.10650342,-0.09307725,-0.18533768,-0.09661868,-0.03884728,-0.10859
 947,-0.02715223,0.00019697,0.76383752,0.00131641,0.00822382,0.00178627
 ,-0.11197185,0.01439475,-0.04105305,-0.01045533,-0.00328306,-0.0221978
 7,-0.08259999,0.01198153,0.04037993,0.00053117,0.02741005,0.00294862,-
 0.00476649,-0.03110035,0.00072325,-0.05750585,-0.01583855,-0.00024813,
 0.41784030,0.02424956,-0.01085294,0.02396306,0.01039435,-0.08501416,0.
 02604560,0.00168068,0.00594358,-0.01677662,-0.00236883,-0.06353074,-0.
 02823468,0.00648973,-0.07822966,-0.01601286,-0.00338518,-0.01431666,-0
 .01202483,0.00321512,-0.12251174,0.05861224,0.04533669,0.54407497,-0.0
 0346874,0.00729768,-0.00547749,-0.01527400,0.02352991,-0.07057637,-0.0
 2369342,-0.01505977,-0.06450766,0.03002391,-0.03425911,-0.09113223,0.0
 0266873,-0.01064213,-0.00456311,0.00478597,-0.02452947,0.00241571,-0.0
 1518727,0.06342914,-0.09612117,0.06982244,0.03612646,0.47065242,0.0010
 0634,-0.00210289,0.00187589,-0.01122524,-0.02130734,-0.01235197,-0.000
 30776,0.00076755,-0.00097372,0.01331825,0.00209193,-0.00549964,-0.0013
 0720,0.00142909,0.00045854,0.00095097,-0.00424883,0.00001492,-0.008795
 11,-0.00867263,-0.00795473,-0.11934607,-0.05499607,-0.07066770,0.17198
 337,0.00038119,-0.00197787,0.00046651,-0.00192909,0.00720667,-0.000856
 34,0.00001093,-0.00161990,0.00117466,-0.00791544,-0.01171615,-0.009936
 89,0.00042757,0.00213849,-0.00360363,0.00085622,-0.00906682,0.00005080
 ,-0.02250548,-0.01954350,-0.02139579,-0.07154242,-0.14936443,-0.072656
 80,0.20897804,0.50240308,0.00086621,-0.00171539,0.00118200,-0.01259729
 ,-0.01218391,-0.01110542,-0.00237979,-0.00117712,-0.00506079,-0.020674
 50,-0.01681988,-0.01065831,0.00260928,0.00012351,-0.00434302,0.0004290
 6,0.00662966,0.00156039,0.00771233,0.00091056,0.01381037,-0.04899809,-
 0.03896476,-0.15141095,0.02943045,-0.12599747,0.34445918,-0.05861684,0
 .02351952,0.04694222,-0.00091864,-0.00008782,-0.00084839,0.00121853,0.
 00043586,0.00077962,0.00008085,-0.00041742,-0.00020602,0.00006280,0.00
 003473,0.00004277,-0.00012669,-0.00010892,-0.00010883,0.00004378,0.000
 14036,-0.00000741,0.00061219,0.00057165,0.00139463,0.00038828,-0.00115
 621,-0.00055590,0.05879679,0.02344689,-0.09948781,-0.10208969,0.008247
 22,-0.01537342,-0.02987396,-0.00184302,-0.00539876,0.00233632,-0.00003
 248,0.00007384,-0.00055411,0.00009052,0.00028982,-0.00005260,-0.000013
 44,-0.00009540,0.00015169,-0.00008398,-0.00012251,-0.00005080,-0.00064
 768,0.00053868,-0.00164946,0.00015109,0.00150146,0.00134497,-0.0262764
 7,0.10972081,0.04755810,-0.10242191,-0.24431630,-0.00087788,0.00191353
 ,0.00491843,-0.00026986,0.00128573,0.00054229,-0.00009406,-0.00016465,
 -0.00012882,0.00004840,-0.00001050,0.00013697,-0.00004925,-0.00002634,
 0.00002452,0.00024632,-0.00009263,0.00003394,-0.00079400,-0.00075901,-
 0.00017612,-0.00017145,0.00096839,0.00026420,-0.05209734,0.11308384,0.
 26433688,-0.24175036,-0.07171497,0.07386466,0.00088558,-0.00110074,0.0
 0027802,0.00048894,0.00033343,0.00054456,0.00027774,-0.00019705,0.0003
 3032,0.00000203,-0.00017827,0.00005193,0.00011805,0.00005520,-0.000053
 44,0.00019254,0.00006088,0.00006104,-0.00108236,-0.00096612,-0.0015144
 3,0.00041962,0.00125285,-0.00031597,-0.00587287,-0.00144159,0.00104714
 ,0.26444980,-0.07191520,-0.07362411,0.02621104,-0.03073724,-0.01215983
 ,0.01091670,-0.00073922,0.00170042,0.00147248,0.00012443,-0.00016876,-
 0.00010461,-0.00024971,-0.00020695,0.00022559,0.00065898,-0.00018087,0
 .00019725,-0.00022784,-0.00016749,-0.00024009,-0.00172203,0.00067482,-
 0.00081349,0.00099762,0.00095600,0.00010738,0.01349093,0.00457051,-0.0
 0363129,0.08115841,0.08262581,0.07510197,0.02728154,-0.07519861,0.0035
 8302,0.00141255,-0.00259390,-0.00081958,-0.00058627,0.00059884,-0.0000
 2627,-0.00002197,0.00002804,0.00000590,0.00003370,-0.00011757,-0.00014
 108,-0.00014808,-0.00007423,0.00000997,0.00015313,-0.00001278,0.001177
 62,0.00064005,0.00083347,-0.00048581,-0.00087802,-0.00018943,0.0251615
 0,0.00992958,-0.00843815,-0.08229521,-0.03185565,0.07809757,-0.1732251
 6,0.04866388,-0.12299806,0.00054427,0.00002065,0.00141038,0.00029710,-
 0.00000151,-0.00005941,-0.00000514,-0.00018322,0.00019369,0.00002296,-
 0.00008831,0.00013986,0.00005655,0.00006895,0.00002167,-0.00004289,-0.
 00020824,-0.00007843,0.00084006,-0.00119251,-0.00085851,0.00023759,0.0
 0086700,0.00009273,0.00517312,-0.00262316,0.00554936,-0.02074619,0.007
 12716,-0.01957187,0.18584961,0.04902260,-0.06169445,0.04584747,0.02550
 214,-0.01247982,0.02426700,-0.00035110,0.00152313,0.00008188,0.0005989
 5,0.00073353,0.00006920,-0.00012696,-0.00022544,0.00041455,-0.00041546
 ,0.00018815,-0.00014881,0.00178102,-0.00008208,0.00033944,-0.00422633,
 -0.00630621,-0.00053398,-0.00046623,0.00133623,-0.00019268,-0.01115030
 ,0.00356256,-0.00921355,-0.00725624,0.00216975,-0.00750735,-0.05294161
 ,0.07039122,-0.12251442,0.04588135,-0.16415403,-0.00202009,0.00061738,
 -0.00282601,0.00009241,0.00042970,0.00086057,-0.00012191,0.00017502,0.
 00026812,-0.00004690,0.00004343,0.00009469,0.00005723,0.00010084,-0.00
 002850,-0.00016022,-0.00016536,0.00001862,0.00094888,-0.00041531,0.000
 45329,-0.00004398,0.00045634,0.00056341,-0.02009972,0.00757447,-0.0180
 9583,0.00874025,-0.00341698,0.00755020,0.13474837,-0.05198221,0.175581
 51,0.00207463,0.00114205,-0.00065769,-0.26066062,-0.07697707,0.0722366
 5,-0.00412551,-0.00289454,0.00112746,-0.00258094,0.00220953,-0.0020227
 3,-0.00106090,-0.00058007,0.00068748,0.00261455,0.00005016,0.00099621,
 -0.00031994,-0.00169585,-0.00159421,-0.01583418,-0.00461747,0.00853254
 ,-0.00262451,-0.00009372,-0.00161702,0.00022780,-0.00058199,-0.0001323
 1,0.00148617,0.00088176,-0.00036221,0.00072931,-0.00060067,0.00022972,
 0.27926677,-0.03057045,-0.01316770,0.01057703,-0.07585558,-0.06978106,
 0.02441089,0.01198478,0.00492329,-0.00435009,0.00216761,-0.00172295,0.
 00073336,0.00098596,0.00024799,-0.00020110,-0.00062154,-0.00059134,0.0
 0057192,0.00036372,-0.00021209,0.00067005,0.00794675,0.00168295,-0.004
 35786,0.00059753,0.00025476,0.00019722,0.00012512,0.00132599,-0.000638
 17,0.00017849,-0.00656940,0.00068991,0.00038213,0.00158281,0.00016921,
 0.08110234,0.08275716,0.00355640,0.00140211,-0.00081539,0.06972312,0.0
 2439036,-0.07446652,0.01994809,0.01096444,-0.00820883,-0.00087819,0.00
 106193,0.00053692,0.00059907,-0.00015744,0.00041522,-0.00049977,0.0010
 6913,-0.00026628,0.00092752,-0.00081185,0.00058347,-0.01561112,-0.0100
 6956,0.00915355,-0.00255301,0.00067322,-0.00249077,-0.00038647,0.00022
 977,0.00051218,-0.00018160,0.00075436,0.00088418,0.00031632,-0.0002877
 3,-0.00003544,-0.07721149,-0.02792285,0.07492253,-0.00031797,0.0006687
 0,0.00237696,0.00975633,0.01157324,0.00355755,-0.14711386,-0.11898116,
 -0.05756059,-0.01351774,-0.01657794,-0.00669041,-0.00023804,-0.0010034
 4,0.00232410,0.00213027,0.00021986,0.00034495,0.00009458,-0.00061226,0
 .00039929,-0.00285031,0.00164014,0.00030905,0.00101222,-0.00094859,-0.
 00082008,-0.00022458,0.00096061,0.00003353,0.00007040,0.00002891,0.000
 05023,-0.00005169,-0.00005139,-0.00009605,0.00079509,-0.00039607,-0.00
 101602,0.15704366,0.00041352,-0.00061395,-0.00309429,-0.00945933,-0.01
 042139,-0.00085295,-0.11846014,-0.18659119,-0.06924745,0.00800323,0.01
 221488,0.00375378,-0.00108083,0.00055165,-0.00022833,0.00050234,-0.001
 06068,0.00147845,-0.00040926,-0.00027465,-0.00041913,0.00149720,-0.000
 45705,0.00016637,-0.00049410,0.00082854,0.00039084,0.00039177,-0.00102
 235,-0.00000794,0.00014340,0.00037230,0.00000770,0.00003824,-0.0000694
 5,0.00009431,0.00008699,0.00109330,0.00083567,0.12830625,0.19806515,0.
 00026912,0.00010557,-0.00269140,-0.01280798,-0.01358858,-0.00497383,-0
 .05619064,-0.06762652,-0.07696147,-0.00697037,-0.00929783,-0.00594588,
 -0.00121700,0.00007130,0.00055543,0.00174221,0.00076103,0.00094813,-0.
 00077858,-0.00057882,-0.00043213,-0.00194606,0.00002996,-0.00244212,-0
 .00052957,-0.00024744,-0.00166096,-0.00004584,-0.00090995,0.00024916,-
 0.00019852,-0.00018457,-0.00002237,0.00005877,-0.00000234,0.00015661,0
 .00008267,0.00033123,0.00158666,0.06283752,0.07318510,0.08305147,0.001
 45769,-0.00132174,-0.00107471,-0.00612995,-0.00949669,0.00920823,-0.06
 909997,-0.04872537,0.05826249,0.00800115,0.01808062,-0.01838036,-0.004
 08657,-0.00029086,-0.00293624,0.00083695,-0.00081405,0.00173889,-0.000
 09930,0.00061092,-0.00062541,-0.00188817,0.00000698,0.00013623,0.00050
 431,-0.00024897,-0.00044692,0.00009636,-0.00023211,-0.00022533,0.00025
 466,0.00036753,-0.00022994,-0.00029238,0.00013121,-0.00005204,-0.00024
 342,0.00128600,0.00250086,-0.00478033,-0.01086135,0.01530286,0.0731499
 7,0.00060580,0.00156893,-0.00028229,0.00549224,0.01007675,-0.01379426,
 -0.04916870,-0.14114732,0.11732845,-0.00552679,-0.00803028,0.00682582,
 0.00105133,0.00028262,0.00177555,0.00101938,-0.00004388,0.00005102,-0.
 00020115,-0.00085851,0.00054735,0.00125280,-0.00174389,-0.00066730,-0.
 00074427,0.00025836,-0.00023328,0.00004450,0.00022428,0.00004618,-0.00
 025331,0.00017345,-0.00010163,0.00019933,0.00021951,0.00026731,0.00078
 650,-0.00090368,-0.00224517,-0.00580629,-0.01214118,0.01746621,0.05153
 021,0.15085280,0.00054937,0.00231187,0.00205815,0.00715401,0.01137102,
 -0.01563161,0.05883861,0.11814239,-0.19169180,0.00292970,0.00765070,-0
 .00808935,-0.00127167,-0.00130383,-0.00031998,-0.00008964,0.00012651,0
 .00062310,0.00022795,-0.00041856,0.00013317,0.00042070,-0.00188587,-0.
 00110005,-0.00087808,-0.00017976,-0.00116263,-0.00042273,0.00022951,0.
 00038847,-0.00064849,-0.00085037,-0.00012945,0.00028959,-0.00069651,0.
 00012573,-0.00020557,-0.00112701,-0.00270610,-0.00318078,-0.00693951,0
 .00962265,-0.06404631,-0.12683006,0.20693062,-0.00063319,-0.00032158,0
 .00054910,-0.00220003,0.00165023,-0.00018257,-0.01098364,-0.00413910,0
 .00798349,-0.28787804,-0.04078982,0.08205990,-0.00143773,0.00214233,-0
 .00080895,0.00089063,-0.00001643,0.00073397,-0.00121541,-0.00053504,0.
 00055573,-0.00352863,-0.00175964,-0.00307598,0.00179174,0.00081480,0.0
 0054718,0.00004604,0.00026095,-0.00002747,0.00019874,0.00012449,-0.000
 09431,0.00005056,0.00006398,-0.00005267,-0.00034886,0.00061373,0.00033
 457,-0.00151298,0.00116930,-0.00020778,0.00173412,-0.00016103,-0.00007
 579,0.30537327,0.00078362,-0.00011896,-0.00004956,0.00229604,-0.002461
 50,-0.00039687,0.00692638,-0.00068063,-0.00201531,-0.03719256,-0.05026
 334,0.01148998,-0.02584590,0.00256869,0.00292166,-0.00368910,-0.004339
 63,0.00746154,-0.00052486,-0.00220202,-0.00182021,0.01697240,0.0062922
 0,0.00023777,-0.00246364,0.00141166,0.00224191,-0.00000729,-0.00012265
 ,-0.00001068,-0.00001368,-0.00009795,0.00002578,-0.00003248,-0.0002161
 7,0.00003387,0.00070032,-0.00050286,-0.00002694,0.00024902,-0.00043911
 ,-0.00027496,-0.00010743,0.00105533,0.00019456,0.04106276,0.04890056,0
 .00023295,0.00011930,0.00082268,-0.00035878,0.00027009,-0.00155340,-0.
 01698255,-0.00678007,0.00908361,0.08346354,0.01496892,-0.07498526,0.00
 754505,-0.00042909,-0.00133435,-0.00144271,0.00005548,-0.00138385,0.00
 128046,-0.00295522,-0.00326983,0.01865601,0.01287251,-0.00301537,-0.00
 278127,0.00032388,0.00337976,-0.00001077,0.00026193,-0.00001705,-0.000
 05313,-0.00005428,0.00000617,-0.00005118,-0.00024269,-0.00001230,0.000
 37048,-0.00007889,0.00057020,-0.00268461,0.00111004,-0.00107070,0.0017
 8584,-0.00069763,0.00154748,-0.08906686,-0.01939840,0.07109323,0.00021
 118,0.00007645,-0.00008380,0.00051387,-0.00030484,-0.00022846,-0.00085
 314,-0.00048129,-0.00049730,0.00537145,-0.00525485,-0.00106307,-0.1000
 9170,0.11886307,0.00769688,-0.02167410,0.02723175,0.00912910,-0.005151
 99,-0.00673773,0.00123411,0.00122114,-0.00248362,0.00017560,0.00015452
 ,-0.00016904,-0.00039200,-0.00000065,-0.00002704,-0.00000028,-0.000028
 89,0.00007041,-0.00001388,-0.00001082,-0.00003218,0.00002440,0.0003609
 2,-0.00036070,0.00006962,-0.00007313,0.00007824,0.00019844,0.00020171,
 -0.00005305,0.00005073,0.00014764,0.00120371,0.00002987,0.11937848,0.0
 0021189,0.00004819,0.00003388,0.00045567,-0.00050335,-0.00090424,-0.00
 115400,-0.00068607,-0.00069255,0.00701679,-0.00498411,-0.00621382,0.12
 779753,-0.27639642,-0.01032037,-0.00461967,0.01085410,-0.00137907,0.00
 144875,-0.00435396,0.00573185,0.00079807,-0.00395190,0.00239871,0.0000
 7910,-0.00073115,-0.00101107,-0.00000880,-0.00004312,-0.00002580,-0.00
 004326,0.00003551,-0.00000886,0.00000608,-0.00007843,0.00006756,0.0003
 5529,-0.00013405,0.00003382,0.00019691,0.00005652,0.00015750,0.0002871
 9,-0.00013524,0.00010419,-0.00043863,0.00076411,0.00025309,-0.13221647
 ,0.27924423,0.00037585,-0.00001624,0.00047663,-0.00054771,-0.00205864,
 0.00000371,0.00124464,0.00196900,-0.00060126,-0.01076026,0.00712078,0.
 00345361,0.01290054,-0.00402974,-0.04922938,-0.00050022,-0.00025150,-0
 .00241719,0.01216429,-0.01412662,0.00793163,0.00401561,-0.00014234,-0.
 00118234,-0.00025496,0.00079651,0.00139035,0.00000988,0.00006160,0.000
 00147,-0.00003436,-0.00006818,0.00001533,0.00000661,-0.00024874,0.0000
 2763,-0.00035897,0.00007810,-0.00008009,-0.00022531,-0.00023181,-0.000
 06621,-0.00072926,0.00036504,-0.00021720,0.00037059,-0.00063537,0.0006
 8684,-0.01657960,0.01163463,0.03917235,-0.00021890,0.00005948,-0.00027
 068,0.00013349,0.00094234,-0.00029023,-0.00057728,-0.00038438,0.001305
 23,0.00101026,-0.00106782,0.00353698,0.00275406,-0.01214415,0.01164368
 ,-0.00061152,0.00277207,-0.02874637,-0.03508531,0.00480079,0.00981696,
 -0.00164549,0.00071864,0.00193969,0.00022804,0.00036933,-0.00082423,0.
 00002187,-0.00001902,-0.00000378,-0.00000908,0.00000412,0.00002523,-0.
 00002549,0.00011184,-0.00000163,0.00005659,-0.00019537,0.00006012,0.00
 004226,-0.00009609,0.00021231,0.00039324,-0.00016062,0.00025401,-0.000
 15413,-0.00031048,0.00033265,0.00031181,-0.00028314,-0.00106590,0.0333
 5697,0.00062481,0.00029845,0.00077316,-0.00186647,-0.00148501,-0.00015
 876,0.00044280,0.00088423,-0.00099925,-0.00354113,-0.00210251,0.001652
 99,-0.00715450,0.00082101,-0.00972841,0.00145104,0.00088705,-0.0192331
 2,-0.00012716,-0.06632864,0.06902689,0.00367767,0.00510258,0.01838296,
 0.00067971,0.00230877,-0.00191986,-0.00001084,-0.00001602,-0.00003345,
 -0.00008217,0.00001452,-0.00001607,0.00006175,-0.00036280,0.00004471,0
 .00045540,-0.00006089,-0.00012228,0.00027508,0.00000934,0.00037071,-0.
 00023604,0.00024137,-0.00005659,0.00004572,0.00077373,0.00116675,0.000
 60034,0.00090874,0.00009502,0.00466246,0.05775956,0.00005760,-0.000123
 55,0.00005374,0.00015548,-0.00037940,0.00000576,0.00045732,-0.00008861
 ,-0.00068376,-0.00006993,0.00221458,-0.00167932,-0.00734107,0.00352666
 ,-0.00370752,0.00039285,-0.00485427,-0.01176381,0.00255588,0.06232227,
 -0.32440423,0.00085538,-0.00544654,-0.00271602,0.00077498,0.00136663,0
 .00145351,-0.00001269,0.00007710,0.00002009,0.00001259,0.00000490,-0.0
 0000435,0.00001001,0.00000145,-0.00000862,-0.00012526,0.00001738,-0.00
 010935,-0.00003201,-0.00005156,0.00007927,-0.00015634,0.00022618,-0.00
 018810,-0.00005265,0.00006288,-0.00038449,0.00020323,0.00010322,0.0006
 7302,0.00208594,-0.05890570,0.34332461,-0.00027453,-0.00030105,0.00023
 320,-0.00029562,-0.00090222,0.00048084,0.00049376,-0.00028761,0.000430
 97,0.00216926,0.00014020,-0.00139754,-0.00023662,-0.00040920,-0.000427
 40,-0.00012928,-0.00138580,-0.00037647,-0.00140667,0.00040095,-0.00301
 663,-0.00888655,-0.02253409,0.01395127,-0.04838935,-0.10744898,0.04793
 454,-0.00100813,0.00066469,0.00026015,0.00064547,0.00055648,-0.0010752
 9,0.00059866,0.00040674,0.00036838,0.00018706,0.00026556,0.00030196,-0
 .00026416,0.00023062,0.00018845,-0.00001008,0.00009311,0.00010438,-0.0
 0034009,-0.00000684,-0.00026501,0.00001171,0.00011068,-0.00003147,0.00
 001861,0.00004153,0.00022867,0.05711655,0.00031170,0.00120364,-0.00048
 048,0.00066648,0.00154388,0.00072215,-0.00006814,0.00013904,0.00042198
 ,0.00152396,0.00103607,0.00100909,-0.00044814,-0.00050635,0.00062920,0
 .00101315,-0.00164089,-0.00016569,-0.00332073,0.00129278,-0.00452068,-
 0.01113131,-0.02803038,0.01360038,-0.12027565,-0.32658421,0.18826938,0
 .00046964,-0.00012591,-0.00026175,0.00006474,-0.00011772,0.00094998,-0
 .00016414,-0.00019205,0.00002436,0.00027103,-0.00022222,0.00022902,0.0
 0025840,-0.00010069,0.00023239,0.00003394,0.00005056,0.00015732,0.0002
 1299,-0.00032147,-0.00076572,-0.00000315,0.00008641,-0.00031149,0.0002
 2000,0.00034651,-0.00007361,0.13036522,0.35214299,-0.00179120,-0.00063
 543,0.00130620,-0.00107828,-0.00059572,-0.00028237,-0.00012026,-0.0000
 5301,0.00003390,-0.00031278,-0.00012562,0.00045222,-0.00025432,0.00051
 721,0.00039494,-0.00009440,-0.00164722,-0.00018359,-0.00238806,-0.0008
 6619,-0.00154984,-0.01088639,-0.02755753,0.01091255,0.07259111,0.22947
 520,-0.17998091,0.00047153,-0.00010019,-0.00025632,0.00036466,0.001329
 82,-0.00123295,0.00078011,0.00003559,-0.00053966,0.00002425,0.00022967
 ,0.00001384,0.00007267,0.00005073,0.00001768,-0.00003255,-0.00004749,-
 0.00019311,0.00051052,-0.00004164,-0.00016339,0.00004640,0.00003734,-0
 .00003889,-0.00001000,-0.00033969,0.00003956,-0.05789300,-0.19966583,0
 .17125014\\-0.00000628,0.00000015,0.00000094,-0.00000828,-0.00000821,-
 0.00000478,-0.00000139,0.00000969,-0.00000292,-0.00000341,-0.00001437,
 0.00001253,-0.00002613,0.00002659,0.00001314,0.00000932,-0.00000175,-0
 .00000408,0.00000869,-0.00003266,-0.00001802,0.00001535,0.00001674,0.0
 0000476,-0.00001011,0.00000444,-0.00000677,-0.00000442,-0.00000176,-0.
 00000467,0.00000002,0.00000220,0.00000129,-0.00000017,-0.00000104,-0.0
 0000543,0.00000535,0.00000063,-0.00000111,0.00000254,-0.00000409,0.000
 00226,0.00000353,-0.00000564,-0.00000058,0.00000797,0.00000787,0.00000
 444,0.00001190,-0.00000190,-0.00000529,-0.00000060,0.00000935,0.000007
 63,-0.00000389,-0.00000624,0.00000667\\\@


 TO DRY ONE'S EYES AND LAUGH AT A FALL
 AND BAFFLED, GET UP AND BEGIN AGAIN.
           R. BROWNING
 Job cpu time:       0 days  0 hours 56 minutes 46.4 seconds.
 File lengths (MBytes):  RWF=    152 Int=      0 D2E=      0 Chk=      8 Scr=      1
 Normal termination of Gaussian 09 at Tue Jan 28 03:53:29 2020.
