 Entering Gaussian System, Link 0=/home/puck/opt/gaussian_09/g09
 Input=dsC7O2H10nsd_2775.com
 Output=dsC7O2H10nsd_2775.log
 Initial command:
 /home/puck/opt/gaussian_09/l1.exe "/scratch/puck/g09_c681c3f1-7d5e-4089-a428-57ab16bf95c9/Gau-28607.inp" -scrdir="/scratch/puck/g09_c681c3f1-7d5e-4089-a428-57ab16bf95c9/"
 Entering Link 1 = /home/puck/opt/gaussian_09/l1.exe PID=     28619.
  
 Copyright (c) 1988,1990,1992,1993,1995,1998,2003,2009,2013,
            Gaussian, Inc.  All Rights Reserved.
  
 This is part of the Gaussian(R) 09 program.  It is based on
 the Gaussian(R) 03 system (copyright 2003, Gaussian, Inc.),
 the Gaussian(R) 98 system (copyright 1998, Gaussian, Inc.),
 the Gaussian(R) 94 system (copyright 1995, Gaussian, Inc.),
 the Gaussian 92(TM) system (copyright 1992, Gaussian, Inc.),
 the Gaussian 90(TM) system (copyright 1990, Gaussian, Inc.),
 the Gaussian 88(TM) system (copyright 1988, Gaussian, Inc.),
 the Gaussian 86(TM) system (copyright 1986, Carnegie Mellon
 University), and the Gaussian 82(TM) system (copyright 1983,
 Carnegie Mellon University). Gaussian is a federally registered
 trademark of Gaussian, Inc.
  
 This software contains proprietary and confidential information,
 including trade secrets, belonging to Gaussian, Inc.
  
 This software is provided under written license and may be
 used, copied, transmitted, or stored only in accord with that
 written license.
  
 The following legend is applicable only to US Government
 contracts under FAR:
  
                    RESTRICTED RIGHTS LEGEND
  
 Use, reproduction and disclosure by the US Government is
 subject to restrictions as set forth in subparagraphs (a)
 and (c) of the Commercial Computer Software - Restricted
 Rights clause in FAR 52.227-19.
  
 Gaussian, Inc.
 340 Quinnipiac St., Bldg. 40, Wallingford CT 06492
  
  
 ---------------------------------------------------------------
 Warning -- This program may not be used in any manner that
 competes with the business of Gaussian, Inc. or will provide
 assistance to any competitor of Gaussian, Inc.  The licensee
 of this program is prohibited from giving any competitor of
 Gaussian, Inc. access to this program.  By using this program,
 the user acknowledges that Gaussian, Inc. is engaged in the
 business of creating and licensing software in the field of
 computational chemistry and represents and warrants to the
 licensee that it is not a competitor of Gaussian, Inc. and that
 it will not use this program in any manner prohibited above.
 ---------------------------------------------------------------
  

 Cite this work as:
 Gaussian 09, Revision D.01,
 M. J. Frisch, G. W. Trucks, H. B. Schlegel, G. E. Scuseria, 
 M. A. Robb, J. R. Cheeseman, G. Scalmani, V. Barone, B. Mennucci, 
 G. A. Petersson, H. Nakatsuji, M. Caricato, X. Li, H. P. Hratchian, 
 A. F. Izmaylov, J. Bloino, G. Zheng, J. L. Sonnenberg, M. Hada, 
 M. Ehara, K. Toyota, R. Fukuda, J. Hasegawa, M. Ishida, T. Nakajima, 
 Y. Honda, O. Kitao, H. Nakai, T. Vreven, J. A. Montgomery, Jr., 
 J. E. Peralta, F. Ogliaro, M. Bearpark, J. J. Heyd, E. Brothers, 
 K. N. Kudin, V. N. Staroverov, T. Keith, R. Kobayashi, J. Normand, 
 K. Raghavachari, A. Rendell, J. C. Burant, S. S. Iyengar, J. Tomasi, 
 M. Cossi, N. Rega, J. M. Millam, M. Klene, J. E. Knox, J. B. Cross, 
 V. Bakken, C. Adamo, J. Jaramillo, R. Gomperts, R. E. Stratmann, 
 O. Yazyev, A. J. Austin, R. Cammi, C. Pomelli, J. W. Ochterski, 
 R. L. Martin, K. Morokuma, V. G. Zakrzewski, G. A. Voth, 
 P. Salvador, J. J. Dannenberg, S. Dapprich, A. D. Daniels, 
 O. Farkas, J. B. Foresman, J. V. Ortiz, J. Cioslowski, 
 and D. J. Fox, Gaussian, Inc., Wallingford CT, 2013.
 
 ******************************************
 Gaussian 09:  ES64L-G09RevD.01 24-Apr-2013
                27-Jan-2020 
 ******************************************
 -----------------------------
 # b3lyp 6-31G(2df,p) opt Freq
 -----------------------------
 1/14=-1,18=20,19=15,26=3,38=1/1,3;
 2/9=110,12=2,17=6,18=5,40=1/2;
 3/5=1,6=6,7=104,11=2,16=1,25=1,30=1,71=1,74=-5/1,2,3;
 4//1;
 5/5=2,38=5/2;
 6/7=2,8=2,9=2,10=2,28=1/1;
 7//1,2,3,16;
 1/14=-1,18=20,19=15,26=3/3(2);
 2/9=110/2;
 99//99;
 2/9=110/2;
 3/5=1,6=6,7=104,11=2,16=1,25=1,30=1,71=1,74=-5/1,2,3;
 4/5=5,16=3,69=1/1;
 5/5=2,38=5/2;
 7//1,2,3,16;
 1/14=-1,18=20,19=15,26=3/3(-5);
 2/9=110/2;
 6/7=2,8=2,9=2,10=2,19=2,28=1/1;
 99/9=1/99;
 -----
 titel
 -----
 Symbolic Z-matrix:
 Charge =  0 Multiplicity = 1
 C                    -1.38524  -0.78555  -2.61219 
 C                    -1.88609  -1.09157  -1.21003 
 C                    -2.91734  -2.21175  -1.1831 
 C                    -2.07799  -0.0573   -0.14766 
 C                    -0.94134  -1.12326   0.00026 
 C                     0.06988  -0.02804  -0.11971 
 O                     1.2669    0.03743  -0.06008 
 C                    -1.04261   1.063    -0.17896 
 O                    -1.11893   1.9855   -1.23805 
 H                    -0.8927   -1.66737  -3.03691 
 H                    -2.22926  -0.52884  -3.26236 
 H                    -0.68831   0.0511   -2.63779 
 H                    -3.25768  -2.42944  -0.16639 
 H                    -3.79193  -1.93585  -1.78238 
 H                    -2.50175  -3.13263  -1.60564 
 H                    -2.98746  -0.01288   0.43888 
 H                    -0.88131  -1.99728   0.63724 
 H                    -1.02658   1.57434   0.79872 
 H                    -0.31381   2.51531  -1.21993 
 

 GradGradGradGradGradGradGradGradGradGradGradGradGradGradGradGradGradGrad
 Berny optimization.
 Initialization pass.
                           ----------------------------
                           !    Initial Parameters    !
                           ! (Angstroms and Degrees)  !
 --------------------------                            --------------------------
 ! Name  Definition              Value          Derivative Info.                !
 --------------------------------------------------------------------------------
 ! R1    R(1,2)                  1.5201         estimate D2E/DX2                !
 ! R2    R(1,10)                 1.0957         estimate D2E/DX2                !
 ! R3    R(1,11)                 1.0959         estimate D2E/DX2                !
 ! R4    R(1,12)                 1.0892         estimate D2E/DX2                !
 ! R5    R(2,3)                  1.5228         estimate D2E/DX2                !
 ! R6    R(2,4)                  1.495          estimate D2E/DX2                !
 ! R7    R(2,5)                  1.5357         estimate D2E/DX2                !
 ! R8    R(3,13)                 1.094          estimate D2E/DX2                !
 ! R9    R(3,14)                 1.0955         estimate D2E/DX2                !
 ! R10   R(3,15)                 1.0951         estimate D2E/DX2                !
 ! R11   R(4,5)                  1.5653         estimate D2E/DX2                !
 ! R12   R(4,8)                  1.5258         estimate D2E/DX2                !
 ! R13   R(4,16)                 1.0831         estimate D2E/DX2                !
 ! R14   R(5,6)                  1.4955         estimate D2E/DX2                !
 ! R15   R(5,17)                 1.0832         estimate D2E/DX2                !
 ! R16   R(6,7)                  1.2003         estimate D2E/DX2                !
 ! R17   R(6,8)                  1.5593         estimate D2E/DX2                !
 ! R18   R(8,9)                  1.4066         estimate D2E/DX2                !
 ! R19   R(8,18)                 1.1034         estimate D2E/DX2                !
 ! R20   R(9,19)                 0.964          estimate D2E/DX2                !
 ! A1    A(2,1,10)             110.0991         estimate D2E/DX2                !
 ! A2    A(2,1,11)             109.9165         estimate D2E/DX2                !
 ! A3    A(2,1,12)             112.7776         estimate D2E/DX2                !
 ! A4    A(10,1,11)            107.7431         estimate D2E/DX2                !
 ! A5    A(10,1,12)            108.7514         estimate D2E/DX2                !
 ! A6    A(11,1,12)            107.3927         estimate D2E/DX2                !
 ! A7    A(1,2,3)              112.8013         estimate D2E/DX2                !
 ! A8    A(1,2,4)              123.9525         estimate D2E/DX2                !
 ! A9    A(1,2,5)              121.8994         estimate D2E/DX2                !
 ! A10   A(3,2,4)              114.1666         estimate D2E/DX2                !
 ! A11   A(3,2,5)              112.7983         estimate D2E/DX2                !
 ! A12   A(2,3,13)             111.9295         estimate D2E/DX2                !
 ! A13   A(2,3,14)             110.2244         estimate D2E/DX2                !
 ! A14   A(2,3,15)             110.7778         estimate D2E/DX2                !
 ! A15   A(13,3,14)            108.0664         estimate D2E/DX2                !
 ! A16   A(13,3,15)            108.0172         estimate D2E/DX2                !
 ! A17   A(14,3,15)            107.6786         estimate D2E/DX2                !
 ! A18   A(2,4,8)              113.9702         estimate D2E/DX2                !
 ! A19   A(2,4,16)             121.3967         estimate D2E/DX2                !
 ! A20   A(5,4,8)               90.5266         estimate D2E/DX2                !
 ! A21   A(5,4,16)             125.9092         estimate D2E/DX2                !
 ! A22   A(8,4,16)             123.4211         estimate D2E/DX2                !
 ! A23   A(2,5,6)              109.7338         estimate D2E/DX2                !
 ! A24   A(2,5,17)             120.9444         estimate D2E/DX2                !
 ! A25   A(4,5,6)               89.1239         estimate D2E/DX2                !
 ! A26   A(4,5,17)             130.1895         estimate D2E/DX2                !
 ! A27   A(6,5,17)             126.916          estimate D2E/DX2                !
 ! A28   A(5,6,7)              135.2592         estimate D2E/DX2                !
 ! A29   A(5,6,8)               91.8938         estimate D2E/DX2                !
 ! A30   A(7,6,8)              132.4715         estimate D2E/DX2                !
 ! A31   A(4,8,6)               88.2587         estimate D2E/DX2                !
 ! A32   A(4,8,9)              117.398          estimate D2E/DX2                !
 ! A33   A(4,8,18)             109.386          estimate D2E/DX2                !
 ! A34   A(6,8,9)              121.7493         estimate D2E/DX2                !
 ! A35   A(6,8,18)             106.2724         estimate D2E/DX2                !
 ! A36   A(9,8,18)             111.3462         estimate D2E/DX2                !
 ! A37   A(8,9,19)             107.5164         estimate D2E/DX2                !
 ! D1    D(10,1,2,3)           -61.4369         estimate D2E/DX2                !
 ! D2    D(10,1,2,4)           153.6358         estimate D2E/DX2                !
 ! D3    D(10,1,2,5)            77.7434         estimate D2E/DX2                !
 ! D4    D(11,1,2,3)            57.101          estimate D2E/DX2                !
 ! D5    D(11,1,2,4)           -87.8263         estimate D2E/DX2                !
 ! D6    D(11,1,2,5)          -163.7186         estimate D2E/DX2                !
 ! D7    D(12,1,2,3)           176.9004         estimate D2E/DX2                !
 ! D8    D(12,1,2,4)            31.9731         estimate D2E/DX2                !
 ! D9    D(12,1,2,5)           -43.9193         estimate D2E/DX2                !
 ! D10   D(1,2,3,13)           179.2155         estimate D2E/DX2                !
 ! D11   D(1,2,3,14)           -60.4799         estimate D2E/DX2                !
 ! D12   D(1,2,3,15)            58.5933         estimate D2E/DX2                !
 ! D13   D(4,2,3,13)           -32.2799         estimate D2E/DX2                !
 ! D14   D(4,2,3,14)            88.0247         estimate D2E/DX2                !
 ! D15   D(4,2,3,15)          -152.9021         estimate D2E/DX2                !
 ! D16   D(5,2,3,13)            36.2282         estimate D2E/DX2                !
 ! D17   D(5,2,3,14)           156.5327         estimate D2E/DX2                !
 ! D18   D(5,2,3,15)           -84.3941         estimate D2E/DX2                !
 ! D19   D(1,2,4,8)            -35.4786         estimate D2E/DX2                !
 ! D20   D(1,2,4,16)           132.3508         estimate D2E/DX2                !
 ! D21   D(3,2,4,8)           -179.9861         estimate D2E/DX2                !
 ! D22   D(3,2,4,16)           -12.1568         estimate D2E/DX2                !
 ! D23   D(1,2,5,6)             38.8139         estimate D2E/DX2                !
 ! D24   D(1,2,5,17)          -124.7392         estimate D2E/DX2                !
 ! D25   D(3,2,5,6)            177.9953         estimate D2E/DX2                !
 ! D26   D(3,2,5,17)            14.4421         estimate D2E/DX2                !
 ! D27   D(8,4,5,6)             -3.4082         estimate D2E/DX2                !
 ! D28   D(8,4,5,17)           137.2561         estimate D2E/DX2                !
 ! D29   D(16,4,5,6)          -136.7788         estimate D2E/DX2                !
 ! D30   D(16,4,5,17)            3.8855         estimate D2E/DX2                !
 ! D31   D(2,4,8,6)            -54.0448         estimate D2E/DX2                !
 ! D32   D(2,4,8,9)             71.2091         estimate D2E/DX2                !
 ! D33   D(2,4,8,18)          -160.6924         estimate D2E/DX2                !
 ! D34   D(5,4,8,6)              3.2696         estimate D2E/DX2                !
 ! D35   D(5,4,8,9)            128.5235         estimate D2E/DX2                !
 ! D36   D(5,4,8,18)          -103.378          estimate D2E/DX2                !
 ! D37   D(16,4,8,6)           138.4063         estimate D2E/DX2                !
 ! D38   D(16,4,8,9)           -96.3398         estimate D2E/DX2                !
 ! D39   D(16,4,8,18)           31.7587         estimate D2E/DX2                !
 ! D40   D(2,5,6,7)           -128.4179         estimate D2E/DX2                !
 ! D41   D(2,5,6,8)             58.2922         estimate D2E/DX2                !
 ! D42   D(4,5,6,7)            176.6263         estimate D2E/DX2                !
 ! D43   D(4,5,6,8)              3.3365         estimate D2E/DX2                !
 ! D44   D(17,5,6,7)            33.901          estimate D2E/DX2                !
 ! D45   D(17,5,6,8)          -139.3888         estimate D2E/DX2                !
 ! D46   D(5,6,8,4)             -3.4241         estimate D2E/DX2                !
 ! D47   D(5,6,8,9)           -124.9299         estimate D2E/DX2                !
 ! D48   D(5,6,8,18)           106.2742         estimate D2E/DX2                !
 ! D49   D(7,6,8,4)           -177.0219         estimate D2E/DX2                !
 ! D50   D(7,6,8,9)             61.4722         estimate D2E/DX2                !
 ! D51   D(7,6,8,18)           -67.3236         estimate D2E/DX2                !
 ! D52   D(4,8,9,19)          -169.1091         estimate D2E/DX2                !
 ! D53   D(6,8,9,19)           -62.8203         estimate D2E/DX2                !
 ! D54   D(18,8,9,19)           63.7365         estimate D2E/DX2                !
 --------------------------------------------------------------------------------
 Trust Radius=3.00D-01 FncErr=1.00D-07 GrdErr=1.00D-06
 Number of steps in this run=    114 maximum allowed number of steps=    114.
 GradGradGradGradGradGradGradGradGradGradGradGradGradGradGradGradGradGrad

                          Input orientation:                          
 ---------------------------------------------------------------------
 Center     Atomic      Atomic             Coordinates (Angstroms)
 Number     Number       Type             X           Y           Z
 ---------------------------------------------------------------------
      1          6           0       -1.385235   -0.785546   -2.612190
      2          6           0       -1.886090   -1.091566   -1.210031
      3          6           0       -2.917337   -2.211750   -1.183104
      4          6           0       -2.077992   -0.057303   -0.147656
      5          6           0       -0.941336   -1.123259    0.000259
      6          6           0        0.069882   -0.028040   -0.119707
      7          8           0        1.266905    0.037426   -0.060081
      8          6           0       -1.042610    1.063002   -0.178957
      9          8           0       -1.118933    1.985502   -1.238046
     10          1           0       -0.892701   -1.667374   -3.036910
     11          1           0       -2.229261   -0.528840   -3.262358
     12          1           0       -0.688311    0.051104   -2.637791
     13          1           0       -3.257680   -2.429443   -0.166387
     14          1           0       -3.791928   -1.935851   -1.782378
     15          1           0       -2.501746   -3.132627   -1.605641
     16          1           0       -2.987459   -0.012883    0.438880
     17          1           0       -0.881307   -1.997280    0.637236
     18          1           0       -1.026578    1.574338    0.798720
     19          1           0       -0.313807    2.515306   -1.219927
 ---------------------------------------------------------------------
                    Distance matrix (angstroms):
                    1          2          3          4          5
     1  C    0.000000
     2  C    1.520050   0.000000
     3  C    2.534498   1.522829   0.000000
     4  C    2.661612   1.495047   2.533436   0.000000
     5  C    2.671327   1.535698   2.547497   1.565288   0.000000
     6  C    2.983900   2.479057   3.850050   2.148255   1.495480
     7  O    3.771524   3.540958   4.881378   3.347383   2.495427
     8  C    3.074922   2.533127   3.904730   1.525804   2.195931
     9  O    3.104497   3.171382   4.566640   2.506351   3.351020
    10  H    1.095717   2.157745   2.798587   3.513550   3.085907
    11  H    1.095900   2.155568   2.762053   3.153823   3.557634
    12  H    1.089194   2.186062   3.493591   2.853724   2.898700
    13  H    3.491475   2.181827   1.094046   2.649351   2.664458
    14  H    2.793557   2.161623   1.095518   3.023051   3.458898
    15  H    2.787207   2.168287   1.095110   3.429709   3.008547
    16  H    3.531736   2.257316   2.733270   1.083110   2.368954
    17  H    3.504427   2.289608   2.739536   2.410730   1.083169
    18  H    4.163171   3.446866   4.673014   2.159479   2.814575
    19  H    3.739249   3.934679   5.396739   3.298550   3.888676
                    6          7          8          9         10
     6  C    0.000000
     7  O    1.200293   0.000000
     8  C    1.559333   2.529782   0.000000
     9  O    2.591972   3.297701   1.406592   0.000000
    10  H    3.481962   4.053610   3.955416   4.078063   0.000000
    11  H    3.925955   4.774768   3.667351   3.413588   1.770163
    12  H    2.630945   3.235374   2.682411   2.426236   1.776017
    13  H    4.103851   5.154475   4.135682   5.021397   3.796548
    14  H    4.617121   5.696659   4.372966   4.776841   3.170402
    15  H    4.296479   5.161464   4.665598   5.314371   2.604711
    16  H    3.107987   4.283819   2.306879   3.208895   4.382518
    17  H    2.314223   3.039916   3.171358   4.408594   3.688945
    18  H    2.147871   2.891315   1.103438   2.079904   5.023811
    19  H    2.797554   3.159713   1.929756   0.963976   4.596886
                   11         12         13         14         15
    11  H    0.000000
    12  H    1.760951   0.000000
    13  H    3.775576   4.343111   0.000000
    14  H    2.571371   3.783142   1.772141   0.000000
    15  H    3.098171   3.806576   1.771258   1.768638   0.000000
    16  H    3.813167   3.841365   2.505819   3.046139   3.761487
    17  H    4.379513   3.867677   2.545531   3.785502   2.990875
    18  H    4.728865   3.774159   4.683963   5.160490   5.487494
    19  H    4.136100   2.867558   5.850374   5.676837   6.069184
                   16         17         18         19
    16  H    0.000000
    17  H    2.900527   0.000000
    18  H    2.548295   3.578217   0.000000
    19  H    4.036309   4.912692   2.338461   0.000000
 Stoichiometry    C7H10O2
 Framework group  C1[X(C7H10O2)]
 Deg. of freedom    51
 Full point group                 C1      NOp   1
 Largest Abelian subgroup         C1      NOp   1
 Largest concise Abelian subgroup C1      NOp   1
                         Standard orientation:                         
 ---------------------------------------------------------------------
 Center     Atomic      Atomic             Coordinates (Angstroms)
 Number     Number       Type             X           Y           Z
 ---------------------------------------------------------------------
      1          6           0        1.016358    0.723433    1.429392
      2          6           0        1.184372    0.028631    0.087910
      3          6           0        2.644374   -0.201565   -0.278714
      4          6           0        0.286307    0.251850   -1.086321
      5          6           0        0.272180   -1.127733   -0.346944
      6          6           0       -1.132177   -0.854164    0.088258
      7          8           0       -1.969570   -1.461217    0.697325
      8          6           0       -1.175289    0.482326   -0.713899
      9          8           0       -1.501550    1.704521   -0.098843
     10          1           0        1.440650    0.105999    2.228984
     11          1           0        1.553054    1.678909    1.424746
     12          1           0       -0.025190    0.936199    1.666564
     13          1           0        2.748423   -0.714367   -1.239518
     14          1           0        3.173550    0.755357   -0.345281
     15          1           0        3.145760   -0.806491    0.484139
     16          1           0        0.686497    0.438453   -2.075338
     17          1           0        0.687155   -2.083555   -0.642673
     18          1           0       -1.811953    0.293601   -1.595157
     19          1           0       -2.405734    1.632792    0.227586
 ---------------------------------------------------------------------
 Rotational constants (GHZ):      2.5019795      1.4001662      1.2178622
 Standard basis: 6-31G(2df,p) (6D, 7F)
 There are   329 symmetry adapted cartesian basis functions of A   symmetry.
 There are   302 symmetry adapted basis functions of A   symmetry.
   302 basis functions,   466 primitive gaussians,   329 cartesian basis functions
    34 alpha electrons       34 beta electrons
       nuclear repulsion energy       462.3783426177 Hartrees.
 NAtoms=   19 NActive=   19 NUniq=   19 SFac= 1.00D+00 NAtFMM=   60 NAOKFM=F Big=F
 Integral buffers will be    131072 words long.
 Raffenetti 2 integral format.
 Two-electron integral symmetry is turned on.
 One-electron integrals computed using PRISM.
 NBasis=   302 RedAO= T EigKep=  3.03D-04  NBF=   302
 NBsUse=   302 1.00D-06 EigRej= -1.00D+00 NBFU=   302
 ExpMin= 1.61D-01 ExpMax= 5.48D+03 ExpMxC= 8.25D+02 IAcc=1 IRadAn=         1 AccDes= 0.00D+00
 Harris functional with IExCor=  402 and IRadAn=       1 diagonalized for initial guess.
 HarFok:  IExCor=  402 AccDes= 0.00D+00 IRadAn=         1 IDoV= 1 UseB2=F ITyADJ=14
 ICtDFT=  3500011 ScaDFX=  1.000000  1.000000  1.000000  1.000000
 FoFCou: FMM=F IPFlag=           0 FMFlag=      100000 FMFlg1=           0
         NFxFlg=           0 DoJE=T BraDBF=F KetDBF=T FulRan=T
         wScrn=  0.000000 ICntrl=     500 IOpCl=  0 I1Cent=   200000004 NGrid=           0
         NMat0=    1 NMatS0=      1 NMatT0=    0 NMatD0=    1 NMtDS0=    0 NMtDT0=    0
 Petite list used in FoFCou.
 Requested convergence on RMS density matrix=1.00D-08 within 128 cycles.
 Requested convergence on MAX density matrix=1.00D-06.
 Requested convergence on             energy=1.00D-06.
 No special actions if energy rises.
 Integral accuracy reduced to 1.0D-05 until final iterations.
 Initial convergence to 1.0D-05 achieved.  Increase integral accuracy.
 SCF Done:  E(RB3LYP) =  -423.173927297     A.U. after   14 cycles
            NFock= 14  Conv=0.37D-08     -V/T= 2.0074

 **********************************************************************

            Population analysis using the SCF density.

 **********************************************************************

 Orbital symmetries:
       Occupied  (A) (A) (A) (A) (A) (A) (A) (A) (A) (A) (A) (A)
                 (A) (A) (A) (A) (A) (A) (A) (A) (A) (A) (A) (A)
                 (A) (A) (A) (A) (A) (A) (A) (A) (A) (A)
       Virtual   (A) (A) (A) (A) (A) (A) (A) (A) (A) (A) (A) (A)
                 (A) (A) (A) (A) (A) (A) (A) (A) (A) (A) (A) (A)
                 (A) (A) (A) (A) (A) (A) (A) (A) (A) (A) (A) (A)
                 (A) (A) (A) (A) (A) (A) (A) (A) (A) (A) (A) (A)
                 (A) (A) (A) (A) (A) (A) (A) (A) (A) (A) (A) (A)
                 (A) (A) (A) (A) (A) (A) (A) (A) (A) (A) (A) (A)
                 (A) (A) (A) (A) (A) (A) (A) (A) (A) (A) (A) (A)
                 (A) (A) (A) (A) (A) (A) (A) (A) (A) (A) (A) (A)
                 (A) (A) (A) (A) (A) (A) (A) (A) (A) (A) (A) (A)
                 (A) (A) (A) (A) (A) (A) (A) (A) (A) (A) (A) (A)
                 (A) (A) (A) (A) (A) (A) (A) (A) (A) (A) (A) (A)
                 (A) (A) (A) (A) (A) (A) (A) (A) (A) (A) (A) (A)
                 (A) (A) (A) (A) (A) (A) (A) (A) (A) (A) (A) (A)
                 (A) (A) (A) (A) (A) (A) (A) (A) (A) (A) (A) (A)
                 (A) (A) (A) (A) (A) (A) (A) (A) (A) (A) (A) (A)
                 (A) (A) (A) (A) (A) (A) (A) (A) (A) (A) (A) (A)
                 (A) (A) (A) (A) (A) (A) (A) (A) (A) (A) (A) (A)
                 (A) (A) (A) (A) (A) (A) (A) (A) (A) (A) (A) (A)
                 (A) (A) (A) (A) (A) (A) (A) (A) (A) (A) (A) (A)
                 (A) (A) (A) (A) (A) (A) (A) (A) (A) (A) (A) (A)
                 (A) (A) (A) (A) (A) (A) (A) (A) (A) (A) (A) (A)
                 (A) (A) (A) (A) (A) (A) (A) (A) (A) (A) (A) (A)
                 (A) (A) (A) (A)
 The electronic state is 1-A.
 Alpha  occ. eigenvalues --  -19.14931 -19.13228 -10.26563 -10.24420 -10.22173
 Alpha  occ. eigenvalues --  -10.20916 -10.20432 -10.18794 -10.17649  -1.04541
 Alpha  occ. eigenvalues --   -1.02801  -0.90878  -0.77193  -0.69914  -0.67907
 Alpha  occ. eigenvalues --   -0.64021  -0.54921  -0.54380  -0.51791  -0.47571
 Alpha  occ. eigenvalues --   -0.46677  -0.43710  -0.42831  -0.41048  -0.40429
 Alpha  occ. eigenvalues --   -0.39657  -0.38504  -0.37474  -0.36160  -0.34484
 Alpha  occ. eigenvalues --   -0.30051  -0.29420  -0.28177  -0.22941
 Alpha virt. eigenvalues --   -0.01675   0.06587   0.09365   0.10380   0.11625
 Alpha virt. eigenvalues --    0.13530   0.13852   0.15204   0.16156   0.17167
 Alpha virt. eigenvalues --    0.17755   0.18272   0.19664   0.20619   0.21597
 Alpha virt. eigenvalues --    0.24344   0.26179   0.27627   0.29837   0.30763
 Alpha virt. eigenvalues --    0.35747   0.43139   0.43346   0.45040   0.46666
 Alpha virt. eigenvalues --    0.47192   0.47842   0.49704   0.51033   0.52600
 Alpha virt. eigenvalues --    0.56223   0.57950   0.60088   0.60942   0.61569
 Alpha virt. eigenvalues --    0.62749   0.65121   0.66093   0.67076   0.68511
 Alpha virt. eigenvalues --    0.69292   0.72175   0.72663   0.73510   0.74057
 Alpha virt. eigenvalues --    0.75078   0.75715   0.76545   0.77439   0.78362
 Alpha virt. eigenvalues --    0.81299   0.83216   0.84956   0.86395   0.89016
 Alpha virt. eigenvalues --    0.91713   0.93222   0.93398   0.95429   0.97491
 Alpha virt. eigenvalues --    0.98658   1.00572   1.03616   1.04646   1.05723
 Alpha virt. eigenvalues --    1.06073   1.11487   1.14175   1.16385   1.17559
 Alpha virt. eigenvalues --    1.22520   1.23941   1.26924   1.28511   1.28829
 Alpha virt. eigenvalues --    1.29790   1.33445   1.35892   1.38212   1.38915
 Alpha virt. eigenvalues --    1.39821   1.41259   1.46010   1.46989   1.50674
 Alpha virt. eigenvalues --    1.51252   1.54102   1.54643   1.56566   1.57348
 Alpha virt. eigenvalues --    1.61059   1.62609   1.66675   1.67829   1.69889
 Alpha virt. eigenvalues --    1.72478   1.75098   1.77560   1.78090   1.80501
 Alpha virt. eigenvalues --    1.84457   1.85003   1.87184   1.89014   1.90617
 Alpha virt. eigenvalues --    1.94263   1.96203   1.99239   2.01792   2.02459
 Alpha virt. eigenvalues --    2.09378   2.13689   2.19875   2.22488   2.27605
 Alpha virt. eigenvalues --    2.30774   2.33902   2.37772   2.39818   2.40725
 Alpha virt. eigenvalues --    2.46405   2.48492   2.50699   2.54635   2.59113
 Alpha virt. eigenvalues --    2.62140   2.62897   2.66044   2.69910   2.75138
 Alpha virt. eigenvalues --    2.77252   2.78065   2.79737   2.83128   2.83981
 Alpha virt. eigenvalues --    2.86313   2.87025   2.89985   2.90202   2.92131
 Alpha virt. eigenvalues --    2.92859   2.93790   2.97502   2.99060   3.01285
 Alpha virt. eigenvalues --    3.03204   3.07231   3.08536   3.10470   3.12606
 Alpha virt. eigenvalues --    3.14894   3.18849   3.19917   3.20698   3.21748
 Alpha virt. eigenvalues --    3.28801   3.31600   3.33168   3.36768   3.38063
 Alpha virt. eigenvalues --    3.42155   3.44222   3.46042   3.47167   3.50875
 Alpha virt. eigenvalues --    3.53349   3.54389   3.57770   3.60852   3.65347
 Alpha virt. eigenvalues --    3.67255   3.68102   3.70000   3.72963   3.77039
 Alpha virt. eigenvalues --    3.78570   3.84861   3.87754   3.90290   3.92409
 Alpha virt. eigenvalues --    3.96144   4.00204   4.02382   4.03989   4.08693
 Alpha virt. eigenvalues --    4.09456   4.15818   4.16729   4.19272   4.22783
 Alpha virt. eigenvalues --    4.24506   4.29851   4.34351   4.36274   4.38148
 Alpha virt. eigenvalues --    4.39530   4.41219   4.45424   4.46403   4.49034
 Alpha virt. eigenvalues --    4.50063   4.52709   4.54956   4.55638   4.61251
 Alpha virt. eigenvalues --    4.61959   4.62443   4.63639   4.65043   4.67423
 Alpha virt. eigenvalues --    4.67780   4.68929   4.72377   4.74459   4.75164
 Alpha virt. eigenvalues --    4.76843   4.77254   4.78010   4.80571   4.84634
 Alpha virt. eigenvalues --    4.88036   4.90161   4.92470   4.95551   4.96558
 Alpha virt. eigenvalues --    5.01112   5.04648   5.06824   5.07911   5.10288
 Alpha virt. eigenvalues --    5.14158   5.17712   5.23662   5.28510   5.30640
 Alpha virt. eigenvalues --    5.33594   5.36090   5.38965   5.44603   5.46871
 Alpha virt. eigenvalues --    5.52952   5.55782   5.59434   5.60490   5.64190
 Alpha virt. eigenvalues --    5.65313   5.68006   5.72523   5.84020   6.00215
 Alpha virt. eigenvalues --    6.02523   6.06553   6.10877   6.20809   6.42066
 Alpha virt. eigenvalues --    6.55699   6.74819   6.93417   7.23250  10.71216
 Alpha virt. eigenvalues --   11.46672  11.64217  11.82569  11.95288  12.54400
 Alpha virt. eigenvalues --   12.68284  13.25091  13.45808
          Condensed to atoms (all electrons):
               1          2          3          4          5          6
     1  C    5.109320   0.440718  -0.076565  -0.044108  -0.047894   0.000356
     2  C    0.440718   4.346308   0.398139   0.377675   0.310004  -0.020490
     3  C   -0.076565   0.398139   5.120205  -0.036069  -0.028109   0.000953
     4  C   -0.044108   0.377675  -0.036069   5.024285   0.197053  -0.006794
     5  C   -0.047894   0.310004  -0.028109   0.197053   5.441589   0.236892
     6  C    0.000356  -0.020490   0.000953  -0.006794   0.236892   4.412064
     7  O   -0.000184  -0.000821  -0.000043   0.004222  -0.065829   0.820362
     8  C   -0.001905   0.008781   0.001923   0.323327  -0.178710   0.298006
     9  O   -0.007631   0.000406   0.000056  -0.026666   0.007092  -0.036012
    10  H    0.357507  -0.022808  -0.003793   0.004501  -0.001044  -0.001114
    11  H    0.364695  -0.022472  -0.004113  -0.001124   0.004772   0.000469
    12  H    0.349643  -0.002719   0.005389  -0.010321  -0.003191   0.001036
    13  H    0.005681  -0.014211   0.357785  -0.003634  -0.002549   0.000203
    14  H   -0.001892  -0.020446   0.366476  -0.003417   0.003589   0.000004
    15  H   -0.002050  -0.018858   0.366847   0.003717  -0.004217  -0.000116
    16  H    0.003102  -0.038378  -0.008315   0.376974  -0.024193   0.006335
    17  H    0.002282  -0.033833  -0.008150  -0.025309   0.363627  -0.024014
    18  H    0.000140   0.002841  -0.000172  -0.050439   0.019381  -0.048298
    19  H   -0.000220   0.000207   0.000010   0.007607   0.000163  -0.000336
               7          8          9         10         11         12
     1  C   -0.000184  -0.001905  -0.007631   0.357507   0.364695   0.349643
     2  C   -0.000821   0.008781   0.000406  -0.022808  -0.022472  -0.002719
     3  C   -0.000043   0.001923   0.000056  -0.003793  -0.004113   0.005389
     4  C    0.004222   0.323327  -0.026666   0.004501  -0.001124  -0.010321
     5  C   -0.065829  -0.178710   0.007092  -0.001044   0.004772  -0.003191
     6  C    0.820362   0.298006  -0.036012  -0.001114   0.000469   0.001036
     7  O    7.631896  -0.063384   0.000515  -0.000024  -0.000003   0.000251
     8  C   -0.063384   5.031756   0.339182   0.000242   0.000082  -0.002669
     9  O    0.000515   0.339182   7.848372   0.000250   0.000010   0.018919
    10  H   -0.000024   0.000242   0.000250   0.608119  -0.034361  -0.026673
    11  H   -0.000003   0.000082   0.000010  -0.034361   0.598287  -0.028808
    12  H    0.000251  -0.002669   0.018919  -0.026673  -0.028808   0.558527
    13  H    0.000001   0.000154   0.000001  -0.000098  -0.000066  -0.000191
    14  H    0.000000  -0.000017  -0.000001  -0.000318   0.004213  -0.000095
    15  H    0.000000  -0.000079  -0.000001   0.004037  -0.000265  -0.000054
    16  H   -0.000073  -0.037606   0.000520  -0.000105   0.000321  -0.000215
    17  H   -0.000288   0.008917  -0.000115   0.000410  -0.000075  -0.000196
    18  H   -0.000954   0.351265  -0.029907   0.000013  -0.000007   0.000486
    19  H    0.001892  -0.063721   0.310888  -0.000002   0.000006   0.000558
              13         14         15         16         17         18
     1  C    0.005681  -0.001892  -0.002050   0.003102   0.002282   0.000140
     2  C   -0.014211  -0.020446  -0.018858  -0.038378  -0.033833   0.002841
     3  C    0.357785   0.366476   0.366847  -0.008315  -0.008150  -0.000172
     4  C   -0.003634  -0.003417   0.003717   0.376974  -0.025309  -0.050439
     5  C   -0.002549   0.003589  -0.004217  -0.024193   0.363627   0.019381
     6  C    0.000203   0.000004  -0.000116   0.006335  -0.024014  -0.048298
     7  O    0.000001   0.000000   0.000000  -0.000073  -0.000288  -0.000954
     8  C    0.000154  -0.000017  -0.000079  -0.037606   0.008917   0.351265
     9  O    0.000001  -0.000001  -0.000001   0.000520  -0.000115  -0.029907
    10  H   -0.000098  -0.000318   0.004037  -0.000105   0.000410   0.000013
    11  H   -0.000066   0.004213  -0.000265   0.000321  -0.000075  -0.000007
    12  H   -0.000191  -0.000095  -0.000054  -0.000215  -0.000196   0.000486
    13  H    0.596696  -0.029734  -0.030660   0.002304   0.001496  -0.000004
    14  H   -0.029734   0.587887  -0.033488   0.001956  -0.000035  -0.000003
    15  H   -0.030660  -0.033488   0.588324  -0.000097   0.002038   0.000004
    16  H    0.002304   0.001956  -0.000097   0.625536  -0.001737  -0.004395
    17  H    0.001496  -0.000035   0.002038  -0.001737   0.607709  -0.000475
    18  H   -0.000004  -0.000003   0.000004  -0.004395  -0.000475   0.663252
    19  H    0.000000   0.000000   0.000000  -0.000119   0.000007  -0.001823
              19
     1  C   -0.000220
     2  C    0.000207
     3  C    0.000010
     4  C    0.007607
     5  C    0.000163
     6  C   -0.000336
     7  O    0.001892
     8  C   -0.063721
     9  O    0.310888
    10  H   -0.000002
    11  H    0.000006
    12  H    0.000558
    13  H    0.000000
    14  H    0.000000
    15  H    0.000000
    16  H   -0.000119
    17  H    0.000007
    18  H   -0.001823
    19  H    0.449129
 Mulliken charges:
               1
     1  C   -0.450996
     2  C    0.309956
     3  C   -0.452452
     4  C   -0.111479
     5  C   -0.228425
     6  C    0.360495
     7  O   -0.327536
     8  C   -0.015544
     9  O   -0.425877
    10  H    0.115258
    11  H    0.118438
    12  H    0.140323
    13  H    0.116827
    14  H    0.125319
    15  H    0.124920
    16  H    0.098186
    17  H    0.107740
    18  H    0.099094
    19  H    0.295755
 Sum of Mulliken charges =   0.00000
 Mulliken charges with hydrogens summed into heavy atoms:
               1
     1  C   -0.076977
     2  C    0.309956
     3  C   -0.085386
     4  C   -0.013293
     5  C   -0.120685
     6  C    0.360495
     7  O   -0.327536
     8  C    0.083549
     9  O   -0.130123
 Electronic spatial extent (au):  <R**2>=           1124.9083
 Charge=              0.0000 electrons
 Dipole moment (field-independent basis, Debye):
    X=              1.5972    Y=              0.6339    Z=             -1.4073  Tot=              2.2211
 Quadrupole moment (field-independent basis, Debye-Ang):
   XX=            -51.2696   YY=            -57.8457   ZZ=            -52.1571
   XY=             -5.3020   XZ=              1.8949   YZ=              2.8822
 Traceless Quadrupole moment (field-independent basis, Debye-Ang):
   XX=              2.4878   YY=             -4.0882   ZZ=              1.6004
   XY=             -5.3020   XZ=              1.8949   YZ=              2.8822
 Octapole moment (field-independent basis, Debye-Ang**2):
  XXX=            -18.0286  YYY=             -0.9864  ZZZ=             -0.8278  XYY=              3.7867
  XXY=             17.8450  XXZ=             -2.7727  XZZ=             -3.1279  YZZ=              2.5335
  YYZ=             -1.0760  XYZ=             -5.8867
 Hexadecapole moment (field-independent basis, Debye-Ang**3):
 XXXX=           -778.5845 YYYY=           -364.7360 ZZZZ=           -266.4625 XXXY=            -47.1876
 XXXZ=              4.0872 YYYX=            -10.9398 YYYZ=              8.3649 ZZZX=             -4.7034
 ZZZY=             -7.1949 XXYY=           -191.6284 XXZZ=           -177.0251 YYZZ=           -106.4691
 XXYZ=             11.3531 YYXZ=             -0.2187 ZZXY=             -5.5367
 N-N= 4.623783426177D+02 E-N=-1.911345877682D+03  KE= 4.200514299334D+02
 Calling FoFJK, ICntrl=      2127 FMM=F ISym2X=0 I1Cent= 0 IOpClX= 0 NMat=1 NMatS=1 NMatT=0.
 ***** Axes restored to original set *****
 -------------------------------------------------------------------
 Center     Atomic                   Forces (Hartrees/Bohr)
 Number     Number              X              Y              Z
 -------------------------------------------------------------------
      1        6           0.000006888    0.000012074   -0.000011828
      2        6          -0.000033594   -0.000005423    0.000004611
      3        6           0.000012537   -0.000003126    0.000004600
      4        6           0.000023457   -0.000074726   -0.000012850
      5        6           0.000020497    0.000063594    0.000010988
      6        6           0.000011222   -0.000006094   -0.000000222
      7        8           0.000000864    0.000003213   -0.000003571
      8        6          -0.000005934    0.000026946   -0.000004375
      9        8           0.000000069    0.000007237   -0.000002196
     10        1          -0.000000657   -0.000001161    0.000001477
     11        1          -0.000000806   -0.000004708    0.000000918
     12        1          -0.000004154   -0.000003450   -0.000000214
     13        1           0.000000546   -0.000000895    0.000002081
     14        1           0.000003453   -0.000007782   -0.000000847
     15        1           0.000005759   -0.000001831    0.000005538
     16        1          -0.000001809    0.000013756    0.000008464
     17        1          -0.000015401   -0.000006840   -0.000003235
     18        1          -0.000008292   -0.000001979   -0.000001724
     19        1          -0.000014645   -0.000008806    0.000002382
 -------------------------------------------------------------------
 Cartesian Forces:  Max     0.000074726 RMS     0.000016083

 GradGradGradGradGradGradGradGradGradGradGradGradGradGradGradGradGradGrad
 Berny optimization.
 FormGI is forming the generalized inverse of G from B-inverse, IUseBI=4.
 Internal  Forces:  Max     0.000021754 RMS     0.000005542
 Search for a local minimum.
 Step number   1 out of a maximum of  114
 All quantities printed in internal units (Hartrees-Bohrs-Radians)
 Mixed Optimization -- En-DIIS/RFO-DIIS
 Second derivative matrix not updated -- first step.
 ITU=  0
     Eigenvalues ---    0.00464   0.00501   0.00561   0.00862   0.01605
     Eigenvalues ---    0.01859   0.01975   0.02047   0.04155   0.04496
     Eigenvalues ---    0.05192   0.05453   0.05498   0.05685   0.05756
     Eigenvalues ---    0.05790   0.07351   0.08222   0.09242   0.09797
     Eigenvalues ---    0.12711   0.16000   0.16000   0.16000   0.16000
     Eigenvalues ---    0.16000   0.16000   0.16000   0.16349   0.18452
     Eigenvalues ---    0.21470   0.23719   0.24386   0.25882   0.28213
     Eigenvalues ---    0.29584   0.30096   0.30362   0.31827   0.33305
     Eigenvalues ---    0.34140   0.34160   0.34183   0.34229   0.34349
     Eigenvalues ---    0.34906   0.35614   0.35621   0.44545   0.54627
     Eigenvalues ---    1.04676
 RFO step:  Lambda=-3.70357364D-08 EMin= 4.63962704D-03
 Linear search not attempted -- first point.
 Iteration  1 RMS(Cart)=  0.00017562 RMS(Int)=  0.00000004
 Iteration  2 RMS(Cart)=  0.00000004 RMS(Int)=  0.00000000
 Variable       Old X    -DE/DX   Delta X   Delta X   Delta X     New X
                                 (Linear)    (Quad)   (Total)
    R1        2.87248   0.00001   0.00000   0.00004   0.00004   2.87252
    R2        2.07061   0.00000   0.00000   0.00000   0.00000   2.07060
    R3        2.07095   0.00000   0.00000   0.00000   0.00000   2.07095
    R4        2.05828   0.00000   0.00000  -0.00001  -0.00001   2.05827
    R5        2.87773   0.00000   0.00000  -0.00002  -0.00002   2.87771
    R6        2.82523  -0.00001   0.00000  -0.00005  -0.00005   2.82518
    R7        2.90205   0.00001   0.00000   0.00008   0.00008   2.90213
    R8        2.06745   0.00000   0.00000   0.00000   0.00000   2.06745
    R9        2.07023   0.00000   0.00000   0.00000   0.00000   2.07023
   R10        2.06946   0.00000   0.00000  -0.00001  -0.00001   2.06945
   R11        2.95797  -0.00002   0.00000  -0.00014  -0.00014   2.95783
   R12        2.88335   0.00001   0.00000   0.00004   0.00004   2.88339
   R13        2.04678   0.00001   0.00000   0.00002   0.00002   2.04680
   R14        2.82605   0.00000   0.00000  -0.00002  -0.00002   2.82602
   R15        2.04689   0.00000   0.00000   0.00001   0.00001   2.04690
   R16        2.26823   0.00000   0.00000   0.00000   0.00000   2.26823
   R17        2.94671   0.00001   0.00000   0.00004   0.00004   2.94675
   R18        2.65807  -0.00001   0.00000  -0.00002  -0.00002   2.65806
   R19        2.08520   0.00000   0.00000  -0.00001  -0.00001   2.08519
   R20        1.82165  -0.00001   0.00000  -0.00002  -0.00002   1.82163
    A1        1.92159   0.00000   0.00000  -0.00002  -0.00002   1.92157
    A2        1.91840   0.00000   0.00000   0.00000   0.00000   1.91841
    A3        1.96834   0.00000   0.00000   0.00001   0.00001   1.96835
    A4        1.88047   0.00000   0.00000  -0.00001  -0.00001   1.88046
    A5        1.89807   0.00000   0.00000   0.00001   0.00001   1.89808
    A6        1.87436   0.00000   0.00000   0.00002   0.00002   1.87437
    A7        1.96875   0.00000   0.00000   0.00002   0.00002   1.96877
    A8        2.16338   0.00001   0.00000   0.00001   0.00001   2.16338
    A9        2.12755   0.00000   0.00000  -0.00001  -0.00001   2.12753
   A10        1.99258   0.00000   0.00000   0.00003   0.00003   1.99261
   A11        1.96870   0.00000   0.00000  -0.00001  -0.00001   1.96869
   A12        1.95354   0.00000   0.00000   0.00001   0.00001   1.95355
   A13        1.92378   0.00000   0.00000   0.00000   0.00000   1.92378
   A14        1.93344   0.00000   0.00000   0.00000   0.00000   1.93343
   A15        1.88611   0.00000   0.00000  -0.00001  -0.00001   1.88611
   A16        1.88526   0.00000   0.00000   0.00001   0.00001   1.88526
   A17        1.87935   0.00000   0.00000  -0.00001  -0.00001   1.87934
   A18        1.98916   0.00001   0.00000   0.00005   0.00005   1.98921
   A19        2.11877   0.00000   0.00000   0.00007   0.00007   2.11884
   A20        1.57999   0.00000   0.00000  -0.00001  -0.00001   1.57997
   A21        2.19753   0.00000   0.00000   0.00003   0.00003   2.19756
   A22        2.15411  -0.00001   0.00000  -0.00013  -0.00013   2.15398
   A23        1.91522   0.00001   0.00000   0.00003   0.00003   1.91524
   A24        2.11088  -0.00001   0.00000  -0.00014  -0.00014   2.11074
   A25        1.55551   0.00001   0.00000   0.00007   0.00007   1.55558
   A26        2.27224  -0.00001   0.00000  -0.00008  -0.00008   2.27216
   A27        2.21510   0.00000   0.00000   0.00010   0.00010   2.21520
   A28        2.36072   0.00000   0.00000   0.00001   0.00001   2.36073
   A29        1.60385  -0.00001   0.00000  -0.00005  -0.00005   1.60380
   A30        2.31206   0.00001   0.00000   0.00004   0.00004   2.31211
   A31        1.54040   0.00000   0.00000  -0.00001  -0.00001   1.54039
   A32        2.04898   0.00000   0.00000   0.00004   0.00004   2.04902
   A33        1.90915   0.00000   0.00000  -0.00006  -0.00006   1.90908
   A34        2.12493   0.00000   0.00000   0.00000   0.00000   2.12493
   A35        1.85480   0.00000   0.00000   0.00001   0.00001   1.85482
   A36        1.94336   0.00000   0.00000   0.00001   0.00001   1.94337
   A37        1.87652  -0.00001   0.00000  -0.00009  -0.00009   1.87643
    D1       -1.07228   0.00000   0.00000   0.00011   0.00011  -1.07216
    D2        2.68145   0.00000   0.00000   0.00001   0.00001   2.68146
    D3        1.35688   0.00000   0.00000   0.00010   0.00010   1.35698
    D4        0.99660   0.00000   0.00000   0.00009   0.00009   0.99669
    D5       -1.53286   0.00000   0.00000  -0.00001  -0.00001  -1.53287
    D6       -2.85743   0.00000   0.00000   0.00008   0.00008  -2.85735
    D7        3.08750   0.00000   0.00000   0.00012   0.00012   3.08761
    D8        0.55804   0.00000   0.00000   0.00001   0.00001   0.55805
    D9       -0.76654   0.00000   0.00000   0.00010   0.00010  -0.76643
   D10        3.12790   0.00000   0.00000   0.00049   0.00049   3.12839
   D11       -1.05557   0.00000   0.00000   0.00049   0.00049  -1.05509
   D12        1.02265   0.00000   0.00000   0.00047   0.00047   1.02312
   D13       -0.56339   0.00001   0.00000   0.00057   0.00057  -0.56282
   D14        1.53632   0.00001   0.00000   0.00057   0.00057   1.53689
   D15       -2.66865   0.00001   0.00000   0.00056   0.00056  -2.66809
   D16        0.63230   0.00000   0.00000   0.00050   0.00050   0.63280
   D17        2.73201   0.00000   0.00000   0.00050   0.00050   2.73251
   D18       -1.47295   0.00000   0.00000   0.00049   0.00049  -1.47247
   D19       -0.61922   0.00000   0.00000   0.00004   0.00004  -0.61918
   D20        2.30996   0.00000   0.00000   0.00001   0.00001   2.30996
   D21       -3.14135   0.00000   0.00000  -0.00006  -0.00006  -3.14141
   D22       -0.21218  -0.00001   0.00000  -0.00009  -0.00009  -0.21227
   D23        0.67743   0.00000   0.00000  -0.00009  -0.00009   0.67734
   D24       -2.17711   0.00000   0.00000  -0.00006  -0.00006  -2.17717
   D25        3.10660   0.00000   0.00000  -0.00009  -0.00009   3.10651
   D26        0.25206   0.00000   0.00000  -0.00007  -0.00007   0.25200
   D27       -0.05948   0.00000   0.00000  -0.00007  -0.00007  -0.05955
   D28        2.39557   0.00000   0.00000   0.00010   0.00010   2.39567
   D29       -2.38724   0.00001   0.00000   0.00010   0.00010  -2.38714
   D30        0.06782   0.00002   0.00000   0.00027   0.00027   0.06809
   D31       -0.94326   0.00000   0.00000   0.00001   0.00001  -0.94325
   D32        1.24283   0.00000   0.00000   0.00002   0.00002   1.24285
   D33       -2.80461   0.00000   0.00000   0.00001   0.00001  -2.80461
   D34        0.05706   0.00000   0.00000   0.00007   0.00007   0.05713
   D35        2.24316   0.00000   0.00000   0.00008   0.00008   2.24324
   D36       -1.80429   0.00000   0.00000   0.00006   0.00006  -1.80423
   D37        2.41565   0.00000   0.00000   0.00001   0.00001   2.41566
   D38       -1.68145   0.00000   0.00000   0.00003   0.00003  -1.68142
   D39        0.55429   0.00000   0.00000   0.00001   0.00001   0.55430
   D40       -2.24132   0.00000   0.00000   0.00009   0.00009  -2.24122
   D41        1.01739   0.00000   0.00000   0.00009   0.00009   1.01748
   D42        3.08271   0.00000   0.00000   0.00007   0.00007   3.08279
   D43        0.05823   0.00000   0.00000   0.00007   0.00007   0.05830
   D44        0.59168   0.00000   0.00000   0.00002   0.00002   0.59170
   D45       -2.43279   0.00000   0.00000   0.00001   0.00001  -2.43278
   D46       -0.05976   0.00000   0.00000  -0.00007  -0.00007  -0.05983
   D47       -2.18044   0.00000   0.00000  -0.00010  -0.00010  -2.18054
   D48        1.85484  -0.00001   0.00000  -0.00014  -0.00014   1.85470
   D49       -3.08962   0.00000   0.00000  -0.00007  -0.00007  -3.08969
   D50        1.07289   0.00000   0.00000  -0.00011  -0.00011   1.07279
   D51       -1.17502   0.00000   0.00000  -0.00014  -0.00014  -1.17516
   D52       -2.95151   0.00000   0.00000   0.00000   0.00000  -2.95151
   D53       -1.09642   0.00000   0.00000   0.00002   0.00002  -1.09640
   D54        1.11241   0.00000   0.00000   0.00005   0.00005   1.11246
         Item               Value     Threshold  Converged?
 Maximum Force            0.000022     0.000450     YES
 RMS     Force            0.000006     0.000300     YES
 Maximum Displacement     0.000907     0.001800     YES
 RMS     Displacement     0.000176     0.001200     YES
 Predicted change in Energy=-1.851780D-08
 Optimization completed.
    -- Stationary point found.
                           ----------------------------
                           !   Optimized Parameters   !
                           ! (Angstroms and Degrees)  !
 --------------------------                            --------------------------
 ! Name  Definition              Value          Derivative Info.                !
 --------------------------------------------------------------------------------
 ! R1    R(1,2)                  1.5201         -DE/DX =    0.0                 !
 ! R2    R(1,10)                 1.0957         -DE/DX =    0.0                 !
 ! R3    R(1,11)                 1.0959         -DE/DX =    0.0                 !
 ! R4    R(1,12)                 1.0892         -DE/DX =    0.0                 !
 ! R5    R(2,3)                  1.5228         -DE/DX =    0.0                 !
 ! R6    R(2,4)                  1.495          -DE/DX =    0.0                 !
 ! R7    R(2,5)                  1.5357         -DE/DX =    0.0                 !
 ! R8    R(3,13)                 1.094          -DE/DX =    0.0                 !
 ! R9    R(3,14)                 1.0955         -DE/DX =    0.0                 !
 ! R10   R(3,15)                 1.0951         -DE/DX =    0.0                 !
 ! R11   R(4,5)                  1.5653         -DE/DX =    0.0                 !
 ! R12   R(4,8)                  1.5258         -DE/DX =    0.0                 !
 ! R13   R(4,16)                 1.0831         -DE/DX =    0.0                 !
 ! R14   R(5,6)                  1.4955         -DE/DX =    0.0                 !
 ! R15   R(5,17)                 1.0832         -DE/DX =    0.0                 !
 ! R16   R(6,7)                  1.2003         -DE/DX =    0.0                 !
 ! R17   R(6,8)                  1.5593         -DE/DX =    0.0                 !
 ! R18   R(8,9)                  1.4066         -DE/DX =    0.0                 !
 ! R19   R(8,18)                 1.1034         -DE/DX =    0.0                 !
 ! R20   R(9,19)                 0.964          -DE/DX =    0.0                 !
 ! A1    A(2,1,10)             110.0991         -DE/DX =    0.0                 !
 ! A2    A(2,1,11)             109.9165         -DE/DX =    0.0                 !
 ! A3    A(2,1,12)             112.7776         -DE/DX =    0.0                 !
 ! A4    A(10,1,11)            107.7431         -DE/DX =    0.0                 !
 ! A5    A(10,1,12)            108.7514         -DE/DX =    0.0                 !
 ! A6    A(11,1,12)            107.3927         -DE/DX =    0.0                 !
 ! A7    A(1,2,3)              112.8013         -DE/DX =    0.0                 !
 ! A8    A(1,2,4)              123.9525         -DE/DX =    0.0                 !
 ! A9    A(1,2,5)              121.8994         -DE/DX =    0.0                 !
 ! A10   A(3,2,4)              114.1666         -DE/DX =    0.0                 !
 ! A11   A(3,2,5)              112.7983         -DE/DX =    0.0                 !
 ! A12   A(2,3,13)             111.9295         -DE/DX =    0.0                 !
 ! A13   A(2,3,14)             110.2244         -DE/DX =    0.0                 !
 ! A14   A(2,3,15)             110.7778         -DE/DX =    0.0                 !
 ! A15   A(13,3,14)            108.0664         -DE/DX =    0.0                 !
 ! A16   A(13,3,15)            108.0172         -DE/DX =    0.0                 !
 ! A17   A(14,3,15)            107.6786         -DE/DX =    0.0                 !
 ! A18   A(2,4,8)              113.9702         -DE/DX =    0.0                 !
 ! A19   A(2,4,16)             121.3967         -DE/DX =    0.0                 !
 ! A20   A(5,4,8)               90.5266         -DE/DX =    0.0                 !
 ! A21   A(5,4,16)             125.9092         -DE/DX =    0.0                 !
 ! A22   A(8,4,16)             123.4211         -DE/DX =    0.0                 !
 ! A23   A(2,5,6)              109.7338         -DE/DX =    0.0                 !
 ! A24   A(2,5,17)             120.9444         -DE/DX =    0.0                 !
 ! A25   A(4,5,6)               89.1239         -DE/DX =    0.0                 !
 ! A26   A(4,5,17)             130.1895         -DE/DX =    0.0                 !
 ! A27   A(6,5,17)             126.916          -DE/DX =    0.0                 !
 ! A28   A(5,6,7)              135.2592         -DE/DX =    0.0                 !
 ! A29   A(5,6,8)               91.8938         -DE/DX =    0.0                 !
 ! A30   A(7,6,8)              132.4715         -DE/DX =    0.0                 !
 ! A31   A(4,8,6)               88.2587         -DE/DX =    0.0                 !
 ! A32   A(4,8,9)              117.398          -DE/DX =    0.0                 !
 ! A33   A(4,8,18)             109.386          -DE/DX =    0.0                 !
 ! A34   A(6,8,9)              121.7493         -DE/DX =    0.0                 !
 ! A35   A(6,8,18)             106.2724         -DE/DX =    0.0                 !
 ! A36   A(9,8,18)             111.3462         -DE/DX =    0.0                 !
 ! A37   A(8,9,19)             107.5164         -DE/DX =    0.0                 !
 ! D1    D(10,1,2,3)           -61.4369         -DE/DX =    0.0                 !
 ! D2    D(10,1,2,4)           153.6358         -DE/DX =    0.0                 !
 ! D3    D(10,1,2,5)            77.7434         -DE/DX =    0.0                 !
 ! D4    D(11,1,2,3)            57.101          -DE/DX =    0.0                 !
 ! D5    D(11,1,2,4)           -87.8263         -DE/DX =    0.0                 !
 ! D6    D(11,1,2,5)          -163.7186         -DE/DX =    0.0                 !
 ! D7    D(12,1,2,3)           176.9004         -DE/DX =    0.0                 !
 ! D8    D(12,1,2,4)            31.9731         -DE/DX =    0.0                 !
 ! D9    D(12,1,2,5)           -43.9193         -DE/DX =    0.0                 !
 ! D10   D(1,2,3,13)           179.2155         -DE/DX =    0.0                 !
 ! D11   D(1,2,3,14)           -60.4799         -DE/DX =    0.0                 !
 ! D12   D(1,2,3,15)            58.5933         -DE/DX =    0.0                 !
 ! D13   D(4,2,3,13)           -32.2799         -DE/DX =    0.0                 !
 ! D14   D(4,2,3,14)            88.0247         -DE/DX =    0.0                 !
 ! D15   D(4,2,3,15)          -152.9021         -DE/DX =    0.0                 !
 ! D16   D(5,2,3,13)            36.2282         -DE/DX =    0.0                 !
 ! D17   D(5,2,3,14)           156.5327         -DE/DX =    0.0                 !
 ! D18   D(5,2,3,15)           -84.3941         -DE/DX =    0.0                 !
 ! D19   D(1,2,4,8)            -35.4786         -DE/DX =    0.0                 !
 ! D20   D(1,2,4,16)           132.3508         -DE/DX =    0.0                 !
 ! D21   D(3,2,4,8)           -179.9861         -DE/DX =    0.0                 !
 ! D22   D(3,2,4,16)           -12.1568         -DE/DX =    0.0                 !
 ! D23   D(1,2,5,6)             38.8139         -DE/DX =    0.0                 !
 ! D24   D(1,2,5,17)          -124.7392         -DE/DX =    0.0                 !
 ! D25   D(3,2,5,6)            177.9953         -DE/DX =    0.0                 !
 ! D26   D(3,2,5,17)            14.4421         -DE/DX =    0.0                 !
 ! D27   D(8,4,5,6)             -3.4082         -DE/DX =    0.0                 !
 ! D28   D(8,4,5,17)           137.2561         -DE/DX =    0.0                 !
 ! D29   D(16,4,5,6)          -136.7788         -DE/DX =    0.0                 !
 ! D30   D(16,4,5,17)            3.8855         -DE/DX =    0.0                 !
 ! D31   D(2,4,8,6)            -54.0448         -DE/DX =    0.0                 !
 ! D32   D(2,4,8,9)             71.2091         -DE/DX =    0.0                 !
 ! D33   D(2,4,8,18)          -160.6924         -DE/DX =    0.0                 !
 ! D34   D(5,4,8,6)              3.2696         -DE/DX =    0.0                 !
 ! D35   D(5,4,8,9)            128.5235         -DE/DX =    0.0                 !
 ! D36   D(5,4,8,18)          -103.378          -DE/DX =    0.0                 !
 ! D37   D(16,4,8,6)           138.4063         -DE/DX =    0.0                 !
 ! D38   D(16,4,8,9)           -96.3398         -DE/DX =    0.0                 !
 ! D39   D(16,4,8,18)           31.7587         -DE/DX =    0.0                 !
 ! D40   D(2,5,6,7)           -128.4179         -DE/DX =    0.0                 !
 ! D41   D(2,5,6,8)             58.2922         -DE/DX =    0.0                 !
 ! D42   D(4,5,6,7)            176.6263         -DE/DX =    0.0                 !
 ! D43   D(4,5,6,8)              3.3365         -DE/DX =    0.0                 !
 ! D44   D(17,5,6,7)            33.901          -DE/DX =    0.0                 !
 ! D45   D(17,5,6,8)          -139.3888         -DE/DX =    0.0                 !
 ! D46   D(5,6,8,4)             -3.4241         -DE/DX =    0.0                 !
 ! D47   D(5,6,8,9)           -124.9299         -DE/DX =    0.0                 !
 ! D48   D(5,6,8,18)           106.2742         -DE/DX =    0.0                 !
 ! D49   D(7,6,8,4)           -177.0219         -DE/DX =    0.0                 !
 ! D50   D(7,6,8,9)             61.4722         -DE/DX =    0.0                 !
 ! D51   D(7,6,8,18)           -67.3236         -DE/DX =    0.0                 !
 ! D52   D(4,8,9,19)          -169.1091         -DE/DX =    0.0                 !
 ! D53   D(6,8,9,19)           -62.8203         -DE/DX =    0.0                 !
 ! D54   D(18,8,9,19)           63.7365         -DE/DX =    0.0                 !
 --------------------------------------------------------------------------------
 GradGradGradGradGradGradGradGradGradGradGradGradGradGradGradGradGradGrad

                          Input orientation:                          
 ---------------------------------------------------------------------
 Center     Atomic      Atomic             Coordinates (Angstroms)
 Number     Number       Type             X           Y           Z
 ---------------------------------------------------------------------
      1          6           0       -1.385235   -0.785546   -2.612190
      2          6           0       -1.886090   -1.091566   -1.210031
      3          6           0       -2.917337   -2.211750   -1.183104
      4          6           0       -2.077992   -0.057303   -0.147656
      5          6           0       -0.941336   -1.123259    0.000259
      6          6           0        0.069882   -0.028040   -0.119707
      7          8           0        1.266905    0.037426   -0.060081
      8          6           0       -1.042610    1.063002   -0.178957
      9          8           0       -1.118933    1.985502   -1.238046
     10          1           0       -0.892701   -1.667374   -3.036910
     11          1           0       -2.229261   -0.528840   -3.262358
     12          1           0       -0.688311    0.051104   -2.637791
     13          1           0       -3.257680   -2.429443   -0.166387
     14          1           0       -3.791928   -1.935851   -1.782378
     15          1           0       -2.501746   -3.132627   -1.605641
     16          1           0       -2.987459   -0.012883    0.438880
     17          1           0       -0.881307   -1.997280    0.637236
     18          1           0       -1.026578    1.574338    0.798720
     19          1           0       -0.313807    2.515306   -1.219927
 ---------------------------------------------------------------------
                    Distance matrix (angstroms):
                    1          2          3          4          5
     1  C    0.000000
     2  C    1.520050   0.000000
     3  C    2.534498   1.522829   0.000000
     4  C    2.661612   1.495047   2.533436   0.000000
     5  C    2.671327   1.535698   2.547497   1.565288   0.000000
     6  C    2.983900   2.479057   3.850050   2.148255   1.495480
     7  O    3.771524   3.540958   4.881378   3.347383   2.495427
     8  C    3.074922   2.533127   3.904730   1.525804   2.195931
     9  O    3.104497   3.171382   4.566640   2.506351   3.351020
    10  H    1.095717   2.157745   2.798587   3.513550   3.085907
    11  H    1.095900   2.155568   2.762053   3.153823   3.557634
    12  H    1.089194   2.186062   3.493591   2.853724   2.898700
    13  H    3.491475   2.181827   1.094046   2.649351   2.664458
    14  H    2.793557   2.161623   1.095518   3.023051   3.458898
    15  H    2.787207   2.168287   1.095110   3.429709   3.008547
    16  H    3.531736   2.257316   2.733270   1.083110   2.368954
    17  H    3.504427   2.289608   2.739536   2.410730   1.083169
    18  H    4.163171   3.446866   4.673014   2.159479   2.814575
    19  H    3.739249   3.934679   5.396739   3.298550   3.888676
                    6          7          8          9         10
     6  C    0.000000
     7  O    1.200293   0.000000
     8  C    1.559333   2.529782   0.000000
     9  O    2.591972   3.297701   1.406592   0.000000
    10  H    3.481962   4.053610   3.955416   4.078063   0.000000
    11  H    3.925955   4.774768   3.667351   3.413588   1.770163
    12  H    2.630945   3.235374   2.682411   2.426236   1.776017
    13  H    4.103851   5.154475   4.135682   5.021397   3.796548
    14  H    4.617121   5.696659   4.372966   4.776841   3.170402
    15  H    4.296479   5.161464   4.665598   5.314371   2.604711
    16  H    3.107987   4.283819   2.306879   3.208895   4.382518
    17  H    2.314223   3.039916   3.171358   4.408594   3.688945
    18  H    2.147871   2.891315   1.103438   2.079904   5.023811
    19  H    2.797554   3.159713   1.929756   0.963976   4.596886
                   11         12         13         14         15
    11  H    0.000000
    12  H    1.760951   0.000000
    13  H    3.775576   4.343111   0.000000
    14  H    2.571371   3.783142   1.772141   0.000000
    15  H    3.098171   3.806576   1.771258   1.768638   0.000000
    16  H    3.813167   3.841365   2.505819   3.046139   3.761487
    17  H    4.379513   3.867677   2.545531   3.785502   2.990875
    18  H    4.728865   3.774159   4.683963   5.160490   5.487494
    19  H    4.136100   2.867558   5.850374   5.676837   6.069184
                   16         17         18         19
    16  H    0.000000
    17  H    2.900527   0.000000
    18  H    2.548295   3.578217   0.000000
    19  H    4.036309   4.912692   2.338461   0.000000
 Stoichiometry    C7H10O2
 Framework group  C1[X(C7H10O2)]
 Deg. of freedom    51
 Full point group                 C1      NOp   1
 Largest Abelian subgroup         C1      NOp   1
 Largest concise Abelian subgroup C1      NOp   1
                         Standard orientation:                         
 ---------------------------------------------------------------------
 Center     Atomic      Atomic             Coordinates (Angstroms)
 Number     Number       Type             X           Y           Z
 ---------------------------------------------------------------------
      1          6           0        1.016358    0.723433    1.429392
      2          6           0        1.184372    0.028631    0.087910
      3          6           0        2.644374   -0.201565   -0.278714
      4          6           0        0.286307    0.251850   -1.086321
      5          6           0        0.272180   -1.127733   -0.346944
      6          6           0       -1.132177   -0.854164    0.088258
      7          8           0       -1.969570   -1.461217    0.697325
      8          6           0       -1.175289    0.482326   -0.713899
      9          8           0       -1.501550    1.704521   -0.098843
     10          1           0        1.440650    0.105999    2.228984
     11          1           0        1.553054    1.678909    1.424746
     12          1           0       -0.025190    0.936199    1.666564
     13          1           0        2.748423   -0.714367   -1.239518
     14          1           0        3.173550    0.755357   -0.345281
     15          1           0        3.145760   -0.806491    0.484139
     16          1           0        0.686497    0.438453   -2.075338
     17          1           0        0.687155   -2.083555   -0.642673
     18          1           0       -1.811953    0.293601   -1.595157
     19          1           0       -2.405734    1.632792    0.227586
 ---------------------------------------------------------------------
 Rotational constants (GHZ):      2.5019795      1.4001662      1.2178622
 1\1\GINC-ALCHEMY-KR\FOpt\RB3LYP\6-31G(2df,p)\C7H10O2\PUCK\27-Jan-2020\
 0\\# b3lyp 6-31G(2df,p) opt Freq\\titel\\0,1\C,-1.3852351969,-0.785546
 4484,-2.6121898019\C,-1.8860904533,-1.0915655507,-1.2100311985\C,-2.91
 73372191,-2.2117500866,-1.1831041173\C,-2.0779917816,-0.0573029453,-0.
 1476558696\C,-0.9413358767,-1.1232588472,0.0002592183\C,0.0698824704,-
 0.0280395557,-0.1197065486\O,1.2669048218,0.0374255162,-0.060080854\C,
 -1.0426096992,1.0630018977,-0.1789571761\O,-1.1189334668,1.985502333,-
 1.238045889\H,-0.8927012898,-1.6673738964,-3.0369098806\H,-2.229260837
 7,-0.5288399909,-3.2623584989\H,-0.6883105089,0.0511035673,-2.63779120
 99\H,-3.2576801668,-2.4294427787,-0.1663869366\H,-3.791928257,-1.93585
 05916,-1.7823782478\H,-2.5017459849,-3.1326265001,-1.6056409785\H,-2.9
 874590875,-0.0128825696,0.4388797233\H,-0.8813065993,-1.9972798609,0.6
 37235819\H,-1.0265784563,1.5743377849,0.7987203981\H,-0.3138067802,2.5
 153063331,-1.2199265015\\Version=ES64L-G09RevD.01\State=1-A\HF=-423.17
 39273\RMSD=3.732e-09\RMSF=1.608e-05\Dipole=-0.8457688,-0.1669239,0.142
 88\Quadrupole=-4.5658286,3.2215721,1.3442564,2.6766171,-2.194345,0.810
 8305\PG=C01 [X(C7H10O2)]\\@


 ERWIN WITH HIS PSI CAN DO
 CALCULATIONS QUITE A FEW.
 BUT ONE THING HAS NOT BEEN SEEN
 JUST WHAT DOES PSI REALLY MEAN.
 -- WALTER HUCKEL, TRANS. BY FELIX BLOCH
 Job cpu time:       0 days  0 hours 20 minutes 18.4 seconds.
 File lengths (MBytes):  RWF=     52 Int=      0 D2E=      0 Chk=      7 Scr=      1
 Normal termination of Gaussian 09 at Mon Jan 27 22:15:03 2020.
 Link1:  Proceeding to internal job step number  2.
 ----------------------------------------------------------------------
 #N Geom=AllCheck Guess=TCheck SCRF=Check GenChk RB3LYP/6-31G(2df,p) Fr
 eq
 ----------------------------------------------------------------------
 1/10=4,29=7,30=1,38=1,40=1/1,3;
 2/12=2,40=1/2;
 3/5=1,6=6,7=104,11=2,14=-4,16=1,25=1,30=1,70=2,71=2,74=-5,116=1,140=1/1,2,3;
 4/5=101/1;
 5/5=2,98=1/2;
 8/6=4,10=90,11=11/1;
 11/6=1,8=1,9=11,15=111,16=1/1,2,10;
 10/6=1/2;
 6/7=2,8=2,9=2,10=2,18=1,28=1/1;
 7/8=1,10=1,25=1/1,2,3,16;
 1/10=4,30=1/3;
 99//99;
 Structure from the checkpoint file:  "/scratch/puck/g09_c681c3f1-7d5e-4089-a428-57ab16bf95c9/Gau-28619.chk"
 -----
 titel
 -----
 Charge =  0 Multiplicity = 1
 Redundant internal coordinates found in file.
 C,0,-1.3852351969,-0.7855464484,-2.6121898019
 C,0,-1.8860904533,-1.0915655507,-1.2100311985
 C,0,-2.9173372191,-2.2117500866,-1.1831041173
 C,0,-2.0779917816,-0.0573029453,-0.1476558696
 C,0,-0.9413358767,-1.1232588472,0.0002592183
 C,0,0.0698824704,-0.0280395557,-0.1197065486
 O,0,1.2669048218,0.0374255162,-0.060080854
 C,0,-1.0426096992,1.0630018977,-0.1789571761
 O,0,-1.1189334668,1.985502333,-1.238045889
 H,0,-0.8927012898,-1.6673738964,-3.0369098806
 H,0,-2.2292608377,-0.5288399909,-3.2623584989
 H,0,-0.6883105089,0.0511035673,-2.6377912099
 H,0,-3.2576801668,-2.4294427787,-0.1663869366
 H,0,-3.791928257,-1.9358505916,-1.7823782478
 H,0,-2.5017459849,-3.1326265001,-1.6056409785
 H,0,-2.9874590875,-0.0128825696,0.4388797233
 H,0,-0.8813065993,-1.9972798609,0.637235819
 H,0,-1.0265784563,1.5743377849,0.7987203981
 H,0,-0.3138067802,2.5153063331,-1.2199265015
 Recover connectivity data from disk.

 GradGradGradGradGradGradGradGradGradGradGradGradGradGradGradGradGradGrad
 Berny optimization.
 Initialization pass.
                           ----------------------------
                           !    Initial Parameters    !
                           ! (Angstroms and Degrees)  !
 --------------------------                            --------------------------
 ! Name  Definition              Value          Derivative Info.                !
 --------------------------------------------------------------------------------
 ! R1    R(1,2)                  1.5201         calculate D2E/DX2 analytically  !
 ! R2    R(1,10)                 1.0957         calculate D2E/DX2 analytically  !
 ! R3    R(1,11)                 1.0959         calculate D2E/DX2 analytically  !
 ! R4    R(1,12)                 1.0892         calculate D2E/DX2 analytically  !
 ! R5    R(2,3)                  1.5228         calculate D2E/DX2 analytically  !
 ! R6    R(2,4)                  1.495          calculate D2E/DX2 analytically  !
 ! R7    R(2,5)                  1.5357         calculate D2E/DX2 analytically  !
 ! R8    R(3,13)                 1.094          calculate D2E/DX2 analytically  !
 ! R9    R(3,14)                 1.0955         calculate D2E/DX2 analytically  !
 ! R10   R(3,15)                 1.0951         calculate D2E/DX2 analytically  !
 ! R11   R(4,5)                  1.5653         calculate D2E/DX2 analytically  !
 ! R12   R(4,8)                  1.5258         calculate D2E/DX2 analytically  !
 ! R13   R(4,16)                 1.0831         calculate D2E/DX2 analytically  !
 ! R14   R(5,6)                  1.4955         calculate D2E/DX2 analytically  !
 ! R15   R(5,17)                 1.0832         calculate D2E/DX2 analytically  !
 ! R16   R(6,7)                  1.2003         calculate D2E/DX2 analytically  !
 ! R17   R(6,8)                  1.5593         calculate D2E/DX2 analytically  !
 ! R18   R(8,9)                  1.4066         calculate D2E/DX2 analytically  !
 ! R19   R(8,18)                 1.1034         calculate D2E/DX2 analytically  !
 ! R20   R(9,19)                 0.964          calculate D2E/DX2 analytically  !
 ! A1    A(2,1,10)             110.0991         calculate D2E/DX2 analytically  !
 ! A2    A(2,1,11)             109.9165         calculate D2E/DX2 analytically  !
 ! A3    A(2,1,12)             112.7776         calculate D2E/DX2 analytically  !
 ! A4    A(10,1,11)            107.7431         calculate D2E/DX2 analytically  !
 ! A5    A(10,1,12)            108.7514         calculate D2E/DX2 analytically  !
 ! A6    A(11,1,12)            107.3927         calculate D2E/DX2 analytically  !
 ! A7    A(1,2,3)              112.8013         calculate D2E/DX2 analytically  !
 ! A8    A(1,2,4)              123.9525         calculate D2E/DX2 analytically  !
 ! A9    A(1,2,5)              121.8994         calculate D2E/DX2 analytically  !
 ! A10   A(3,2,4)              114.1666         calculate D2E/DX2 analytically  !
 ! A11   A(3,2,5)              112.7983         calculate D2E/DX2 analytically  !
 ! A12   A(2,3,13)             111.9295         calculate D2E/DX2 analytically  !
 ! A13   A(2,3,14)             110.2244         calculate D2E/DX2 analytically  !
 ! A14   A(2,3,15)             110.7778         calculate D2E/DX2 analytically  !
 ! A15   A(13,3,14)            108.0664         calculate D2E/DX2 analytically  !
 ! A16   A(13,3,15)            108.0172         calculate D2E/DX2 analytically  !
 ! A17   A(14,3,15)            107.6786         calculate D2E/DX2 analytically  !
 ! A18   A(2,4,8)              113.9702         calculate D2E/DX2 analytically  !
 ! A19   A(2,4,16)             121.3967         calculate D2E/DX2 analytically  !
 ! A20   A(5,4,8)               90.5266         calculate D2E/DX2 analytically  !
 ! A21   A(5,4,16)             125.9092         calculate D2E/DX2 analytically  !
 ! A22   A(8,4,16)             123.4211         calculate D2E/DX2 analytically  !
 ! A23   A(2,5,6)              109.7338         calculate D2E/DX2 analytically  !
 ! A24   A(2,5,17)             120.9444         calculate D2E/DX2 analytically  !
 ! A25   A(4,5,6)               89.1239         calculate D2E/DX2 analytically  !
 ! A26   A(4,5,17)             130.1895         calculate D2E/DX2 analytically  !
 ! A27   A(6,5,17)             126.916          calculate D2E/DX2 analytically  !
 ! A28   A(5,6,7)              135.2592         calculate D2E/DX2 analytically  !
 ! A29   A(5,6,8)               91.8938         calculate D2E/DX2 analytically  !
 ! A30   A(7,6,8)              132.4715         calculate D2E/DX2 analytically  !
 ! A31   A(4,8,6)               88.2587         calculate D2E/DX2 analytically  !
 ! A32   A(4,8,9)              117.398          calculate D2E/DX2 analytically  !
 ! A33   A(4,8,18)             109.386          calculate D2E/DX2 analytically  !
 ! A34   A(6,8,9)              121.7493         calculate D2E/DX2 analytically  !
 ! A35   A(6,8,18)             106.2724         calculate D2E/DX2 analytically  !
 ! A36   A(9,8,18)             111.3462         calculate D2E/DX2 analytically  !
 ! A37   A(8,9,19)             107.5164         calculate D2E/DX2 analytically  !
 ! D1    D(10,1,2,3)           -61.4369         calculate D2E/DX2 analytically  !
 ! D2    D(10,1,2,4)           153.6358         calculate D2E/DX2 analytically  !
 ! D3    D(10,1,2,5)            77.7434         calculate D2E/DX2 analytically  !
 ! D4    D(11,1,2,3)            57.101          calculate D2E/DX2 analytically  !
 ! D5    D(11,1,2,4)           -87.8263         calculate D2E/DX2 analytically  !
 ! D6    D(11,1,2,5)          -163.7186         calculate D2E/DX2 analytically  !
 ! D7    D(12,1,2,3)           176.9004         calculate D2E/DX2 analytically  !
 ! D8    D(12,1,2,4)            31.9731         calculate D2E/DX2 analytically  !
 ! D9    D(12,1,2,5)           -43.9193         calculate D2E/DX2 analytically  !
 ! D10   D(1,2,3,13)           179.2155         calculate D2E/DX2 analytically  !
 ! D11   D(1,2,3,14)           -60.4799         calculate D2E/DX2 analytically  !
 ! D12   D(1,2,3,15)            58.5933         calculate D2E/DX2 analytically  !
 ! D13   D(4,2,3,13)           -32.2799         calculate D2E/DX2 analytically  !
 ! D14   D(4,2,3,14)            88.0247         calculate D2E/DX2 analytically  !
 ! D15   D(4,2,3,15)          -152.9021         calculate D2E/DX2 analytically  !
 ! D16   D(5,2,3,13)            36.2282         calculate D2E/DX2 analytically  !
 ! D17   D(5,2,3,14)           156.5327         calculate D2E/DX2 analytically  !
 ! D18   D(5,2,3,15)           -84.3941         calculate D2E/DX2 analytically  !
 ! D19   D(1,2,4,8)            -35.4786         calculate D2E/DX2 analytically  !
 ! D20   D(1,2,4,16)           132.3508         calculate D2E/DX2 analytically  !
 ! D21   D(3,2,4,8)           -179.9861         calculate D2E/DX2 analytically  !
 ! D22   D(3,2,4,16)           -12.1568         calculate D2E/DX2 analytically  !
 ! D23   D(1,2,5,6)             38.8139         calculate D2E/DX2 analytically  !
 ! D24   D(1,2,5,17)          -124.7392         calculate D2E/DX2 analytically  !
 ! D25   D(3,2,5,6)            177.9953         calculate D2E/DX2 analytically  !
 ! D26   D(3,2,5,17)            14.4421         calculate D2E/DX2 analytically  !
 ! D27   D(8,4,5,6)             -3.4082         calculate D2E/DX2 analytically  !
 ! D28   D(8,4,5,17)           137.2561         calculate D2E/DX2 analytically  !
 ! D29   D(16,4,5,6)          -136.7788         calculate D2E/DX2 analytically  !
 ! D30   D(16,4,5,17)            3.8855         calculate D2E/DX2 analytically  !
 ! D31   D(2,4,8,6)            -54.0448         calculate D2E/DX2 analytically  !
 ! D32   D(2,4,8,9)             71.2091         calculate D2E/DX2 analytically  !
 ! D33   D(2,4,8,18)          -160.6924         calculate D2E/DX2 analytically  !
 ! D34   D(5,4,8,6)              3.2696         calculate D2E/DX2 analytically  !
 ! D35   D(5,4,8,9)            128.5235         calculate D2E/DX2 analytically  !
 ! D36   D(5,4,8,18)          -103.378          calculate D2E/DX2 analytically  !
 ! D37   D(16,4,8,6)           138.4063         calculate D2E/DX2 analytically  !
 ! D38   D(16,4,8,9)           -96.3398         calculate D2E/DX2 analytically  !
 ! D39   D(16,4,8,18)           31.7587         calculate D2E/DX2 analytically  !
 ! D40   D(2,5,6,7)           -128.4179         calculate D2E/DX2 analytically  !
 ! D41   D(2,5,6,8)             58.2922         calculate D2E/DX2 analytically  !
 ! D42   D(4,5,6,7)            176.6263         calculate D2E/DX2 analytically  !
 ! D43   D(4,5,6,8)              3.3365         calculate D2E/DX2 analytically  !
 ! D44   D(17,5,6,7)            33.901          calculate D2E/DX2 analytically  !
 ! D45   D(17,5,6,8)          -139.3888         calculate D2E/DX2 analytically  !
 ! D46   D(5,6,8,4)             -3.4241         calculate D2E/DX2 analytically  !
 ! D47   D(5,6,8,9)           -124.9299         calculate D2E/DX2 analytically  !
 ! D48   D(5,6,8,18)           106.2742         calculate D2E/DX2 analytically  !
 ! D49   D(7,6,8,4)           -177.0219         calculate D2E/DX2 analytically  !
 ! D50   D(7,6,8,9)             61.4722         calculate D2E/DX2 analytically  !
 ! D51   D(7,6,8,18)           -67.3236         calculate D2E/DX2 analytically  !
 ! D52   D(4,8,9,19)          -169.1091         calculate D2E/DX2 analytically  !
 ! D53   D(6,8,9,19)           -62.8203         calculate D2E/DX2 analytically  !
 ! D54   D(18,8,9,19)           63.7365         calculate D2E/DX2 analytically  !
 --------------------------------------------------------------------------------
 Trust Radius=3.00D-01 FncErr=1.00D-07 GrdErr=1.00D-07
 Number of steps in this run=      2 maximum allowed number of steps=      2.
 GradGradGradGradGradGradGradGradGradGradGradGradGradGradGradGradGradGrad

                          Input orientation:                          
 ---------------------------------------------------------------------
 Center     Atomic      Atomic             Coordinates (Angstroms)
 Number     Number       Type             X           Y           Z
 ---------------------------------------------------------------------
      1          6           0       -1.385235   -0.785546   -2.612190
      2          6           0       -1.886090   -1.091566   -1.210031
[...]
 5825395,0.00557844,0.05437912,0.00775032,-0.02155784,-0.01330552,0.610
 82067,-0.00368928,0.00622671,-0.00065421,-0.01433365,-0.12046125,-0.10
 568150,0.00991573,-0.02750009,-0.01116310,0.02531607,0.41163512,0.0097
 3717,-0.02208472,-0.01461287,0.02373110,-0.06890857,-0.14073958,-0.003
 08734,-0.00618421,-0.00086842,-0.19582271,0.09316787,0.37877057,0.0041
 8789,-0.00326287,0.00163855,-0.06348068,-0.03545732,-0.07654222,-0.024
 05775,0.00833927,-0.01422266,-0.09227804,0.06098193,0.03354206,0.36101
 211,0.00485245,-0.00328562,0.00087911,0.00743766,-0.05832327,0.0422249
 4,-0.02367898,0.00709250,-0.01776499,0.04884348,-0.08094026,0.01182203
 ,0.02485031,0.58201497,-0.02257788,0.00555818,-0.01879150,-0.03928571,
 -0.00568191,-0.12222400,-0.00942450,0.00023653,-0.00368670,-0.00785046
 ,0.04410817,-0.02587634,0.06751842,-0.23085483,0.34079604,0.00280777,0
 .00000328,-0.00085484,-0.02448648,0.00773887,-0.00493435,-0.00026775,-
 0.00064545,0.00200397,-0.09503926,0.00481438,-0.00247906,-0.08688950,-
 0.04114809,0.00330510,1.06304368,0.00432463,0.00062248,0.00061946,-0.0
 2190034,0.00934320,-0.00727506,0.00270572,-0.00362691,0.00162726,-0.00
 138806,0.00712253,-0.00743086,-0.06213194,-0.14954299,0.03960909,0.051
 95996,0.39008957,-0.00196264,-0.00225216,-0.00016552,-0.02185132,-0.01
 839852,0.00765147,-0.00441679,0.00403547,-0.00414859,0.01248515,0.0096
 4765,0.00213795,0.00340717,0.01874497,-0.08449295,0.03956397,-0.022875
 53,0.23100385,-0.00098807,-0.00057271,0.00067369,0.00670439,-0.0049341
 4,0.00739759,-0.00093515,0.00134309,-0.00200579,-0.00099107,0.00157549
 ,0.00561159,-0.04351199,-0.02238521,-0.00566136,-0.79609120,-0.0305480
 1,-0.04074734,0.87583531,-0.00075689,-0.00022575,-0.00000839,0.0019394
 5,-0.00296290,0.00224907,-0.00110536,0.00145440,-0.00079557,0.00085108
 ,-0.00181998,0.00065327,-0.02596446,0.01418944,-0.00772258,-0.03286534
 ,-0.10599791,0.00290439,0.04318083,0.06961069,-0.00009591,0.00059869,-
 0.00024986,0.00321502,0.00213282,-0.00369930,0.00102516,-0.00092191,0.
 00077352,-0.00338241,-0.00545210,0.00528740,-0.00385728,0.00045730,0.0
 2144832,-0.03613056,0.00940721,-0.06480961,0.04040687,-0.00158771,0.02
 542638,0.00008501,0.00205803,-0.00008262,0.00326142,-0.00852115,-0.003
 56629,0.00004935,0.00024637,0.00054911,-0.12439950,-0.06678127,0.00794
 739,0.00087510,-0.00083994,0.00151953,-0.08788915,0.05079026,-0.005582
 73,-0.03320398,0.01539635,0.00237389,0.39307897,0.00046852,0.00133454,
 -0.00079512,-0.00306077,-0.01679037,-0.00276993,0.00109546,-0.00075517
 ,0.00009129,-0.06186998,-0.11527802,-0.01362904,0.01072988,-0.06994563
 ,0.01088898,0.01929540,-0.10479768,-0.00030521,0.00438921,0.01754257,-
 0.00327621,0.04052969,0.54616036,-0.00290991,0.00044745,0.00144537,-0.
 01813104,-0.02017416,0.00339140,0.00518074,-0.00474307,-0.00311566,0.0
 0816068,-0.01522812,-0.07736920,0.00359238,0.02960449,0.02359591,-0.00
 109068,-0.01205393,-0.08190315,0.00244665,0.00484472,0.01576581,0.0085
 9227,0.01681407,0.50941881,0.00000103,-0.00084954,0.00004946,0.0011397
 2,0.00510576,0.00035562,0.00024457,-0.00004287,0.00030621,0.00552271,-
 0.01047380,0.01993040,0.00154685,0.00071921,0.00318154,0.00809453,0.00
 062854,-0.02138788,-0.00021980,0.00080872,0.00303222,-0.09273969,-0.01
 766446,-0.00944598,0.43435956,0.00154371,-0.00207929,-0.00204517,0.001
 75613,0.00162034,0.00156410,-0.00030739,0.00058901,-0.00035349,0.00042
 219,-0.01682108,0.01900270,-0.00055180,-0.00953009,0.00102025,-0.01040
 682,-0.01063580,0.02098806,0.00821112,0.00043390,-0.00187923,0.0142536
 2,-0.13364829,0.09985517,0.22840120,0.32739385,0.00295953,-0.00073910,
 -0.00154072,0.00091084,0.00095895,-0.00170678,-0.00031101,-0.00001242,
 0.00140749,0.00187137,0.00817611,0.00083711,0.00137379,-0.00018220,-0.
 00163322,0.00640666,0.00490645,-0.00435708,-0.00685009,-0.00031222,0.0
 0135952,-0.03882542,0.07277152,-0.16785920,0.04689419,-0.13409292,0.23
 661001,-0.09961450,0.09354066,0.04387834,-0.00530701,0.00859934,0.0042
 6769,0.00013530,0.00100359,-0.00023365,-0.00026716,-0.00134499,0.00034
 427,0.00084160,-0.00046540,0.00027751,0.00012229,-0.00052252,0.0004872
 2,-0.00000026,0.00020610,-0.00000259,-0.00041040,-0.00047949,0.0005892
 7,0.00031499,-0.00053149,-0.00102297,0.10412085,0.09369956,-0.21847607
 ,-0.07883322,-0.00360917,0.00538885,0.00256356,-0.00009121,0.00076039,
 0.00021960,-0.00106901,0.00088029,0.00206817,0.00002464,0.00034799,-0.
 00125070,0.00063146,-0.00046581,0.00004696,-0.00049792,0.00018755,0.00
 002672,-0.00019393,-0.00042267,0.00095657,0.00009276,-0.00077732,-0.00
 125867,-0.10390691,0.23563483,0.04305399,-0.07789370,-0.08186170,0.014
 69026,-0.02712213,-0.01574413,-0.00082433,-0.00113032,0.00080636,0.003
 99894,0.00224751,-0.00313605,-0.00107905,0.00013767,0.00172234,0.00049
 243,-0.00019556,-0.00025598,-0.00061135,-0.00000119,0.00007750,0.00063
 924,0.00087453,0.00015856,-0.00014087,-0.00029932,0.00040871,-0.050501
 61,0.08633981,0.09201322,-0.20473666,0.04703777,-0.11764548,0.00814644
 ,-0.00299910,0.00600029,0.00075923,-0.00012640,0.00046649,0.00057571,0
 .00008436,-0.00146550,0.00102032,-0.00070142,0.00309123,-0.00067352,-0
 .00030580,0.00044982,0.00055346,0.00001634,-0.00015142,-0.00014598,0.0
 0021182,0.00002351,0.00027826,-0.00028510,0.00002857,-0.01130578,0.002
 10108,-0.00794355,0.22057996,0.04650558,-0.06086485,0.03541136,0.00400
 312,-0.00201140,0.00296020,0.00084198,0.00008800,0.00010148,-0.0003417
 7,0.00032746,0.00019354,-0.00014307,0.00099564,0.00079676,-0.00081831,
 -0.00078287,0.00020845,0.00066533,0.00015966,-0.00005399,-0.00029076,0
 .00008301,-0.00008534,0.00029093,0.00003090,0.00009176,0.02062723,-0.0
 0600956,0.01597928,-0.05163879,0.06116247,-0.11657898,0.03519589,-0.13
 416840,-0.02446462,0.00748713,-0.01992138,-0.00138119,-0.00072773,0.00
 092513,-0.00028346,-0.00094515,0.00088119,0.00123623,0.00154079,-0.004
 01084,0.00181664,0.00190935,-0.00016106,-0.00088216,-0.00038884,0.0001
 3081,-0.00001002,0.00044600,-0.00069068,0.00013829,-0.00047960,0.00051
 189,0.01008229,-0.00238234,0.00765399,0.12831253,-0.04054421,0.1491892
 4,-0.15912424,-0.13524824,0.00332061,-0.00781864,-0.00617064,-0.001375
 12,0.00015857,0.00005345,0.00260579,-0.00011046,0.00011003,-0.00066096
 ,0.00094261,0.00057511,-0.00021064,0.00089706,-0.00064670,-0.00008269,
 -0.00047085,0.00021752,-0.00000286,-0.00015776,-0.00119679,0.00162707,
 -0.00005195,-0.00072210,-0.00207146,0.01073737,0.01260261,-0.00065411,
 -0.01570137,-0.01929300,0.00047500,0.16996543,-0.13835171,-0.20897890,
 0.00469911,-0.00219969,-0.00417115,-0.00061731,0.00021814,0.00050542,0
 .00110386,0.00035957,0.00054283,-0.00025205,0.00049451,0.00004765,-0.0
 0019233,-0.00132629,0.00040940,0.00097744,0.00095952,-0.00020017,-0.00
 051065,0.00011971,0.00119092,-0.00159478,-0.00003242,-0.00310616,-0.00
 083205,-0.01626644,-0.01783118,0.00031354,0.00623839,0.00669059,-0.000
 34794,0.15022974,0.22536981,-0.00006524,0.00062708,-0.04811281,0.02097
 495,0.02475337,-0.00070870,0.00126432,0.00018224,-0.00607165,0.0000143
 2,-0.00006652,0.00207254,-0.00051530,-0.00009769,0.00176822,0.00009484
 ,0.00083413,-0.00173217,-0.00064073,-0.00036455,-0.00002381,0.00062124
 ,0.00001951,-0.00267462,-0.00029766,-0.00046741,0.00008513,-0.00864699
 ,-0.00835598,-0.00063472,-0.01131598,-0.01514426,0.00009684,-0.0025152
 1,-0.00261935,0.05545667,-0.00295796,-0.00375937,-0.00129520,-0.008020
 70,-0.00318642,0.02125517,-0.07076971,-0.01561595,0.07272010,0.0010343
 5,0.00086589,0.00053881,0.00034313,0.00032750,0.00096363,-0.00037814,-
 0.00003993,-0.00008485,0.00035001,0.00011317,0.00004061,0.00001176,-0.
 00007762,0.00022777,0.00006003,0.00014221,-0.00033029,0.00022203,0.000
 04115,-0.00041260,0.00026413,-0.00009188,0.00016901,-0.00009708,-0.000
 36581,0.00150872,0.07561608,-0.00314537,-0.00369183,-0.00119100,-0.006
 17102,-0.00562697,0.02327226,-0.01518940,-0.05650272,0.04440325,-0.000
 06912,0.00063794,0.00147408,0.00030730,0.00101764,0.00027556,-0.000118
 92,0.00005076,0.00002202,0.00027359,0.00002269,0.00003617,0.00010135,-
 0.00016770,0.00013782,0.00012112,0.00013097,-0.00029878,-0.00022805,0.
 00022343,0.00011785,0.00008345,0.00007664,-0.00040943,-0.00081048,0.00
 013963,0.00142319,0.01982928,0.06027755,0.00048269,0.00065248,0.001035
 22,-0.00133651,-0.00082252,-0.00096832,0.07550867,0.04744361,-0.277028
 07,0.00007964,-0.00076473,0.00010130,-0.00058430,0.00006371,0.00055112
 ,0.00027922,-0.00051700,0.00020493,-0.00016491,0.00014880,0.00000798,-
 0.00042610,0.00025214,0.00005176,-0.00002447,-0.00005390,0.00018148,-0
 .00020571,-0.00008523,0.00012952,-0.00004125,-0.00027141,0.00032385,0.
 00014004,-0.00009066,-0.00005561,-0.08197248,-0.05095408,0.30039484,0.
 00050355,0.00096451,-0.00097967,-0.01850631,0.00392156,-0.01276446,-0.
 20958380,0.05510353,-0.11279548,0.00128532,0.00061909,0.00091878,-0.00
 349422,-0.00402177,0.00088905,0.00147031,0.00152506,-0.00169018,-0.000
 93604,-0.00049545,0.00030394,-0.00002729,0.00029340,0.00009664,0.00015
 623,-0.00038070,0.00038122,-0.00001647,-0.00001001,0.00001434,0.000264
 88,-0.00053198,0.00110098,0.00055562,-0.00014669,0.00015412,0.00896232
 ,-0.00285067,0.00580774,0.22932020,0.00035512,0.00068883,-0.00083512,-
 0.02045867,0.00472927,-0.01456655,0.05565407,-0.06438284,0.03873992,0.
 00032636,0.00263207,0.00138001,-0.00455682,-0.00433755,-0.00036590,0.0
 0008818,0.00130825,-0.00186540,-0.00066530,-0.00053440,0.00043571,0.00
 016642,0.00018776,0.00031007,0.00010717,-0.00020101,0.00018090,0.00008
 775,-0.00007494,0.00017472,0.00020726,0.00003179,0.00043301,0.00025990
 ,-0.00001063,-0.00019992,0.00441990,-0.00241293,0.00228371,-0.05736424
 ,0.06923277,0.00069676,-0.00018732,0.00049117,0.00004713,-0.00097014,-
 0.00115274,-0.11298185,0.03850987,-0.12557292,-0.00005851,0.00021558,0
 .00030574,-0.00049859,-0.00007750,0.00108206,0.00052367,0.00017307,-0.
 00011647,-0.00027810,-0.00014821,-0.00001458,0.00000188,-0.00013205,-0
 .00011476,0.00004053,-0.00015408,0.00011048,0.00005902,0.00003225,0.00
 002209,-0.00008841,0.00014560,0.00029507,-0.00001544,-0.00011989,0.000
 05028,-0.02427387,0.00802838,-0.01522619,0.12571745,-0.04170913,0.1327
 2408,0.00087800,0.00025199,-0.00085066,0.00788530,-0.02052102,-0.01060
 992,-0.08688602,0.08693783,0.04075396,-0.00314292,-0.00423356,0.000880
 18,0.00246185,0.00098618,0.00173791,0.00030571,-0.00041959,0.00030623,
 -0.00006137,0.00013415,-0.00008670,0.00028530,-0.00059644,-0.00162513,
 -0.00003282,0.00007046,0.00013855,-0.00005923,0.00021427,0.00026002,-0
 .00012415,0.00011090,0.00015361,0.00004081,0.00012762,-0.00027151,-0.0
 0439293,0.00750469,0.00252394,-0.01000863,0.02097893,0.01102581,0.0932
 8238,0.00112397,0.00077816,-0.00082484,0.00814673,-0.02161633,-0.01109
 461,0.08566109,-0.22792080,-0.08360252,-0.00352171,-0.00311726,0.00270
 511,0.00060766,0.00168659,0.00098328,0.00056720,-0.00031728,0.00000227
 ,-0.00050336,0.00010448,-0.00001941,0.00046866,0.00049541,-0.00203557,
 0.00000421,-0.00005294,0.00044174,-0.00067559,0.00018714,0.00082466,0.
 00000096,-0.00007420,0.00007211,-0.00019342,0.00040456,-0.00002321,-0.
 00284222,0.00626389,0.00273146,0.00332758,-0.00698192,-0.00329126,-0.0
 9140899,0.25051872,-0.00038060,0.00059968,0.00039431,-0.00093684,0.000
 22928,-0.00119517,0.04042688,-0.08410237,-0.08643682,-0.00004458,-0.00
 076003,0.00054902,0.00063460,-0.00012578,0.00051031,-0.00003940,-0.000
 13132,0.00006627,-0.00013301,0.00007515,-0.00003939,-0.00000425,0.0001
 9231,-0.00008174,-0.00004087,-0.00009626,0.00005966,0.00020305,0.00000
 176,0.00023209,-0.00003987,0.00009089,0.00001995,-0.00012697,-0.000040
 76,-0.00002177,0.01167066,-0.02566005,-0.01074768,-0.00705366,0.015967
 91,0.00717175,-0.04387424,0.09350662,0.08960096,0.00073033,-0.00166696
 ,-0.00055968,0.00369702,0.00174757,-0.00491918,0.00050065,-0.00002093,
 0.00046612,-0.24999093,0.00606277,0.13839117,-0.00719812,-0.00361997,0
 .00927840,-0.00451603,-0.00169272,0.00277474,-0.00097669,0.00055946,-0
 .00135204,-0.00813230,0.00491984,0.00425723,0.00027765,-0.00070140,0.0
 0036555,0.00018964,0.00008120,-0.00072535,-0.00000093,-0.00000097,0.00
 007128,0.00008045,0.00004599,0.00003879,0.00028846,0.00022128,-0.00029
 034,0.00000298,0.00037961,-0.00018462,-0.00000403,0.00008152,-0.000127
 12,0.26310439,0.00021809,-0.00092493,0.00052899,0.01161357,-0.00266885
 ,-0.00575740,0.00076638,0.00107628,-0.00093569,0.00210260,-0.04738333,
 -0.00624254,0.01142389,0.00095342,-0.01137737,-0.00320087,-0.00874639,
 -0.00220566,-0.00048138,0.00312582,0.00081384,-0.01511631,0.00820660,0
 .01163611,-0.00168446,-0.00101165,0.00031059,0.00010943,0.00032689,-0.
 00033943,-0.00019928,0.00009409,-0.00010980,0.00008185,-0.00012042,-0.
 00009185,-0.00000143,-0.00071350,0.00012193,-0.00022056,0.00000057,-0.
 00018339,-0.00010861,0.00007160,0.00034126,-0.00604850,0.04676165,0.00
 210990,-0.00403467,0.00019683,0.01883609,0.00238260,-0.01108192,-0.000
 49583,0.00312217,0.00052572,0.14345866,-0.00946170,-0.12682585,-0.0110
 3780,-0.00514090,0.00659016,-0.00219801,0.00198116,0.00324390,-0.00129
 087,-0.00073190,-0.00164701,-0.00423283,-0.00120097,0.00000904,0.00098
 063,0.00028026,-0.00006967,0.00035361,0.00029184,-0.00162962,-0.000135
 02,0.00006845,0.00000081,0.00009196,0.00007432,0.00008063,-0.00029497,
 -0.00036337,0.00056733,-0.00051327,-0.00039866,-0.00036742,-0.00012200
 ,0.00026670,0.00026426,-0.14682237,0.01219293,0.12929857,-0.00030921,-
 0.00014931,0.00051136,-0.00492357,0.01086547,-0.00492683,0.00130398,0.
 00037280,-0.00087953,0.00145931,0.00712219,-0.01388829,-0.05030704,0.0
 0416525,-0.00366986,0.01345076,-0.00771477,0.01404410,-0.00273995,0.00
 084189,-0.00202253,-0.00419514,-0.00469166,-0.00501786,0.00164623,-0.0
 0011006,0.00102712,0.00021584,-0.00013522,-0.00015577,0.00020695,0.000
 08784,-0.00000273,-0.00000109,0.00006281,-0.00014982,-0.00051259,0.000
 14204,0.00008411,0.00007952,0.00002444,0.00027599,-0.00001732,-0.00033
 859,-0.00009948,0.00134299,-0.00071864,0.00130824,0.04183450,-0.001699
 15,0.00063620,-0.00069677,0.00044451,0.00663960,-0.00649639,0.00011519
 ,0.00045935,0.00050564,-0.00697373,-0.00424235,0.00589107,0.01172113,-
 0.23494536,0.14882942,0.00892673,-0.01069937,0.00571831,-0.00199859,0.
 00186429,-0.00083977,-0.00236451,-0.00299557,0.00286893,0.00041055,-0.
 00263509,0.00064225,0.00007544,-0.00004043,0.00008685,0.00019930,-0.00
 003102,-0.00073493,0.00005247,-0.00008867,0.00001897,0.00020080,0.0002
 3414,-0.00020179,0.00018786,0.00003988,-0.00008838,0.00033474,-0.00005
 949,-0.00010622,-0.00050985,0.00096545,-0.00023125,-0.00952232,0.24527
 052,-0.00302652,0.00142889,-0.00047934,-0.00049143,0.01907496,-0.01157
 048,0.00288148,-0.00021508,0.00108544,-0.00511180,-0.00856376,0.002323
 00,-0.00661189,0.15082313,-0.13791297,-0.00331858,-0.00688821,-0.00045
 818,0.00174898,0.00112044,-0.00040380,0.00113980,-0.00032562,0.0034503
 2,-0.00022357,-0.00149488,0.00014025,0.00016310,-0.00014138,-0.0000507
 9,0.00036030,-0.00004667,-0.00116924,0.00004953,-0.00008129,0.00013119
 ,-0.00040288,-0.00026580,0.00048146,0.00041868,-0.00001235,0.00031691,
 -0.00032291,-0.00061510,-0.00035813,-0.00045041,0.00084643,0.00054843,
 0.01371190,-0.15468480,0.14403774,0.00004970,-0.00012624,0.00039125,-0
 .00618655,-0.00314258,0.00129909,0.00110448,-0.00110317,-0.00098795,0.
 00095428,-0.01753346,-0.02465436,-0.00121347,0.00413353,-0.00312060,0.
 00202208,0.01464066,0.02550832,-0.00114735,-0.00155349,-0.00401674,-0.
 04690664,0.00262724,0.00698774,0.00492539,-0.00132183,-0.00375729,0.00
 004111,-0.00005462,-0.00014564,0.00004970,0.00002548,0.00003782,-0.000
 00924,0.00003719,-0.00012362,-0.00001674,0.00001446,0.00012885,-0.0000
 0788,0.00000856,0.00000115,-0.00044312,-0.00053911,-0.00004919,0.00064
 744,0.00136913,0.00005014,0.00137961,0.00014561,-0.00048391,0.04472432
 ,-0.00022950,-0.00007203,0.00045701,-0.00401005,-0.00052004,0.00042926
 ,0.00118155,-0.00050953,-0.00056291,0.00020060,-0.01123774,-0.01741357
 ,0.00212173,0.00250145,0.00382445,-0.00169108,-0.01006545,-0.01439935,
 0.00173894,0.00139776,0.00100999,-0.00210951,-0.11028089,-0.11130400,0
 .00103289,0.00843907,0.03250572,0.00013775,0.00008139,-0.00010837,-0.0
 0007472,-0.00007620,-0.00005465,0.00028629,-0.00024897,0.00002106,0.00
 002231,-0.00000160,0.00006644,-0.00000516,0.00003363,-0.00007393,-0.00
 037116,-0.00038899,0.00001590,-0.00011514,0.00049060,0.00051020,-0.000
 91541,-0.00017383,0.00032387,0.00222210,0.11905750,0.00021350,0.000279
 66,0.00003228,0.00007815,0.00102015,0.00138211,0.00014870,-0.00002857,
 0.00026555,0.00063462,0.00010654,0.00013251,0.00218882,-0.00275317,0.0
 0079127,-0.00253174,-0.00562842,-0.00339593,0.00127870,0.00070839,0.00
 131917,-0.00240044,-0.10391558,-0.21894055,0.00010194,0.00546683,-0.03
 634666,-0.00006886,-0.00015250,0.00004831,0.00003632,0.00001812,0.0000
 3946,-0.00026901,0.00044192,0.00021591,-0.00003667,-0.00005366,-0.0000
 0751,0.00002265,0.00005102,-0.00001050,-0.00000825,0.00002393,-0.00000
 655,-0.00036218,0.00001378,0.00039110,-0.00000134,-0.00049243,-0.00028
 361,0.00230995,0.10507352,0.25429513,-0.00008182,0.00018721,0.00007652
 ,0.00026706,0.00011531,-0.00005956,-0.00011170,0.00015676,0.00003596,0
 .00137017,0.00092206,0.00048530,-0.00080065,-0.00002990,0.00003870,0.0
 0401686,0.00073555,-0.00122029,-0.00116939,-0.00152409,0.00070334,0.00
 056095,0.00507675,-0.00356136,-0.36552349,-0.23948194,-0.00918886,0.00
 003978,0.00007927,0.00004501,-0.00001065,-0.00000786,0.00000948,0.0001
 6475,-0.00020412,-0.00012926,-0.00000645,-0.00001552,0.00001117,-0.000
 02028,-0.00001864,-0.00001000,0.00003320,0.00003340,0.00001489,-0.0000
 4298,0.00009509,-0.00004627,0.00008621,0.00025383,-0.00002986,0.000032
 91,0.00057758,-0.00133486,0.36119551,0.00000002,-0.00031539,-0.0000626
 7,-0.00017482,0.00146505,-0.00006036,0.00009865,-0.00007511,0.00007974
 ,0.00185866,-0.00120360,0.00378770,0.00046603,0.00000347,0.00131496,-0
 .00180429,-0.00326774,-0.00099416,0.00024949,0.00164786,-0.00037745,-0
 .02791311,-0.02011919,-0.00025642,-0.20697551,-0.15813930,0.01674236,0
 .00003358,0.00007923,-0.00000642,0.00014990,0.00010985,0.00004034,-0.0
 0018758,-0.00054455,-0.00044881,0.00001843,0.00004196,-0.00000295,0.00
 008465,0.00005141,0.00003054,0.00000761,0.00001865,0.00000203,0.000277
 21,-0.00050390,0.00039279,0.00061126,-0.00019824,-0.00028279,0.0001505
 3,0.00157389,-0.00017953,0.23304927,0.17937566,-0.00005820,-0.00008565
 ,-0.00010093,-0.00021183,-0.00027228,0.00021666,0.00001414,0.00002263,
 -0.00017139,-0.00111679,0.00107146,-0.00397001,-0.00018292,0.00069894,
 -0.00022724,-0.00090929,0.00192870,0.00168833,-0.00029837,-0.00064305,
 -0.00070905,0.03174634,0.02399936,-0.00453742,-0.04344974,-0.00676109,
 -0.02819840,-0.00002297,-0.00008722,0.00004027,0.00005740,0.00007998,0
 .00005338,-0.00032552,-0.00031115,0.00007845,0.00000932,0.00000559,0.0
 0000258,-0.00002888,-0.00000395,0.00000594,-0.00000888,-0.00005136,0.0
 0001867,0.00015001,0.00043728,-0.00009530,-0.00014877,0.00001130,0.000
 17179,0.00062500,-0.00032062,0.00007851,0.01415996,-0.01971889,0.03565
 516\\-0.00000686,-0.00001209,0.00001178,0.00003364,0.00000538,-0.00000
 477,-0.00001259,0.00000305,-0.00000460,-0.00002350,0.00007483,0.000012
 94,-0.00002043,-0.00006368,-0.00001089,-0.00001119,0.00000613,0.000000
 19,-0.00000089,-0.00000322,0.00000358,0.00000600,-0.00002691,0.0000044
 4,-0.00000009,-0.00000723,0.00000219,0.00000065,0.00000117,-0.00000146
 ,0.00000079,0.00000471,-0.00000092,0.00000416,0.00000345,0.00000022,-0
 .00000055,0.00000090,-0.00000205,-0.00000347,0.00000780,0.00000083,-0.
 00000575,0.00000183,-0.00000554,0.00000177,-0.00001376,-0.00000846,0.0
 0001539,0.00000686,0.00000322,0.00000828,0.00000196,0.00000170,0.00001
 465,0.00000882,-0.00000239\\\@


 Make no judgements where you have no compassion.
                               -- Anne McCaffrey
 Job cpu time:       0 days  2 hours 10 minutes 42.3 seconds.
 File lengths (MBytes):  RWF=    152 Int=      0 D2E=      0 Chk=      8 Scr=      1
 Normal termination of Gaussian 09 at Tue Jan 28 00:26:20 2020.
