 Entering Gaussian System, Link 0=/home/puck/opt/gaussian_09/g09
 Input=dsC7O2H10nsd_0061.com
 Output=dsC7O2H10nsd_0061.log
 Initial command:
 /home/puck/opt/gaussian_09/l1.exe "/scratch/puck/g09_e4bbf9bb-72a7-4a18-9441-2b8ff6d9d180/Gau-22654.inp" -scrdir="/scratch/puck/g09_e4bbf9bb-72a7-4a18-9441-2b8ff6d9d180/"
 Entering Link 1 = /home/puck/opt/gaussian_09/l1.exe PID=     22670.
  
 Copyright (c) 1988,1990,1992,1993,1995,1998,2003,2009,2013,
            Gaussian, Inc.  All Rights Reserved.
  
 This is part of the Gaussian(R) 09 program.  It is based on
 the Gaussian(R) 03 system (copyright 2003, Gaussian, Inc.),
 the Gaussian(R) 98 system (copyright 1998, Gaussian, Inc.),
 the Gaussian(R) 94 system (copyright 1995, Gaussian, Inc.),
 the Gaussian 92(TM) system (copyright 1992, Gaussian, Inc.),
 the Gaussian 90(TM) system (copyright 1990, Gaussian, Inc.),
 the Gaussian 88(TM) system (copyright 1988, Gaussian, Inc.),
 the Gaussian 86(TM) system (copyright 1986, Carnegie Mellon
 University), and the Gaussian 82(TM) system (copyright 1983,
 Carnegie Mellon University). Gaussian is a federally registered
 trademark of Gaussian, Inc.
  
 This software contains proprietary and confidential information,
 including trade secrets, belonging to Gaussian, Inc.
  
 This software is provided under written license and may be
 used, copied, transmitted, or stored only in accord with that
 written license.
  
 The following legend is applicable only to US Government
 contracts under FAR:
  
                    RESTRICTED RIGHTS LEGEND
  
 Use, reproduction and disclosure by the US Government is
 subject to restrictions as set forth in subparagraphs (a)
 and (c) of the Commercial Computer Software - Restricted
 Rights clause in FAR 52.227-19.
  
 Gaussian, Inc.
 340 Quinnipiac St., Bldg. 40, Wallingford CT 06492
  
  
 ---------------------------------------------------------------
 Warning -- This program may not be used in any manner that
 competes with the business of Gaussian, Inc. or will provide
 assistance to any competitor of Gaussian, Inc.  The licensee
 of this program is prohibited from giving any competitor of
 Gaussian, Inc. access to this program.  By using this program,
 the user acknowledges that Gaussian, Inc. is engaged in the
 business of creating and licensing software in the field of
 computational chemistry and represents and warrants to the
 licensee that it is not a competitor of Gaussian, Inc. and that
 it will not use this program in any manner prohibited above.
 ---------------------------------------------------------------
  

 Cite this work as:
 Gaussian 09, Revision D.01,
 M. J. Frisch, G. W. Trucks, H. B. Schlegel, G. E. Scuseria, 
 M. A. Robb, J. R. Cheeseman, G. Scalmani, V. Barone, B. Mennucci, 
 G. A. Petersson, H. Nakatsuji, M. Caricato, X. Li, H. P. Hratchian, 
 A. F. Izmaylov, J. Bloino, G. Zheng, J. L. Sonnenberg, M. Hada, 
 M. Ehara, K. Toyota, R. Fukuda, J. Hasegawa, M. Ishida, T. Nakajima, 
 Y. Honda, O. Kitao, H. Nakai, T. Vreven, J. A. Montgomery, Jr., 
 J. E. Peralta, F. Ogliaro, M. Bearpark, J. J. Heyd, E. Brothers, 
 K. N. Kudin, V. N. Staroverov, T. Keith, R. Kobayashi, J. Normand, 
 K. Raghavachari, A. Rendell, J. C. Burant, S. S. Iyengar, J. Tomasi, 
 M. Cossi, N. Rega, J. M. Millam, M. Klene, J. E. Knox, J. B. Cross, 
 V. Bakken, C. Adamo, J. Jaramillo, R. Gomperts, R. E. Stratmann, 
 O. Yazyev, A. J. Austin, R. Cammi, C. Pomelli, J. W. Ochterski, 
 R. L. Martin, K. Morokuma, V. G. Zakrzewski, G. A. Voth, 
 P. Salvador, J. J. Dannenberg, S. Dapprich, A. D. Daniels, 
 O. Farkas, J. B. Foresman, J. V. Ortiz, J. Cioslowski, 
 and D. J. Fox, Gaussian, Inc., Wallingford CT, 2013.
 
 ******************************************
 Gaussian 09:  ES64L-G09RevD.01 24-Apr-2013
                27-Jan-2020 
 ******************************************
 -----------------------------
 # b3lyp 6-31G(2df,p) opt Freq
 -----------------------------
 1/14=-1,18=20,19=15,26=3,38=1/1,3;
 2/9=110,12=2,17=6,18=5,40=1/2;
 3/5=1,6=6,7=104,11=2,16=1,25=1,30=1,71=1,74=-5/1,2,3;
 4//1;
 5/5=2,38=5/2;
 6/7=2,8=2,9=2,10=2,28=1/1;
 7//1,2,3,16;
 1/14=-1,18=20,19=15,26=3/3(2);
 2/9=110/2;
 99//99;
 2/9=110/2;
 3/5=1,6=6,7=104,11=2,16=1,25=1,30=1,71=1,74=-5/1,2,3;
 4/5=5,16=3,69=1/1;
 5/5=2,38=5/2;
 7//1,2,3,16;
 1/14=-1,18=20,19=15,26=3/3(-5);
 2/9=110/2;
 6/7=2,8=2,9=2,10=2,19=2,28=1/1;
 99/9=1/99;
 -----
 titel
 -----
 Symbolic Z-matrix:
 Charge =  0 Multiplicity = 1
 C                    -2.6988   -3.16578   3.92577 
 C                    -2.69488  -2.00742   2.99445 
 C                    -3.65726  -1.39034   2.25843 
 C                    -3.01289  -0.31701   1.55846 
 C                    -1.70176  -0.35093   1.91679 
 C                    -0.50733   0.45258   1.5406 
 C                     0.50422  -0.32956   0.68161 
 O                     1.62445   0.45678   0.3156 
 O                    -1.49561  -1.38291   2.79401 
 H                    -2.37322  -2.87685   4.93187 
 H                    -3.70772  -3.57773   3.99915 
 H                    -2.02833  -3.96223   3.58257 
 H                    -4.70044  -1.66363   2.22064 
 H                    -3.46719   0.38919   0.88074 
 H                    -0.83289   1.33786   0.98662 
 H                     0.00317   0.80848   2.44691 
 H                     0.80396  -1.24656   1.20965 
 H                     0.02882  -0.63354  -0.25624 
 H                     2.11998   0.65598   1.11637 
 

 GradGradGradGradGradGradGradGradGradGradGradGradGradGradGradGradGradGrad
 Berny optimization.
 Initialization pass.
                           ----------------------------
                           !    Initial Parameters    !
                           ! (Angstroms and Degrees)  !
 --------------------------                            --------------------------
 ! Name  Definition              Value          Derivative Info.                !
 --------------------------------------------------------------------------------
 ! R1    R(1,2)                  1.4863         estimate D2E/DX2                !
 ! R2    R(1,10)                 1.0962         estimate D2E/DX2                !
 ! R3    R(1,11)                 1.0922         estimate D2E/DX2                !
 ! R4    R(1,12)                 1.0962         estimate D2E/DX2                !
 ! R5    R(2,3)                  1.3597         estimate D2E/DX2                !
 ! R6    R(2,9)                  1.3669         estimate D2E/DX2                !
 ! R7    R(3,4)                  1.4343         estimate D2E/DX2                !
 ! R8    R(3,13)                 1.079          estimate D2E/DX2                !
 ! R9    R(4,5)                  1.3596         estimate D2E/DX2                !
 ! R10   R(4,14)                 1.0791         estimate D2E/DX2                !
 ! R11   R(5,6)                  1.4879         estimate D2E/DX2                !
 ! R12   R(5,9)                  1.37           estimate D2E/DX2                !
 ! R13   R(6,7)                  1.5404         estimate D2E/DX2                !
 ! R14   R(6,15)                 1.0939         estimate D2E/DX2                !
 ! R15   R(6,16)                 1.0994         estimate D2E/DX2                !
 ! R16   R(7,8)                  1.4168         estimate D2E/DX2                !
 ! R17   R(7,17)                 1.0998         estimate D2E/DX2                !
 ! R18   R(7,18)                 1.0945         estimate D2E/DX2                !
 ! R19   R(8,19)                 0.9625         estimate D2E/DX2                !
 ! A1    A(2,1,10)             111.6469         estimate D2E/DX2                !
 ! A2    A(2,1,11)             109.7837         estimate D2E/DX2                !
 ! A3    A(2,1,12)             111.6202         estimate D2E/DX2                !
 ! A4    A(10,1,11)            108.185          estimate D2E/DX2                !
 ! A5    A(10,1,12)            107.288          estimate D2E/DX2                !
 ! A6    A(11,1,12)            108.1784         estimate D2E/DX2                !
 ! A7    A(1,2,3)              133.7111         estimate D2E/DX2                !
 ! A8    A(1,2,9)              116.7606         estimate D2E/DX2                !
 ! A9    A(3,2,9)              109.5282         estimate D2E/DX2                !
 ! A10   A(2,3,4)              106.6078         estimate D2E/DX2                !
 ! A11   A(2,3,13)             126.0359         estimate D2E/DX2                !
 ! A12   A(4,3,13)             127.3559         estimate D2E/DX2                !
 ! A13   A(3,4,5)              106.6153         estimate D2E/DX2                !
 ! A14   A(3,4,14)             127.3807         estimate D2E/DX2                !
 ! A15   A(5,4,14)             126.0036         estimate D2E/DX2                !
 ! A16   A(4,5,6)              133.9497         estimate D2E/DX2                !
 ! A17   A(4,5,9)              109.4292         estimate D2E/DX2                !
 ! A18   A(6,5,9)              116.6072         estimate D2E/DX2                !
 ! A19   A(5,6,7)              113.2003         estimate D2E/DX2                !
 ! A20   A(5,6,15)             109.0363         estimate D2E/DX2                !
 ! A21   A(5,6,16)             109.8256         estimate D2E/DX2                !
 ! A22   A(7,6,15)             108.9019         estimate D2E/DX2                !
 ! A23   A(7,6,16)             108.6112         estimate D2E/DX2                !
 ! A24   A(15,6,16)            107.0797         estimate D2E/DX2                !
 ! A25   A(6,7,8)              112.4254         estimate D2E/DX2                !
 ! A26   A(6,7,17)             109.5473         estimate D2E/DX2                !
 ! A27   A(6,7,18)             109.488          estimate D2E/DX2                !
 ! A28   A(8,7,17)             111.7968         estimate D2E/DX2                !
 ! A29   A(8,7,18)             106.035          estimate D2E/DX2                !
 ! A30   A(17,7,18)            107.3503         estimate D2E/DX2                !
 ! A31   A(7,8,19)             107.8786         estimate D2E/DX2                !
 ! A32   A(2,9,5)              107.8193         estimate D2E/DX2                !
 ! D1    D(10,1,2,3)          -119.6644         estimate D2E/DX2                !
 ! D2    D(10,1,2,9)            60.196          estimate D2E/DX2                !
 ! D3    D(11,1,2,3)             0.3081         estimate D2E/DX2                !
 ! D4    D(11,1,2,9)          -179.8315         estimate D2E/DX2                !
 ! D5    D(12,1,2,3)           120.2552         estimate D2E/DX2                !
 ! D6    D(12,1,2,9)           -59.8844         estimate D2E/DX2                !
 ! D7    D(1,2,3,4)            179.8846         estimate D2E/DX2                !
 ! D8    D(1,2,3,13)             0.0865         estimate D2E/DX2                !
 ! D9    D(9,2,3,4)              0.0169         estimate D2E/DX2                !
 ! D10   D(9,2,3,13)          -179.7812         estimate D2E/DX2                !
 ! D11   D(1,2,9,5)           -179.8212         estimate D2E/DX2                !
 ! D12   D(3,2,9,5)              0.0717         estimate D2E/DX2                !
 ! D13   D(2,3,4,5)             -0.0993         estimate D2E/DX2                !
 ! D14   D(2,3,4,14)          -179.8652         estimate D2E/DX2                !
 ! D15   D(13,3,4,5)           179.6953         estimate D2E/DX2                !
 ! D16   D(13,3,4,14)           -0.0706         estimate D2E/DX2                !
 ! D17   D(3,4,5,6)            178.692          estimate D2E/DX2                !
 ! D18   D(3,4,5,9)              0.1452         estimate D2E/DX2                !
 ! D19   D(14,4,5,6)            -1.5379         estimate D2E/DX2                !
 ! D20   D(14,4,5,9)           179.9153         estimate D2E/DX2                !
 ! D21   D(4,5,6,7)           -109.928          estimate D2E/DX2                !
 ! D22   D(4,5,6,15)            11.453          estimate D2E/DX2                !
 ! D23   D(4,5,6,16)           128.4963         estimate D2E/DX2                !
 ! D24   D(9,5,6,7)             68.5392         estimate D2E/DX2                !
 ! D25   D(9,5,6,15)          -170.0798         estimate D2E/DX2                !
 ! D26   D(9,5,6,16)           -53.0365         estimate D2E/DX2                !
 ! D27   D(4,5,9,2)             -0.1371         estimate D2E/DX2                !
 ! D28   D(6,5,9,2)           -178.967          estimate D2E/DX2                !
 ! D29   D(5,6,7,8)            179.0821         estimate D2E/DX2                !
 ! D30   D(5,6,7,17)           -55.9733         estimate D2E/DX2                !
 ! D31   D(5,6,7,18)            61.4996         estimate D2E/DX2                !
 ! D32   D(15,6,7,8)            57.6255         estimate D2E/DX2                !
 ! D33   D(15,6,7,17)         -177.4299         estimate D2E/DX2                !
 ! D34   D(15,6,7,18)          -59.957          estimate D2E/DX2                !
 ! D35   D(16,6,7,8)           -58.6624         estimate D2E/DX2                !
 ! D36   D(16,6,7,17)           66.2822         estimate D2E/DX2                !
 ! D37   D(16,6,7,18)         -176.2449         estimate D2E/DX2                !
 ! D38   D(6,7,8,19)            66.6942         estimate D2E/DX2                !
 ! D39   D(17,7,8,19)          -57.0071         estimate D2E/DX2                !
 ! D40   D(18,7,8,19)         -173.6939         estimate D2E/DX2                !
 --------------------------------------------------------------------------------
 Trust Radius=3.00D-01 FncErr=1.00D-07 GrdErr=1.00D-06
 Number of steps in this run=    101 maximum allowed number of steps=    114.
 GradGradGradGradGradGradGradGradGradGradGradGradGradGradGradGradGradGrad

                          Input orientation:                          
 ---------------------------------------------------------------------
 Center     Atomic      Atomic             Coordinates (Angstroms)
 Number     Number       Type             X           Y           Z
 ---------------------------------------------------------------------
      1          6           0       -2.698801   -3.165776    3.925768
      2          6           0       -2.694876   -2.007418    2.994451
      3          6           0       -3.657259   -1.390338    2.258430
      4          6           0       -3.012891   -0.317007    1.558462
      5          6           0       -1.701763   -0.350926    1.916788
      6          6           0       -0.507330    0.452584    1.540604
      7          6           0        0.504223   -0.329562    0.681606
      8          8           0        1.624452    0.456779    0.315595
      9          8           0       -1.495608   -1.382914    2.794005
     10          1           0       -2.373222   -2.876854    4.931865
     11          1           0       -3.707722   -3.577725    3.999148
     12          1           0       -2.028330   -3.962229    3.582572
     13          1           0       -4.700440   -1.663630    2.220641
     14          1           0       -3.467190    0.389187    0.880737
     15          1           0       -0.832892    1.337864    0.986620
     16          1           0        0.003172    0.808479    2.446912
     17          1           0        0.803961   -1.246555    1.209652
     18          1           0        0.028820   -0.633543   -0.256238
     19          1           0        2.119977    0.655981    1.116369
 ---------------------------------------------------------------------
                    Distance matrix (angstroms):
                    1          2          3          4          5
     1  C    0.000000
     2  C    1.486324   0.000000
     3  C    2.617410   1.359667   0.000000
     4  C    3.717294   2.240689   1.434296   0.000000
     5  C    3.599092   2.211696   2.240772   1.359634   0.000000
     6  C    4.856344   3.598700   3.719367   2.621150   1.487889
     7  C    5.369177   4.289370   4.574883   3.624793   2.528340
     8  O    6.696773   5.648463   5.923083   4.862963   3.778877
     9  O    2.430464   1.366904   2.227022   2.228199   1.370040
    10  H    1.096225   2.147778   3.317489   4.282738   3.990220
    11  H    1.092249   2.121588   2.795945   4.131830   4.332704
    12  H    1.096199   2.147430   3.319847   4.284160   3.990362
    13  H    3.028277   2.176984   1.079048   2.258251   3.287489
    14  H    4.743458   3.287548   2.258512   1.079078   2.176672
    15  H    5.692361   4.323110   4.127667   2.796068   2.114748
    16  H    5.028159   3.938089   4.274234   3.339566   2.128863
    17  H    4.830118   4.000785   4.585094   3.943867   2.753334
    18  H    5.598329   4.457918   4.525867   3.556028   2.792280
    19  H    6.761596   5.814095   6.234435   5.242946   4.032398
                    6          7          8          9         10
     6  C    0.000000
     7  C    1.540412   0.000000
     8  O    2.458690   1.416760   0.000000
     9  O    2.432440   3.093721   4.388823   0.000000
    10  H    5.105621   5.730017   6.957331   2.751819   0.000000
    11  H    5.703538   6.268742   7.633994   3.341109   1.772589
    12  H    5.096435   5.293931   6.598757   2.749272   1.765667
    13  H    4.745839   5.588997   6.937550   3.267797   3.773406
    14  H    3.033185   4.040838   5.123355   3.269262   5.317464
    15  H    1.093896   2.158986   2.695389   3.332937   5.975066
    16  H    1.099394   2.159281   2.700880   2.677503   5.040230
    17  H    2.171655   1.099796   2.091385   2.795852   5.158220
    18  H    2.166972   1.094515   2.015400   3.491335   6.141552
    19  H    2.669099   1.941900   0.962531   4.477055   6.872247
                   11         12         13         14         15
    11  H    0.000000
    12  H    1.772494   0.000000
    13  H    2.795056   3.778702   0.000000
    14  H    5.051608   5.320249   2.744141   0.000000
    15  H    6.442281   6.021547   5.048733   2.801915   0.000000
    16  H    5.951383   5.308143   5.318505   3.830420   1.764002
    17  H    5.794042   4.585576   5.611995   4.585474   3.067287
    18  H    6.382653   5.481649   5.437087   3.815858   2.484691
    19  H    7.758657   6.679706   7.288217   5.598494   3.033353
                   16         17         18         19
    16  H    0.000000
    17  H    2.528882   0.000000
    18  H    3.063838   1.767897   0.000000
    19  H    2.504888   2.315220   2.814224   0.000000
 Stoichiometry    C7H10O2
 Framework group  C1[X(C7H10O2)]
 Deg. of freedom    51
 Full point group                 C1      NOp   1
 Largest Abelian subgroup         C1      NOp   1
 Largest concise Abelian subgroup C1      NOp   1
                         Standard orientation:                         
 ---------------------------------------------------------------------
 Center     Atomic      Atomic             Coordinates (Angstroms)
 Number     Number       Type             X           Y           Z
 ---------------------------------------------------------------------
      1          6           0       -2.960555   -1.345042   -0.045489
      2          6           0       -1.960791   -0.245310   -0.030607
      3          6           0       -2.027781    1.088865   -0.283953
      4          6           0       -0.704785    1.609183   -0.093801
      5          6           0        0.078783    0.557491    0.264763
      6          6           0        1.525652    0.407097    0.577437
      7          6           0        2.300927   -0.375920   -0.498993
      8          8           0        3.679906   -0.491439   -0.195211
      9          8           0       -0.679391   -0.582941    0.304720
     10          1           0       -3.054816   -1.819198    0.938381
     11          1           0       -3.939045   -0.951312   -0.329288
     12          1           0       -2.687200   -2.129754   -0.760440
     13          1           0       -2.912404    1.637343   -0.568482
     14          1           0       -0.380907    2.632415   -0.205636
     15          1           0        1.972630    1.399760    0.684392
     16          1           0        1.647304   -0.107365    1.541386
     17          1           0        1.831811   -1.359418   -0.648034
     18          1           0        2.245078    0.160081   -1.451646
     19          1           0        3.764720   -1.045683    0.587148
 ---------------------------------------------------------------------
 Rotational constants (GHZ):      3.9933265      0.8266671      0.7214856
 Standard basis: 6-31G(2df,p) (6D, 7F)
 There are   329 symmetry adapted cartesian basis functions of A   symmetry.
 There are   302 symmetry adapted basis functions of A   symmetry.
   302 basis functions,   466 primitive gaussians,   329 cartesian basis functions
    34 alpha electrons       34 beta electrons
       nuclear repulsion energy       436.7706510628 Hartrees.
 NAtoms=   19 NActive=   19 NUniq=   19 SFac= 1.00D+00 NAtFMM=   60 NAOKFM=F Big=F
 Integral buffers will be    131072 words long.
 Raffenetti 2 integral format.
 Two-electron integral symmetry is turned on.
 One-electron integrals computed using PRISM.
 NBasis=   302 RedAO= T EigKep=  1.95D-04  NBF=   302
 NBsUse=   302 1.00D-06 EigRej= -1.00D+00 NBFU=   302
 ExpMin= 1.61D-01 ExpMax= 5.48D+03 ExpMxC= 8.25D+02 IAcc=1 IRadAn=         1 AccDes= 0.00D+00
 Harris functional with IExCor=  402 and IRadAn=       1 diagonalized for initial guess.
 HarFok:  IExCor=  402 AccDes= 0.00D+00 IRadAn=         1 IDoV= 1 UseB2=F ITyADJ=14
 ICtDFT=  3500011 ScaDFX=  1.000000  1.000000  1.000000  1.000000
 FoFCou: FMM=F IPFlag=           0 FMFlag=      100000 FMFlg1=           0
         NFxFlg=           0 DoJE=T BraDBF=F KetDBF=T FulRan=T
         wScrn=  0.000000 ICntrl=     500 IOpCl=  0 I1Cent=   200000004 NGrid=           0
         NMat0=    1 NMatS0=      1 NMatT0=    0 NMatD0=    1 NMtDS0=    0 NMtDT0=    0
 Petite list used in FoFCou.
 Requested convergence on RMS density matrix=1.00D-08 within 128 cycles.
 Requested convergence on MAX density matrix=1.00D-06.
 Requested convergence on             energy=1.00D-06.
 No special actions if energy rises.
 Integral accuracy reduced to 1.0D-05 until final iterations.
 Initial convergence to 1.0D-05 achieved.  Increase integral accuracy.
 SCF Done:  E(RB3LYP) =  -423.222053138     A.U. after   14 cycles
            NFock= 14  Conv=0.40D-08     -V/T= 2.0074

 **********************************************************************

            Population analysis using the SCF density.

 **********************************************************************

 Orbital symmetries:
       Occupied  (A) (A) (A) (A) (A) (A) (A) (A) (A) (A) (A) (A)
                 (A) (A) (A) (A) (A) (A) (A) (A) (A) (A) (A) (A)
                 (A) (A) (A) (A) (A) (A) (A) (A) (A) (A)
       Virtual   (A) (A) (A) (A) (A) (A) (A) (A) (A) (A) (A) (A)
                 (A) (A) (A) (A) (A) (A) (A) (A) (A) (A) (A) (A)
                 (A) (A) (A) (A) (A) (A) (A) (A) (A) (A) (A) (A)
                 (A) (A) (A) (A) (A) (A) (A) (A) (A) (A) (A) (A)
                 (A) (A) (A) (A) (A) (A) (A) (A) (A) (A) (A) (A)
                 (A) (A) (A) (A) (A) (A) (A) (A) (A) (A) (A) (A)
                 (A) (A) (A) (A) (A) (A) (A) (A) (A) (A) (A) (A)
                 (A) (A) (A) (A) (A) (A) (A) (A) (A) (A) (A) (A)
                 (A) (A) (A) (A) (A) (A) (A) (A) (A) (A) (A) (A)
                 (A) (A) (A) (A) (A) (A) (A) (A) (A) (A) (A) (A)
                 (A) (A) (A) (A) (A) (A) (A) (A) (A) (A) (A) (A)
                 (A) (A) (A) (A) (A) (A) (A) (A) (A) (A) (A) (A)
                 (A) (A) (A) (A) (A) (A) (A) (A) (A) (A) (A) (A)
                 (A) (A) (A) (A) (A) (A) (A) (A) (A) (A) (A) (A)
                 (A) (A) (A) (A) (A) (A) (A) (A) (A) (A) (A) (A)
                 (A) (A) (A) (A) (A) (A) (A) (A) (A) (A) (A) (A)
                 (A) (A) (A) (A) (A) (A) (A) (A) (A) (A) (A) (A)
                 (A) (A) (A) (A) (A) (A) (A) (A) (A) (A) (A) (A)
                 (A) (A) (A) (A) (A) (A) (A) (A) (A) (A) (A) (A)
                 (A) (A) (A) (A) (A) (A) (A) (A) (A) (A) (A) (A)
                 (A) (A) (A) (A) (A) (A) (A) (A) (A) (A) (A) (A)
                 (A) (A) (A) (A) (A) (A) (A) (A) (A) (A) (A) (A)
                 (A) (A) (A) (A)
 The electronic state is 1-A.
 Alpha  occ. eigenvalues --  -19.19173 -19.13407 -10.22686 -10.22641 -10.22466
 Alpha  occ. eigenvalues --  -10.19057 -10.18970 -10.17168 -10.17087  -1.09516
 Alpha  occ. eigenvalues --   -1.01516  -0.79540  -0.78817  -0.74489  -0.67219
 Alpha  occ. eigenvalues --   -0.62069  -0.58902  -0.54021  -0.50293  -0.49376
 Alpha  occ. eigenvalues --   -0.46131  -0.44463  -0.43016  -0.40876  -0.40547
 Alpha  occ. eigenvalues --   -0.39585  -0.38000  -0.37729  -0.37090  -0.35112
 Alpha  occ. eigenvalues --   -0.32413  -0.27345  -0.26529  -0.20571
 Alpha virt. eigenvalues --    0.02140   0.07740   0.08217   0.10756   0.11652
 Alpha virt. eigenvalues --    0.13520   0.14362   0.15344   0.16291   0.17480
 Alpha virt. eigenvalues --    0.17992   0.18127   0.20956   0.21478   0.22731
 Alpha virt. eigenvalues --    0.24673   0.25723   0.27774   0.33004   0.38492
 Alpha virt. eigenvalues --    0.40104   0.45728   0.45945   0.46978   0.49087
 Alpha virt. eigenvalues --    0.49208   0.50310   0.50854   0.51876   0.52900
 Alpha virt. eigenvalues --    0.54737   0.56065   0.56946   0.59553   0.60636
 Alpha virt. eigenvalues --    0.63505   0.65017   0.65261   0.67063   0.69747
 Alpha virt. eigenvalues --    0.70245   0.73297   0.73467   0.73950   0.74242
 Alpha virt. eigenvalues --    0.75607   0.76040   0.76733   0.78253   0.79749
 Alpha virt. eigenvalues --    0.81528   0.84153   0.84423   0.85749   0.86830
 Alpha virt. eigenvalues --    0.88380   0.90243   0.91227   0.92801   0.94001
 Alpha virt. eigenvalues --    0.96360   0.97023   0.99491   1.00324   1.03016
 Alpha virt. eigenvalues --    1.03188   1.07989   1.11598   1.13584   1.17289
 Alpha virt. eigenvalues --    1.20415   1.20980   1.23657   1.26143   1.26492
 Alpha virt. eigenvalues --    1.29596   1.31813   1.34953   1.35721   1.37521
 Alpha virt. eigenvalues --    1.40634   1.42571   1.43503   1.46522   1.48464
 Alpha virt. eigenvalues --    1.50224   1.54157   1.55185   1.57711   1.58239
 Alpha virt. eigenvalues --    1.59051   1.61453   1.63265   1.64280   1.66615
 Alpha virt. eigenvalues --    1.70109   1.72537   1.79593   1.82474   1.84076
 Alpha virt. eigenvalues --    1.86243   1.87715   1.88108   1.91271   1.93524
 Alpha virt. eigenvalues --    1.94623   1.99232   2.04392   2.10861   2.13029
 Alpha virt. eigenvalues --    2.16909   2.18613   2.19451   2.22255   2.24434
 Alpha virt. eigenvalues --    2.29942   2.33700   2.35911   2.37543   2.42555
 Alpha virt. eigenvalues --    2.44526   2.46226   2.48833   2.52114   2.52694
 Alpha virt. eigenvalues --    2.55303   2.63272   2.66237   2.69880   2.74295
 Alpha virt. eigenvalues --    2.75974   2.77853   2.78996   2.81115   2.81903
 Alpha virt. eigenvalues --    2.84737   2.86516   2.89581   2.92293   2.94617
 Alpha virt. eigenvalues --    2.95340   2.95347   2.96941   2.98542   2.99811
 Alpha virt. eigenvalues --    3.02646   3.04511   3.05512   3.06642   3.09940
 Alpha virt. eigenvalues --    3.14084   3.14481   3.15374   3.20369   3.22944
 Alpha virt. eigenvalues --    3.24946   3.27783   3.29097   3.31608   3.34227
 Alpha virt. eigenvalues --    3.37972   3.39036   3.42224   3.44158   3.45458
 Alpha virt. eigenvalues --    3.46633   3.49875   3.53032   3.55404   3.57278
 Alpha virt. eigenvalues --    3.58829   3.60521   3.64506   3.66167   3.67954
 Alpha virt. eigenvalues --    3.69310   3.74300   3.75609   3.76391   3.82920
 Alpha virt. eigenvalues --    3.86169   3.95383   3.98534   4.01986   4.03044
 Alpha virt. eigenvalues --    4.13279   4.14326   4.15839   4.18932   4.21224
 Alpha virt. eigenvalues --    4.26824   4.27907   4.29527   4.30889   4.33189
 Alpha virt. eigenvalues --    4.34317   4.37014   4.40884   4.41944   4.43456
 Alpha virt. eigenvalues --    4.44513   4.49829   4.51319   4.52915   4.54069
 Alpha virt. eigenvalues --    4.54681   4.56154   4.59349   4.60446   4.61160
 Alpha virt. eigenvalues --    4.62465   4.63108   4.64952   4.67371   4.68615
 Alpha virt. eigenvalues --    4.69891   4.72110   4.75025   4.77066   4.81333
 Alpha virt. eigenvalues --    4.81766   4.81891   4.83330   4.83991   4.87819
 Alpha virt. eigenvalues --    4.90440   4.93401   4.94969   4.98763   5.06019
 Alpha virt. eigenvalues --    5.10803   5.21041   5.25124   5.26050   5.30447
 Alpha virt. eigenvalues --    5.33181   5.34905   5.41371   5.44852   5.46750
 Alpha virt. eigenvalues --    5.48442   5.50171   5.56064   5.61917   5.68370
 Alpha virt. eigenvalues --    5.74898   5.81508   5.85048   5.90969   5.95922
 Alpha virt. eigenvalues --    5.96894   5.99839   6.04810   6.14314   6.48252
 Alpha virt. eigenvalues --    6.52483   6.84856   7.03474   7.12812  10.06653
 Alpha virt. eigenvalues --   10.65172  11.11338  11.53009  11.82788  12.10205
 Alpha virt. eigenvalues --   12.33294  13.15275  13.61271
          Condensed to atoms (all electrons):
               1          2          3          4          5          6
     1  C    5.086925   0.398557  -0.062275   0.005721   0.002376  -0.000450
     2  C    0.398557   4.437750   0.595658  -0.015404  -0.116832  -0.001498
     3  C   -0.062275   0.595658   5.025456   0.424413  -0.012296   0.006834
     4  C    0.005721  -0.015404   0.424413   5.053723   0.582144  -0.058882
     5  C    0.002376  -0.116832  -0.012296   0.582144   4.578447   0.256852
     6  C   -0.000450  -0.001498   0.006834  -0.058882   0.256852   5.236213
     7  C    0.000001   0.000651  -0.000227  -0.001386  -0.034350   0.370880
     8  O    0.000000   0.000000   0.000000  -0.000024   0.003881  -0.041172
     9  O   -0.034562   0.430719  -0.054599  -0.058039   0.421227  -0.029037
    10  H    0.362080  -0.019237   0.000893  -0.000091   0.000500   0.000027
    11  H    0.372223  -0.016647  -0.003044   0.000266  -0.000252   0.000003
    12  H    0.362752  -0.020169   0.001172  -0.000123   0.000378  -0.000013
    13  H   -0.001058  -0.021347   0.355692  -0.022794   0.000314  -0.000146
    14  H   -0.000172   0.000564  -0.023219   0.356490  -0.021251  -0.002034
    15  H    0.000004  -0.000178   0.000299  -0.005118  -0.009107   0.351311
    16  H    0.000005   0.000428  -0.000148   0.002692  -0.008255   0.335451
    17  H    0.000018   0.000193  -0.000021   0.000432   0.009614  -0.059994
    18  H    0.000000  -0.000085  -0.000047   0.001938   0.002301  -0.032362
    19  H    0.000000   0.000000   0.000000   0.000000  -0.000044  -0.001625
               7          8          9         10         11         12
     1  C    0.000001   0.000000  -0.034562   0.362080   0.372223   0.362752
     2  C    0.000651   0.000000   0.430719  -0.019237  -0.016647  -0.020169
     3  C   -0.000227   0.000000  -0.054599   0.000893  -0.003044   0.001172
     4  C   -0.001386  -0.000024  -0.058039  -0.000091   0.000266  -0.000123
     5  C   -0.034350   0.003881   0.421227   0.000500  -0.000252   0.000378
     6  C    0.370880  -0.041172  -0.029037   0.000027   0.000003  -0.000013
     7  C    4.782906   0.355890  -0.000749   0.000001   0.000000  -0.000003
     8  O    0.355890   7.823876   0.000028   0.000000   0.000000   0.000000
     9  O   -0.000749   0.000028   7.530724  -0.000148   0.001486  -0.000220
    10  H    0.000001   0.000000  -0.000148   0.586452  -0.028614  -0.037619
    11  H    0.000000   0.000000   0.001486  -0.028614   0.567169  -0.028615
    12  H   -0.000003   0.000000  -0.000220  -0.037619  -0.028615   0.586608
    13  H    0.000000   0.000000   0.002989  -0.000068   0.001250  -0.000049
    14  H    0.000091   0.000001   0.002930   0.000003  -0.000004   0.000002
    15  H   -0.028345   0.002873   0.001504   0.000000   0.000000   0.000000
    16  H   -0.044028   0.000970  -0.001090  -0.000010   0.000000   0.000006
    17  H    0.368798  -0.027673   0.004313  -0.000001   0.000000   0.000017
    18  H    0.354406  -0.014930  -0.000040   0.000000   0.000000   0.000001
    19  H   -0.067640   0.311059   0.000008   0.000000   0.000000   0.000000
              13         14         15         16         17         18
     1  C   -0.001058  -0.000172   0.000004   0.000005   0.000018   0.000000
     2  C   -0.021347   0.000564  -0.000178   0.000428   0.000193  -0.000085
     3  C    0.355692  -0.023219   0.000299  -0.000148  -0.000021  -0.000047
     4  C   -0.022794   0.356490  -0.005118   0.002692   0.000432   0.001938
     5  C    0.000314  -0.021251  -0.009107  -0.008255   0.009614   0.002301
     6  C   -0.000146  -0.002034   0.351311   0.335451  -0.059994  -0.032362
     7  C    0.000000   0.000091  -0.028345  -0.044028   0.368798   0.354406
     8  O    0.000000   0.000001   0.002873   0.000970  -0.027673  -0.014930
     9  O    0.002989   0.002930   0.001504  -0.001090   0.004313  -0.000040
    10  H   -0.000068   0.000003   0.000000  -0.000010  -0.000001   0.000000
    11  H    0.001250  -0.000004   0.000000   0.000000   0.000000   0.000000
    12  H   -0.000049   0.000002   0.000000   0.000006   0.000017   0.000001
    13  H    0.581379   0.000022  -0.000003   0.000003  -0.000001   0.000000
    14  H    0.000022   0.579960   0.001242  -0.000066   0.000001   0.000024
    15  H   -0.000003   0.001242   0.601339  -0.037257   0.006144  -0.005858
    16  H    0.000003  -0.000066  -0.037257   0.642021  -0.004985   0.006294
    17  H   -0.000001   0.000001   0.006144  -0.004985   0.651868  -0.043503
    18  H    0.000000   0.000024  -0.005858   0.006294  -0.043503   0.606467
    19  H    0.000000   0.000000  -0.000372   0.005338  -0.006155   0.007402
              19
     1  C    0.000000
     2  C    0.000000
     3  C    0.000000
     4  C    0.000000
     5  C   -0.000044
     6  C   -0.001625
     7  C   -0.067640
     8  O    0.311059
     9  O    0.000008
    10  H    0.000000
    11  H    0.000000
    12  H    0.000000
    13  H    0.000000
    14  H    0.000000
    15  H   -0.000372
    16  H    0.005338
    17  H   -0.006155
    18  H    0.007402
    19  H    0.469939
 Mulliken charges:
               1
     1  C   -0.492144
     2  C    0.346877
     3  C   -0.254541
     4  C   -0.265958
     5  C    0.344351
     6  C   -0.330356
     7  C   -0.056896
     8  O   -0.414778
     9  O   -0.217445
    10  H    0.135834
    11  H    0.134780
    12  H    0.135875
    13  H    0.103816
    14  H    0.105414
    15  H    0.121523
    16  H    0.102631
    17  H    0.100936
    18  H    0.117989
    19  H    0.282090
 Sum of Mulliken charges =   0.00000
 Mulliken charges with hydrogens summed into heavy atoms:
               1
     1  C   -0.085655
     2  C    0.346877
     3  C   -0.150725
     4  C   -0.160543
     5  C    0.344351
     6  C   -0.106202
     7  C    0.162029
     8  O   -0.132688
     9  O   -0.217445
 Electronic spatial extent (au):  <R**2>=           1580.2881
 Charge=              0.0000 electrons
 Dipole moment (field-independent basis, Debye):
    X=             -1.2726    Y=             -0.5107    Z=              0.7589  Tot=              1.5673
 Quadrupole moment (field-independent basis, Debye-Ang):
   XX=            -54.5234   YY=            -49.8414   ZZ=            -53.4795
   XY=             -0.8259   XZ=              5.1091   YZ=             -1.7292
 Traceless Quadrupole moment (field-independent basis, Debye-Ang):
   XX=             -1.9086   YY=              2.7734   ZZ=             -0.8648
   XY=             -0.8259   XZ=              5.1091   YZ=             -1.7292
 Octapole moment (field-independent basis, Debye-Ang**2):
  XXX=            -32.1256  YYY=             -3.0358  ZZZ=              2.1673  XYY=              7.1997
  XXY=            -12.1297  XXZ=             15.6761  XZZ=              9.9901  YZZ=             -5.2551
  YYZ=             -0.2034  XYZ=             -3.9576
 Hexadecapole moment (field-independent basis, Debye-Ang**3):
 XXXX=          -1627.7125 YYYY=           -339.9913 ZZZZ=           -111.2840 XXXY=            -36.3434
 XXXZ=             80.3488 YYYX=            -10.7640 YYYZ=             -4.6740 ZZZX=             -4.0493
 ZZZY=             -3.1149 XXYY=           -291.3870 XXZZ=           -268.4549 YYZZ=            -79.5279
 XXYZ=            -27.0960 YYXZ=              8.3535 ZZXY=             -0.4737
 N-N= 4.367706510628D+02 E-N=-1.860444769521D+03  KE= 4.201044470231D+02
 Calling FoFJK, ICntrl=      2127 FMM=F ISym2X=0 I1Cent= 0 IOpClX= 0 NMat=1 NMatS=1 NMatT=0.
 ***** Axes restored to original set *****
 -------------------------------------------------------------------
 Center     Atomic                   Forces (Hartrees/Bohr)
 Number     Number              X              Y              Z
 -------------------------------------------------------------------
      1        6          -0.000001010    0.000038100   -0.000026771
      2        6          -0.000006908   -0.000014193   -0.000006965
      3        6           0.000005976    0.000007673    0.000027800
      4        6           0.000021183   -0.000022195   -0.000003929
      5        6          -0.000016051    0.000044827   -0.000015445
      6        6          -0.000026585   -0.000018956    0.000011392
      7        6           0.000006803   -0.000010997   -0.000013007
      8        8           0.000016699   -0.000002077   -0.000005877
      9        8           0.000017063   -0.000029835    0.000020487
     10        1          -0.000000204   -0.000005948    0.000006923
     11        1           0.000002591   -0.000004072    0.000004638
     12        1           0.000002431   -0.000004346    0.000008031
     13        1          -0.000004870    0.000003535   -0.000005690
     14        1          -0.000008684    0.000007250    0.000005042
     15        1           0.000005578   -0.000000406    0.000001888
     16        1           0.000005031    0.000002932   -0.000008158
     17        1          -0.000007109    0.000002244   -0.000000734
     18        1          -0.000005450    0.000004531    0.000006298
     19        1          -0.000006485    0.000001933   -0.000005922
 -------------------------------------------------------------------
 Cartesian Forces:  Max     0.000044827 RMS     0.000013923

 GradGradGradGradGradGradGradGradGradGradGradGradGradGradGradGradGradGrad
 Berny optimization.
 FormGI is forming the generalized inverse of G from B-inverse, IUseBI=4.
 Internal  Forces:  Max     0.000029793 RMS     0.000006425
 Search for a local minimum.
 Step number   1 out of a maximum of  101
 All quantities printed in internal units (Hartrees-Bohrs-Radians)
 Mixed Optimization -- En-DIIS/RFO-DIIS
 Second derivative matrix not updated -- first step.
 ITU=  0
     Eigenvalues ---    0.00231   0.00926   0.00947   0.01470   0.01636
     Eigenvalues ---    0.01653   0.02033   0.02116   0.02307   0.02399
     Eigenvalues ---    0.04080   0.04723   0.05442   0.05792   0.07248
     Eigenvalues ---    0.07424   0.09495   0.11655   0.12920   0.13979
     Eigenvalues ---    0.16000   0.16000   0.16000   0.16000   0.16000
     Eigenvalues ---    0.16000   0.21975   0.22033   0.22869   0.24729
     Eigenvalues ---    0.24993   0.25000   0.28482   0.33682   0.33705
     Eigenvalues ---    0.33749   0.33856   0.34103   0.34106   0.34296
     Eigenvalues ---    0.34366   0.34554   0.36106   0.36110   0.38459
     Eigenvalues ---    0.42952   0.45811   0.48477   0.51841   0.52887
     Eigenvalues ---    0.54933
 RFO step:  Lambda=-2.87321282D-08 EMin= 2.31373627D-03
 Linear search not attempted -- first point.
 Iteration  1 RMS(Cart)=  0.00012957 RMS(Int)=  0.00000001
 Iteration  2 RMS(Cart)=  0.00000001 RMS(Int)=  0.00000000
 Variable       Old X    -DE/DX   Delta X   Delta X   Delta X     New X
                                 (Linear)    (Quad)   (Total)
    R1        2.80875  -0.00002   0.00000  -0.00007  -0.00007   2.80867
    R2        2.07157   0.00000   0.00000   0.00001   0.00001   2.07158
    R3        2.06405   0.00000   0.00000   0.00000   0.00000   2.06405
    R4        2.07152   0.00000   0.00000   0.00001   0.00001   2.07152
    R5        2.56940  -0.00001   0.00000  -0.00002  -0.00002   2.56938
    R6        2.58307   0.00000   0.00000   0.00001   0.00001   2.58308
    R7        2.71043  -0.00001   0.00000  -0.00002  -0.00002   2.71041
    R8        2.03911   0.00000   0.00000   0.00001   0.00001   2.03912
    R9        2.56934  -0.00001   0.00000  -0.00002  -0.00002   2.56931
   R10        2.03916   0.00001   0.00000   0.00002   0.00002   2.03918
   R11        2.81170  -0.00001   0.00000  -0.00004  -0.00004   2.81166
   R12        2.58900   0.00003   0.00000   0.00006   0.00006   2.58906
   R13        2.91096   0.00001   0.00000   0.00003   0.00003   2.91099
   R14        2.06716   0.00000   0.00000  -0.00001  -0.00001   2.06716
   R15        2.07755   0.00000   0.00000  -0.00001  -0.00001   2.07755
   R16        2.67729   0.00001   0.00000   0.00003   0.00003   2.67732
   R17        2.07831   0.00000   0.00000  -0.00001  -0.00001   2.07830
   R18        2.06833  -0.00001   0.00000  -0.00002  -0.00002   2.06831
   R19        1.81892   0.00000   0.00000  -0.00001  -0.00001   1.81891
    A1        1.94861   0.00001   0.00000   0.00005   0.00005   1.94865
    A2        1.91609   0.00001   0.00000   0.00003   0.00003   1.91612
    A3        1.94814   0.00001   0.00000   0.00005   0.00005   1.94820
    A4        1.88818  -0.00001   0.00000  -0.00005  -0.00005   1.88814
    A5        1.87253  -0.00001   0.00000  -0.00006  -0.00006   1.87247
    A6        1.88807  -0.00001   0.00000  -0.00004  -0.00004   1.88803
    A7        2.33370   0.00000   0.00000  -0.00001  -0.00001   2.33369
    A8        2.03786   0.00000   0.00000  -0.00002  -0.00002   2.03784
    A9        1.91163   0.00001   0.00000   0.00003   0.00003   1.91165
   A10        1.86066   0.00000   0.00000   0.00000   0.00000   1.86065
   A11        2.19974   0.00001   0.00000   0.00005   0.00005   2.19979
   A12        2.22278  -0.00001   0.00000  -0.00005  -0.00005   2.22273
   A13        1.86079   0.00001   0.00000   0.00002   0.00002   1.86080
   A14        2.22321  -0.00001   0.00000  -0.00004  -0.00004   2.22317
   A15        2.19918   0.00000   0.00000   0.00002   0.00002   2.19920
   A16        2.33786   0.00000   0.00000   0.00001   0.00001   2.33788
   A17        1.90990   0.00000   0.00000   0.00000   0.00000   1.90990
   A18        2.03518   0.00000   0.00000  -0.00002  -0.00002   2.03516
   A19        1.97572   0.00000   0.00000   0.00000   0.00000   1.97572
   A20        1.90304   0.00000   0.00000   0.00003   0.00003   1.90307
   A21        1.91682   0.00001   0.00000   0.00006   0.00006   1.91688
   A22        1.90070   0.00000   0.00000  -0.00001  -0.00001   1.90068
   A23        1.89562   0.00000   0.00000  -0.00004  -0.00004   1.89559
   A24        1.86889   0.00000   0.00000  -0.00004  -0.00004   1.86885
   A25        1.96219   0.00001   0.00000   0.00004   0.00004   1.96223
   A26        1.91196  -0.00001   0.00000  -0.00007  -0.00007   1.91189
   A27        1.91093  -0.00001   0.00000  -0.00005  -0.00005   1.91088
   A28        1.95122   0.00000   0.00000   0.00003   0.00003   1.95125
   A29        1.85066   0.00000   0.00000   0.00003   0.00003   1.85069
   A30        1.87362   0.00000   0.00000   0.00002   0.00002   1.87363
   A31        1.88284   0.00000   0.00000  -0.00001  -0.00001   1.88283
   A32        1.88180  -0.00001   0.00000  -0.00004  -0.00004   1.88177
    D1       -2.08854   0.00000   0.00000   0.00035   0.00035  -2.08819
    D2        1.05062   0.00000   0.00000   0.00022   0.00022   1.05084
    D3        0.00538   0.00000   0.00000   0.00034   0.00034   0.00572
    D4       -3.13865   0.00000   0.00000   0.00021   0.00021  -3.13844
    D5        2.09885   0.00000   0.00000   0.00035   0.00035   2.09920
    D6       -1.04518   0.00000   0.00000   0.00022   0.00022  -1.04496
    D7        3.13958   0.00000   0.00000   0.00003   0.00003   3.13961
    D8        0.00151   0.00000   0.00000  -0.00017  -0.00017   0.00134
    D9        0.00029   0.00000   0.00000   0.00016   0.00016   0.00045
   D10       -3.13777   0.00000   0.00000  -0.00004  -0.00004  -3.13781
   D11       -3.13847   0.00000   0.00000   0.00006   0.00006  -3.13842
   D12        0.00125   0.00000   0.00000  -0.00005  -0.00005   0.00121
   D13       -0.00173   0.00000   0.00000  -0.00021  -0.00021  -0.00194
   D14       -3.13924   0.00000   0.00000   0.00001   0.00001  -3.13923
   D15        3.13628   0.00000   0.00000  -0.00001  -0.00001   3.13627
   D16       -0.00123   0.00000   0.00000   0.00021   0.00021  -0.00102
   D17        3.11876   0.00000   0.00000  -0.00006  -0.00006   3.11870
   D18        0.00253   0.00000   0.00000   0.00019   0.00019   0.00272
   D19       -0.02684  -0.00001   0.00000  -0.00028  -0.00028  -0.02712
   D20        3.14011   0.00000   0.00000  -0.00003  -0.00003   3.14008
   D21       -1.91860   0.00000   0.00000   0.00006   0.00006  -1.91854
   D22        0.19989   0.00000   0.00000   0.00007   0.00007   0.19996
   D23        2.24268   0.00000   0.00000   0.00007   0.00007   2.24275
   D24        1.19624   0.00000   0.00000  -0.00020  -0.00020   1.19604
   D25       -2.96845   0.00000   0.00000  -0.00019  -0.00019  -2.96864
   D26       -0.92566   0.00000   0.00000  -0.00019  -0.00019  -0.92586
   D27       -0.00239   0.00000   0.00000  -0.00009  -0.00009  -0.00249
   D28       -3.12356   0.00000   0.00000   0.00011   0.00011  -3.12346
   D29        3.12557   0.00000   0.00000   0.00002   0.00002   3.12559
   D30       -0.97692   0.00000   0.00000   0.00004   0.00004  -0.97688
   D31        1.07337   0.00000   0.00000  -0.00001  -0.00001   1.07336
   D32        1.00576   0.00000   0.00000  -0.00001  -0.00001   1.00575
   D33       -3.09674   0.00000   0.00000   0.00001   0.00001  -3.09673
   D34       -1.04645   0.00000   0.00000  -0.00004  -0.00004  -1.04649
   D35       -1.02385   0.00000   0.00000   0.00007   0.00007  -1.02378
   D36        1.15684   0.00000   0.00000   0.00009   0.00009   1.15693
   D37       -3.07605   0.00000   0.00000   0.00004   0.00004  -3.07602
   D38        1.16403   0.00000   0.00000  -0.00027  -0.00027   1.16376
   D39       -0.99496   0.00000   0.00000  -0.00023  -0.00023  -0.99520
   D40       -3.03153  -0.00001   0.00000  -0.00029  -0.00029  -3.03182
         Item               Value     Threshold  Converged?
 Maximum Force            0.000030     0.000450     YES
 RMS     Force            0.000006     0.000300     YES
 Maximum Displacement     0.000476     0.001800     YES
 RMS     Displacement     0.000130     0.001200     YES
 Predicted change in Energy=-1.436597D-08
 Optimization completed.
    -- Stationary point found.
                           ----------------------------
                           !   Optimized Parameters   !
                           ! (Angstroms and Degrees)  !
 --------------------------                            --------------------------
 ! Name  Definition              Value          Derivative Info.                !
 --------------------------------------------------------------------------------
 ! R1    R(1,2)                  1.4863         -DE/DX =    0.0                 !
 ! R2    R(1,10)                 1.0962         -DE/DX =    0.0                 !
 ! R3    R(1,11)                 1.0922         -DE/DX =    0.0                 !
 ! R4    R(1,12)                 1.0962         -DE/DX =    0.0                 !
 ! R5    R(2,3)                  1.3597         -DE/DX =    0.0                 !
 ! R6    R(2,9)                  1.3669         -DE/DX =    0.0                 !
 ! R7    R(3,4)                  1.4343         -DE/DX =    0.0                 !
 ! R8    R(3,13)                 1.079          -DE/DX =    0.0                 !
 ! R9    R(4,5)                  1.3596         -DE/DX =    0.0                 !
 ! R10   R(4,14)                 1.0791         -DE/DX =    0.0                 !
 ! R11   R(5,6)                  1.4879         -DE/DX =    0.0                 !
 ! R12   R(5,9)                  1.37           -DE/DX =    0.0                 !
 ! R13   R(6,7)                  1.5404         -DE/DX =    0.0                 !
 ! R14   R(6,15)                 1.0939         -DE/DX =    0.0                 !
 ! R15   R(6,16)                 1.0994         -DE/DX =    0.0                 !
 ! R16   R(7,8)                  1.4168         -DE/DX =    0.0                 !
 ! R17   R(7,17)                 1.0998         -DE/DX =    0.0                 !
 ! R18   R(7,18)                 1.0945         -DE/DX =    0.0                 !
 ! R19   R(8,19)                 0.9625         -DE/DX =    0.0                 !
 ! A1    A(2,1,10)             111.6469         -DE/DX =    0.0                 !
 ! A2    A(2,1,11)             109.7837         -DE/DX =    0.0                 !
 ! A3    A(2,1,12)             111.6202         -DE/DX =    0.0                 !
 ! A4    A(10,1,11)            108.185          -DE/DX =    0.0                 !
 ! A5    A(10,1,12)            107.288          -DE/DX =    0.0                 !
 ! A6    A(11,1,12)            108.1784         -DE/DX =    0.0                 !
 ! A7    A(1,2,3)              133.7111         -DE/DX =    0.0                 !
 ! A8    A(1,2,9)              116.7606         -DE/DX =    0.0                 !
 ! A9    A(3,2,9)              109.5282         -DE/DX =    0.0                 !
 ! A10   A(2,3,4)              106.6078         -DE/DX =    0.0                 !
 ! A11   A(2,3,13)             126.0359         -DE/DX =    0.0                 !
 ! A12   A(4,3,13)             127.3559         -DE/DX =    0.0                 !
 ! A13   A(3,4,5)              106.6153         -DE/DX =    0.0                 !
 ! A14   A(3,4,14)             127.3807         -DE/DX =    0.0                 !
 ! A15   A(5,4,14)             126.0036         -DE/DX =    0.0                 !
 ! A16   A(4,5,6)              133.9497         -DE/DX =    0.0                 !
 ! A17   A(4,5,9)              109.4292         -DE/DX =    0.0                 !
 ! A18   A(6,5,9)              116.6072         -DE/DX =    0.0                 !
 ! A19   A(5,6,7)              113.2003         -DE/DX =    0.0                 !
 ! A20   A(5,6,15)             109.0363         -DE/DX =    0.0                 !
 ! A21   A(5,6,16)             109.8256         -DE/DX =    0.0                 !
 ! A22   A(7,6,15)             108.9019         -DE/DX =    0.0                 !
 ! A23   A(7,6,16)             108.6112         -DE/DX =    0.0                 !
 ! A24   A(15,6,16)            107.0797         -DE/DX =    0.0                 !
 ! A25   A(6,7,8)              112.4254         -DE/DX =    0.0                 !
 ! A26   A(6,7,17)             109.5473         -DE/DX =    0.0                 !
 ! A27   A(6,7,18)             109.488          -DE/DX =    0.0                 !
 ! A28   A(8,7,17)             111.7968         -DE/DX =    0.0                 !
 ! A29   A(8,7,18)             106.035          -DE/DX =    0.0                 !
 ! A30   A(17,7,18)            107.3503         -DE/DX =    0.0                 !
 ! A31   A(7,8,19)             107.8786         -DE/DX =    0.0                 !
 ! A32   A(2,9,5)              107.8193         -DE/DX =    0.0                 !
 ! D1    D(10,1,2,3)          -119.6644         -DE/DX =    0.0                 !
 ! D2    D(10,1,2,9)            60.196          -DE/DX =    0.0                 !
 ! D3    D(11,1,2,3)             0.3081         -DE/DX =    0.0                 !
 ! D4    D(11,1,2,9)          -179.8315         -DE/DX =    0.0                 !
 ! D5    D(12,1,2,3)           120.2552         -DE/DX =    0.0                 !
 ! D6    D(12,1,2,9)           -59.8844         -DE/DX =    0.0                 !
 ! D7    D(1,2,3,4)            179.8846         -DE/DX =    0.0                 !
 ! D8    D(1,2,3,13)             0.0865         -DE/DX =    0.0                 !
 ! D9    D(9,2,3,4)              0.0169         -DE/DX =    0.0                 !
 ! D10   D(9,2,3,13)          -179.7812         -DE/DX =    0.0                 !
 ! D11   D(1,2,9,5)           -179.8212         -DE/DX =    0.0                 !
 ! D12   D(3,2,9,5)              0.0717         -DE/DX =    0.0                 !
 ! D13   D(2,3,4,5)             -0.0993         -DE/DX =    0.0                 !
 ! D14   D(2,3,4,14)          -179.8652         -DE/DX =    0.0                 !
 ! D15   D(13,3,4,5)           179.6953         -DE/DX =    0.0                 !
 ! D16   D(13,3,4,14)           -0.0706         -DE/DX =    0.0                 !
 ! D17   D(3,4,5,6)            178.692          -DE/DX =    0.0                 !
 ! D18   D(3,4,5,9)              0.1452         -DE/DX =    0.0                 !
 ! D19   D(14,4,5,6)            -1.5379         -DE/DX =    0.0                 !
 ! D20   D(14,4,5,9)           179.9153         -DE/DX =    0.0                 !
 ! D21   D(4,5,6,7)           -109.928          -DE/DX =    0.0                 !
 ! D22   D(4,5,6,15)            11.453          -DE/DX =    0.0                 !
 ! D23   D(4,5,6,16)           128.4963         -DE/DX =    0.0                 !
 ! D24   D(9,5,6,7)             68.5392         -DE/DX =    0.0                 !
 ! D25   D(9,5,6,15)          -170.0798         -DE/DX =    0.0                 !
 ! D26   D(9,5,6,16)           -53.0365         -DE/DX =    0.0                 !
 ! D27   D(4,5,9,2)             -0.1371         -DE/DX =    0.0                 !
 ! D28   D(6,5,9,2)           -178.967          -DE/DX =    0.0                 !
 ! D29   D(5,6,7,8)            179.0821         -DE/DX =    0.0                 !
 ! D30   D(5,6,7,17)           -55.9733         -DE/DX =    0.0                 !
 ! D31   D(5,6,7,18)            61.4996         -DE/DX =    0.0                 !
 ! D32   D(15,6,7,8)            57.6255         -DE/DX =    0.0                 !
 ! D33   D(15,6,7,17)         -177.4299         -DE/DX =    0.0                 !
 ! D34   D(15,6,7,18)          -59.957          -DE/DX =    0.0                 !
 ! D35   D(16,6,7,8)           -58.6624         -DE/DX =    0.0                 !
 ! D36   D(16,6,7,17)           66.2822         -DE/DX =    0.0                 !
 ! D37   D(16,6,7,18)         -176.2449         -DE/DX =    0.0                 !
 ! D38   D(6,7,8,19)            66.6942         -DE/DX =    0.0                 !
 ! D39   D(17,7,8,19)          -57.0071         -DE/DX =    0.0                 !
 ! D40   D(18,7,8,19)         -173.6939         -DE/DX =    0.0                 !
 --------------------------------------------------------------------------------
 GradGradGradGradGradGradGradGradGradGradGradGradGradGradGradGradGradGrad

                          Input orientation:                          
 ---------------------------------------------------------------------
 Center     Atomic      Atomic             Coordinates (Angstroms)
 Number     Number       Type             X           Y           Z
 ---------------------------------------------------------------------
      1          6           0       -2.698801   -3.165776    3.925768
      2          6           0       -2.694876   -2.007418    2.994451
      3          6           0       -3.657259   -1.390338    2.258430
      4          6           0       -3.012891   -0.317007    1.558462
      5          6           0       -1.701763   -0.350926    1.916788
      6          6           0       -0.507330    0.452584    1.540604
      7          6           0        0.504223   -0.329562    0.681606
      8          8           0        1.624452    0.456779    0.315595
      9          8           0       -1.495608   -1.382914    2.794005
     10          1           0       -2.373222   -2.876854    4.931865
     11          1           0       -3.707722   -3.577725    3.999148
     12          1           0       -2.028330   -3.962229    3.582572
     13          1           0       -4.700440   -1.663630    2.220641
     14          1           0       -3.467190    0.389187    0.880737
     15          1           0       -0.832892    1.337864    0.986620
     16          1           0        0.003172    0.808479    2.446912
     17          1           0        0.803961   -1.246555    1.209652
     18          1           0        0.028820   -0.633543   -0.256238
     19          1           0        2.119977    0.655981    1.116369
 ---------------------------------------------------------------------
                    Distance matrix (angstroms):
                    1          2          3          4          5
     1  C    0.000000
     2  C    1.486324   0.000000
     3  C    2.617410   1.359667   0.000000
     4  C    3.717294   2.240689   1.434296   0.000000
     5  C    3.599092   2.211696   2.240772   1.359634   0.000000
     6  C    4.856344   3.598700   3.719367   2.621150   1.487889
     7  C    5.369177   4.289370   4.574883   3.624793   2.528340
     8  O    6.696773   5.648463   5.923083   4.862963   3.778877
     9  O    2.430464   1.366904   2.227022   2.228199   1.370040
    10  H    1.096225   2.147778   3.317489   4.282738   3.990220
    11  H    1.092249   2.121588   2.795945   4.131830   4.332704
    12  H    1.096199   2.147430   3.319847   4.284160   3.990362
    13  H    3.028277   2.176984   1.079048   2.258251   3.287489
    14  H    4.743458   3.287548   2.258512   1.079078   2.176672
    15  H    5.692361   4.323110   4.127667   2.796068   2.114748
    16  H    5.028159   3.938089   4.274234   3.339566   2.128863
    17  H    4.830118   4.000785   4.585094   3.943867   2.753334
    18  H    5.598329   4.457918   4.525867   3.556028   2.792280
    19  H    6.761596   5.814095   6.234435   5.242946   4.032398
                    6          7          8          9         10
     6  C    0.000000
     7  C    1.540412   0.000000
     8  O    2.458690   1.416760   0.000000
     9  O    2.432440   3.093721   4.388823   0.000000
    10  H    5.105621   5.730017   6.957331   2.751819   0.000000
    11  H    5.703538   6.268742   7.633994   3.341109   1.772589
    12  H    5.096435   5.293931   6.598757   2.749272   1.765667
    13  H    4.745839   5.588997   6.937550   3.267797   3.773406
    14  H    3.033185   4.040838   5.123355   3.269262   5.317464
    15  H    1.093896   2.158986   2.695389   3.332937   5.975066
    16  H    1.099394   2.159281   2.700880   2.677503   5.040230
    17  H    2.171655   1.099796   2.091385   2.795852   5.158220
    18  H    2.166972   1.094515   2.015400   3.491335   6.141552
    19  H    2.669099   1.941900   0.962531   4.477055   6.872247
                   11         12         13         14         15
    11  H    0.000000
    12  H    1.772494   0.000000
    13  H    2.795056   3.778702   0.000000
    14  H    5.051608   5.320249   2.744141   0.000000
    15  H    6.442281   6.021547   5.048733   2.801915   0.000000
    16  H    5.951383   5.308143   5.318505   3.830420   1.764002
    17  H    5.794042   4.585576   5.611995   4.585474   3.067287
    18  H    6.382653   5.481649   5.437087   3.815858   2.484691
    19  H    7.758657   6.679706   7.288217   5.598494   3.033353
                   16         17         18         19
    16  H    0.000000
    17  H    2.528882   0.000000
    18  H    3.063838   1.767897   0.000000
    19  H    2.504888   2.315220   2.814224   0.000000
 Stoichiometry    C7H10O2
 Framework group  C1[X(C7H10O2)]
 Deg. of freedom    51
 Full point group                 C1      NOp   1
 Largest Abelian subgroup         C1      NOp   1
 Largest concise Abelian subgroup C1      NOp   1
                         Standard orientation:                         
 ---------------------------------------------------------------------
 Center     Atomic      Atomic             Coordinates (Angstroms)
 Number     Number       Type             X           Y           Z
 ---------------------------------------------------------------------
      1          6           0       -2.960555   -1.345042   -0.045489
      2          6           0       -1.960791   -0.245310   -0.030607
      3          6           0       -2.027781    1.088865   -0.283953
      4          6           0       -0.704785    1.609183   -0.093801
      5          6           0        0.078783    0.557491    0.264763
      6          6           0        1.525652    0.407097    0.577437
      7          6           0        2.300927   -0.375920   -0.498993
      8          8           0        3.679906   -0.491439   -0.195211
      9          8           0       -0.679391   -0.582941    0.304720
     10          1           0       -3.054816   -1.819198    0.938381
     11          1           0       -3.939045   -0.951312   -0.329288
     12          1           0       -2.687200   -2.129754   -0.760440
     13          1           0       -2.912404    1.637343   -0.568482
     14          1           0       -0.380907    2.632415   -0.205636
     15          1           0        1.972630    1.399760    0.684392
     16          1           0        1.647304   -0.107365    1.541386
     17          1           0        1.831811   -1.359418   -0.648034
     18          1           0        2.245078    0.160081   -1.451646
     19          1           0        3.764720   -1.045683    0.587148
 ---------------------------------------------------------------------
 Rotational constants (GHZ):      3.9933265      0.8266671      0.7214856
 1\1\GINC-ALCHEMY-AS\FOpt\RB3LYP\6-31G(2df,p)\C7H10O2\PUCK\27-Jan-2020\
 0\\# b3lyp 6-31G(2df,p) opt Freq\\titel\\0,1\C,-2.6988012908,-3.165775
 9853,3.9257676949\C,-2.6948763401,-2.0074180655,2.9944513233\C,-3.6572
 585646,-1.3903382796,2.2584301365\C,-3.0128908092,-0.3170073508,1.5584
 617701\C,-1.7017630408,-0.3509263602,1.9167876847\C,-0.5073299073,0.45
 25838254,1.5406036892\C,0.5042231126,-0.3295622345,0.6816058541\O,1.62
 44520074,0.4567790498,0.3155950433\O,-1.4956083965,-1.3829144838,2.794
 0052986\H,-2.3732220027,-2.8768539031,4.9318651317\H,-3.7077216274,-3.
 5777252378,3.9991483489\H,-2.0283302064,-3.962229111,3.5825721168\H,-4
 .7004403828,-1.663629997,2.2206407673\H,-3.4671897588,0.3891872996,0.8
 807371309\H,-0.8328915476,1.3378636891,0.9866202626\H,0.0031721766,0.8
 084791862,2.4469117619\H,0.8039611135,-1.2465553428,1.2096519361\H,0.0
 288200536,-0.6335430772,-0.2562377569\H,2.1199770313,0.6559810686,1.11
 63687158\\Version=ES64L-G09RevD.01\State=1-A\HF=-423.2220531\RMSD=3.96
 3e-09\RMSF=1.392e-05\Dipole=-0.2118132,-0.1743696,0.5522203\Quadrupole
 =1.3327419,1.1414344,-2.4741762,0.9496429,3.775752,-0.1989889\PG=C01 [
 X(C7H10O2)]\\@


 TIMES HAVE CHANGED. IN THE BIBLE WHEN AN ASS
 SPOKE IT WAS CONSIDERED A MIRACLE.
 Job cpu time:       0 days  0 hours  6 minutes  4.1 seconds.
 File lengths (MBytes):  RWF=     52 Int=      0 D2E=      0 Chk=      7 Scr=      1
 Normal termination of Gaussian 09 at Mon Jan 27 11:16:22 2020.
 Link1:  Proceeding to internal job step number  2.
 ----------------------------------------------------------------------
 #N Geom=AllCheck Guess=TCheck SCRF=Check GenChk RB3LYP/6-31G(2df,p) Fr
 eq
 ----------------------------------------------------------------------
 1/10=4,29=7,30=1,38=1,40=1/1,3;
 2/12=2,40=1/2;
 3/5=1,6=6,7=104,11=2,14=-4,16=1,25=1,30=1,70=2,71=2,74=-5,116=1,140=1/1,2,3;
 4/5=101/1;
 5/5=2,98=1/2;
 8/6=4,10=90,11=11/1;
 11/6=1,8=1,9=11,15=111,16=1/1,2,10;
 10/6=1/2;
 6/7=2,8=2,9=2,10=2,18=1,28=1/1;
 7/8=1,10=1,25=1/1,2,3,16;
 1/10=4,30=1/3;
 99//99;
 Structure from the checkpoint file:  "/scratch/puck/g09_e4bbf9bb-72a7-4a18-9441-2b8ff6d9d180/Gau-22670.chk"
 -----
 titel
 -----
 Charge =  0 Multiplicity = 1
 Redundant internal coordinates found in file.
 C,0,-2.6988012908,-3.1657759853,3.9257676949
 C,0,-2.6948763401,-2.0074180655,2.9944513233
 C,0,-3.6572585646,-1.3903382796,2.2584301365
 C,0,-3.0128908092,-0.3170073508,1.5584617701
 C,0,-1.7017630408,-0.3509263602,1.9167876847
 C,0,-0.5073299073,0.4525838254,1.5406036892
 C,0,0.5042231126,-0.3295622345,0.6816058541
 O,0,1.6244520074,0.4567790498,0.3155950433
 O,0,-1.4956083965,-1.3829144838,2.7940052986
 H,0,-2.3732220027,-2.8768539031,4.9318651317
 H,0,-3.7077216274,-3.5777252378,3.9991483489
 H,0,-2.0283302064,-3.962229111,3.5825721168
 H,0,-4.7004403828,-1.663629997,2.2206407673
 H,0,-3.4671897588,0.3891872996,0.8807371309
 H,0,-0.8328915476,1.3378636891,0.9866202626
 H,0,0.0031721766,0.8084791862,2.4469117619
 H,0,0.8039611135,-1.2465553428,1.2096519361
 H,0,0.0288200536,-0.6335430772,-0.2562377569
 H,0,2.1199770313,0.6559810686,1.1163687158
 Recover connectivity data from disk.

 GradGradGradGradGradGradGradGradGradGradGradGradGradGradGradGradGradGrad
 Berny optimization.
 Initialization pass.
                           ----------------------------
                           !    Initial Parameters    !
                           ! (Angstroms and Degrees)  !
 --------------------------                            --------------------------
 ! Name  Definition              Value          Derivative Info.                !
 --------------------------------------------------------------------------------
 ! R1    R(1,2)                  1.4863         calculate D2E/DX2 analytically  !
 ! R2    R(1,10)                 1.0962         calculate D2E/DX2 analytically  !
 ! R3    R(1,11)                 1.0922         calculate D2E/DX2 analytically  !
 ! R4    R(1,12)                 1.0962         calculate D2E/DX2 analytically  !
 ! R5    R(2,3)                  1.3597         calculate D2E/DX2 analytically  !
 ! R6    R(2,9)                  1.3669         calculate D2E/DX2 analytically  !
 ! R7    R(3,4)                  1.4343         calculate D2E/DX2 analytically  !
 ! R8    R(3,13)                 1.079          calculate D2E/DX2 analytically  !
 ! R9    R(4,5)                  1.3596         calculate D2E/DX2 analytically  !
 ! R10   R(4,14)                 1.0791         calculate D2E/DX2 analytically  !
 ! R11   R(5,6)                  1.4879         calculate D2E/DX2 analytically  !
 ! R12   R(5,9)                  1.37           calculate D2E/DX2 analytically  !
 ! R13   R(6,7)                  1.5404         calculate D2E/DX2 analytically  !
 ! R14   R(6,15)                 1.0939         calculate D2E/DX2 analytically  !
 ! R15   R(6,16)                 1.0994         calculate D2E/DX2 analytically  !
 ! R16   R(7,8)                  1.4168         calculate D2E/DX2 analytically  !
 ! R17   R(7,17)                 1.0998         calculate D2E/DX2 analytically  !
 ! R18   R(7,18)                 1.0945         calculate D2E/DX2 analytically  !
 ! R19   R(8,19)                 0.9625         calculate D2E/DX2 analytically  !
 ! A1    A(2,1,10)             111.6469         calculate D2E/DX2 analytically  !
 ! A2    A(2,1,11)             109.7837         calculate D2E/DX2 analytically  !
 ! A3    A(2,1,12)             111.6202         calculate D2E/DX2 analytically  !
 ! A4    A(10,1,11)            108.185          calculate D2E/DX2 analytically  !
 ! A5    A(10,1,12)            107.288          calculate D2E/DX2 analytically  !
 ! A6    A(11,1,12)            108.1784         calculate D2E/DX2 analytically  !
 ! A7    A(1,2,3)              133.7111         calculate D2E/DX2 analytically  !
 ! A8    A(1,2,9)              116.7606         calculate D2E/DX2 analytically  !
 ! A9    A(3,2,9)              109.5282         calculate D2E/DX2 analytically  !
 ! A10   A(2,3,4)              106.6078         calculate D2E/DX2 analytically  !
 ! A11   A(2,3,13)             126.0359         calculate D2E/DX2 analytically  !
 ! A12   A(4,3,13)             127.3559         calculate D2E/DX2 analytically  !
 ! A13   A(3,4,5)              106.6153         calculate D2E/DX2 analytically  !
 ! A14   A(3,4,14)             127.3807         calculate D2E/DX2 analytically  !
 ! A15   A(5,4,14)             126.0036         calculate D2E/DX2 analytically  !
 ! A16   A(4,5,6)              133.9497         calculate D2E/DX2 analytically  !
 ! A17   A(4,5,9)              109.4292         calculate D2E/DX2 analytically  !
 ! A18   A(6,5,9)              116.6072         calculate D2E/DX2 analytically  !
 ! A19   A(5,6,7)              113.2003         calculate D2E/DX2 analytically  !
 ! A20   A(5,6,15)             109.0363         calculate D2E/DX2 analytically  !
 ! A21   A(5,6,16)             109.8256         calculate D2E/DX2 analytically  !
 ! A22   A(7,6,15)             108.9019         calculate D2E/DX2 analytically  !
 ! A23   A(7,6,16)             108.6112         calculate D2E/DX2 analytically  !
 ! A24   A(15,6,16)            107.0797         calculate D2E/DX2 analytically  !
 ! A25   A(6,7,8)              112.4254         calculate D2E/DX2 analytically  !
 ! A26   A(6,7,17)             109.5473         calculate D2E/DX2 analytically  !
 ! A27   A(6,7,18)             109.488          calculate D2E/DX2 analytically  !
 ! A28   A(8,7,17)             111.7968         calculate D2E/DX2 analytically  !
 ! A29   A(8,7,18)             106.035          calculate D2E/DX2 analytically  !
 ! A30   A(17,7,18)            107.3503         calculate D2E/DX2 analytically  !
 ! A31   A(7,8,19)             107.8786         calculate D2E/DX2 analytically  !
 ! A32   A(2,9,5)              107.8193         calculate D2E/DX2 analytically  !
 ! D1    D(10,1,2,3)          -119.6644         calculate D2E/DX2 analytically  !
 ! D2    D(10,1,2,9)            60.196          calculate D2E/DX2 analytically  !
 ! D3    D(11,1,2,3)             0.3081         calculate D2E/DX2 analytically  !
 ! D4    D(11,1,2,9)          -179.8315         calculate D2E/DX2 analytically  !
 ! D5    D(12,1,2,3)           120.2552         calculate D2E/DX2 analytically  !
 ! D6    D(12,1,2,9)           -59.8844         calculate D2E/DX2 analytically  !
 ! D7    D(1,2,3,4)            179.8846         calculate D2E/DX2 analytically  !
 ! D8    D(1,2,3,13)             0.0865         calculate D2E/DX2 analytically  !
 ! D9    D(9,2,3,4)              0.0169         calculate D2E/DX2 analytically  !
 ! D10   D(9,2,3,13)          -179.7812         calculate D2E/DX2 analytically  !
 ! D11   D(1,2,9,5)           -179.8212         calculate D2E/DX2 analytically  !
 ! D12   D(3,2,9,5)              0.0717         calculate D2E/DX2 analytically  !
 ! D13   D(2,3,4,5)             -0.0993         calculate D2E/DX2 analytically  !
 ! D14   D(2,3,4,14)          -179.8652         calculate D2E/DX2 analytically  !
 ! D15   D(13,3,4,5)           179.6953         calculate D2E/DX2 analytically  !
 ! D16   D(13,3,4,14)           -0.0706         calculate D2E/DX2 analytically  !
 ! D17   D(3,4,5,6)            178.692          calculate D2E/DX2 analytically  !
 ! D18   D(3,4,5,9)              0.1452         calculate D2E/DX2 analytically  !
 ! D19   D(14,4,5,6)            -1.5379         calculate D2E/DX2 analytically  !
 ! D20   D(14,4,5,9)           179.9153         calculate D2E/DX2 analytically  !
 ! D21   D(4,5,6,7)           -109.928          calculate D2E/DX2 analytically  !
 ! D22   D(4,5,6,15)            11.453          calculate D2E/DX2 analytically  !
 ! D23   D(4,5,6,16)           128.4963         calculate D2E/DX2 analytically  !
 ! D24   D(9,5,6,7)             68.5392         calculate D2E/DX2 analytically  !
 ! D25   D(9,5,6,15)          -170.0798         calculate D2E/DX2 analytically  !
 ! D26   D(9,5,6,16)           -53.0365         calculate D2E/DX2 analytically  !
 ! D27   D(4,5,9,2)             -0.1371         calculate D2E/DX2 analytically  !
 ! D28   D(6,5,9,2)           -178.967          calculate D2E/DX2 analytically  !
 ! D29   D(5,6,7,8)            179.0821         calculate D2E/DX2 analytically  !
 ! D30   D(5,6,7,17)           -55.9733         calculate D2E/DX2 analytically  !
 ! D31   D(5,6,7,18)            61.4996         calculate D2E/DX2 analytically  !
 ! D32   D(15,6,7,8)            57.6255         calculate D2E/DX2 analytically  !
 ! D33   D(15,6,7,17)         -177.4299         calculate D2E/DX2 analytically  !
 ! D34   D(15,6,7,18)          -59.957          calculate D2E/DX2 analytically  !
 ! D35   D(16,6,7,8)           -58.6624         calculate D2E/DX2 analytically  !
 ! D36   D(16,6,7,17)           66.2822         calculate D2E/DX2 analytically  !
 ! D37   D(16,6,7,18)         -176.2449         calculate D2E/DX2 analytically  !
 ! D38   D(6,7,8,19)            66.6942         calculate D2E/DX2 analytically  !
 ! D39   D(17,7,8,19)          -57.0071         calculate D2E/DX2 analytically  !
 ! D40   D(18,7,8,19)         -173.6939         calculate D2E/DX2 analytically  !
 --------------------------------------------------------------------------------
 Trust Radius=3.00D-01 FncErr=1.00D-07 GrdErr=1.00D-07
 Number of steps in this run=      2 maximum allowed number of steps=      2.
 GradGradGradGradGradGradGradGradGradGradGradGradGradGradGradGradGradGrad

                          Input orientation:                          
 ---------------------------------------------------------------------
 Center     Atomic      Atomic             Coordinates (Angstroms)
 Number     Number       Type             X           Y           Z
 ---------------------------------------------------------------------
      1          6           0       -2.698801   -3.165776    3.925768
      2          6           0       -2.694876   -2.007418    2.994451
      3          6           0       -3.657259   -1.390338    2.258430
      4          6           0       -3.012891   -0.317007    1.558462
      5          6           0       -1.701763   -0.350926    1.916788
      6          6           0       -0.507330    0.452584    1.540604
      7          6           0        0.504223   -0.329562    0.681606
      8          8           0        1.624452    0.456779    0.315595
      9          8           0       -1.495608   -1.382914    2.794005
     10          1           0       -2.373222   -2.876854    4.931865
     11          1           0       -3.707722   -3.577725    3.999148
     12          1           0       -2.028330   -3.962229    3.582572
     13          1           0       -4.700440   -1.663630    2.220641
     14          1           0       -3.467190    0.389187    0.880737
     15          1           0       -0.832892    1.337864    0.986620
     16          1           0        0.003172    0.808479    2.446912
     17          1           0        0.803961   -1.246555    1.209652
     18          1           0        0.028820   -0.633543   -0.256238
     19          1           0        2.119977    0.655981    1.116369
 ---------------------------------------------------------------------
                    Distance matrix (angstroms):
                    1          2          3          4          5
     1  C    0.000000
     2  C    1.486324   0.000000
     3  C    2.617410   1.359667   0.000000
     4  C    3.717294   2.240689   1.434296   0.000000
     5  C    3.599092   2.211696   2.240772   1.359634   0.000000
     6  C    4.856344   3.598700   3.719367   2.621150   1.487889
     7  C    5.369177   4.289370   4.574883   3.624793   2.528340
     8  O    6.696773   5.648463   5.923083   4.862963   3.778877
     9  O    2.430464   1.366904   2.227022   2.228199   1.370040
    10  H    1.096225   2.147778   3.317489   4.282738   3.990220
    11  H    1.092249   2.121588   2.795945   4.131830   4.332704
    12  H    1.096199   2.147430   3.319847   4.284160   3.990362
    13  H    3.028277   2.176984   1.079048   2.258251   3.287489
    14  H    4.743458   3.287548   2.258512   1.079078   2.176672
    15  H    5.692361   4.323110   4.127667   2.796068   2.114748
    16  H    5.028159   3.938089   4.274234   3.339566   2.128863
    17  H    4.830118   4.000785   4.585094   3.943867   2.753334
    18  H    5.598329   4.457918   4.525867   3.556028   2.792280
    19  H    6.761596   5.814095   6.234435   5.242946   4.032398
                    6          7          8          9         10
     6  C    0.000000
     7  C    1.540412   0.000000
     8  O    2.458690   1.416760   0.000000
     9  O    2.432440   3.093721   4.388823   0.000000
    10  H    5.105621   5.730017   6.957331   2.751819   0.000000
    11  H    5.703538   6.268742   7.633994   3.341109   1.772589
    12  H    5.096435   5.293931   6.598757   2.749272   1.765667
    13  H    4.745839   5.588997   6.937550   3.267797   3.773406
    14  H    3.033185   4.040838   5.123355   3.269262   5.317464
    15  H    1.093896   2.158986   2.695389   3.332937   5.975066
    16  H    1.099394   2.159281   2.700880   2.677503   5.040230
    17  H    2.171655   1.099796   2.091385   2.795852   5.158220
    18  H    2.166972   1.094515   2.015400   3.491335   6.141552
    19  H    2.669099   1.941900   0.962531   4.477055   6.872247
                   11         12         13         14         15
    11  H    0.000000
    12  H    1.772494   0.000000
    13  H    2.795056   3.778702   0.000000
    14  H    5.051608   5.320249   2.744141   0.000000
    15  H    6.442281   6.021547   5.048733   2.801915   0.000000
    16  H    5.951383   5.308143   5.318505   3.830420   1.764002
    17  H    5.794042   4.585576   5.611995   4.585474   3.067287
    18  H    6.382653   5.481649   5.437087   3.815858   2.484691
    19  H    7.758657   6.679706   7.288217   5.598494   3.033353
                   16         17         18         19
    16  H    0.000000
    17  H    2.528882   0.000000
    18  H    3.063838   1.767897   0.000000
    19  H    2.504888   2.315220   2.814224   0.000000
 Stoichiometry    C7H10O2
 Framework group  C1[X(C7H10O2)]
 Deg. of freedom    51
 Full point group                 C1      NOp   1
 Largest Abelian subgroup         C1      NOp   1
 Largest concise Abelian subgroup C1      NOp   1
                         Standard orientation:                         
 ---------------------------------------------------------------------
 Center     Atomic      Atomic             Coordinates (Angstroms)
 Number     Number       Type             X           Y           Z
 ---------------------------------------------------------------------
      1          6           0       -2.960555   -1.345042   -0.045489
      2          6           0       -1.960791   -0.245310   -0.030607
      3          6           0       -2.027781    1.088865   -0.283953
      4          6           0       -0.704785    1.609183   -0.093801
      5          6           0        0.078783    0.557491    0.264763
      6          6           0        1.525652    0.407097    0.577437
      7          6           0        2.300927   -0.375920   -0.498993
      8          8           0        3.679906   -0.491439   -0.195211
      9          8           0       -0.679391   -0.582941    0.304720
     10          1           0       -3.054816   -1.819198    0.938381
     11          1           0       -3.939045   -0.951312   -0.329288
     12          1           0       -2.687200   -2.129754   -0.760440
     13          1           0       -2.912404    1.637343   -0.568482
     14          1           0       -0.380907    2.632415   -0.205636
     15          1           0        1.972630    1.399760    0.684392
     16          1           0        1.647304   -0.107365    1.541386
     17          1           0        1.831811   -1.359418   -0.648034
     18          1           0        2.245078    0.160081   -1.451646
     19          1           0        3.764720   -1.045683    0.587148
 ---------------------------------------------------------------------
 Rotational constants (GHZ):      3.9933265      0.8266671      0.7214856
 Standard basis: 6-31G(2df,p) (6D, 7F)
 There are   329 symmetry adapted cartesian basis functions of A   symmetry.
 There are   302 symmetry adapted basis functions of A   symmetry.
[...]
 1418808,0.31231770,-0.00131219,0.00154575,-0.00306144,0.02632449,-0.00
 941965,0.01123246,-0.13529543,-0.04791125,0.01758606,0.67141912,0.0012
 5417,0.00292969,0.00312631,0.03648984,-0.03052510,0.04217408,-0.072415
 25,-0.17413144,0.08052472,-0.04307381,0.47876814,-0.00293778,0.0031681
 8,0.00310912,-0.02525939,0.03088317,-0.02010505,0.03723500,0.08646686,
 -0.11194257,0.17424727,-0.30570314,0.39892715,-0.00794765,-0.00257423,
 -0.00029350,-0.02241283,-0.02568349,0.01142118,-0.04413205,-0.05809672
 ,0.03294249,-0.39498630,0.01235028,-0.09223987,0.79611789,0.00267265,0
 .00214088,-0.00002498,-0.04937890,-0.05340647,0.04161775,-0.01237114,0
 .00205679,0.00433715,0.00184157,-0.08093545,0.01517676,0.11722630,0.40
 939395,-0.00435027,-0.00128033,0.00135200,0.03045525,0.04715552,-0.017
 12391,-0.00370446,-0.00751003,0.01592055,-0.08333012,0.01782006,-0.097
 70556,0.05682527,-0.17246305,0.31812799,0.00076731,0.00034833,-0.00042
 828,-0.00213765,0.00125839,-0.00210525,-0.00311207,0.00049300,-0.00278
 578,-0.01456372,-0.01719645,0.00869073,-0.18485605,-0.06577541,0.02506
 222,0.48900351,-0.00183482,0.00007828,0.00085132,0.00751483,-0.0003527
 1,0.00315080,0.00018434,0.00389547,0.00138436,-0.00092131,0.00458043,-
 0.00055716,-0.06308980,-0.11429861,0.02560787,0.01148141,0.54276427,0.
 00108563,0.00083636,0.00084093,-0.00455967,0.00273060,-0.00181609,-0.0
 0328500,0.00233761,0.00409291,-0.00333258,-0.00429157,0.00710555,0.018
 53808,0.02106921,-0.07735877,0.06355922,-0.04840112,0.53026138,0.00020
 356,-0.00028451,0.00015703,0.00018526,0.00049772,-0.00028585,-0.000169
 04,-0.00059920,-0.00038052,0.00210741,0.00021223,0.00157351,-0.0292502
 2,0.00186644,0.01441723,-0.09478821,0.04250941,0.02566846,0.47572405,0
 .00006825,0.00015919,-0.00041256,-0.00361086,-0.00171110,0.00026767,0.
 00007669,-0.00150708,0.00051335,-0.00075273,-0.00169877,0.00017784,-0.
 01267094,0.01629652,0.01058173,0.03187465,-0.11471373,-0.02826184,0.00
 499303,0.53230168,-0.00015356,0.00016340,-0.00002842,0.00063273,0.0000
 4889,0.00032501,-0.00052855,-0.00000200,-0.00090899,-0.00300144,-0.002
 27239,-0.00002044,0.01012367,0.00443274,-0.00526614,0.01921948,-0.0360
 8971,-0.10519343,0.08763465,-0.01360763,0.57871690,0.00006624,0.000212
 74,-0.00029138,-0.00161085,-0.00050794,-0.00011055,0.00001570,-0.00109
 221,0.00020359,-0.00000058,-0.00062846,0.00062577,-0.00331006,0.006824
 25,0.00411108,-0.03501042,-0.02362279,0.01239549,-0.16526809,-0.078248
 23,0.04353227,0.37059912,0.00004133,-0.00002044,-0.00001537,0.00053459
 ,0.00047245,-0.00018955,-0.00008816,0.00005531,-0.00011442,-0.00005277
 ,0.00033121,0.00003909,0.00231123,-0.00067642,-0.00067340,0.00269872,0
 .00902336,-0.00191662,-0.07137773,-0.11774870,0.03873564,0.18226843,0.
 16378413,0.00001372,-0.00006720,0.00009363,0.00047223,-0.00009664,0.00
 005212,0.00042303,0.00061050,0.00000418,0.00026031,0.00082040,-0.00049
 573,0.00313286,-0.00396342,-0.00071945,0.02287144,0.01437581,-0.005045
 95,0.00209329,0.01215993,-0.10517216,0.15518126,0.03472370,0.47681842,
 -0.00454233,-0.00556562,0.00411071,-0.21228452,-0.03691871,-0.00656657
 ,-0.08643504,0.00861566,-0.03152586,-0.04155960,0.00535257,-0.01800013
 ,-0.10220840,0.00670865,-0.01405807,0.01082210,-0.02555331,0.02211919,
 0.00061908,0.00194886,-0.00077149,-0.00002244,-0.00043205,0.00023452,0
 .44188551,-0.03633499,-0.01802458,0.00292757,-0.06723121,-0.10508656,0
 .01332921,-0.02536786,-0.00316057,0.00597712,0.03807791,-0.02582368,0.
 03990147,0.03905230,-0.15306756,0.08011520,0.00407971,-0.02624835,0.01
 765264,0.00208157,0.00019329,-0.00062104,0.00045919,0.00076412,-0.0002
 0628,0.04542419,0.31901211,0.02884877,0.01076162,-0.00422845,0.0169883
 6,0.02095807,-0.07975581,-0.00429725,0.01417434,-0.00008922,-0.0439006
 4,0.03234638,-0.02437798,-0.04030920,0.07163326,-0.13428270,-0.0001467
 4,0.01120961,-0.01197602,-0.00080892,-0.00013515,0.00070440,0.00004888
 ,-0.00018189,0.00022906,0.05034156,-0.16982549,0.24192049,-0.06825472,
 -0.02278816,-0.06929841,-0.00167523,0.00152015,-0.00062446,0.00097848,
 0.00041980,-0.00059146,-0.00058511,0.00021640,0.00050971,0.00034744,-0
 .00051111,0.00059842,0.00013458,-0.00008802,-0.00016099,-0.00003369,0.
 00002660,0.00004706,0.00004526,0.00001650,-0.00002812,0.00055961,0.000
 57277,-0.00041383,0.06998090,-0.02284694,-0.06511550,-0.06578176,0.010
 38708,0.00607226,0.02883225,-0.00135591,-0.00092324,0.00068001,-0.0003
 4488,-0.00141509,-0.00028290,0.00103108,-0.00141380,0.00114663,0.00005
 500,0.00009505,-0.00018178,0.00008356,-0.00007563,-0.00007315,-0.00013
 218,-0.00000525,0.00004193,0.00067771,0.00268112,-0.00216977,0.0225928
 0,0.07141461,-0.07000834,-0.06711436,-0.26026249,-0.00841570,0.0006650
 8,-0.02063163,0.00205767,-0.00068198,0.00022811,0.00095413,0.00103189,
 0.00030454,-0.00096850,0.00179258,-0.00158341,0.00000898,-0.00024587,0
 .00008759,-0.00017483,0.00017440,0.00010219,0.00026040,0.00002170,-0.0
 0007478,-0.00049573,-0.00191584,0.00248358,0.07876335,0.06936181,0.286
 07167,-0.27821508,-0.09481738,0.01666503,-0.00056098,0.00096099,-0.000
 28444,0.00046143,0.00066668,-0.00039586,-0.00010280,-0.00031283,0.0003
 0808,0.00026237,0.00044698,-0.00041563,0.00004613,-0.00002306,0.000010
 30,0.00003780,0.00005139,-0.00006058,-0.00005516,-0.00004559,0.0000329
 0,0.00149932,0.00037065,-0.00018841,-0.00771109,-0.00217282,0.00105089
 ,0.30077717,-0.09111619,-0.08409095,0.00809953,-0.02582257,-0.00850271
 ,-0.00175334,0.00062190,0.00110416,-0.00078027,-0.00003944,-0.00022611
 ,-0.00007159,-0.00146930,0.00054134,-0.00038110,0.00026166,-0.00028426
 ,0.00037181,0.00010590,-0.00005127,-0.00006651,-0.00008881,0.00000710,
 0.00003519,0.00028030,-0.00489780,0.00484352,-0.00772450,-0.00415496,0
 .00078535,0.10276238,0.09048588,0.01365510,0.00715233,-0.04726467,0.02
 128065,0.00505673,-0.00115445,-0.00037860,-0.00076945,0.00044684,0.000
 07500,-0.00014454,-0.00016683,0.00113903,0.00006321,0.00070692,-0.0002
 3356,0.00029933,-0.00022527,-0.00006297,0.00000747,0.00005906,0.000052
 59,0.00000422,-0.00002561,-0.00009980,0.00490163,-0.00291011,-0.027711
 68,-0.01071860,0.00348817,-0.01717955,-0.01053983,0.04879234,-0.143300
 77,0.11271980,0.05302434,-0.00067427,0.00017733,-0.00333332,0.00099341
 ,0.00057848,0.00045214,-0.00013627,-0.00050355,-0.00034699,0.00031756,
 -0.00034035,0.00025438,0.00005541,0.00010848,0.00012519,-0.00009227,0.
 00002578,0.00006699,0.00005739,0.00001279,-0.00003467,0.00062791,0.000
 42107,-0.00037239,0.00605766,-0.00771974,-0.00331330,-0.01675630,0.021
 79766,0.00978368,0.15275483,0.11373486,-0.17828382,-0.06166419,0.01743
 651,-0.02202391,-0.00265576,-0.00183949,-0.00021926,-0.00099366,-0.001
 36898,-0.00034692,0.00088733,0.00119757,-0.00202540,0.00206103,-0.0000
 6496,0.00050970,0.00007052,0.00018266,-0.00039492,-0.00006171,-0.00028
 281,0.00007612,0.00008578,0.00045530,0.00360374,-0.00169303,0.00603057
 ,-0.00699914,-0.00404692,-0.00773121,0.01010798,0.00449555,-0.12748026
 ,0.19610220,0.05297646,-0.06064576,-0.07207874,-0.01654645,0.01895152,
 0.00643014,0.00115903,0.00139194,-0.00057652,0.00035819,-0.00004456,-0
 .00121153,-0.00062823,0.00065475,-0.00091484,0.00001987,-0.00026294,-0
 .00002230,-0.00003428,0.00015221,0.00003937,0.00010448,-0.00002206,-0.
 00004906,-0.00040467,-0.00199335,0.00151602,0.01918858,-0.02105382,-0.
 01021272,0.00029824,-0.00087989,-0.00171653,-0.05660085,0.06347491,0.0
 7865605,-0.00007279,0.00002436,0.00076264,-0.01084985,-0.00912553,0.00
 540860,-0.33396090,-0.07469379,-0.01618586,-0.00307842,0.00256371,-0.0
 0208153,-0.00034728,-0.00013996,-0.00070036,-0.00005502,-0.00004424,-0
 .00028942,0.00012801,-0.00005936,-0.00014389,-0.00012486,-0.00000927,0
 .00006912,-0.00221352,-0.00043077,-0.00247281,0.00016330,-0.00002480,0
 .00001887,0.00027676,0.00041730,-0.00033376,0.00004242,0.00009151,-0.0
 0009863,0.35014513,0.00026845,-0.00071145,-0.00197950,0.01310238,0.005
 24264,-0.00334602,-0.07693629,-0.06365307,0.01168326,-0.01910297,-0.00
 038924,-0.00675080,-0.00174303,-0.00328393,0.00486453,-0.00085768,0.00
 105430,-0.00005097,-0.00007195,-0.00034408,-0.00015772,-0.00027282,-0.
 00000907,0.00018307,0.00358469,0.00357597,0.00545878,-0.00030015,0.000
 26050,-0.00017879,-0.00017847,-0.00004676,0.00023374,0.00009161,-0.000
 08565,0.00023746,0.08154427,0.05830663,0.00058546,-0.00202909,-0.00149
 251,-0.01263269,-0.00879669,0.00107419,-0.01417545,0.01222046,-0.03856
 720,0.01522204,-0.00145867,0.00206636,0.00048552,0.00506713,-0.0008975
 9,0.00052998,0.00016975,0.00123036,-0.00016395,0.00010199,0.00010287,0
 .00002827,-0.00006794,-0.00001457,-0.00576155,0.00455233,0.00413141,-0
 .00018391,0.00029772,-0.00011025,0.00014019,0.00036716,0.00002168,0.00
 031385,-0.00017964,0.00036471,0.01561397,-0.00948917,0.03273930,0.0010
 9223,-0.00018692,0.00009043,-0.00407229,-0.00418760,0.00166382,0.01168
 731,-0.00896452,0.01070373,-0.10905672,0.07766236,-0.08298042,-0.00106
 518,0.01983598,-0.01537599,0.00077331,0.00090722,0.00040090,-0.0001734
 5,-0.00008570,-0.00003105,0.00002205,-0.00002363,0.00004156,-0.0047679
 3,0.00179407,-0.00494144,0.00003250,-0.00011628,0.00012139,0.00002834,
 0.00010749,-0.00006385,0.00001836,-0.00023592,0.00017833,0.00002504,0.
 00086826,-0.00040084,0.10536242,0.00068000,0.00047311,0.00080839,-0.00
 268342,-0.00161463,0.00301894,0.01265681,-0.00725873,0.00681981,0.0799
 9149,-0.17216587,0.13681669,-0.00269945,0.00086024,-0.00325513,0.00064
 860,-0.00105239,-0.00167923,0.00026457,0.00022336,0.00032438,0.0001439
 3,-0.00001842,-0.00015985,-0.00218849,0.00469106,0.00296712,0.00001472
 ,-0.00034389,0.00024240,0.00001672,0.00005358,-0.00009015,0.00006681,0
 .00000049,0.00004741,-0.00008855,0.00001079,-0.00086679,-0.08670391,0.
 17604011,-0.00059491,0.00061232,0.00066706,0.00043179,0.00261486,0.000
 93074,-0.00656670,0.00147151,-0.00544805,-0.08456719,0.13611298,-0.155
 60821,0.00201154,0.00217697,-0.00376780,0.00052028,-0.00130560,-0.0021
 1417,0.00015958,0.00021144,0.00037889,0.00015230,-0.00002309,-0.000108
 74,-0.00168876,0.00406494,0.00548569,-0.00006888,-0.00009673,0.0000856
 9,0.00000897,-0.00006690,-0.00000851,0.00002005,0.00027443,-0.00025380
 ,0.00033309,-0.00064584,-0.00049251,0.09025645,-0.14510376,0.15993276,
 -0.00054659,-0.00000043,0.00007891,0.00111556,-0.00077119,0.00093000,0
 .00017133,-0.00001724,-0.00014566,0.00036988,0.00079835,-0.00009025,0.
 01025470,-0.02073170,0.01465352,-0.07128517,0.06255485,-0.04373031,-0.
 00767033,0.01953165,-0.01059553,0.00220465,-0.00194989,-0.00060428,-0.
 00528649,-0.00481059,0.00153979,0.00000270,-0.00000243,0.00001452,-0.0
 0001799,-0.00013502,0.00011167,0.00001513,0.00002247,-0.00003061,0.000
 00419,0.00008737,-0.00006295,-0.00021482,0.00011224,-0.00010315,0.0772
 6181,-0.00037390,0.00000696,0.00001231,0.00076162,0.00000974,0.0004571
 2,-0.00013577,-0.00034367,0.00014502,0.00068793,0.00131284,-0.00053870
 ,0.00754285,-0.01400996,0.00922150,0.05995762,-0.21632574,0.10939350,0
 .00632130,-0.01759615,0.00905729,-0.00115464,0.00266071,-0.00024488,-0
 .00344854,-0.00118810,0.00006279,0.00001180,0.00000887,0.00000074,-0.0
 0000355,-0.00008267,0.00007168,0.00001878,0.00003745,-0.00002004,0.000
 01926,0.00005035,-0.00009147,-0.00055996,0.00010574,-0.00018479,-0.068
 38376,0.23689801,0.00021973,0.00006540,0.00003495,-0.00092985,0.000035
 88,0.00012696,0.00030822,-0.00007650,-0.00025385,-0.00031677,-0.000721
 35,0.00016906,-0.00359643,0.00552399,-0.00634208,-0.04145670,0.1103732
 9,-0.11725314,0.00735077,-0.01751772,0.00942154,-0.00226573,0.00042367
 ,0.00058629,0.00244236,0.00184931,0.00062430,-0.00000665,-0.00001051,0
 .00001696,0.00000810,0.00005592,-0.00005240,-0.00001086,-0.00000936,0.
 00000027,0.00002661,-0.00005196,0.00001515,0.00023313,0.00015020,0.000
 34044,0.04227668,-0.11929789,0.12595102,0.00025583,0.00015309,-0.00007
 287,-0.00233136,-0.00042731,0.00000857,-0.00061827,-0.00002918,0.00156
 601,0.00060851,-0.00270730,0.00112546,-0.02027477,-0.00967946,-0.02321
 531,-0.09746310,-0.03541184,-0.09642626,0.00774793,0.00728084,0.020503
 05,0.00320893,0.00084287,-0.00112159,0.00281870,0.00259408,-0.00022171
 ,-0.00002976,-0.00012994,0.00016839,-0.00000474,0.00002345,-0.00001235
 ,0.00003824,-0.00015848,0.00007946,-0.00013144,-0.00014143,0.00041151,
 0.00027464,-0.00024628,-0.00037971,-0.00473297,-0.00296877,-0.00709093
 ,0.11278337,0.00016678,0.00026488,0.00003741,-0.00239357,-0.00073146,-
 0.00007411,0.00004276,-0.00064125,0.00079923,0.00054303,-0.00060909,0.
 00029208,-0.01188758,-0.00654327,-0.01367008,-0.03494692,-0.07114598,-
 0.06198788,-0.00817160,-0.00750255,-0.01885042,-0.00058370,0.00068027,
 0.00229334,0.00210272,0.00271167,-0.00073907,-0.00001332,-0.00009783,0
 .00014875,0.00001692,0.00003567,-0.00002127,0.00002088,-0.00009955,0.0
 0002117,-0.00004479,-0.00001774,0.00026202,-0.00011606,0.00004129,-0.0
 0002657,0.01251334,0.00886011,0.02085332,0.04020110,0.07480586,0.00003
 522,-0.00012533,-0.00007730,0.00036988,-0.00011133,0.00024941,0.000466
 30,0.00018875,-0.00019899,0.00087476,0.00014098,-0.00032938,0.00359200
 ,0.00376523,0.00877326,-0.09666576,-0.06128919,-0.21623270,-0.00903713
 ,-0.00798206,-0.01883783,-0.00027090,0.00172561,0.00260007,-0.00047083
 ,-0.00084312,0.00095343,-0.00001615,0.00001144,0.00000283,-0.00000138,
 -0.00002057,0.00001735,-0.00001670,-0.00002650,0.00001626,0.00007004,-
 0.00001844,-0.00013995,0.00008463,0.00005170,0.00007007,-0.00730652,-0
 .00552074,-0.01321214,0.10322952,0.07222813,0.23646689,0.00003228,0.00
 005219,0.00000545,-0.00063768,-0.00071728,0.00026634,0.00031658,0.0000
 9313,0.00000256,-0.00014302,-0.00026985,0.00006941,0.00108992,0.001591
 83,-0.00165792,-0.00681053,0.01827153,-0.01019298,-0.07533154,0.063872
 16,-0.04259078,-0.00042132,-0.03422534,0.01957007,0.00045786,-0.000570
 29,0.00034016,-0.00000356,-0.00002447,0.00002605,0.00001549,-0.0000011
 0,-0.00000761,0.00000359,-0.00006839,0.00002096,0.00000344,-0.00000385
 ,0.00007917,0.00011486,-0.00002822,0.00004060,-0.00245898,0.00224874,0
 .00348388,0.00097712,-0.00068949,0.00038949,0.08295654,-0.00001454,-0.
 00006430,0.00001214,0.00070120,0.00067418,-0.00018360,-0.00029497,0.00
 010674,-0.00003454,0.00016313,0.00027351,-0.00004242,-0.00011431,-0.00
 153262,0.00052016,0.00948311,-0.01421851,0.00831456,0.06263670,-0.2097
 2348,0.09280640,-0.00947644,-0.01997746,0.01203885,-0.00106054,0.00039
 794,0.00016153,0.00001087,0.00002475,-0.00005162,-0.00001694,0.0000055
 7,-0.00000321,0.00000631,0.00007567,-0.00001907,0.00000459,0.00002299,
 -0.00006397,-0.00005959,-0.00001832,-0.00008677,0.00183324,-0.00083941
 ,-0.00207645,-0.00080520,0.00061264,0.00028190,-0.06175695,0.23582121,
 -0.00001746,-0.00000370,-0.00001085,-0.00004251,0.00018342,-0.00010018
 ,-0.00010149,-0.00008229,0.00014490,0.00022113,0.00019550,0.00009001,-
 0.00109018,-0.00020362,0.00092821,0.00822289,-0.01635624,0.00796637,-0
 .04018810,0.09535234,-0.11120292,0.00463907,0.01032829,-0.00126461,0.0
 0028769,-0.00013113,-0.00041402,0.00000459,0.00000114,-0.00001327,0.00
 000162,-0.00000569,-0.00000070,0.00000201,-0.00002021,0.00002227,-0.00
 000813,-0.00000807,-0.00003055,-0.00001000,-0.00003042,-0.00005275,0.0
 0316756,-0.00252541,-0.00131992,-0.00083908,0.00046710,0.00122919,0.03
 497193,-0.10838411,0.11595615,-0.00004632,-0.00000932,0.00001955,0.000
 17369,0.00012734,0.00002236,-0.00012780,-0.00004318,-0.00000454,-0.000
 15311,-0.00014338,-0.00034403,0.00227638,0.00059121,-0.00034941,0.0080
 6297,0.00664031,0.02006575,-0.09075185,-0.02489043,-0.09179140,-0.0233
 6783,-0.01480360,-0.02374391,-0.00013466,-0.00033646,-0.00002946,-0.00
 000079,0.00001682,-0.00001942,0.00000366,-0.00000520,0.00000147,-0.000
 00214,0.00002033,-0.00001843,0.00000064,0.00000882,0.00000551,-0.00004
 873,0.00006207,0.00004269,0.00093758,-0.00059446,-0.00069820,-0.002714
 33,0.00259812,0.00314244,-0.00255477,-0.00151895,-0.00985786,0.1120885
 6,0.00001067,-0.00001238,0.00001604,0.00020571,0.00007094,-0.00000600,
 0.00004312,0.00007270,-0.00011148,0.00004837,0.00010423,0.00016496,-0.
 00077453,-0.00017814,0.00057646,-0.00481025,-0.00467859,-0.01759524,-0
 .02355006,-0.06642835,-0.05066503,-0.01653768,-0.00764501,-0.01712060,
 -0.00018603,0.00000273,0.00014087,0.00000337,-0.00000605,-0.00000796,-
 0.00000455,0.00000056,-0.00000090,0.00000176,0.00000502,0.00000813,-0.
 00000365,0.00001012,-0.00001393,0.00003937,-0.00001940,-0.00000768,-0.
 00097841,0.00056547,0.00026982,0.00198962,-0.00116921,-0.00232382,0.01
 142093,0.00775164,0.02260289,0.03638326,0.07396061,0.00005404,0.000005
 31,-0.00000689,0.00000582,-0.00017438,-0.00011324,0.00023149,0.0001618
 1,-0.00004864,0.00047450,0.00037234,0.00025100,-0.00144575,-0.00039780
 ,0.00068415,-0.00639539,-0.00475109,-0.01660746,-0.09995446,-0.0578366
 8,-0.24950740,0.00442026,0.00240944,0.01172965,0.00038630,0.00035451,0
 .00000607,-0.00001139,-0.00000657,0.00002837,0.00000715,0.00000907,-0.
 00000537,-0.00001816,-0.00000169,-0.00001171,0.00001717,0.00001024,-0.
 00001051,0.00002362,-0.00005408,-0.00002279,0.00007044,0.00008061,0.00
 134021,0.00297547,-0.00191608,-0.00066141,-0.00602094,-0.00391538,-0.0
 1254899,0.10205036,0.06372334,0.26362516,0.00001510,-0.00005838,0.0000
 3700,0.00014364,-0.00001342,0.00001998,0.00013992,0.00012947,-0.000089
 28,0.00014384,0.00035099,-0.00010456,0.00012452,-0.00067783,0.00078018
 ,0.00041660,0.00041681,-0.00199101,-0.02322441,-0.00943165,-0.03209163
 ,-0.14702774,-0.06571843,-0.17886374,0.00016483,0.00015463,-0.00000473
 ,-0.00000848,0.00002634,-0.00004883,0.00001565,0.00002409,-0.00001545,
 -0.00001990,0.00005871,-0.00002145,0.00004516,0.00005277,-0.00003414,-
 0.00003195,-0.00001962,-0.00000804,-0.00012419,0.00005346,0.00002265,-
 0.00041251,0.00064139,0.00153111,0.00239370,0.00027930,0.00063633,-0.0
 0364114,-0.00330103,0.00312946,0.17088736,-0.00000024,0.00004027,0.000
 00039,-0.00019293,-0.00009657,0.00002288,0.00007345,-0.00002469,0.0000
 6768,0.00008862,-0.00003328,-0.00002772,0.00009177,0.00008192,-0.00043
 759,0.00101149,0.00131800,0.00158945,-0.01770004,-0.00967824,-0.023101
 43,-0.05727985,-0.03175401,-0.05550964,0.00020265,-0.00013656,0.000026
 53,-0.00001109,-0.00000679,0.00001862,0.00001367,-0.00000436,0.0000020
 7,-0.00000365,-0.00003979,0.00000199,-0.00000030,0.00000670,0.00001878
 ,0.00002534,-0.00000813,0.00000830,0.00032716,-0.00013053,0.00016096,-
 0.00037987,0.00054555,-0.00013265,0.00080472,0.00060724,-0.00137978,-0
 .00410330,-0.00240689,0.00192709,0.07703239,0.04172017,-0.00000537,-0.
 00000140,0.00001454,0.00005532,0.00004655,-0.00000617,-0.00003564,0.00
 002214,0.00004639,0.00000434,-0.00002943,-0.00005952,0.00036004,-0.000
 25784,-0.00053083,0.00151236,0.00183678,0.00226022,0.01203648,0.006053
 27,0.00628747,-0.22281715,-0.08520702,-0.37914277,-0.00007886,-0.00008
 966,-0.00002013,0.00000423,0.00000267,-0.00001116,-0.00000562,-0.00000
 188,-0.00000192,0.00000461,0.00000314,0.00000266,-0.00000572,0.0000062
 0,0.00000962,0.00000560,-0.00000762,-0.00001401,-0.00017384,-0.0000786
 3,-0.00019362,-0.00068762,-0.00011706,-0.00068907,0.00120415,0.0007255
 9,0.00062165,0.00150652,0.00035012,0.00187979,0.20711617,0.07674409,0.
 36954686\\0.00000103,-0.00003811,0.00002680,0.00000743,0.00001421,0.00
 000707,-0.00000615,-0.00000770,-0.00002783,-0.00002114,0.00002233,0.00
 000384,0.00001634,-0.00004512,0.00001578,0.00002660,0.00001891,-0.0000
 1140,-0.00000687,0.00001097,0.00001306,-0.00001671,0.00000206,0.000005
 89,-0.00001747,0.00003002,-0.00002075,0.00000019,0.00000595,-0.0000069
 5,-0.00000262,0.00000406,-0.00000464,-0.00000244,0.00000436,-0.0000080
 3,0.00000477,-0.00000355,0.00000568,0.00000863,-0.00000720,-0.00000509
 ,-0.00000558,0.00000041,-0.00000189,-0.00000506,-0.00000294,0.00000812
 ,0.00000710,-0.00000219,0.00000070,0.00000547,-0.00000452,-0.00000629,
 0.00000649,-0.00000193,0.00000591\\\@


 WOE UNTO THEM THAT CALL EVIL GOOD, AND GOOD EVIL      
 Job cpu time:       0 days  0 hours 40 minutes 26.9 seconds.
 File lengths (MBytes):  RWF=    152 Int=      0 D2E=      0 Chk=      8 Scr=      1
 Normal termination of Gaussian 09 at Mon Jan 27 11:56:49 2020.
