 Entering Gaussian System, Link 0=/home/puck/opt/gaussian_09/g09
 Input=dsC7O2H10nsd_0838.com
 Output=dsC7O2H10nsd_0838.log
 Initial command:
 /home/puck/opt/gaussian_09/l1.exe "/scratch/puck/g09_53a63d48-722c-4a11-83f4-de795022c7ea/Gau-168414.inp" -scrdir="/scratch/puck/g09_53a63d48-722c-4a11-83f4-de795022c7ea/"
 Entering Link 1 = /home/puck/opt/gaussian_09/l1.exe PID=    168432.
  
 Copyright (c) 1988,1990,1992,1993,1995,1998,2003,2009,2013,
            Gaussian, Inc.  All Rights Reserved.
  
 This is part of the Gaussian(R) 09 program.  It is based on
 the Gaussian(R) 03 system (copyright 2003, Gaussian, Inc.),
 the Gaussian(R) 98 system (copyright 1998, Gaussian, Inc.),
 the Gaussian(R) 94 system (copyright 1995, Gaussian, Inc.),
 the Gaussian 92(TM) system (copyright 1992, Gaussian, Inc.),
 the Gaussian 90(TM) system (copyright 1990, Gaussian, Inc.),
 the Gaussian 88(TM) system (copyright 1988, Gaussian, Inc.),
 the Gaussian 86(TM) system (copyright 1986, Carnegie Mellon
 University), and the Gaussian 82(TM) system (copyright 1983,
 Carnegie Mellon University). Gaussian is a federally registered
 trademark of Gaussian, Inc.
  
 This software contains proprietary and confidential information,
 including trade secrets, belonging to Gaussian, Inc.
  
 This software is provided under written license and may be
 used, copied, transmitted, or stored only in accord with that
 written license.
  
 The following legend is applicable only to US Government
 contracts under FAR:
  
                    RESTRICTED RIGHTS LEGEND
  
 Use, reproduction and disclosure by the US Government is
 subject to restrictions as set forth in subparagraphs (a)
 and (c) of the Commercial Computer Software - Restricted
 Rights clause in FAR 52.227-19.
  
 Gaussian, Inc.
 340 Quinnipiac St., Bldg. 40, Wallingford CT 06492
  
  
 ---------------------------------------------------------------
 Warning -- This program may not be used in any manner that
 competes with the business of Gaussian, Inc. or will provide
 assistance to any competitor of Gaussian, Inc.  The licensee
 of this program is prohibited from giving any competitor of
 Gaussian, Inc. access to this program.  By using this program,
 the user acknowledges that Gaussian, Inc. is engaged in the
 business of creating and licensing software in the field of
 computational chemistry and represents and warrants to the
 licensee that it is not a competitor of Gaussian, Inc. and that
 it will not use this program in any manner prohibited above.
 ---------------------------------------------------------------
  

 Cite this work as:
 Gaussian 09, Revision D.01,
 M. J. Frisch, G. W. Trucks, H. B. Schlegel, G. E. Scuseria, 
 M. A. Robb, J. R. Cheeseman, G. Scalmani, V. Barone, B. Mennucci, 
 G. A. Petersson, H. Nakatsuji, M. Caricato, X. Li, H. P. Hratchian, 
 A. F. Izmaylov, J. Bloino, G. Zheng, J. L. Sonnenberg, M. Hada, 
 M. Ehara, K. Toyota, R. Fukuda, J. Hasegawa, M. Ishida, T. Nakajima, 
 Y. Honda, O. Kitao, H. Nakai, T. Vreven, J. A. Montgomery, Jr., 
 J. E. Peralta, F. Ogliaro, M. Bearpark, J. J. Heyd, E. Brothers, 
 K. N. Kudin, V. N. Staroverov, T. Keith, R. Kobayashi, J. Normand, 
 K. Raghavachari, A. Rendell, J. C. Burant, S. S. Iyengar, J. Tomasi, 
 M. Cossi, N. Rega, J. M. Millam, M. Klene, J. E. Knox, J. B. Cross, 
 V. Bakken, C. Adamo, J. Jaramillo, R. Gomperts, R. E. Stratmann, 
 O. Yazyev, A. J. Austin, R. Cammi, C. Pomelli, J. W. Ochterski, 
 R. L. Martin, K. Morokuma, V. G. Zakrzewski, G. A. Voth, 
 P. Salvador, J. J. Dannenberg, S. Dapprich, A. D. Daniels, 
 O. Farkas, J. B. Foresman, J. V. Ortiz, J. Cioslowski, 
 and D. J. Fox, Gaussian, Inc., Wallingford CT, 2013.
 
 ******************************************
 Gaussian 09:  ES64L-G09RevD.01 24-Apr-2013
                27-Jan-2020 
 ******************************************
 -----------------------------
 # b3lyp 6-31G(2df,p) opt Freq
 -----------------------------
 1/14=-1,18=20,19=15,26=3,38=1/1,3;
 2/9=110,12=2,17=6,18=5,40=1/2;
 3/5=1,6=6,7=104,11=2,16=1,25=1,30=1,71=1,74=-5/1,2,3;
 4//1;
 5/5=2,38=5/2;
 6/7=2,8=2,9=2,10=2,28=1/1;
 7//1,2,3,16;
 1/14=-1,18=20,19=15,26=3/3(2);
 2/9=110/2;
 99//99;
 2/9=110/2;
 3/5=1,6=6,7=104,11=2,16=1,25=1,30=1,71=1,74=-5/1,2,3;
 4/5=5,16=3,69=1/1;
 5/5=2,38=5/2;
 7//1,2,3,16;
 1/14=-1,18=20,19=15,26=3/3(-5);
 2/9=110/2;
 6/7=2,8=2,9=2,10=2,19=2,28=1/1;
 99/9=1/99;
 -----
 titel
 -----
 Symbolic Z-matrix:
 Charge =  0 Multiplicity = 1
 O                     1.34718  -0.3694    0.07743 
 C                     0.18436  -0.05855   0.1246 
 C                    -0.44582   0.77036   1.21683 
 C                    -1.16707   2.03381   0.64039 
 C                    -2.62301   1.78734   1.09198 
 C                    -2.75275   2.01558   2.61422 
 C                    -2.05667   0.73452   3.16813 
 C                    -1.66196   0.02689   1.85365 
 O                    -2.73697   0.36111   0.97127 
 H                    -0.5333   -0.37935  -0.66568 
 H                     0.32572   1.01078   1.95084 
 H                    -0.7414    2.96493   1.02011 
 H                    -1.10938   2.05741  -0.45217 
 H                    -3.3853    2.2672    0.47858 
 H                    -2.27292   2.94173   2.94014 
 H                    -3.80309   2.05727   2.91019 
 H                    -1.1963    0.94826   3.80647 
 H                    -2.75442   0.11559   3.73641 
 H                    -1.56126  -1.05719   1.91583 
 

 GradGradGradGradGradGradGradGradGradGradGradGradGradGradGradGradGradGrad
 Berny optimization.
 Initialization pass.
                           ----------------------------
                           !    Initial Parameters    !
                           ! (Angstroms and Degrees)  !
 --------------------------                            --------------------------
 ! Name  Definition              Value          Derivative Info.                !
 --------------------------------------------------------------------------------
 ! R1    R(1,2)                  1.2046         estimate D2E/DX2                !
 ! R2    R(2,3)                  1.509          estimate D2E/DX2                !
 ! R3    R(2,10)                 1.1147         estimate D2E/DX2                !
 ! R4    R(3,4)                  1.5649         estimate D2E/DX2                !
 ! R5    R(3,8)                  1.5612         estimate D2E/DX2                !
 ! R6    R(3,11)                 1.0917         estimate D2E/DX2                !
 ! R7    R(4,5)                  1.5442         estimate D2E/DX2                !
 ! R8    R(4,12)                 1.092          estimate D2E/DX2                !
 ! R9    R(4,13)                 1.0943         estimate D2E/DX2                !
 ! R10   R(5,6)                  1.5447         estimate D2E/DX2                !
 ! R11   R(5,9)                  1.4359         estimate D2E/DX2                !
 ! R12   R(5,14)                 1.0898         estimate D2E/DX2                !
 ! R13   R(6,7)                  1.5596         estimate D2E/DX2                !
 ! R14   R(6,15)                 1.0928         estimate D2E/DX2                !
 ! R15   R(6,16)                 1.092          estimate D2E/DX2                !
 ! R16   R(7,8)                  1.5442         estimate D2E/DX2                !
 ! R17   R(7,17)                 1.0924         estimate D2E/DX2                !
 ! R18   R(7,18)                 1.0922         estimate D2E/DX2                !
 ! R19   R(8,9)                  1.4304         estimate D2E/DX2                !
 ! R20   R(8,19)                 1.0905         estimate D2E/DX2                !
 ! A1    A(1,2,3)              124.9752         estimate D2E/DX2                !
 ! A2    A(1,2,10)             121.2979         estimate D2E/DX2                !
 ! A3    A(3,2,10)             113.7264         estimate D2E/DX2                !
 ! A4    A(2,3,4)              111.6754         estimate D2E/DX2                !
 ! A5    A(2,3,8)              111.0362         estimate D2E/DX2                !
 ! A6    A(2,3,11)             108.2085         estimate D2E/DX2                !
 ! A7    A(4,3,8)              100.1205         estimate D2E/DX2                !
 ! A8    A(4,3,11)             113.3032         estimate D2E/DX2                !
 ! A9    A(8,3,11)             112.4049         estimate D2E/DX2                !
 ! A10   A(3,4,5)              101.4184         estimate D2E/DX2                !
 ! A11   A(3,4,12)             112.3769         estimate D2E/DX2                !
 ! A12   A(3,4,13)             111.155          estimate D2E/DX2                !
 ! A13   A(5,4,12)             113.7003         estimate D2E/DX2                !
 ! A14   A(5,4,13)             110.1896         estimate D2E/DX2                !
 ! A15   A(12,4,13)            107.9527         estimate D2E/DX2                !
 ! A16   A(4,5,6)              110.1088         estimate D2E/DX2                !
 ! A17   A(4,5,9)              102.0517         estimate D2E/DX2                !
 ! A18   A(4,5,14)             115.1279         estimate D2E/DX2                !
 ! A19   A(6,5,9)              102.8817         estimate D2E/DX2                !
 ! A20   A(6,5,14)             115.5222         estimate D2E/DX2                !
 ! A21   A(9,5,14)             109.5446         estimate D2E/DX2                !
 ! A22   A(5,6,7)              101.0194         estimate D2E/DX2                !
 ! A23   A(5,6,15)             112.4731         estimate D2E/DX2                !
 ! A24   A(5,6,16)             110.702          estimate D2E/DX2                !
 ! A25   A(7,6,15)             113.2186         estimate D2E/DX2                !
 ! A26   A(7,6,16)             111.3688         estimate D2E/DX2                !
 ! A27   A(15,6,16)            108.0061         estimate D2E/DX2                !
 ! A28   A(6,7,8)              100.8454         estimate D2E/DX2                !
 ! A29   A(6,7,17)             113.4732         estimate D2E/DX2                !
 ! A30   A(6,7,18)             111.4157         estimate D2E/DX2                !
 ! A31   A(8,7,17)             112.6915         estimate D2E/DX2                !
 ! A32   A(8,7,18)             110.2758         estimate D2E/DX2                !
 ! A33   A(17,7,18)            108.0587         estimate D2E/DX2                !
 ! A34   A(3,8,7)              109.1548         estimate D2E/DX2                !
 ! A35   A(3,8,9)              102.8591         estimate D2E/DX2                !
 ! A36   A(3,8,19)             115.1341         estimate D2E/DX2                !
 ! A37   A(7,8,9)              103.0588         estimate D2E/DX2                !
 ! A38   A(7,8,19)             115.5067         estimate D2E/DX2                !
 ! A39   A(9,8,19)             109.6856         estimate D2E/DX2                !
 ! A40   A(5,9,8)               96.9255         estimate D2E/DX2                !
 ! D1    D(1,2,3,4)            124.1207         estimate D2E/DX2                !
 ! D2    D(1,2,3,8)           -125.0585         estimate D2E/DX2                !
 ! D3    D(1,2,3,11)            -1.251          estimate D2E/DX2                !
 ! D4    D(10,2,3,4)           -56.1269         estimate D2E/DX2                !
 ! D5    D(10,2,3,8)            54.6939         estimate D2E/DX2                !
 ! D6    D(10,2,3,11)          178.5013         estimate D2E/DX2                !
 ! D7    D(2,3,4,5)            119.2168         estimate D2E/DX2                !
 ! D8    D(2,3,4,12)          -119.0063         estimate D2E/DX2                !
 ! D9    D(2,3,4,13)             2.1071         estimate D2E/DX2                !
 ! D10   D(8,3,4,5)              1.6153         estimate D2E/DX2                !
 ! D11   D(8,3,4,12)           123.3921         estimate D2E/DX2                !
 ! D12   D(8,3,4,13)          -115.4944         estimate D2E/DX2                !
 ! D13   D(11,3,4,5)          -118.2822         estimate D2E/DX2                !
 ! D14   D(11,3,4,12)            3.4947         estimate D2E/DX2                !
 ! D15   D(11,3,4,13)          124.6082         estimate D2E/DX2                !
 ! D16   D(2,3,8,7)            166.3645         estimate D2E/DX2                !
 ! D17   D(2,3,8,9)            -84.6917         estimate D2E/DX2                !
 ! D18   D(2,3,8,19)            34.5674         estimate D2E/DX2                !
 ! D19   D(4,3,8,7)            -75.5607         estimate D2E/DX2                !
 ! D20   D(4,3,8,9)             33.383          estimate D2E/DX2                !
 ! D21   D(4,3,8,19)           152.6422         estimate D2E/DX2                !
 ! D22   D(11,3,8,7)            44.9866         estimate D2E/DX2                !
 ! D23   D(11,3,8,9)           153.9304         estimate D2E/DX2                !
 ! D24   D(11,3,8,19)          -86.8105         estimate D2E/DX2                !
 ! D25   D(3,4,5,6)             72.7424         estimate D2E/DX2                !
 ! D26   D(3,4,5,9)            -35.9767         estimate D2E/DX2                !
 ! D27   D(3,4,5,14)          -154.5299         estimate D2E/DX2                !
 ! D28   D(12,4,5,6)           -48.1092         estimate D2E/DX2                !
 ! D29   D(12,4,5,9)          -156.8283         estimate D2E/DX2                !
 ! D30   D(12,4,5,14)           84.6184         estimate D2E/DX2                !
 ! D31   D(13,4,5,6)          -169.4469         estimate D2E/DX2                !
 ! D32   D(13,4,5,9)            81.834          estimate D2E/DX2                !
 ! D33   D(13,4,5,14)          -36.7193         estimate D2E/DX2                !
 ! D34   D(4,5,6,7)            -74.1621         estimate D2E/DX2                !
 ! D35   D(4,5,6,15)            46.8492         estimate D2E/DX2                !
 ! D36   D(4,5,6,16)           167.7759         estimate D2E/DX2                !
 ! D37   D(9,5,6,7)             34.0068         estimate D2E/DX2                !
 ! D38   D(9,5,6,15)           155.0181         estimate D2E/DX2                !
 ! D39   D(9,5,6,16)           -84.0552         estimate D2E/DX2                !
 ! D40   D(14,5,6,7)           153.313          estimate D2E/DX2                !
 ! D41   D(14,5,6,15)          -85.6757         estimate D2E/DX2                !
 ! D42   D(14,5,6,16)           35.251          estimate D2E/DX2                !
 ! D43   D(4,5,9,8)             57.8859         estimate D2E/DX2                !
 ! D44   D(6,5,9,8)            -56.2847         estimate D2E/DX2                !
 ! D45   D(14,5,9,8)          -179.665          estimate D2E/DX2                !
 ! D46   D(5,6,7,8)              0.1489         estimate D2E/DX2                !
 ! D47   D(5,6,7,17)           120.9071         estimate D2E/DX2                !
 ! D48   D(5,6,7,18)          -116.8614         estimate D2E/DX2                !
 ! D49   D(15,6,7,8)          -120.3345         estimate D2E/DX2                !
 ! D50   D(15,6,7,17)            0.4237         estimate D2E/DX2                !
 ! D51   D(15,6,7,18)          122.6553         estimate D2E/DX2                !
 ! D52   D(16,6,7,8)           117.725          estimate D2E/DX2                !
 ! D53   D(16,6,7,17)         -121.5168         estimate D2E/DX2                !
 ! D54   D(16,6,7,18)            0.7147         estimate D2E/DX2                !
 ! D55   D(6,7,8,3)             74.3608         estimate D2E/DX2                !
 ! D56   D(6,7,8,9)            -34.4485         estimate D2E/DX2                !
 ! D57   D(6,7,8,19)          -154.04           estimate D2E/DX2                !
 ! D58   D(17,7,8,3)           -46.9511         estimate D2E/DX2                !
 ! D59   D(17,7,8,9)          -155.7604         estimate D2E/DX2                !
 ! D60   D(17,7,8,19)           84.6481         estimate D2E/DX2                !
 ! D61   D(18,7,8,3)          -167.7926         estimate D2E/DX2                !
 ! D62   D(18,7,8,9)            83.3981         estimate D2E/DX2                !
 ! D63   D(18,7,8,19)          -36.1934         estimate D2E/DX2                !
 ! D64   D(3,8,9,5)            -56.9788         estimate D2E/DX2                !
 ! D65   D(7,8,9,5)             56.5023         estimate D2E/DX2                !
 ! D66   D(19,8,9,5)          -179.9609         estimate D2E/DX2                !
 --------------------------------------------------------------------------------
 Trust Radius=3.00D-01 FncErr=1.00D-07 GrdErr=1.00D-06
 Number of steps in this run=    114 maximum allowed number of steps=    114.
 GradGradGradGradGradGradGradGradGradGradGradGradGradGradGradGradGradGrad

                          Input orientation:                          
 ---------------------------------------------------------------------
 Center     Atomic      Atomic             Coordinates (Angstroms)
 Number     Number       Type             X           Y           Z
 ---------------------------------------------------------------------
      1          8           0        1.347182   -0.369399    0.077427
      2          6           0        0.184361   -0.058552    0.124599
      3          6           0       -0.445821    0.770363    1.216833
      4          6           0       -1.167069    2.033805    0.640385
      5          6           0       -2.623006    1.787338    1.091976
      6          6           0       -2.752746    2.015576    2.614218
      7          6           0       -2.056670    0.734517    3.168132
      8          6           0       -1.661963    0.026891    1.853647
      9          8           0       -2.736974    0.361107    0.971270
     10          1           0       -0.533301   -0.379346   -0.665675
     11          1           0        0.325715    1.010783    1.950839
     12          1           0       -0.741401    2.964929    1.020107
     13          1           0       -1.109375    2.057414   -0.452170
     14          1           0       -3.385302    2.267201    0.478584
     15          1           0       -2.272923    2.941732    2.940142
     16          1           0       -3.803087    2.057270    2.910191
     17          1           0       -1.196301    0.948260    3.806470
     18          1           0       -2.754423    0.115592    3.736413
     19          1           0       -1.561260   -1.057188    1.915834
 ---------------------------------------------------------------------
                    Distance matrix (angstroms):
                    1          2          3          4          5
     1  O    0.000000
     2  C    1.204576   0.000000
     3  C    2.410842   1.509041   0.000000
     4  C    3.523317   2.543689   1.564856   0.000000
     5  C    4.630682   3.496347   2.406234   1.544162   0.000000
     6  C    5.378924   4.373421   2.970714   2.531941   1.544715
     7  C    4.728349   3.861900   2.530551   2.978094   2.395744
     8  C    3.516668   2.530972   1.561180   2.396796   2.145442
     9  O    4.244164   3.070369   2.340337   2.317760   1.435860
    10  H    2.022008   1.114666   2.207560   2.816159   3.485789
    11  H    2.541253   2.120993   1.091712   2.234338   3.167908
    12  H    4.045808   3.286397   2.223103   1.091958   2.220883
    13  H    3.493503   2.546316   2.209609   1.094332   2.179084
    14  H    5.432217   4.275152   3.380249   2.236339   1.089777
    15  H    5.680130   4.792414   3.320081   2.708528   2.207011
    16  H    6.359130   5.304335   3.974270   3.478672   2.184344
    17  H    4.702264   4.059072   2.702053   3.347141   3.179311
    18  H    5.517840   4.659612   3.479462   3.972987   3.131302
    19  H    3.508821   2.693137   2.252276   3.366956   3.146009
                    6          7          8          9         10
     6  C    0.000000
     7  C    1.559632   0.000000
     8  C    2.392310   1.544150   0.000000
     9  O    2.331694   2.329904   1.430364   0.000000
    10  H    4.628098   4.273104   2.790321   2.843244   0.000000
    11  H    3.305541   2.689588   2.219990   3.280504   3.084885
    12  H    2.736416   3.364324   3.189716   3.280943   3.750912
    13  H    3.479247   3.969132   3.121725   2.748221   2.513015
    14  H    2.241512   3.368687   3.143197   2.072743   4.055545
    15  H    1.092805   2.229471   3.170180   3.278937   5.201707
    16  H    1.092041   2.205942   3.134189   2.788007   5.423598
    17  H    2.232297   1.092427   2.208909   3.279753   4.711920
    18  H    2.206640   1.092187   2.178566   2.776076   4.955475
    19  H    3.368866   2.241403   1.090520   2.070282   2.860133
                   11         12         13         14         15
    11  H    0.000000
    12  H    2.413231   0.000000
    13  H    2.988205   1.768216   0.000000
    14  H    4.185423   2.787522   2.467824   0.000000
    15  H    3.385292   2.456141   3.693730   2.784178   0.000000
    16  H    4.366062   3.710819   4.308312   2.476152   1.767645
    17  H    2.400793   3.469540   4.401567   4.195969   2.425607
    18  H    3.671089   4.421459   4.901131   3.954855   2.975392
    19  H    2.799715   4.201418   3.938577   4.055167   4.188918
                   16         17         18         19
    16  H    0.000000
    17  H    2.971288   0.000000
    18  H    2.356364   1.768047   0.000000
    19  H    3.964137   2.780201   2.472562   0.000000
 Stoichiometry    C7H10O2
 Framework group  C1[X(C7H10O2)]
 Deg. of freedom    51
 Full point group                 C1      NOp   1
 Largest Abelian subgroup         C1      NOp   1
 Largest concise Abelian subgroup C1      NOp   1
                         Standard orientation:                         
 ---------------------------------------------------------------------
 Center     Atomic      Atomic             Coordinates (Angstroms)
 Number     Number       Type             X           Y           Z
 ---------------------------------------------------------------------
      1          8           0       -3.179516   -0.279269   -0.242297
      2          6           0       -2.125495    0.057423    0.233813
      3          6           0       -0.784824   -0.086781   -0.443690
      4          6           0       -0.036108    1.283872   -0.541198
      5          6           0        1.243468    0.991794    0.272319
      6          6           0        2.180995    0.061166   -0.528380
      7          6           0        1.434513   -1.301577   -0.393668
      8          6           0        0.214341   -0.881871    0.454522
      9          8           0        0.748976    0.131821    1.310404
     10          1           0       -2.068002    0.512585    1.249689
     11          1           0       -0.942114   -0.562918   -1.413427
     12          1           0        0.158427    1.578708   -1.574445
     13          1           0       -0.612126    2.083285   -0.065062
     14          1           0        1.718008    1.865712    0.718068
     15          1           0        2.304472    0.384124   -1.565044
     16          1           0        3.170148    0.020290   -0.067446
     17          1           0        1.150184   -1.738723   -1.353593
     18          1           0        2.037154   -2.034656    0.146972
     19          1           0       -0.233174   -1.672976    1.057116
 ---------------------------------------------------------------------
 Rotational constants (GHZ):      3.6227177      1.2089802      1.1314313
 Standard basis: 6-31G(2df,p) (6D, 7F)
 There are   329 symmetry adapted cartesian basis functions of A   symmetry.
 There are   302 symmetry adapted basis functions of A   symmetry.
   302 basis functions,   466 primitive gaussians,   329 cartesian basis functions
    34 alpha electrons       34 beta electrons
       nuclear repulsion energy       471.0561006414 Hartrees.
 NAtoms=   19 NActive=   19 NUniq=   19 SFac= 1.00D+00 NAtFMM=   60 NAOKFM=F Big=F
 Integral buffers will be    131072 words long.
 Raffenetti 2 integral format.
 Two-electron integral symmetry is turned on.
 One-electron integrals computed using PRISM.
 NBasis=   302 RedAO= T EigKep=  3.56D-04  NBF=   302
 NBsUse=   302 1.00D-06 EigRej= -1.00D+00 NBFU=   302
 ExpMin= 1.61D-01 ExpMax= 5.48D+03 ExpMxC= 8.25D+02 IAcc=1 IRadAn=         1 AccDes= 0.00D+00
 Harris functional with IExCor=  402 and IRadAn=       1 diagonalized for initial guess.
 HarFok:  IExCor=  402 AccDes= 0.00D+00 IRadAn=         1 IDoV= 1 UseB2=F ITyADJ=14
 ICtDFT=  3500011 ScaDFX=  1.000000  1.000000  1.000000  1.000000
 FoFCou: FMM=F IPFlag=           0 FMFlag=      100000 FMFlg1=           0
         NFxFlg=           0 DoJE=T BraDBF=F KetDBF=T FulRan=T
         wScrn=  0.000000 ICntrl=     500 IOpCl=  0 I1Cent=   200000004 NGrid=           0
         NMat0=    1 NMatS0=      1 NMatT0=    0 NMatD0=    1 NMtDS0=    0 NMtDT0=    0
 Petite list used in FoFCou.
 Requested convergence on RMS density matrix=1.00D-08 within 128 cycles.
 Requested convergence on MAX density matrix=1.00D-06.
 Requested convergence on             energy=1.00D-06.
 No special actions if energy rises.
 Integral accuracy reduced to 1.0D-05 until final iterations.
 Initial convergence to 1.0D-05 achieved.  Increase integral accuracy.
 SCF Done:  E(RB3LYP) =  -423.214828493     A.U. after   14 cycles
            NFock= 14  Conv=0.56D-08     -V/T= 2.0074

 **********************************************************************

            Population analysis using the SCF density.

 **********************************************************************

 Orbital symmetries:
       Occupied  (A) (A) (A) (A) (A) (A) (A) (A) (A) (A) (A) (A)
                 (A) (A) (A) (A) (A) (A) (A) (A) (A) (A) (A) (A)
                 (A) (A) (A) (A) (A) (A) (A) (A) (A) (A)
       Virtual   (A) (A) (A) (A) (A) (A) (A) (A) (A) (A) (A) (A)
                 (A) (A) (A) (A) (A) (A) (A) (A) (A) (A) (A) (A)
                 (A) (A) (A) (A) (A) (A) (A) (A) (A) (A) (A) (A)
                 (A) (A) (A) (A) (A) (A) (A) (A) (A) (A) (A) (A)
                 (A) (A) (A) (A) (A) (A) (A) (A) (A) (A) (A) (A)
                 (A) (A) (A) (A) (A) (A) (A) (A) (A) (A) (A) (A)
                 (A) (A) (A) (A) (A) (A) (A) (A) (A) (A) (A) (A)
                 (A) (A) (A) (A) (A) (A) (A) (A) (A) (A) (A) (A)
                 (A) (A) (A) (A) (A) (A) (A) (A) (A) (A) (A) (A)
                 (A) (A) (A) (A) (A) (A) (A) (A) (A) (A) (A) (A)
                 (A) (A) (A) (A) (A) (A) (A) (A) (A) (A) (A) (A)
                 (A) (A) (A) (A) (A) (A) (A) (A) (A) (A) (A) (A)
                 (A) (A) (A) (A) (A) (A) (A) (A) (A) (A) (A) (A)
                 (A) (A) (A) (A) (A) (A) (A) (A) (A) (A) (A) (A)
                 (A) (A) (A) (A) (A) (A) (A) (A) (A) (A) (A) (A)
                 (A) (A) (A) (A) (A) (A) (A) (A) (A) (A) (A) (A)
                 (A) (A) (A) (A) (A) (A) (A) (A) (A) (A) (A) (A)
                 (A) (A) (A) (A) (A) (A) (A) (A) (A) (A) (A) (A)
                 (A) (A) (A) (A) (A) (A) (A) (A) (A) (A) (A) (A)
                 (A) (A) (A) (A) (A) (A) (A) (A) (A) (A) (A) (A)
                 (A) (A) (A) (A) (A) (A) (A) (A) (A) (A) (A) (A)
                 (A) (A) (A) (A) (A) (A) (A) (A) (A) (A) (A) (A)
                 (A) (A) (A) (A)
 The electronic state is 1-A.
 Alpha  occ. eigenvalues --  -19.14704 -19.13593 -10.26592 -10.24372 -10.23968
 Alpha  occ. eigenvalues --  -10.19912 -10.19799 -10.19266 -10.19169  -1.05673
 Alpha  occ. eigenvalues --   -1.04230  -0.81162  -0.76987  -0.75570  -0.64482
 Alpha  occ. eigenvalues --   -0.59361  -0.58114  -0.56862  -0.52799  -0.48910
 Alpha  occ. eigenvalues --   -0.46953  -0.44765  -0.42605  -0.41996  -0.40532
 Alpha  occ. eigenvalues --   -0.39407  -0.37143  -0.35822  -0.35359  -0.35047
 Alpha  occ. eigenvalues --   -0.33104  -0.32072  -0.27116  -0.24438
 Alpha virt. eigenvalues --   -0.01986   0.06896   0.08622   0.12236   0.13209
 Alpha virt. eigenvalues --    0.14157   0.14501   0.14679   0.15076   0.16148
 Alpha virt. eigenvalues --    0.16373   0.17889   0.19334   0.19847   0.20554
 Alpha virt. eigenvalues --    0.22323   0.26211   0.27065   0.29816   0.30748
 Alpha virt. eigenvalues --    0.32547   0.42392   0.43995   0.44676   0.45948
 Alpha virt. eigenvalues --    0.49200   0.50064   0.51042   0.52712   0.54689
 Alpha virt. eigenvalues --    0.55345   0.55735   0.57048   0.57551   0.58759
 Alpha virt. eigenvalues --    0.60567   0.62116   0.64662   0.65293   0.65842
 Alpha virt. eigenvalues --    0.67160   0.70504   0.72946   0.74230   0.74766
 Alpha virt. eigenvalues --    0.75819   0.76896   0.77298   0.78593   0.80279
 Alpha virt. eigenvalues --    0.82386   0.83984   0.84722   0.86534   0.87690
 Alpha virt. eigenvalues --    0.89099   0.92490   0.94430   0.95391   0.98168
 Alpha virt. eigenvalues --    0.99327   1.03281   1.05354   1.05644   1.07603
 Alpha virt. eigenvalues --    1.11869   1.14017   1.17893   1.18739   1.21749
 Alpha virt. eigenvalues --    1.24478   1.27440   1.28236   1.30480   1.33974
 Alpha virt. eigenvalues --    1.35226   1.35740   1.38316   1.38962   1.40055
 Alpha virt. eigenvalues --    1.42342   1.44074   1.45301   1.45594   1.48136
 Alpha virt. eigenvalues --    1.48664   1.50005   1.53682   1.55410   1.57337
 Alpha virt. eigenvalues --    1.58049   1.61850   1.63171   1.65222   1.66571
 Alpha virt. eigenvalues --    1.69263   1.73089   1.73293   1.74544   1.76618
 Alpha virt. eigenvalues --    1.77491   1.82209   1.84792   1.88373   1.91912
 Alpha virt. eigenvalues --    1.97315   2.01454   2.05539   2.08304   2.12890
 Alpha virt. eigenvalues --    2.13510   2.15516   2.24032   2.26928   2.28673
 Alpha virt. eigenvalues --    2.29016   2.31187   2.34277   2.36263   2.39486
 Alpha virt. eigenvalues --    2.40868   2.43721   2.47425   2.52135   2.56040
 Alpha virt. eigenvalues --    2.57486   2.63949   2.66786   2.68940   2.70697
 Alpha virt. eigenvalues --    2.75032   2.76396   2.81353   2.82396   2.85692
 Alpha virt. eigenvalues --    2.86745   2.87737   2.89431   2.91721   2.94130
 Alpha virt. eigenvalues --    2.94726   2.97756   3.03399   3.05414   3.06979
 Alpha virt. eigenvalues --    3.09736   3.12951   3.13279   3.14990   3.15892
 Alpha virt. eigenvalues --    3.16735   3.17875   3.21425   3.25099   3.26264
 Alpha virt. eigenvalues --    3.30494   3.31805   3.32694   3.34892   3.37892
 Alpha virt. eigenvalues --    3.42626   3.44304   3.45529   3.47047   3.51316
 Alpha virt. eigenvalues --    3.52638   3.55557   3.56208   3.60211   3.61963
 Alpha virt. eigenvalues --    3.63944   3.68563   3.69617   3.72894   3.78336
 Alpha virt. eigenvalues --    3.80685   3.89524   3.92689   3.93836   3.99984
 Alpha virt. eigenvalues --    4.07015   4.12650   4.13224   4.14259   4.19252
 Alpha virt. eigenvalues --    4.21024   4.22592   4.26652   4.27702   4.29236
 Alpha virt. eigenvalues --    4.32112   4.36904   4.37401   4.39880   4.40776
 Alpha virt. eigenvalues --    4.44768   4.45348   4.47156   4.48972   4.50406
 Alpha virt. eigenvalues --    4.53026   4.54461   4.56798   4.59051   4.59956
 Alpha virt. eigenvalues --    4.61545   4.62385   4.64608   4.66247   4.67207
 Alpha virt. eigenvalues --    4.68795   4.71017   4.73003   4.73642   4.75632
 Alpha virt. eigenvalues --    4.79674   4.80130   4.82560   4.86690   4.89902
 Alpha virt. eigenvalues --    4.90822   4.92626   4.95857   4.98323   5.00347
 Alpha virt. eigenvalues --    5.03301   5.06264   5.09515   5.09619   5.11202
 Alpha virt. eigenvalues --    5.13757   5.15850   5.20220   5.23804   5.27684
 Alpha virt. eigenvalues --    5.29429   5.36718   5.44764   5.46709   5.49967
 Alpha virt. eigenvalues --    5.50214   5.52904   5.55201   5.60813   5.67082
 Alpha virt. eigenvalues --    5.80961   5.86016   5.92892   5.98848   6.04375
 Alpha virt. eigenvalues --    6.08246   6.11336   6.17527   6.27219   6.39051
 Alpha virt. eigenvalues --    6.73790   6.81461   7.11696   7.58233  10.77889
 Alpha virt. eigenvalues --   11.22570  11.66694  11.85729  12.27747  12.76933
 Alpha virt. eigenvalues --   12.90993  12.99297  13.57652
          Condensed to atoms (all electrons):
               1          2          3          4          5          6
     1  O    7.599916   0.767311  -0.056648   0.000775   0.000017   0.000000
     2  C    0.767311   4.476623   0.311853  -0.010701  -0.000764   0.000558
     3  C   -0.056648   0.311853   5.206028   0.333992  -0.027343  -0.022481
     4  C    0.000775  -0.010701   0.333992   5.061028   0.355249  -0.025208
     5  C    0.000017  -0.000764  -0.027343   0.355249   4.669743   0.374269
     6  C    0.000000   0.000558  -0.022481  -0.025208   0.374269   4.959929
     7  C   -0.000046   0.001104  -0.013767  -0.020840  -0.037831   0.393790
     8  C    0.000054  -0.008931   0.294914  -0.019314  -0.107501  -0.033803
     9  O    0.000042   0.000344  -0.055329  -0.064321   0.388599  -0.059083
    10  H   -0.055995   0.342979  -0.123226   0.002142  -0.000436   0.000075
    11  H    0.001226  -0.016177   0.321620  -0.031489   0.003193   0.000629
    12  H   -0.000041   0.002266  -0.016734   0.349647  -0.019522  -0.004293
    13  H    0.000216  -0.009391  -0.035815   0.363588  -0.023271   0.003526
    14  H    0.000000   0.000051   0.004180  -0.045831   0.375281  -0.047543
    15  H    0.000000  -0.000050   0.001501  -0.004879  -0.021463   0.356547
    16  H    0.000000   0.000002   0.000386   0.003616  -0.021101   0.365215
    17  H   -0.000008   0.000155  -0.003659   0.001125   0.002832  -0.025337
    18  H    0.000001  -0.000137   0.002393   0.000416   0.000534  -0.024317
    19  H    0.000218   0.002133  -0.059787   0.006219   0.005438   0.005308
               7          8          9         10         11         12
     1  O   -0.000046   0.000054   0.000042  -0.055995   0.001226  -0.000041
     2  C    0.001104  -0.008931   0.000344   0.342979  -0.016177   0.002266
     3  C   -0.013767   0.294914  -0.055329  -0.123226   0.321620  -0.016734
     4  C   -0.020840  -0.019314  -0.064321   0.002142  -0.031489   0.349647
     5  C   -0.037831  -0.107501   0.388599  -0.000436   0.003193  -0.019522
     6  C    0.393790  -0.033803  -0.059083   0.000075   0.000629  -0.004293
     7  C    4.960196   0.365135  -0.049274   0.000043  -0.003763   0.001102
     8  C    0.365135   4.765116   0.364903   0.005643  -0.029044   0.003206
     9  O   -0.049274   0.364903   7.759759   0.004415   0.002571   0.003142
    10  H    0.000043   0.005643   0.004415   0.720163   0.007709  -0.000072
    11  H   -0.003763  -0.029044   0.002571   0.007709   0.649036  -0.006246
    12  H    0.001102   0.003206   0.003142  -0.000072  -0.006246   0.609067
    13  H    0.000117   0.001368   0.000042   0.008076   0.004763  -0.037869
    14  H    0.004903   0.006855  -0.021121   0.000013  -0.000128   0.003190
    15  H   -0.024792   0.002134   0.003011  -0.000003  -0.000260   0.002096
    16  H   -0.023600   0.000132   0.001037   0.000000  -0.000005   0.000019
    17  H    0.357770  -0.022582   0.003038  -0.000016   0.002568  -0.000394
    18  H    0.362247  -0.018631   0.000791   0.000009   0.000073  -0.000011
    19  H   -0.047774   0.380154  -0.023046   0.002566   0.003016  -0.000135
              13         14         15         16         17         18
     1  O    0.000216   0.000000   0.000000   0.000000  -0.000008   0.000001
     2  C   -0.009391   0.000051  -0.000050   0.000002   0.000155  -0.000137
     3  C   -0.035815   0.004180   0.001501   0.000386  -0.003659   0.002393
     4  C    0.363588  -0.045831  -0.004879   0.003616   0.001125   0.000416
     5  C   -0.023271   0.375281  -0.021463  -0.021101   0.002832   0.000534
     6  C    0.003526  -0.047543   0.356547   0.365215  -0.025337  -0.024317
     7  C    0.000117   0.004903  -0.024792  -0.023600   0.357770   0.362247
     8  C    0.001368   0.006855   0.002134   0.000132  -0.022582  -0.018631
     9  O    0.000042  -0.021121   0.003011   0.001037   0.003038   0.000791
    10  H    0.008076   0.000013  -0.000003   0.000000  -0.000016   0.000009
    11  H    0.004763  -0.000128  -0.000260  -0.000005   0.002568   0.000073
    12  H   -0.037869   0.003190   0.002096   0.000019  -0.000394  -0.000011
    13  H    0.617804  -0.003941   0.000115  -0.000217  -0.000017   0.000021
    14  H   -0.003941   0.642331   0.003302  -0.003780  -0.000134  -0.000175
    15  H    0.000115   0.003302   0.623119  -0.040061  -0.007314   0.004190
    16  H   -0.000217  -0.003780  -0.040061   0.615638   0.004078  -0.011707
    17  H   -0.000017  -0.000134  -0.007314   0.004078   0.618148  -0.039609
    18  H    0.000021  -0.000175   0.004190  -0.011707  -0.039609   0.616789
    19  H   -0.000137  -0.000334  -0.000131  -0.000180   0.003076  -0.003263
              19
     1  O    0.000218
     2  C    0.002133
     3  C   -0.059787
     4  C    0.006219
     5  C    0.005438
     6  C    0.005308
     7  C   -0.047774
     8  C    0.380154
     9  O   -0.023046
    10  H    0.002566
    11  H    0.003016
    12  H   -0.000135
    13  H   -0.000137
    14  H   -0.000334
    15  H   -0.000131
    16  H   -0.000180
    17  H    0.003076
    18  H   -0.003263
    19  H    0.637594
 Mulliken charges:
               1
     1  O   -0.257038
     2  C    0.140772
     3  C   -0.062077
     4  C   -0.255214
     5  C    0.084077
     6  C   -0.217779
     7  C   -0.224719
     8  C    0.050193
     9  O   -0.259516
    10  H    0.085917
    11  H    0.090708
    12  H    0.111580
    13  H    0.111021
    14  H    0.082880
    15  H    0.102937
    16  H    0.110526
    17  H    0.106281
    18  H    0.110386
    19  H    0.089066
 Sum of Mulliken charges =   0.00000
 Mulliken charges with hydrogens summed into heavy atoms:
               1
     1  O   -0.257038
     2  C    0.226689
     3  C    0.028630
     4  C   -0.032613
     5  C    0.166957
     6  C   -0.004316
     7  C   -0.008052
     8  C    0.139259
     9  O   -0.259516
 Electronic spatial extent (au):  <R**2>=           1132.7460
 Charge=              0.0000 electrons
 Dipole moment (field-independent basis, Debye):
    X=              2.9277    Y=              0.4468    Z=             -0.8380  Tot=              3.0779
 Quadrupole moment (field-independent basis, Debye-Ang):
   XX=            -63.3489   YY=            -49.8942   ZZ=            -54.6926
   XY=             -1.2217   XZ=             -3.2275   YZ=             -0.7402
 Traceless Quadrupole moment (field-independent basis, Debye-Ang):
   XX=             -7.3703   YY=              6.0843   ZZ=              1.2860
   XY=             -1.2217   XZ=             -3.2275   YZ=             -0.7402
 Octapole moment (field-independent basis, Debye-Ang**2):
  XXX=             41.3414  YYY=              0.0872  ZZZ=             -2.6791  XYY=             -1.4278
  XXY=              6.8132  XXZ=              8.5220  XZZ=             -5.2803  YZZ=             -0.8945
  YYZ=              3.9489  XYZ=              0.7391
 Hexadecapole moment (field-independent basis, Debye-Ang**3):
 XXXX=          -1081.8481 YYYY=           -294.8361 ZZZZ=           -201.8454 XXXY=            -13.6121
 XXXZ=             -5.2072 YYYX=              5.4026 YYYZ=              0.8797 ZZZX=              0.1512
 ZZZY=             -1.1564 XXYY=           -199.8989 XXZZ=           -189.6799 YYZZ=            -79.1646
 XXYZ=             -1.6220 YYXZ=              4.4651 ZZXY=              2.7465
 N-N= 4.710561006414D+02 E-N=-1.928721066313D+03  KE= 4.201023059089D+02
 Calling FoFJK, ICntrl=      2127 FMM=F ISym2X=0 I1Cent= 0 IOpClX= 0 NMat=1 NMatS=1 NMatT=0.
 ***** Axes restored to original set *****
 -------------------------------------------------------------------
 Center     Atomic                   Forces (Hartrees/Bohr)
 Number     Number              X              Y              Z
 -------------------------------------------------------------------
      1        8          -0.000010505   -0.000001201    0.000007159
      2        6           0.000014745   -0.000013010   -0.000008250
      3        6          -0.000006691   -0.000000033    0.000014815
      4        6           0.000003739    0.000004273    0.000000231
      5        6           0.000001949   -0.000001081    0.000000850
      6        6           0.000003863    0.000013171   -0.000005178
      7        6          -0.000007967   -0.000007220    0.000004541
      8        6           0.000004696   -0.000003803   -0.000006578
      9        8           0.000002135    0.000006406   -0.000010507
     10        1           0.000003913    0.000004494    0.000002582
     11        1          -0.000000896   -0.000003656    0.000006002
     12        1           0.000006041   -0.000001341    0.000007159
     13        1           0.000007706    0.000002560    0.000001971
     14        1           0.000004993    0.000006388   -0.000003202
     15        1          -0.000000452   -0.000001908    0.000004988
     16        1          -0.000004600   -0.000000431   -0.000007047
     17        1          -0.000005465   -0.000003169    0.000000010
     18        1          -0.000008542    0.000000788   -0.000004140
     19        1          -0.000008661   -0.000001228   -0.000005408
 -------------------------------------------------------------------
 Cartesian Forces:  Max     0.000014815 RMS     0.000006172

 GradGradGradGradGradGradGradGradGradGradGradGradGradGradGradGradGradGrad
 Berny optimization.
 FormGI is forming the generalized inverse of G from B-inverse, IUseBI=4.
 Internal  Forces:  Max     0.000011870 RMS     0.000001919
 Search for a local minimum.
 Step number   1 out of a maximum of  114
 All quantities printed in internal units (Hartrees-Bohrs-Radians)
 Mixed Optimization -- En-DIIS/RFO-DIIS
 Second derivative matrix not updated -- first step.
 ITU=  0
     Eigenvalues ---    0.00308   0.00646   0.00646   0.00711   0.02131
     Eigenvalues ---    0.02567   0.03061   0.03550   0.03995   0.04270
     Eigenvalues ---    0.04884   0.05145   0.05295   0.05563   0.05601
     Eigenvalues ---    0.06001   0.06045   0.06403   0.06425   0.06479
     Eigenvalues ---    0.07422   0.07465   0.08034   0.09301   0.09581
     Eigenvalues ---    0.10551   0.11559   0.15402   0.16000   0.16873
     Eigenvalues ---    0.22000   0.23717   0.24577   0.24770   0.25844
     Eigenvalues ---    0.27510   0.28066   0.31447   0.32111   0.33723
     Eigenvalues ---    0.34317   0.34491   0.34534   0.34561   0.34578
     Eigenvalues ---    0.34587   0.34616   0.34753   0.34838   0.35192
     Eigenvalues ---    1.02557
 RFO step:  Lambda= 0.00000000D+00 EMin= 3.08363885D-03
 Linear search not attempted -- first point.
 Iteration  1 RMS(Cart)=  0.00006948 RMS(Int)=  0.00000000
 Iteration  2 RMS(Cart)=  0.00000000 RMS(Int)=  0.00000000
 Variable       Old X    -DE/DX   Delta X   Delta X   Delta X     New X
                                 (Linear)    (Quad)   (Total)
    R1        2.27632  -0.00001   0.00000  -0.00001  -0.00001   2.27631
    R2        2.85167   0.00001   0.00000   0.00003   0.00003   2.85171
    R3        2.10641   0.00000   0.00000  -0.00001  -0.00001   2.10640
    R4        2.95715   0.00000   0.00000   0.00002   0.00002   2.95717
    R5        2.95020  -0.00001   0.00000  -0.00002  -0.00002   2.95018
    R6        2.06304   0.00000   0.00000   0.00000   0.00000   2.06304
    R7        2.91804   0.00000   0.00000   0.00000   0.00000   2.91804
    R8        2.06350   0.00000   0.00000   0.00000   0.00000   2.06350
    R9        2.06799   0.00000   0.00000   0.00000   0.00000   2.06799
   R10        2.91909   0.00000   0.00000   0.00000   0.00000   2.91909
   R11        2.71338   0.00000   0.00000  -0.00001  -0.00001   2.71338
   R12        2.05938   0.00000   0.00000   0.00000   0.00000   2.05938
   R13        2.94728   0.00000   0.00000   0.00002   0.00002   2.94729
   R14        2.06510   0.00000   0.00000   0.00000   0.00000   2.06510
   R15        2.06366   0.00000   0.00000   0.00001   0.00001   2.06366
   R16        2.91802   0.00001   0.00000   0.00003   0.00003   2.91805
   R17        2.06439   0.00000   0.00000   0.00000   0.00000   2.06439
   R18        2.06393   0.00000   0.00000   0.00000   0.00000   2.06393
   R19        2.70300   0.00000   0.00000   0.00000   0.00000   2.70300
   R20        2.06078   0.00000   0.00000   0.00000   0.00000   2.06079
    A1        2.18123   0.00000   0.00000   0.00000   0.00000   2.18123
    A2        2.11705   0.00000   0.00000   0.00001   0.00001   2.11706
    A3        1.98490   0.00000   0.00000  -0.00001  -0.00001   1.98489
    A4        1.94910   0.00000   0.00000  -0.00001  -0.00001   1.94909
    A5        1.93795   0.00000   0.00000  -0.00002  -0.00002   1.93793
    A6        1.88860   0.00000   0.00000   0.00002   0.00002   1.88861
    A7        1.74743   0.00000   0.00000   0.00000   0.00000   1.74743
    A8        1.97751   0.00000   0.00000   0.00000   0.00000   1.97751
    A9        1.96184   0.00000   0.00000   0.00001   0.00001   1.96184
   A10        1.77008   0.00000   0.00000   0.00000   0.00000   1.77008
   A11        1.96135   0.00000   0.00000   0.00000   0.00000   1.96134
   A12        1.94002   0.00000   0.00000   0.00000   0.00000   1.94002
   A13        1.98445   0.00000   0.00000   0.00000   0.00000   1.98445
   A14        1.92317   0.00000   0.00000  -0.00001  -0.00001   1.92316
   A15        1.88413   0.00000   0.00000   0.00001   0.00001   1.88414
   A16        1.92176   0.00000   0.00000   0.00001   0.00001   1.92177
   A17        1.78114   0.00000   0.00000  -0.00001  -0.00001   1.78113
   A18        2.00936   0.00000   0.00000   0.00000   0.00000   2.00937
   A19        1.79562   0.00000   0.00000   0.00001   0.00001   1.79563
   A20        2.01624   0.00000   0.00000  -0.00001  -0.00001   2.01623
   A21        1.91191   0.00000   0.00000  -0.00001  -0.00001   1.91190
   A22        1.76312   0.00000   0.00000  -0.00001  -0.00001   1.76312
   A23        1.96303   0.00000   0.00000   0.00005   0.00005   1.96308
   A24        1.93211   0.00000   0.00000  -0.00004  -0.00004   1.93208
   A25        1.97604   0.00000   0.00000   0.00000   0.00000   1.97604
   A26        1.94375   0.00000   0.00000  -0.00002  -0.00002   1.94373
   A27        1.88506   0.00000   0.00000   0.00001   0.00001   1.88507
   A28        1.76008   0.00000   0.00000   0.00000   0.00000   1.76009
   A29        1.98048   0.00000   0.00000  -0.00002  -0.00002   1.98046
   A30        1.94457   0.00000   0.00000   0.00000   0.00000   1.94457
   A31        1.96684   0.00000   0.00000  -0.00001  -0.00001   1.96683
   A32        1.92468   0.00000   0.00000   0.00003   0.00003   1.92470
   A33        1.88598   0.00000   0.00000   0.00000   0.00000   1.88598
   A34        1.90511   0.00000   0.00000  -0.00001  -0.00001   1.90510
   A35        1.79523   0.00000   0.00000  -0.00002  -0.00002   1.79521
   A36        2.00947   0.00000   0.00000   0.00002   0.00002   2.00948
   A37        1.79872   0.00000   0.00000   0.00002   0.00002   1.79874
   A38        2.01597   0.00000   0.00000   0.00001   0.00001   2.01598
   A39        1.91437   0.00000   0.00000  -0.00002  -0.00002   1.91436
   A40        1.69167   0.00000   0.00000   0.00001   0.00001   1.69167
    D1        2.16631   0.00000   0.00000   0.00006   0.00006   2.16638
    D2       -2.18268   0.00000   0.00000   0.00005   0.00005  -2.18263
    D3       -0.02183   0.00000   0.00000   0.00006   0.00006  -0.02178
    D4       -0.97960   0.00000   0.00000   0.00011   0.00011  -0.97949
    D5        0.95459   0.00000   0.00000   0.00009   0.00009   0.95468
    D6        3.11544   0.00000   0.00000   0.00010   0.00010   3.11554
    D7        2.08073   0.00000   0.00000  -0.00007  -0.00007   2.08065
    D8       -2.07705   0.00000   0.00000  -0.00008  -0.00008  -2.07713
    D9        0.03678   0.00000   0.00000  -0.00007  -0.00007   0.03671
   D10        0.02819   0.00000   0.00000  -0.00005  -0.00005   0.02814
   D11        2.15360   0.00000   0.00000  -0.00005  -0.00005   2.15355
   D12       -2.01576   0.00000   0.00000  -0.00004  -0.00004  -2.01580
   D13       -2.06441   0.00000   0.00000  -0.00006  -0.00006  -2.06447
   D14        0.06099   0.00000   0.00000  -0.00006  -0.00006   0.06093
   D15        2.17482   0.00000   0.00000  -0.00005  -0.00005   2.17477
   D16        2.90361   0.00000   0.00000   0.00006   0.00006   2.90366
   D17       -1.47815   0.00000   0.00000   0.00007   0.00007  -1.47808
   D18        0.60332   0.00000   0.00000   0.00004   0.00004   0.60335
   D19       -1.31878   0.00000   0.00000   0.00004   0.00004  -1.31874
   D20        0.58264   0.00000   0.00000   0.00005   0.00005   0.58269
   D21        2.66411   0.00000   0.00000   0.00002   0.00002   2.66413
   D22        0.78516   0.00000   0.00000   0.00004   0.00004   0.78521
   D23        2.68659   0.00000   0.00000   0.00005   0.00005   2.68664
   D24       -1.51513   0.00000   0.00000   0.00002   0.00002  -1.51511
   D25        1.26959   0.00000   0.00000   0.00005   0.00005   1.26964
   D26       -0.62791   0.00000   0.00000   0.00003   0.00003  -0.62788
   D27       -2.69706   0.00000   0.00000   0.00005   0.00005  -2.69701
   D28       -0.83966   0.00000   0.00000   0.00005   0.00005  -0.83961
   D29       -2.73717   0.00000   0.00000   0.00004   0.00004  -2.73713
   D30        1.47687   0.00000   0.00000   0.00005   0.00005   1.47692
   D31       -2.95741   0.00000   0.00000   0.00004   0.00004  -2.95736
   D32        1.42827   0.00000   0.00000   0.00003   0.00003   1.42830
   D33       -0.64087   0.00000   0.00000   0.00005   0.00005  -0.64083
   D34       -1.29437   0.00000   0.00000   0.00006   0.00006  -1.29431
   D35        0.81767   0.00000   0.00000   0.00008   0.00008   0.81775
   D36        2.92824   0.00000   0.00000   0.00010   0.00010   2.92834
   D37        0.59353   0.00000   0.00000   0.00006   0.00006   0.59359
   D38        2.70558   0.00000   0.00000   0.00008   0.00008   2.70566
   D39       -1.46704   0.00000   0.00000   0.00010   0.00010  -1.46694
   D40        2.67582   0.00000   0.00000   0.00005   0.00005   2.67586
   D41       -1.49532   0.00000   0.00000   0.00007   0.00007  -1.49525
   D42        0.61525   0.00000   0.00000   0.00009   0.00009   0.61534
   D43        1.01030   0.00000   0.00000   0.00001   0.00001   1.01031
   D44       -0.98235   0.00000   0.00000  -0.00001  -0.00001  -0.98236
   D45       -3.13575   0.00000   0.00000   0.00000   0.00000  -3.13574
   D46        0.00260   0.00000   0.00000  -0.00008  -0.00008   0.00252
   D47        2.11023   0.00000   0.00000  -0.00010  -0.00010   2.11013
   D48       -2.03962   0.00000   0.00000  -0.00011  -0.00011  -2.03973
   D49       -2.10023   0.00000   0.00000  -0.00013  -0.00013  -2.10037
   D50        0.00740   0.00000   0.00000  -0.00015  -0.00015   0.00724
   D51        2.14074   0.00000   0.00000  -0.00017  -0.00017   2.14057
   D52        2.05469   0.00000   0.00000  -0.00013  -0.00013   2.05455
   D53       -2.12087   0.00000   0.00000  -0.00015  -0.00015  -2.12102
   D54        0.01247   0.00000   0.00000  -0.00017  -0.00017   0.01231
   D55        1.29784   0.00000   0.00000   0.00006   0.00006   1.29790
   D56       -0.60124   0.00000   0.00000   0.00008   0.00008  -0.60116
   D57       -2.68850   0.00000   0.00000   0.00008   0.00008  -2.68842
   D58       -0.81945   0.00000   0.00000   0.00009   0.00009  -0.81936
   D59       -2.71853   0.00000   0.00000   0.00011   0.00011  -2.71842
   D60        1.47739   0.00000   0.00000   0.00011   0.00011   1.47750
   D61       -2.92853   0.00000   0.00000   0.00007   0.00007  -2.92846
   D62        1.45557   0.00000   0.00000   0.00009   0.00009   1.45566
   D63       -0.63169   0.00000   0.00000   0.00009   0.00009  -0.63160
   D64       -0.99447   0.00000   0.00000  -0.00004  -0.00004  -0.99451
   D65        0.98615   0.00000   0.00000  -0.00005  -0.00005   0.98610
   D66       -3.14091   0.00000   0.00000  -0.00003  -0.00003  -3.14095
         Item               Value     Threshold  Converged?
 Maximum Force            0.000012     0.000450     YES
 RMS     Force            0.000002     0.000300     YES
 Maximum Displacement     0.000300     0.001800     YES
 RMS     Displacement     0.000069     0.001200     YES
 Predicted change in Energy=-1.920746D-09
 Optimization completed.
    -- Stationary point found.
                           ----------------------------
                           !   Optimized Parameters   !
                           ! (Angstroms and Degrees)  !
 --------------------------                            --------------------------
 ! Name  Definition              Value          Derivative Info.                !
 --------------------------------------------------------------------------------
 ! R1    R(1,2)                  1.2046         -DE/DX =    0.0                 !
 ! R2    R(2,3)                  1.509          -DE/DX =    0.0                 !
 ! R3    R(2,10)                 1.1147         -DE/DX =    0.0                 !
 ! R4    R(3,4)                  1.5649         -DE/DX =    0.0                 !
 ! R5    R(3,8)                  1.5612         -DE/DX =    0.0                 !
 ! R6    R(3,11)                 1.0917         -DE/DX =    0.0                 !
 ! R7    R(4,5)                  1.5442         -DE/DX =    0.0                 !
 ! R8    R(4,12)                 1.092          -DE/DX =    0.0                 !
 ! R9    R(4,13)                 1.0943         -DE/DX =    0.0                 !
 ! R10   R(5,6)                  1.5447         -DE/DX =    0.0                 !
 ! R11   R(5,9)                  1.4359         -DE/DX =    0.0                 !
 ! R12   R(5,14)                 1.0898         -DE/DX =    0.0                 !
 ! R13   R(6,7)                  1.5596         -DE/DX =    0.0                 !
 ! R14   R(6,15)                 1.0928         -DE/DX =    0.0                 !
 ! R15   R(6,16)                 1.092          -DE/DX =    0.0                 !
 ! R16   R(7,8)                  1.5442         -DE/DX =    0.0                 !
 ! R17   R(7,17)                 1.0924         -DE/DX =    0.0                 !
 ! R18   R(7,18)                 1.0922         -DE/DX =    0.0                 !
 ! R19   R(8,9)                  1.4304         -DE/DX =    0.0                 !
 ! R20   R(8,19)                 1.0905         -DE/DX =    0.0                 !
 ! A1    A(1,2,3)              124.9752         -DE/DX =    0.0                 !
 ! A2    A(1,2,10)             121.2979         -DE/DX =    0.0                 !
 ! A3    A(3,2,10)             113.7264         -DE/DX =    0.0                 !
 ! A4    A(2,3,4)              111.6754         -DE/DX =    0.0                 !
 ! A5    A(2,3,8)              111.0362         -DE/DX =    0.0                 !
 ! A6    A(2,3,11)             108.2085         -DE/DX =    0.0                 !
 ! A7    A(4,3,8)              100.1205         -DE/DX =    0.0                 !
 ! A8    A(4,3,11)             113.3032         -DE/DX =    0.0                 !
 ! A9    A(8,3,11)             112.4049         -DE/DX =    0.0                 !
 ! A10   A(3,4,5)              101.4184         -DE/DX =    0.0                 !
 ! A11   A(3,4,12)             112.3769         -DE/DX =    0.0                 !
 ! A12   A(3,4,13)             111.155          -DE/DX =    0.0                 !
 ! A13   A(5,4,12)             113.7003         -DE/DX =    0.0                 !
 ! A14   A(5,4,13)             110.1896         -DE/DX =    0.0                 !
 ! A15   A(12,4,13)            107.9527         -DE/DX =    0.0                 !
 ! A16   A(4,5,6)              110.1088         -DE/DX =    0.0                 !
 ! A17   A(4,5,9)              102.0517         -DE/DX =    0.0                 !
 ! A18   A(4,5,14)             115.1279         -DE/DX =    0.0                 !
 ! A19   A(6,5,9)              102.8817         -DE/DX =    0.0                 !
 ! A20   A(6,5,14)             115.5222         -DE/DX =    0.0                 !
 ! A21   A(9,5,14)             109.5446         -DE/DX =    0.0                 !
 ! A22   A(5,6,7)              101.0194         -DE/DX =    0.0                 !
 ! A23   A(5,6,15)             112.4731         -DE/DX =    0.0                 !
 ! A24   A(5,6,16)             110.702          -DE/DX =    0.0                 !
 ! A25   A(7,6,15)             113.2186         -DE/DX =    0.0                 !
 ! A26   A(7,6,16)             111.3688         -DE/DX =    0.0                 !
 ! A27   A(15,6,16)            108.0061         -DE/DX =    0.0                 !
 ! A28   A(6,7,8)              100.8454         -DE/DX =    0.0                 !
 ! A29   A(6,7,17)             113.4732         -DE/DX =    0.0                 !
 ! A30   A(6,7,18)             111.4157         -DE/DX =    0.0                 !
 ! A31   A(8,7,17)             112.6915         -DE/DX =    0.0                 !
 ! A32   A(8,7,18)             110.2758         -DE/DX =    0.0                 !
 ! A33   A(17,7,18)            108.0587         -DE/DX =    0.0                 !
 ! A34   A(3,8,7)              109.1548         -DE/DX =    0.0                 !
 ! A35   A(3,8,9)              102.8591         -DE/DX =    0.0                 !
 ! A36   A(3,8,19)             115.1341         -DE/DX =    0.0                 !
 ! A37   A(7,8,9)              103.0588         -DE/DX =    0.0                 !
 ! A38   A(7,8,19)             115.5067         -DE/DX =    0.0                 !
 ! A39   A(9,8,19)             109.6856         -DE/DX =    0.0                 !
 ! A40   A(5,9,8)               96.9255         -DE/DX =    0.0                 !
 ! D1    D(1,2,3,4)            124.1207         -DE/DX =    0.0                 !
 ! D2    D(1,2,3,8)           -125.0585         -DE/DX =    0.0                 !
 ! D3    D(1,2,3,11)            -1.251          -DE/DX =    0.0                 !
 ! D4    D(10,2,3,4)           -56.1269         -DE/DX =    0.0                 !
 ! D5    D(10,2,3,8)            54.6939         -DE/DX =    0.0                 !
 ! D6    D(10,2,3,11)          178.5013         -DE/DX =    0.0                 !
 ! D7    D(2,3,4,5)            119.2168         -DE/DX =    0.0                 !
 ! D8    D(2,3,4,12)          -119.0063         -DE/DX =    0.0                 !
 ! D9    D(2,3,4,13)             2.1071         -DE/DX =    0.0                 !
 ! D10   D(8,3,4,5)              1.6153         -DE/DX =    0.0                 !
 ! D11   D(8,3,4,12)           123.3921         -DE/DX =    0.0                 !
 ! D12   D(8,3,4,13)          -115.4944         -DE/DX =    0.0                 !
 ! D13   D(11,3,4,5)          -118.2822         -DE/DX =    0.0                 !
 ! D14   D(11,3,4,12)            3.4947         -DE/DX =    0.0                 !
 ! D15   D(11,3,4,13)          124.6082         -DE/DX =    0.0                 !
 ! D16   D(2,3,8,7)            166.3645         -DE/DX =    0.0                 !
 ! D17   D(2,3,8,9)            -84.6917         -DE/DX =    0.0                 !
 ! D18   D(2,3,8,19)            34.5674         -DE/DX =    0.0                 !
 ! D19   D(4,3,8,7)            -75.5607         -DE/DX =    0.0                 !
 ! D20   D(4,3,8,9)             33.383          -DE/DX =    0.0                 !
 ! D21   D(4,3,8,19)           152.6422         -DE/DX =    0.0                 !
 ! D22   D(11,3,8,7)            44.9866         -DE/DX =    0.0                 !
 ! D23   D(11,3,8,9)           153.9304         -DE/DX =    0.0                 !
 ! D24   D(11,3,8,19)          -86.8105         -DE/DX =    0.0                 !
 ! D25   D(3,4,5,6)             72.7424         -DE/DX =    0.0                 !
 ! D26   D(3,4,5,9)            -35.9767         -DE/DX =    0.0                 !
 ! D27   D(3,4,5,14)          -154.5299         -DE/DX =    0.0                 !
 ! D28   D(12,4,5,6)           -48.1092         -DE/DX =    0.0                 !
 ! D29   D(12,4,5,9)          -156.8283         -DE/DX =    0.0                 !
 ! D30   D(12,4,5,14)           84.6184         -DE/DX =    0.0                 !
 ! D31   D(13,4,5,6)          -169.4469         -DE/DX =    0.0                 !
 ! D32   D(13,4,5,9)            81.834          -DE/DX =    0.0                 !
 ! D33   D(13,4,5,14)          -36.7193         -DE/DX =    0.0                 !
 ! D34   D(4,5,6,7)            -74.1621         -DE/DX =    0.0                 !
 ! D35   D(4,5,6,15)            46.8492         -DE/DX =    0.0                 !
 ! D36   D(4,5,6,16)           167.7759         -DE/DX =    0.0                 !
 ! D37   D(9,5,6,7)             34.0068         -DE/DX =    0.0                 !
 ! D38   D(9,5,6,15)           155.0181         -DE/DX =    0.0                 !
 ! D39   D(9,5,6,16)           -84.0552         -DE/DX =    0.0                 !
 ! D40   D(14,5,6,7)           153.313          -DE/DX =    0.0                 !
 ! D41   D(14,5,6,15)          -85.6757         -DE/DX =    0.0                 !
 ! D42   D(14,5,6,16)           35.251          -DE/DX =    0.0                 !
 ! D43   D(4,5,9,8)             57.8859         -DE/DX =    0.0                 !
 ! D44   D(6,5,9,8)            -56.2847         -DE/DX =    0.0                 !
 ! D45   D(14,5,9,8)          -179.665          -DE/DX =    0.0                 !
 ! D46   D(5,6,7,8)              0.1489         -DE/DX =    0.0                 !
 ! D47   D(5,6,7,17)           120.9071         -DE/DX =    0.0                 !
 ! D48   D(5,6,7,18)          -116.8614         -DE/DX =    0.0                 !
 ! D49   D(15,6,7,8)          -120.3345         -DE/DX =    0.0                 !
 ! D50   D(15,6,7,17)            0.4237         -DE/DX =    0.0                 !
 ! D51   D(15,6,7,18)          122.6553         -DE/DX =    0.0                 !
 ! D52   D(16,6,7,8)           117.725          -DE/DX =    0.0                 !
 ! D53   D(16,6,7,17)         -121.5168         -DE/DX =    0.0                 !
 ! D54   D(16,6,7,18)            0.7147         -DE/DX =    0.0                 !
 ! D55   D(6,7,8,3)             74.3608         -DE/DX =    0.0                 !
 ! D56   D(6,7,8,9)            -34.4485         -DE/DX =    0.0                 !
 ! D57   D(6,7,8,19)          -154.04           -DE/DX =    0.0                 !
 ! D58   D(17,7,8,3)           -46.9511         -DE/DX =    0.0                 !
 ! D59   D(17,7,8,9)          -155.7604         -DE/DX =    0.0                 !
 ! D60   D(17,7,8,19)           84.6481         -DE/DX =    0.0                 !
 ! D61   D(18,7,8,3)          -167.7926         -DE/DX =    0.0                 !
 ! D62   D(18,7,8,9)            83.3981         -DE/DX =    0.0                 !
 ! D63   D(18,7,8,19)          -36.1934         -DE/DX =    0.0                 !
 ! D64   D(3,8,9,5)            -56.9788         -DE/DX =    0.0                 !
 ! D65   D(7,8,9,5)             56.5023         -DE/DX =    0.0                 !
 ! D66   D(19,8,9,5)          -179.9609         -DE/DX =    0.0                 !
 --------------------------------------------------------------------------------
 GradGradGradGradGradGradGradGradGradGradGradGradGradGradGradGradGradGrad

                          Input orientation:                          
 ---------------------------------------------------------------------
 Center     Atomic      Atomic             Coordinates (Angstroms)
 Number     Number       Type             X           Y           Z
 ---------------------------------------------------------------------
      1          8           0        1.347182   -0.369399    0.077427
      2          6           0        0.184361   -0.058552    0.124599
      3          6           0       -0.445821    0.770363    1.216833
      4          6           0       -1.167069    2.033805    0.640385
      5          6           0       -2.623006    1.787338    1.091976
      6          6           0       -2.752746    2.015576    2.614218
      7          6           0       -2.056670    0.734517    3.168132
      8          6           0       -1.661963    0.026891    1.853647
      9          8           0       -2.736974    0.361107    0.971270
     10          1           0       -0.533301   -0.379346   -0.665675
     11          1           0        0.325715    1.010783    1.950839
     12          1           0       -0.741401    2.964929    1.020107
     13          1           0       -1.109375    2.057414   -0.452170
     14          1           0       -3.385302    2.267201    0.478584
     15          1           0       -2.272923    2.941732    2.940142
     16          1           0       -3.803087    2.057270    2.910191
     17          1           0       -1.196301    0.948260    3.806470
     18          1           0       -2.754423    0.115592    3.736413
     19          1           0       -1.561260   -1.057188    1.915834
 ---------------------------------------------------------------------
                    Distance matrix (angstroms):
                    1          2          3          4          5
     1  O    0.000000
     2  C    1.204576   0.000000
     3  C    2.410842   1.509041   0.000000
     4  C    3.523317   2.543689   1.564856   0.000000
     5  C    4.630682   3.496347   2.406234   1.544162   0.000000
     6  C    5.378924   4.373421   2.970714   2.531941   1.544715
     7  C    4.728349   3.861900   2.530551   2.978094   2.395744
     8  C    3.516668   2.530972   1.561180   2.396796   2.145442
     9  O    4.244164   3.070369   2.340337   2.317760   1.435860
    10  H    2.022008   1.114666   2.207560   2.816159   3.485789
    11  H    2.541253   2.120993   1.091712   2.234338   3.167908
    12  H    4.045808   3.286397   2.223103   1.091958   2.220883
    13  H    3.493503   2.546316   2.209609   1.094332   2.179084
    14  H    5.432217   4.275152   3.380249   2.236339   1.089777
    15  H    5.680130   4.792414   3.320081   2.708528   2.207011
    16  H    6.359130   5.304335   3.974270   3.478672   2.184344
    17  H    4.702264   4.059072   2.702053   3.347141   3.179311
    18  H    5.517840   4.659612   3.479462   3.972987   3.131302
    19  H    3.508821   2.693137   2.252276   3.366956   3.146009
                    6          7          8          9         10
     6  C    0.000000
     7  C    1.559632   0.000000
     8  C    2.392310   1.544150   0.000000
     9  O    2.331694   2.329904   1.430364   0.000000
    10  H    4.628098   4.273104   2.790321   2.843244   0.000000
    11  H    3.305541   2.689588   2.219990   3.280504   3.084885
    12  H    2.736416   3.364324   3.189716   3.280943   3.750912
    13  H    3.479247   3.969132   3.121725   2.748221   2.513015
    14  H    2.241512   3.368687   3.143197   2.072743   4.055545
    15  H    1.092805   2.229471   3.170180   3.278937   5.201707
    16  H    1.092041   2.205942   3.134189   2.788007   5.423598
    17  H    2.232297   1.092427   2.208909   3.279753   4.711920
    18  H    2.206640   1.092187   2.178566   2.776076   4.955475
    19  H    3.368866   2.241403   1.090520   2.070282   2.860133
                   11         12         13         14         15
    11  H    0.000000
    12  H    2.413231   0.000000
    13  H    2.988205   1.768216   0.000000
    14  H    4.185423   2.787522   2.467824   0.000000
    15  H    3.385292   2.456141   3.693730   2.784178   0.000000
    16  H    4.366062   3.710819   4.308312   2.476152   1.767645
    17  H    2.400793   3.469540   4.401567   4.195969   2.425607
    18  H    3.671089   4.421459   4.901131   3.954855   2.975392
    19  H    2.799715   4.201418   3.938577   4.055167   4.188918
                   16         17         18         19
    16  H    0.000000
    17  H    2.971288   0.000000
    18  H    2.356364   1.768047   0.000000
    19  H    3.964137   2.780201   2.472562   0.000000
 Stoichiometry    C7H10O2
 Framework group  C1[X(C7H10O2)]
 Deg. of freedom    51
 Full point group                 C1      NOp   1
 Largest Abelian subgroup         C1      NOp   1
 Largest concise Abelian subgroup C1      NOp   1
                         Standard orientation:                         
 ---------------------------------------------------------------------
 Center     Atomic      Atomic             Coordinates (Angstroms)
 Number     Number       Type             X           Y           Z
 ---------------------------------------------------------------------
      1          8           0       -3.179516   -0.279269   -0.242297
      2          6           0       -2.125495    0.057423    0.233813
      3          6           0       -0.784824   -0.086781   -0.443690
      4          6           0       -0.036108    1.283872   -0.541198
      5          6           0        1.243468    0.991794    0.272319
      6          6           0        2.180995    0.061166   -0.528380
      7          6           0        1.434513   -1.301577   -0.393668
      8          6           0        0.214341   -0.881871    0.454522
      9          8           0        0.748976    0.131821    1.310404
     10          1           0       -2.068002    0.512585    1.249689
     11          1           0       -0.942114   -0.562918   -1.413427
     12          1           0        0.158427    1.578708   -1.574445
     13          1           0       -0.612126    2.083285   -0.065062
     14          1           0        1.718008    1.865712    0.718068
     15          1           0        2.304472    0.384124   -1.565044
     16          1           0        3.170148    0.020290   -0.067446
     17          1           0        1.150184   -1.738723   -1.353593
     18          1           0        2.037154   -2.034656    0.146972
     19          1           0       -0.233174   -1.672976    1.057116
 ---------------------------------------------------------------------
 Rotational constants (GHZ):      3.6227177      1.2089802      1.1314313
 1\1\GINC-ALCHEMY-BR\FOpt\RB3LYP\6-31G(2df,p)\C7H10O2\PUCK\27-Jan-2020\
 0\\# b3lyp 6-31G(2df,p) opt Freq\\titel\\0,1\O,1.3471817145,-0.3693987
 293,0.0774274883\C,0.1843610592,-0.0585521786,0.1245992933\C,-0.445821
 1635,0.7703632537,1.2168326009\C,-1.1670685059,2.0338050124,0.64038525
 93\C,-2.6230062714,1.7873380034,1.0919764822\C,-2.7527461817,2.0155755
 594,2.6142183396\C,-2.0566697346,0.7345171612,3.1681318393\C,-1.661962
 5826,0.0268905631,1.8536470495\O,-2.7369744296,0.3611065435,0.97127011
 52\H,-0.5333008194,-0.3793459548,-0.665675155\H,0.3257151698,1.0107834
 665,1.9508391822\H,-0.7414011105,2.9649285882,1.0201071583\H,-1.109375
 0063,2.0574136985,-0.4521699218\H,-3.3853016791,2.2672009912,0.4785839
 219\H,-2.2729227907,2.9417316175,2.9401420255\H,-3.8030865914,2.057270
 3593,2.910190936\H,-1.1963008506,0.9482596221,3.8064698986\H,-2.754423
 3075,0.115592136,3.7364134936\H,-1.5612595686,-1.0571880132,1.91583391
 31\\Version=ES64L-G09RevD.01\State=1-A\HF=-423.2148285\RMSD=5.590e-09\
 RMSF=6.172e-06\Dipole=-0.7342787,0.7532412,0.5998288\Quadrupole=-5.530
 5599,2.8643387,2.6662212,1.5572571,1.9289202,-1.8686132\PG=C01 [X(C7H1
 0O2)]\\@


 MICRO CREDO - NEVER TRUST A COMPUTER BIGGER
               BIGGER THAN YOU CAN LIFT.
 Job cpu time:       0 days  0 hours  7 minutes 42.5 seconds.
 File lengths (MBytes):  RWF=     52 Int=      0 D2E=      0 Chk=      7 Scr=      1
 Normal termination of Gaussian 09 at Mon Jan 27 13:20:35 2020.
 Link1:  Proceeding to internal job step number  2.
 ----------------------------------------------------------------------
 #N Geom=AllCheck Guess=TCheck SCRF=Check GenChk RB3LYP/6-31G(2df,p) Fr
 eq
 ----------------------------------------------------------------------
 1/10=4,29=7,30=1,38=1,40=1/1,3;
 2/12=2,40=1/2;
 3/5=1,6=6,7=104,11=2,14=-4,16=1,25=1,30=1,70=2,71=2,74=-5,116=1,140=1/1,2,3;
 4/5=101/1;
 5/5=2,98=1/2;
 8/6=4,10=90,11=11/1;
 11/6=1,8=1,9=11,15=111,16=1/1,2,10;
 10/6=1/2;
 6/7=2,8=2,9=2,10=2,18=1,28=1/1;
 7/8=1,10=1,25=1/1,2,3,16;
 1/10=4,30=1/3;
 99//99;
 Structure from the checkpoint file:  "/scratch/puck/g09_53a63d48-722c-4a11-83f4-de795022c7ea/Gau-168432.chk"
 -----
 titel
 -----
 Charge =  0 Multiplicity = 1
 Redundant internal coordinates found in file.
 O,0,1.3471817145,-0.3693987293,0.0774274883
 C,0,0.1843610592,-0.0585521786,0.1245992933
 C,0,-0.4458211635,0.7703632537,1.2168326009
 C,0,-1.1670685059,2.0338050124,0.6403852593
 C,0,-2.6230062714,1.7873380034,1.0919764822
 C,0,-2.7527461817,2.0155755594,2.6142183396
 C,0,-2.0566697346,0.7345171612,3.1681318393
 C,0,-1.6619625826,0.0268905631,1.8536470495
 O,0,-2.7369744296,0.3611065435,0.9712701152
 H,0,-0.5333008194,-0.3793459548,-0.665675155
 H,0,0.3257151698,1.0107834665,1.9508391822
 H,0,-0.7414011105,2.9649285882,1.0201071583
 H,0,-1.1093750063,2.0574136985,-0.4521699218
 H,0,-3.3853016791,2.2672009912,0.4785839219
 H,0,-2.2729227907,2.9417316175,2.9401420255
 H,0,-3.8030865914,2.0572703593,2.910190936
 H,0,-1.1963008506,0.9482596221,3.8064698986
 H,0,-2.7544233075,0.115592136,3.7364134936
 H,0,-1.5612595686,-1.0571880132,1.9158339131
 Recover connectivity data from disk.

 GradGradGradGradGradGradGradGradGradGradGradGradGradGradGradGradGradGrad
 Berny optimization.
 Initialization pass.
                           ----------------------------
                           !    Initial Parameters    !
                           ! (Angstroms and Degrees)  !
 --------------------------                            --------------------------
 ! Name  Definition              Value          Derivative Info.                !
 --------------------------------------------------------------------------------
 ! R1    R(1,2)                  1.2046         calculate D2E/DX2 analytically  !
 ! R2    R(2,3)                  1.509          calculate D2E/DX2 analytically  !
 ! R3    R(2,10)                 1.1147         calculate D2E/DX2 analytically  !
 ! R4    R(3,4)                  1.5649         calculate D2E/DX2 analytically  !
 ! R5    R(3,8)                  1.5612         calculate D2E/DX2 analytically  !
 ! R6    R(3,11)                 1.0917         calculate D2E/DX2 analytically  !
 ! R7    R(4,5)                  1.5442         calculate D2E/DX2 analytically  !
 ! R8    R(4,12)                 1.092          calculate D2E/DX2 analytically  !
 ! R9    R(4,13)                 1.0943         calculate D2E/DX2 analytically  !
 ! R10   R(5,6)                  1.5447         calculate D2E/DX2 analytically  !
 ! R11   R(5,9)                  1.4359         calculate D2E/DX2 analytically  !
 ! R12   R(5,14)                 1.0898         calculate D2E/DX2 analytically  !
 ! R13   R(6,7)                  1.5596         calculate D2E/DX2 analytically  !
 ! R14   R(6,15)                 1.0928         calculate D2E/DX2 analytically  !
 ! R15   R(6,16)                 1.092          calculate D2E/DX2 analytically  !
 ! R16   R(7,8)                  1.5442         calculate D2E/DX2 analytically  !
 ! R17   R(7,17)                 1.0924         calculate D2E/DX2 analytically  !
 ! R18   R(7,18)                 1.0922         calculate D2E/DX2 analytically  !
 ! R19   R(8,9)                  1.4304         calculate D2E/DX2 analytically  !
 ! R20   R(8,19)                 1.0905         calculate D2E/DX2 analytically  !
 ! A1    A(1,2,3)              124.9752         calculate D2E/DX2 analytically  !
 ! A2    A(1,2,10)             121.2979         calculate D2E/DX2 analytically  !
 ! A3    A(3,2,10)             113.7264         calculate D2E/DX2 analytically  !
 ! A4    A(2,3,4)              111.6754         calculate D2E/DX2 analytically  !
 ! A5    A(2,3,8)              111.0362         calculate D2E/DX2 analytically  !
 ! A6    A(2,3,11)             108.2085         calculate D2E/DX2 analytically  !
 ! A7    A(4,3,8)              100.1205         calculate D2E/DX2 analytically  !
 ! A8    A(4,3,11)             113.3032         calculate D2E/DX2 analytically  !
 ! A9    A(8,3,11)             112.4049         calculate D2E/DX2 analytically  !
 ! A10   A(3,4,5)              101.4184         calculate D2E/DX2 analytically  !
 ! A11   A(3,4,12)             112.3769         calculate D2E/DX2 analytically  !
 ! A12   A(3,4,13)             111.155          calculate D2E/DX2 analytically  !
 ! A13   A(5,4,12)             113.7003         calculate D2E/DX2 analytically  !
 ! A14   A(5,4,13)             110.1896         calculate D2E/DX2 analytically  !
 ! A15   A(12,4,13)            107.9527         calculate D2E/DX2 analytically  !
 ! A16   A(4,5,6)              110.1088         calculate D2E/DX2 analytically  !
 ! A17   A(4,5,9)              102.0517         calculate D2E/DX2 analytically  !
 ! A18   A(4,5,14)             115.1279         calculate D2E/DX2 analytically  !
 ! A19   A(6,5,9)              102.8817         calculate D2E/DX2 analytically  !
 ! A20   A(6,5,14)             115.5222         calculate D2E/DX2 analytically  !
 ! A21   A(9,5,14)             109.5446         calculate D2E/DX2 analytically  !
 ! A22   A(5,6,7)              101.0194         calculate D2E/DX2 analytically  !
 ! A23   A(5,6,15)             112.4731         calculate D2E/DX2 analytically  !
 ! A24   A(5,6,16)             110.702          calculate D2E/DX2 analytically  !
 ! A25   A(7,6,15)             113.2186         calculate D2E/DX2 analytically  !
 ! A26   A(7,6,16)             111.3688         calculate D2E/DX2 analytically  !
 ! A27   A(15,6,16)            108.0061         calculate D2E/DX2 analytically  !
 ! A28   A(6,7,8)              100.8454         calculate D2E/DX2 analytically  !
 ! A29   A(6,7,17)             113.4732         calculate D2E/DX2 analytically  !
 ! A30   A(6,7,18)             111.4157         calculate D2E/DX2 analytically  !
 ! A31   A(8,7,17)             112.6915         calculate D2E/DX2 analytically  !
 ! A32   A(8,7,18)             110.2758         calculate D2E/DX2 analytically  !
 ! A33   A(17,7,18)            108.0587         calculate D2E/DX2 analytically  !
 ! A34   A(3,8,7)              109.1548         calculate D2E/DX2 analytically  !
 ! A35   A(3,8,9)              102.8591         calculate D2E/DX2 analytically  !
 ! A36   A(3,8,19)             115.1341         calculate D2E/DX2 analytically  !
 ! A37   A(7,8,9)              103.0588         calculate D2E/DX2 analytically  !
 ! A38   A(7,8,19)             115.5067         calculate D2E/DX2 analytically  !
 ! A39   A(9,8,19)             109.6856         calculate D2E/DX2 analytically  !
 ! A40   A(5,9,8)               96.9255         calculate D2E/DX2 analytically  !
 ! D1    D(1,2,3,4)            124.1207         calculate D2E/DX2 analytically  !
 ! D2    D(1,2,3,8)           -125.0585         calculate D2E/DX2 analytically  !
 ! D3    D(1,2,3,11)            -1.251          calculate D2E/DX2 analytically  !
 ! D4    D(10,2,3,4)           -56.1269         calculate D2E/DX2 analytically  !
 ! D5    D(10,2,3,8)            54.6939         calculate D2E/DX2 analytically  !
 ! D6    D(10,2,3,11)          178.5013         calculate D2E/DX2 analytically  !
 ! D7    D(2,3,4,5)            119.2168         calculate D2E/DX2 analytically  !
 ! D8    D(2,3,4,12)          -119.0063         calculate D2E/DX2 analytically  !
 ! D9    D(2,3,4,13)             2.1071         calculate D2E/DX2 analytically  !
 ! D10   D(8,3,4,5)              1.6153         calculate D2E/DX2 analytically  !
 ! D11   D(8,3,4,12)           123.3921         calculate D2E/DX2 analytically  !
 ! D12   D(8,3,4,13)          -115.4944         calculate D2E/DX2 analytically  !
 ! D13   D(11,3,4,5)          -118.2822         calculate D2E/DX2 analytically  !
 ! D14   D(11,3,4,12)            3.4947         calculate D2E/DX2 analytically  !
 ! D15   D(11,3,4,13)          124.6082         calculate D2E/DX2 analytically  !
 ! D16   D(2,3,8,7)            166.3645         calculate D2E/DX2 analytically  !
 ! D17   D(2,3,8,9)            -84.6917         calculate D2E/DX2 analytically  !
 ! D18   D(2,3,8,19)            34.5674         calculate D2E/DX2 analytically  !
 ! D19   D(4,3,8,7)            -75.5607         calculate D2E/DX2 analytically  !
[...]
 07955678,0.50816865,0.00226378,0.00013568,0.00306611,-0.01323124,0.014
 20653,-0.00412439,-0.07591233,0.02349100,-0.01400584,0.40112007,-0.002
 72095,0.00152700,-0.00078700,0.01357004,-0.02187585,0.00332878,0.02663
 094,-0.10943242,0.01786101,0.08942341,0.53460682,0.00586201,-0.0005246
 8,-0.00583684,0.00271968,-0.01279259,0.01808693,-0.01274030,0.01278336
 ,-0.08699675,-0.00393241,0.04072263,0.57779245,0.00097499,-0.00041645,
 0.00001323,-0.00200214,0.00179670,0.00094989,-0.03084539,0.01861497,-0
 .00714145,-0.14538762,-0.00200833,0.02637274,0.55211404,0.00056583,0.0
 0052857,-0.00212185,0.00221749,-0.00253924,0.00551913,0.01840382,-0.00
 326694,-0.01054898,-0.00537804,-0.06309019,0.00459787,-0.11604110,0.45
 445626,-0.00137787,0.00043324,0.00137045,0.00038833,0.00018451,-0.0038
 3438,-0.01212593,0.00235801,0.00464622,0.02574981,0.00358677,-0.090510
 75,0.10079841,-0.09271505,0.50880855,0.00020897,-0.00031978,-0.0001310
 9,0.00028915,0.00029050,0.00018128,0.00116934,-0.00110386,-0.00003668,
 -0.00604613,0.00398317,0.03383552,-0.08349117,0.00404996,0.01204696,0.
 58279002,-0.00028438,0.00031914,0.00028960,-0.00012810,-0.00084697,-0.
 00069716,0.00001194,0.00041981,0.00171692,-0.00044591,0.00325549,0.004
 72152,0.00354488,-0.06440175,-0.00178628,0.04852435,0.53747045,0.00002
 754,-0.00005778,0.00016402,-0.00057309,0.00023025,-0.00021639,-0.00027
 724,0.00012019,-0.00006161,0.00955032,-0.00135175,-0.01524286,0.011101
 02,-0.00605065,-0.15344516,-0.04188396,0.07523262,0.41071205,-0.001378
 39,0.00200322,0.00042829,-0.00191494,-0.00598138,-0.00035586,-0.011401
 44,0.00820731,0.02865821,0.00004651,0.00171076,-0.00012760,-0.00111716
 ,-0.00744960,-0.01349773,-0.09066992,0.02321360,-0.00644587,0.56419615
 ,-0.00155095,0.00215719,0.00032284,-0.00152607,-0.00478475,-0.00007945
 ,-0.00503669,0.00801143,0.01376452,-0.00012916,0.00050400,-0.00132543,
 0.00445156,-0.00000257,0.01861409,0.03057796,-0.12326272,0.02133300,0.
 09586637,0.42763794,0.00015057,-0.00043772,-0.00029865,0.00090976,0.00
 214447,-0.00017506,0.01250938,-0.00404062,-0.01842309,-0.00008151,-0.0
 0030858,0.00105896,-0.01803322,0.02303597,-0.02627622,-0.01244962,0.02
 733451,-0.07977834,0.03472547,-0.04818707,0.53707199,0.00616464,-0.003
 19406,-0.00057874,-0.02082129,0.00591135,0.01871214,-0.08876494,-0.026
 76867,0.01891012,0.01130652,-0.01407273,-0.00326142,-0.01088791,0.0360
 8798,-0.01093421,-0.00812697,0.00861582,0.00977530,-0.07750199,0.00872
 347,0.02638228,0.38437021,0.00543601,-0.00836406,-0.00253596,0.0104952
 7,0.01924476,0.00034358,-0.01674016,-0.08566714,0.00242224,-0.01149624
 ,-0.03194820,0.02240125,0.03777747,-0.05171757,0.03138121,0.01851184,-
 0.03079539,-0.01726327,0.01048640,-0.09188019,-0.02863200,-0.05758207,
 0.69645197,-0.00075744,-0.00425366,-0.00088390,0.02275201,0.01658326,-
 0.01035289,0.02767389,0.01330909,-0.08891059,0.00481823,0.01156404,-0.
 00826083,-0.01120740,0.02755166,-0.00339516,0.00134395,-0.01547121,0.0
 1075922,0.03191833,-0.02914752,-0.12476447,-0.01117831,-0.02802081,0.4
 0373221,-0.00162295,0.00167719,0.00109832,0.00207756,-0.00237847,-0.00
 383490,-0.05199175,-0.01226150,-0.02481444,-0.01895960,-0.02988790,-0.
 00835643,-0.07749062,0.00170073,-0.00918096,0.00504647,0.01013604,-0.0
 0311892,-0.00362915,-0.00453951,-0.01748441,-0.12679463,-0.00667937,-0
 .05295008,0.28039052,0.00064789,0.00004508,0.00056161,-0.00146949,0.00
 031558,-0.00159621,-0.00062936,-0.00214795,0.00027663,-0.02778376,-0.0
 4107533,-0.00468944,-0.03050267,-0.15961740,-0.02677537,-0.00983113,-0
 .03776142,-0.02415408,0.00189281,-0.00249521,-0.00185545,0.02480233,-0
 .08359086,0.02117428,0.01895402,0.34982656,0.00055405,0.00162084,0.001
 12201,-0.00102201,-0.00429615,-0.00320688,-0.01077706,-0.00348827,0.00
 792692,0.00075816,0.01700905,0.00697307,-0.00855184,0.00118239,-0.0749
 2733,-0.01259871,-0.03294866,-0.01598687,-0.03901355,-0.00999971,-0.04
 310851,-0.04841032,-0.00555308,-0.10873284,0.11199136,0.01647156,0.237
 43496,-0.04777010,-0.00121648,-0.02860130,-0.11687326,-0.04045068,-0.0
 8542126,0.00806878,0.00749170,0.00615954,0.00058488,-0.00050462,0.0002
 2856,-0.00015463,0.00023074,0.00016820,-0.00013111,0.00004791,-0.00004
 675,0.00050967,0.00034233,-0.00020126,0.00049146,-0.00143328,-0.001416
 35,-0.00019151,0.00015143,0.00037066,0.15618010,0.00893545,0.02093057,
 0.00439054,-0.03678173,-0.08472740,-0.04906490,-0.00753690,0.00547379,
 -0.01841725,-0.00183370,0.00272605,-0.00017484,0.00008945,0.00002819,-
 0.00006076,-0.00007719,0.00015788,0.00002273,0.00072912,0.00062585,-0.
 00039820,-0.00032162,-0.00129749,-0.00243897,0.00050648,-0.00002560,0.
 00122635,0.03440750,0.05653658,-0.01344346,0.00094061,0.01642582,-0.07
 748361,-0.05216940,-0.17504119,-0.01724741,-0.01253540,-0.01196477,0.0
 0065313,0.00000748,-0.00116331,-0.00023044,-0.00141433,0.00043419,-0.0
 0014978,0.00024197,0.00011047,-0.00011339,0.00018435,-0.00021061,-0.00
 293794,0.00001344,0.00054717,0.00055730,0.00102461,0.00171607,0.107060
 94,0.06697354,0.17064504,0.00160220,-0.00147699,-0.00105309,0.00898971
 ,0.00472793,0.01079475,-0.17867091,-0.04297750,-0.12732704,-0.00510699
 ,-0.00337546,-0.00550217,-0.00080619,-0.00201880,-0.00101233,-0.000038
 71,0.00036645,-0.00013680,0.00026992,-0.00003593,-0.00172831,-0.011391
 97,-0.00241974,-0.01530229,-0.00712679,0.00011514,0.00075917,-0.000859
 99,0.00169177,0.00180283,0.19257673,0.00025217,0.00089915,0.00386512,-
 0.01533758,-0.00513605,-0.01530278,-0.04258396,-0.05980430,-0.04049872
 ,0.01724215,0.00485192,0.01783585,0.00121204,-0.00287115,0.00145746,0.
 00026966,0.00030704,0.00012747,0.00086928,0.00054861,-0.00101829,-0.00
 791184,-0.00258848,-0.01111570,-0.00384398,-0.00027633,0.00069893,0.00
 187483,-0.00052951,-0.00320630,0.04505930,0.06538231,0.00152319,0.0032
 8843,0.00455978,-0.02162351,-0.00782473,-0.02032010,-0.12715782,-0.041
 12281,-0.16908168,-0.00476111,-0.00229718,-0.00636727,0.00025810,0.001
 15797,-0.00036458,-0.00008184,-0.00019081,-0.00010041,0.00060644,0.000
 05391,0.00054876,0.00814981,0.00208677,0.00934154,0.00544368,0.0002894
 2,0.00069805,0.00217045,-0.00302721,-0.00279794,0.13593287,0.04590001,
 0.18330705,-0.00123290,-0.00027386,0.00076435,0.00062464,0.00168798,-0
 .00247762,0.00472309,0.01639541,0.00632178,-0.08711723,-0.08914224,-0.
 03543209,-0.00412633,-0.02258141,-0.01284395,0.00149179,-0.00056343,-0
 .00140077,0.00044703,0.00009248,0.00027081,-0.00293787,0.00184572,-0.0
 0223932,-0.00600213,-0.00697657,0.00387187,0.00019501,-0.00033710,0.00
 019579,0.00088410,-0.00060334,0.00036809,0.09227543,0.00104447,-0.0000
 4192,-0.00086044,-0.00034638,-0.00094156,0.00311563,-0.00761348,-0.017
 53768,-0.00883499,-0.08971628,-0.23893371,-0.08230416,0.00087301,-0.00
 185673,-0.00097657,0.00010209,-0.00013052,-0.00060967,0.00011532,-0.00
 026235,-0.00010854,-0.00030892,-0.00164808,-0.00055074,-0.00078981,-0.
 00063659,0.00129810,-0.00023154,0.00029578,-0.00012017,0.00008342,0.00
 161796,0.00004179,0.09707101,0.25825846,-0.00004685,0.00017307,0.00036
 669,0.00013583,0.00019424,-0.00169205,0.00372261,0.01149488,0.00346222
 ,-0.03708973,-0.08548883,-0.08203050,0.00199873,0.00720763,0.00221801,
 0.00024521,0.00050664,0.00036913,0.00002793,0.00016314,-0.00004654,0.0
 0025898,0.00181598,-0.00005178,0.00185838,0.00349211,-0.00013142,0.000
 09527,0.00009508,0.00051552,0.00032371,-0.00033406,0.00106586,0.040778
 10,0.08827450,0.08742642,-0.00023763,0.00002295,-0.00007955,0.00156688
 ,-0.00031255,-0.00100554,-0.00076476,0.00169903,-0.01670470,-0.0459562
 5,-0.00343687,0.01169053,-0.00254791,0.00064671,0.03484865,-0.00623914
 ,-0.00161139,0.00063170,-0.00010752,0.00043138,-0.00027416,-0.00238278
 ,0.00077191,-0.00051246,0.00201220,0.00094845,-0.00166852,-0.00012697,
 -0.00005154,0.00043657,-0.00045982,0.00234639,-0.00102398,0.00082070,0
 .00038921,-0.01318095,0.05254657,-0.00108840,-0.00052081,-0.00042307,0
 .00256878,0.00163713,0.00268895,-0.00080529,-0.00214771,0.02410368,-0.
 00205350,-0.04772927,0.00179676,-0.00026915,-0.00127580,0.00296316,0.0
 0001461,0.00015539,-0.00041827,0.00012221,0.00003073,-0.00049679,0.003
 15055,-0.00275541,0.00099882,-0.00043817,0.00148380,-0.00055321,-0.000
 49196,-0.00024832,-0.00078832,0.00050000,-0.00244081,0.00126410,0.0018
 5807,0.00113041,-0.02752284,-0.00245063,0.05196884,-0.00134923,0.00082
 977,0.00047070,0.00267471,-0.00264938,-0.00143117,-0.00296785,0.001633
 03,-0.00664528,0.01348546,0.00180781,-0.30834169,-0.00036330,-0.001401
 91,-0.00890122,0.00243691,-0.00016811,0.00051258,-0.00011466,-0.000457
 54,0.00038153,-0.00047928,0.00077333,-0.00014415,-0.00046919,0.0004885
 4,0.00158752,-0.00010398,0.00097933,0.00070920,0.00008991,0.00140434,-
 0.00045635,0.00095473,0.00028263,-0.01097986,-0.01434850,-0.00392859,0
 .33269505,-0.00061210,0.00027496,0.00071020,-0.00008249,-0.00013940,-0
 .00171052,-0.00327920,0.00021521,0.00113810,-0.01486199,0.01180173,-0.
 01460011,-0.18622753,0.08442600,-0.11082884,0.00355119,-0.00217920,0.0
 0392454,0.00080520,-0.00057129,0.00136278,-0.00062575,-0.00141772,0.00
 087250,0.00457839,-0.00234461,0.00412113,0.00004628,0.00004497,0.00023
 939,-0.00034278,0.00075054,-0.00018972,-0.00097643,-0.00038912,0.00006
 115,0.00142906,0.00006473,0.00032543,0.19507429,-0.00019278,0.00000775
 ,0.00018508,0.00000300,0.00015653,-0.00045204,-0.00219838,-0.00029940,
 0.00101329,-0.00459790,0.00636066,-0.00412014,0.07457142,-0.09444149,0
 .06009699,-0.00482701,0.00646457,-0.00345432,0.00063998,-0.00086900,-0
 .00230642,-0.00140873,-0.00744843,-0.00125188,0.02540722,-0.02063028,0
 .02029001,-0.00004623,-0.00001141,0.00011832,0.00003196,0.00037126,-0.
 00017098,0.00055387,-0.00031595,-0.00012945,0.00064841,0.00016580,-0.0
 0007676,-0.08996028,0.11033914,0.00016287,0.00002913,-0.00024328,0.000
 14975,-0.00021432,0.00052519,0.00216923,-0.00084928,0.00038393,0.00793
 343,-0.00469209,0.00559630,-0.11132625,0.06791967,-0.13789859,-0.01875
 486,0.01285901,-0.01213396,-0.00001657,-0.00063043,-0.00388822,0.00101
 718,-0.00104870,-0.00097579,0.00442648,-0.00196786,0.00306532,-0.00001
 942,0.00001981,-0.00005534,0.00018956,-0.00034113,0.00009666,0.0001202
 9,0.00019466,0.00007894,-0.00052274,-0.00032396,0.00089113,0.11498083,
 -0.07225369,0.14443284,0.00006907,-0.00000330,-0.00001676,-0.00010681,
 -0.00003568,0.00000791,0.00001351,0.00007877,0.00007446,0.00019985,0.0
 0043310,0.00078125,-0.00042020,0.00202522,0.00125701,-0.10247431,-0.10
 363027,-0.03560759,0.00582401,0.01286933,0.00483394,-0.00067141,0.0021
 2317,-0.00020378,0.00067567,0.00187501,0.00041060,0.00003969,-0.000005
 69,-0.00002810,-0.00001855,0.00005074,0.00003841,0.00010458,0.00016265
 ,0.00046471,0.00002050,0.00011548,-0.00005301,0.00008303,-0.00002079,-
 0.00020225,0.10891837,0.00011201,-0.00008513,0.00000595,-0.00003231,0.
 00021020,0.00000415,-0.00001943,-0.00019278,-0.00006620,-0.00063795,-0
 .00012199,0.00038979,-0.00077184,-0.00200008,0.00085386,-0.10061879,-0
 .23416392,-0.06713460,-0.01079458,-0.01645597,-0.00593395,-0.00068580,
 -0.00194570,0.00008365,0.00112012,-0.00049424,-0.00078275,-0.00001672,
 0.00000360,0.00007722,0.00017099,-0.00002659,0.00001665,0.00055814,0.0
 0067969,-0.00007598,0.00014886,0.00037268,0.00020769,0.00009468,-0.000
 32978,-0.00043407,0.10906396,0.25404230,0.00004753,-0.00000638,0.00004
 302,-0.00006504,-0.00004871,-0.00013742,0.00038362,0.00002595,0.000348
 50,-0.00110472,-0.00071524,0.00173917,-0.01437764,-0.02462834,-0.00317
 008,-0.03325083,-0.06546065,-0.06931402,0.00632203,0.01246442,0.002647
 14,-0.00256443,0.00160879,-0.00225935,0.00250680,-0.00694675,-0.007200
 09,-0.00001280,0.00004628,0.00009035,0.00015547,0.00001654,-0.00002063
 ,0.00095291,0.00053306,-0.00031680,-0.00034316,0.00032731,0.00036338,-
 0.00010588,0.00057831,-0.00102161,0.03803608,0.07284469,0.07425139,-0.
 00013025,0.00006507,0.00005214,0.00015140,-0.00010209,-0.00014302,0.00
 031069,-0.00023386,-0.00013638,0.00092418,-0.00048228,0.00072877,-0.00
 071525,-0.00098463,-0.00083229,-0.29661835,0.00565040,0.06950146,-0.01
 070256,-0.00016081,0.00240702,-0.00056357,0.00086712,-0.00131715,0.000
 88335,0.00070025,-0.00009661,-0.00000266,0.00001231,0.00002168,0.00008
 794,-0.00002462,0.00000486,0.00022827,0.00021615,-0.00013489,-0.000164
 46,0.00017049,-0.00002222,0.00085327,0.00007729,0.00054185,-0.01350590
 ,0.00046616,0.00397635,0.31744991,-0.00001162,-0.00003496,0.00001923,-
 0.00005696,0.00008136,0.00000838,-0.00038012,0.00002398,0.00008425,-0.
 00046588,0.00023894,0.00025534,0.00271786,-0.00125980,-0.00062364,0.00
 434705,-0.04660788,-0.00407084,0.02467581,-0.00377516,-0.00601316,0.00
 210108,-0.00281259,0.00291055,-0.00082850,0.00123708,-0.00034054,-0.00
 000403,-0.00001833,-0.00000336,-0.00005501,-0.00001978,0.00000471,0.00
 033804,0.00035208,-0.00000817,0.00001381,0.00040474,0.00019602,-0.0003
 1180,0.00015930,0.00009837,-0.02635213,0.00128278,0.00780161,-0.007773
 02,0.05147995,0.00012126,0.00002486,-0.00005012,-0.00014481,-0.0000013
 4,0.00011509,-0.00042846,0.00024327,0.00002992,-0.00075353,-0.00148729
 ,-0.00666371,0.03458842,0.00108502,-0.00933471,0.06805565,-0.00558836,
 -0.06482269,-0.01425228,0.00203097,0.00330191,-0.00101263,0.00083962,-
 0.00209334,-0.00144090,0.00012113,0.00224943,0.00003419,0.00003667,0.0
 0001350,0.00011533,-0.00011899,0.00004906,-0.00030410,0.00009520,0.000
 10032,0.00213289,0.00002291,-0.00068468,-0.00043942,0.00060421,0.00151
 839,-0.01032696,0.00046657,0.00313944,-0.07498510,0.00043201,0.0718528
 0,0.00009875,-0.00015239,-0.00007223,0.00029411,0.00020538,0.00018918,
 0.00019583,-0.00001967,0.00043330,-0.00017771,-0.00005823,0.00004735,-
 0.00073742,0.00056340,0.00015209,-0.00901838,-0.00316748,-0.00446224,-
 0.21561681,-0.04467568,-0.12266249,0.00693502,0.00134872,0.00507611,0.
 00173227,0.00047084,0.00302958,-0.00001958,0.00002480,0.00011313,0.000
 22277,0.00020411,0.00054405,0.00002421,0.00004478,0.00006702,0.0000821
 7,-0.00000794,0.00000104,0.00008296,-0.00018852,-0.00036862,0.00148567
 ,0.00000758,0.00037432,-0.00034704,0.00171774,-0.00109415,0.23076366,0
 .00005627,-0.00000539,0.00005891,-0.00016005,-0.00023013,0.00005662,-0
 .00076300,0.00050225,0.00116958,0.00017182,0.00027963,0.00022122,0.001
 90782,-0.00340476,0.00118917,0.02098409,0.00501198,0.01498376,-0.04482
 271,-0.05712702,-0.03195993,-0.01343395,-0.00259664,-0.00535682,0.0002
 5928,-0.00007643,-0.00472793,0.00003608,0.00011334,0.00004932,0.000227
 53,0.00038521,0.00015810,0.00001163,0.00003715,0.00004964,-0.00011805,
 -0.00002045,-0.00001160,-0.00017223,0.00043321,0.00091767,-0.00049833,
 0.00186357,-0.00076363,0.00180072,-0.00237509,0.00182884,0.04798289,0.
 06145983,0.00003475,0.00006977,0.00006938,0.00011959,-0.00035077,0.000
 18662,-0.00190058,-0.00008262,0.00079302,-0.00012598,0.00041511,0.0000
 3770,-0.00115391,-0.00219655,-0.00083867,-0.00423818,-0.00272701,-0.00
 374699,-0.11837254,-0.03031185,-0.13487921,-0.02057371,-0.00216158,-0.
 01022938,-0.00113650,0.00025801,-0.00864604,-0.00002475,0.00026015,0.0
 0026532,0.00138899,0.00031947,-0.00016132,0.00019866,0.00015959,-0.000
 10794,0.00011779,-0.00005075,0.00007997,0.00009917,0.00006066,-0.00037
 291,0.00020620,-0.00008845,0.00087181,0.00004176,0.00015706,-0.0002881
 2,0.13155192,0.03327815,0.14676664,-0.00054708,0.00046109,0.00011549,0
 .00043498,-0.00138306,-0.00017314,-0.00092619,0.00168513,0.00272105,-0
 .00026003,0.00011948,-0.00026117,-0.00098608,0.00286190,0.00012511,0.0
 0843659,0.01076061,-0.01000122,-0.15913716,-0.10084535,0.08840821,-0.0
 0769342,-0.00493342,0.00362416,0.00154952,-0.00076744,-0.00028419,0.00
 006047,0.00027962,0.00016689,0.00061244,0.00021559,0.00003630,-0.00000
 890,-0.00002354,-0.00000889,0.00011169,-0.00009236,0.00000465,0.000092
 68,-0.00014816,-0.00048102,-0.00013481,0.00166164,-0.00103959,0.001921
 09,0.00016609,0.00013731,-0.01583252,-0.01394864,0.01331006,0.17203998
 ,0.00028832,-0.00056735,-0.00006091,0.00051287,0.00139393,0.00000939,0
 .00082090,-0.00085267,-0.00409082,0.00017814,-0.00007758,-0.00006344,0
 .00145592,-0.00374460,-0.00081001,-0.01495497,-0.01574696,0.01328316,-
 0.10117689,-0.13058788,0.07695787,0.01292417,0.00954187,-0.01000835,-0
 .00026181,0.00078591,0.00116800,-0.00014799,-0.00016322,0.00004257,0.0
 0002582,-0.00014461,0.00006375,0.00002121,0.00015035,-0.00006979,-0.00
 012107,0.00008739,0.00007867,-0.00020360,0.00029841,0.00071805,0.00156
 522,-0.00239642,0.00227176,-0.00033861,0.00193185,-0.00067629,-0.00447
 498,-0.00376828,0.00365107,0.10370252,0.14283998,0.00070594,-0.0008705
 0,-0.00032437,0.00058798,0.00218698,0.00070267,0.00083524,-0.00316548,
 -0.00476611,-0.00026417,-0.00056965,0.00064349,-0.00074071,0.00134471,
 -0.00046582,0.00433812,0.00447454,-0.00385608,0.08615355,0.07648484,-0
 .11794777,0.01913839,0.01542293,-0.01440944,-0.00125244,-0.00068839,0.
 00229323,-0.00018603,-0.00023030,-0.00003903,0.00009691,-0.00009980,0.
 00024905,-0.00007409,0.00006179,-0.00002375,-0.00005777,-0.00002894,0.
 00003042,0.00006708,-0.00010003,-0.00041206,-0.00021435,0.00034934,-0.
 00053668,-0.00002197,-0.00002842,0.00126375,-0.01253113,-0.01100272,0.
 01072317,-0.09619318,-0.08343371,0.12557675,-0.00062206,0.00043822,-0.
 00004241,0.00181860,-0.00146541,-0.00098116,0.00449005,-0.02183748,0.0
 0287919,-0.00342869,-0.00198302,0.00194730,-0.00514548,0.00067380,-0.0
 0290047,-0.00012931,0.00113817,-0.00055743,0.00107857,0.00571656,0.000
 95477,-0.05010337,0.01303837,-0.00099457,-0.00513686,0.02974685,-0.003
 44376,-0.00004653,0.00022401,0.00038648,-0.00042312,-0.00004151,-0.000
 23828,0.00058294,-0.00068302,0.00042370,0.00039748,-0.00086750,0.00029
 836,0.00041193,0.00165562,0.00000026,-0.00010197,0.00017328,0.00010898
 ,-0.00006006,0.00016159,-0.00000269,-0.00016795,0.00047884,0.00045725,
 0.00026674,0.00018485,-0.00038738,0.05631909,-0.00107433,0.00069382,0.
 00031124,0.00126855,-0.00115654,-0.00122719,0.00050553,-0.00702771,0.0
 0029350,-0.00031041,-0.00006598,0.00026913,0.00099643,0.00047705,0.000
 62920,0.00007746,0.00015578,-0.00076793,-0.00030704,-0.00801292,0.0022
 2393,0.02337165,-0.31818238,0.01344032,0.00214793,-0.00486640,0.001725
 07,-0.00003897,0.00012964,0.00056385,-0.00064087,-0.00052585,0.0003081
 1,0.00004440,-0.00021677,0.00016220,0.00003500,-0.00029831,0.00001274,
 0.00001642,-0.00041089,-0.00000085,0.00018356,-0.00024222,0.00005096,0
 .00007396,-0.00028848,0.00004101,0.00017463,-0.00048198,-0.00065946,0.
 00022830,0.00101987,-0.00010720,-0.02675221,0.33930026,-0.00017947,-0.
 00005703,-0.00029883,0.00021842,0.00105713,0.00108029,-0.00004074,0.01
 000572,0.00015747,0.00022872,0.00139493,-0.00051356,-0.00295438,0.0004
 7564,-0.00411474,0.00109195,-0.00233908,-0.00392210,0.00346982,-0.0252
 7708,0.00478638,-0.00041320,0.00610627,-0.04891622,-0.00384314,0.02451
 563,-0.00312659,-0.00025390,-0.00023804,-0.00020046,0.00041254,0.00041
 058,-0.00024552,-0.00002544,0.00030833,-0.00022244,-0.00013613,0.00036
 906,-0.00013709,-0.00002781,0.00136884,0.00041308,0.00054221,-0.000783
 57,0.00048247,0.00041374,-0.00087942,0.00030377,-0.00038822,-0.0001383
 5,-0.00052305,-0.00020683,0.00096905,0.00129858,0.00209187,-0.01726862
 ,0.05369858\\0.00001066,0.00000117,-0.00000714,-0.00001488,0.00001300,
 0.00000817,0.00000669,0.00000003,-0.00001474,-0.00000376,-0.00000422,-
 0.00000027,-0.00000201,0.00000109,-0.00000088,-0.00000387,-0.00001313,
 0.00000519,0.00000798,0.00000718,-0.00000455,-0.00000473,0.00000375,0.
 00000661,-0.00000211,-0.00000642,0.00001050,-0.00000392,-0.00000450,-0
 .00000258,0.00000091,0.00000366,-0.00000599,-0.00000603,0.00000136,-0.
 00000715,-0.00000770,-0.00000256,-0.00000199,-0.00000498,-0.00000639,0
 .00000321,0.00000045,0.00000191,-0.00000499,0.00000459,0.00000043,0.00
 000705,0.00000548,0.00000318,0.,0.00000854,-0.00000079,0.00000414,0.00
 000867,0.00000125,0.00000541\\\@


 IF YOU GIVE EVERYONE A PIECE OF YOUR MIND,
 PRETTY SOON IT WILL BE ALL GONE.
 Job cpu time:       0 days  0 hours 47 minutes 47.6 seconds.
 File lengths (MBytes):  RWF=    152 Int=      0 D2E=      0 Chk=      8 Scr=      1
 Normal termination of Gaussian 09 at Mon Jan 27 14:08:20 2020.
