 Entering Gaussian System, Link 0=/home/puck/opt/gaussian_09/g09
 Input=dsC7O2H10nsd_1309.com
 Output=dsC7O2H10nsd_1309.log
 Initial command:
 /home/puck/opt/gaussian_09/l1.exe "/scratch/puck/g09_c7d1e8cb-3a27-4b99-bf4b-1c156dbd2a7b/Gau-45558.inp" -scrdir="/scratch/puck/g09_c7d1e8cb-3a27-4b99-bf4b-1c156dbd2a7b/"
 Entering Link 1 = /home/puck/opt/gaussian_09/l1.exe PID=     45568.
  
 Copyright (c) 1988,1990,1992,1993,1995,1998,2003,2009,2013,
            Gaussian, Inc.  All Rights Reserved.
  
 This is part of the Gaussian(R) 09 program.  It is based on
 the Gaussian(R) 03 system (copyright 2003, Gaussian, Inc.),
 the Gaussian(R) 98 system (copyright 1998, Gaussian, Inc.),
 the Gaussian(R) 94 system (copyright 1995, Gaussian, Inc.),
 the Gaussian 92(TM) system (copyright 1992, Gaussian, Inc.),
 the Gaussian 90(TM) system (copyright 1990, Gaussian, Inc.),
 the Gaussian 88(TM) system (copyright 1988, Gaussian, Inc.),
 the Gaussian 86(TM) system (copyright 1986, Carnegie Mellon
 University), and the Gaussian 82(TM) system (copyright 1983,
 Carnegie Mellon University). Gaussian is a federally registered
 trademark of Gaussian, Inc.
  
 This software contains proprietary and confidential information,
 including trade secrets, belonging to Gaussian, Inc.
  
 This software is provided under written license and may be
 used, copied, transmitted, or stored only in accord with that
 written license.
  
 The following legend is applicable only to US Government
 contracts under FAR:
  
                    RESTRICTED RIGHTS LEGEND
  
 Use, reproduction and disclosure by the US Government is
 subject to restrictions as set forth in subparagraphs (a)
 and (c) of the Commercial Computer Software - Restricted
 Rights clause in FAR 52.227-19.
  
 Gaussian, Inc.
 340 Quinnipiac St., Bldg. 40, Wallingford CT 06492
  
  
 ---------------------------------------------------------------
 Warning -- This program may not be used in any manner that
 competes with the business of Gaussian, Inc. or will provide
 assistance to any competitor of Gaussian, Inc.  The licensee
 of this program is prohibited from giving any competitor of
 Gaussian, Inc. access to this program.  By using this program,
 the user acknowledges that Gaussian, Inc. is engaged in the
 business of creating and licensing software in the field of
 computational chemistry and represents and warrants to the
 licensee that it is not a competitor of Gaussian, Inc. and that
 it will not use this program in any manner prohibited above.
 ---------------------------------------------------------------
  

 Cite this work as:
 Gaussian 09, Revision D.01,
 M. J. Frisch, G. W. Trucks, H. B. Schlegel, G. E. Scuseria, 
 M. A. Robb, J. R. Cheeseman, G. Scalmani, V. Barone, B. Mennucci, 
 G. A. Petersson, H. Nakatsuji, M. Caricato, X. Li, H. P. Hratchian, 
 A. F. Izmaylov, J. Bloino, G. Zheng, J. L. Sonnenberg, M. Hada, 
 M. Ehara, K. Toyota, R. Fukuda, J. Hasegawa, M. Ishida, T. Nakajima, 
 Y. Honda, O. Kitao, H. Nakai, T. Vreven, J. A. Montgomery, Jr., 
 J. E. Peralta, F. Ogliaro, M. Bearpark, J. J. Heyd, E. Brothers, 
 K. N. Kudin, V. N. Staroverov, T. Keith, R. Kobayashi, J. Normand, 
 K. Raghavachari, A. Rendell, J. C. Burant, S. S. Iyengar, J. Tomasi, 
 M. Cossi, N. Rega, J. M. Millam, M. Klene, J. E. Knox, J. B. Cross, 
 V. Bakken, C. Adamo, J. Jaramillo, R. Gomperts, R. E. Stratmann, 
 O. Yazyev, A. J. Austin, R. Cammi, C. Pomelli, J. W. Ochterski, 
 R. L. Martin, K. Morokuma, V. G. Zakrzewski, G. A. Voth, 
 P. Salvador, J. J. Dannenberg, S. Dapprich, A. D. Daniels, 
 O. Farkas, J. B. Foresman, J. V. Ortiz, J. Cioslowski, 
 and D. J. Fox, Gaussian, Inc., Wallingford CT, 2013.
 
 ******************************************
 Gaussian 09:  ES64L-G09RevD.01 24-Apr-2013
                27-Jan-2020 
 ******************************************
 -----------------------------
 # b3lyp 6-31G(2df,p) opt Freq
 -----------------------------
 1/14=-1,18=20,19=15,26=3,38=1/1,3;
 2/9=110,12=2,17=6,18=5,40=1/2;
 3/5=1,6=6,7=104,11=2,16=1,25=1,30=1,71=1,74=-5/1,2,3;
 4//1;
 5/5=2,38=5/2;
 6/7=2,8=2,9=2,10=2,28=1/1;
 7//1,2,3,16;
 1/14=-1,18=20,19=15,26=3/3(2);
 2/9=110/2;
 99//99;
 2/9=110/2;
 3/5=1,6=6,7=104,11=2,16=1,25=1,30=1,71=1,74=-5/1,2,3;
 4/5=5,16=3,69=1/1;
 5/5=2,38=5/2;
 7//1,2,3,16;
 1/14=-1,18=20,19=15,26=3/3(-5);
 2/9=110/2;
 6/7=2,8=2,9=2,10=2,19=2,28=1/1;
 99/9=1/99;
 -----
 titel
 -----
 Symbolic Z-matrix:
 Charge =  0 Multiplicity = 1
 C                    -4.06582   0.08843  -1.25837 
 C                    -3.41709  -1.27286  -1.49168 
 O                    -4.36602  -2.327    -1.60089 
 C                    -2.40078  -1.60745  -0.405 
 O                    -1.2705   -0.71064  -0.40331 
 C                    -0.33472  -1.80474  -0.46476 
 C                    -1.48131  -2.83898  -0.64736 
 C                    -1.55389  -3.94554   0.28071 
 C                    -1.61116  -4.84973   1.07131 
 H                    -4.62037   0.09594  -0.31126 
 H                    -3.30259   0.87009  -1.2071 
 H                    -4.76325   0.32275  -2.06689 
 H                    -2.89061  -1.26384  -2.45378 
 H                    -4.90533  -2.3257   -0.80191 
 H                    -2.89283  -1.63112   0.57964 
 H                     0.36377  -1.70431  -1.30213 
 H                     0.22431  -1.92216   0.47024 
 H                    -1.56394  -3.19651  -1.67737 
 H                    -1.66241  -5.65553   1.76089 
 

 GradGradGradGradGradGradGradGradGradGradGradGradGradGradGradGradGradGrad
 Berny optimization.
 Initialization pass.
                           ----------------------------
                           !    Initial Parameters    !
                           ! (Angstroms and Degrees)  !
 --------------------------                            --------------------------
 ! Name  Definition              Value          Derivative Info.                !
 --------------------------------------------------------------------------------
 ! R1    R(1,2)                  1.5259         estimate D2E/DX2                !
 ! R2    R(1,10)                 1.0975         estimate D2E/DX2                !
 ! R3    R(1,11)                 1.0937         estimate D2E/DX2                !
 ! R4    R(1,12)                 1.0932         estimate D2E/DX2                !
 ! R5    R(2,3)                  1.4225         estimate D2E/DX2                !
 ! R6    R(2,4)                  1.525          estimate D2E/DX2                !
 ! R7    R(2,13)                 1.0968         estimate D2E/DX2                !
 ! R8    R(3,14)                 0.964          estimate D2E/DX2                !
 ! R9    R(4,5)                  1.4428         estimate D2E/DX2                !
 ! R10   R(4,7)                  1.5559         estimate D2E/DX2                !
 ! R11   R(4,15)                 1.101          estimate D2E/DX2                !
 ! R12   R(5,6)                  1.441          estimate D2E/DX2                !
 ! R13   R(6,7)                  1.5549         estimate D2E/DX2                !
 ! R14   R(6,16)                 1.0951         estimate D2E/DX2                !
 ! R15   R(6,17)                 1.0957         estimate D2E/DX2                !
 ! R16   R(7,8)                  1.446          estimate D2E/DX2                !
 ! R17   R(7,18)                 1.0934         estimate D2E/DX2                !
 ! R18   R(8,9)                  1.2025         estimate D2E/DX2                !
 ! R19   R(9,19)                 1.0618         estimate D2E/DX2                !
 ! A1    A(2,1,10)             110.6616         estimate D2E/DX2                !
 ! A2    A(2,1,11)             110.3697         estimate D2E/DX2                !
 ! A3    A(2,1,12)             110.449          estimate D2E/DX2                !
 ! A4    A(10,1,11)            107.8942         estimate D2E/DX2                !
 ! A5    A(10,1,12)            108.3258         estimate D2E/DX2                !
 ! A6    A(11,1,12)            109.0691         estimate D2E/DX2                !
 ! A7    A(1,2,3)              112.9064         estimate D2E/DX2                !
 ! A8    A(1,2,4)              111.7218         estimate D2E/DX2                !
 ! A9    A(1,2,13)             109.3212         estimate D2E/DX2                !
 ! A10   A(3,2,4)              109.6746         estimate D2E/DX2                !
 ! A11   A(3,2,13)             105.0086         estimate D2E/DX2                !
 ! A12   A(4,2,13)             107.8768         estimate D2E/DX2                !
 ! A13   A(2,3,14)             107.973          estimate D2E/DX2                !
 ! A14   A(2,4,5)              112.7385         estimate D2E/DX2                !
 ! A15   A(2,4,7)              117.1606         estimate D2E/DX2                !
 ! A16   A(2,4,15)             110.1295         estimate D2E/DX2                !
 ! A17   A(5,4,7)               91.6749         estimate D2E/DX2                !
 ! A18   A(5,4,15)             111.2483         estimate D2E/DX2                !
 ! A19   A(7,4,15)             112.7302         estimate D2E/DX2                !
 ! A20   A(4,5,6)               92.1052         estimate D2E/DX2                !
 ! A21   A(5,6,7)               91.7862         estimate D2E/DX2                !
 ! A22   A(5,6,16)             112.1603         estimate D2E/DX2                !
 ! A23   A(5,6,17)             112.1043         estimate D2E/DX2                !
 ! A24   A(7,6,16)             116.2038         estimate D2E/DX2                !
 ! A25   A(7,6,17)             113.9016         estimate D2E/DX2                !
 ! A26   A(16,6,17)            109.6893         estimate D2E/DX2                !
 ! A27   A(4,7,6)               83.742          estimate D2E/DX2                !
 ! A28   A(4,7,8)              118.4288         estimate D2E/DX2                !
 ! A29   A(4,7,18)             111.1547         estimate D2E/DX2                !
 ! A30   A(6,7,8)              118.0759         estimate D2E/DX2                !
 ! A31   A(6,7,18)             112.5719         estimate D2E/DX2                !
 ! A32   A(8,7,18)             110.5222         estimate D2E/DX2                !
 ! A33   L(7,8,9,14,-1)        180.0675         estimate D2E/DX2                !
 ! A34   L(8,9,19,14,-1)       180.0052         estimate D2E/DX2                !
 ! A35   L(7,8,9,14,-2)        181.3317         estimate D2E/DX2                !
 ! A36   L(8,9,19,14,-2)       179.194          estimate D2E/DX2                !
 ! D1    D(10,1,2,3)            62.118          estimate D2E/DX2                !
 ! D2    D(10,1,2,4)           -62.0608         estimate D2E/DX2                !
 ! D3    D(10,1,2,13)          178.6094         estimate D2E/DX2                !
 ! D4    D(11,1,2,3)          -178.5215         estimate D2E/DX2                !
 ! D5    D(11,1,2,4)            57.2997         estimate D2E/DX2                !
 ! D6    D(11,1,2,13)          -62.0301         estimate D2E/DX2                !
 ! D7    D(12,1,2,3)           -57.832          estimate D2E/DX2                !
 ! D8    D(12,1,2,4)           177.9892         estimate D2E/DX2                !
 ! D9    D(12,1,2,13)           58.6594         estimate D2E/DX2                !
 ! D10   D(1,2,3,14)           -56.3203         estimate D2E/DX2                !
 ! D11   D(4,2,3,14)            68.9742         estimate D2E/DX2                !
 ! D12   D(13,2,3,14)         -175.3436         estimate D2E/DX2                !
 ! D13   D(1,2,4,5)            -64.808          estimate D2E/DX2                !
 ! D14   D(1,2,4,7)           -169.3235         estimate D2E/DX2                !
 ! D15   D(1,2,4,15)            60.0907         estimate D2E/DX2                !
 ! D16   D(3,2,4,5)            169.2193         estimate D2E/DX2                !
 ! D17   D(3,2,4,7)             64.7038         estimate D2E/DX2                !
 ! D18   D(3,2,4,15)           -65.882          estimate D2E/DX2                !
 ! D19   D(13,2,4,5)            55.3721         estimate D2E/DX2                !
 ! D20   D(13,2,4,7)           -49.1434         estimate D2E/DX2                !
 ! D21   D(13,2,4,15)         -179.7292         estimate D2E/DX2                !
 ! D22   D(2,4,5,6)           -127.007          estimate D2E/DX2                !
 ! D23   D(7,4,5,6)             -6.5147         estimate D2E/DX2                !
 ! D24   D(15,4,5,6)           108.707          estimate D2E/DX2                !
 ! D25   D(2,4,7,6)            122.7872         estimate D2E/DX2                !
 ! D26   D(2,4,7,8)           -118.5913         estimate D2E/DX2                !
 ! D27   D(2,4,7,18)            10.9721         estimate D2E/DX2                !
 ! D28   D(5,4,7,6)              6.068          estimate D2E/DX2                !
 ! D29   D(5,4,7,8)            124.6896         estimate D2E/DX2                !
 ! D30   D(5,4,7,18)          -105.747          estimate D2E/DX2                !
 ! D31   D(15,4,7,6)          -107.8447         estimate D2E/DX2                !
 ! D32   D(15,4,7,8)            10.7769         estimate D2E/DX2                !
 ! D33   D(15,4,7,18)          140.3403         estimate D2E/DX2                !
 ! D34   D(4,5,6,7)              6.5194         estimate D2E/DX2                !
 ! D35   D(4,5,6,16)           125.8414         estimate D2E/DX2                !
 ! D36   D(4,5,6,17)          -110.2362         estimate D2E/DX2                !
 ! D37   D(5,6,7,4)             -6.0761         estimate D2E/DX2                !
 ! D38   D(5,6,7,8)           -125.0427         estimate D2E/DX2                !
 ! D39   D(5,6,7,18)           104.2636         estimate D2E/DX2                !
 ! D40   D(16,6,7,4)          -121.9223         estimate D2E/DX2                !
 ! D41   D(16,6,7,8)           119.1111         estimate D2E/DX2                !
 ! D42   D(16,6,7,18)          -11.5826         estimate D2E/DX2                !
 ! D43   D(17,6,7,4)           109.1132         estimate D2E/DX2                !
 ! D44   D(17,6,7,8)            -9.8534         estimate D2E/DX2                !
 ! D45   D(17,6,7,18)         -140.5471         estimate D2E/DX2                !
 --------------------------------------------------------------------------------
 Trust Radius=3.00D-01 FncErr=1.00D-07 GrdErr=1.00D-06
 Number of steps in this run=    110 maximum allowed number of steps=    114.
 GradGradGradGradGradGradGradGradGradGradGradGradGradGradGradGradGradGrad

                          Input orientation:                          
 ---------------------------------------------------------------------
 Center     Atomic      Atomic             Coordinates (Angstroms)
 Number     Number       Type             X           Y           Z
 ---------------------------------------------------------------------
      1          6           0       -4.065822    0.088433   -1.258373
      2          6           0       -3.417094   -1.272864   -1.491682
      3          8           0       -4.366017   -2.326999   -1.600894
      4          6           0       -2.400775   -1.607447   -0.405001
      5          8           0       -1.270499   -0.710636   -0.403305
      6          6           0       -0.334721   -1.804741   -0.464763
      7          6           0       -1.481309   -2.838984   -0.647361
      8          6           0       -1.553887   -3.945544    0.280709
      9          6           0       -1.611162   -4.849733    1.071314
     10          1           0       -4.620373    0.095936   -0.311256
     11          1           0       -3.302586    0.870088   -1.207100
     12          1           0       -4.763248    0.322746   -2.066886
     13          1           0       -2.890611   -1.263838   -2.453784
     14          1           0       -4.905328   -2.325697   -0.801907
     15          1           0       -2.892825   -1.631120    0.579644
     16          1           0        0.363772   -1.704314   -1.302126
     17          1           0        0.224309   -1.922157    0.470240
     18          1           0       -1.563937   -3.196509   -1.677367
     19          1           0       -1.662411   -5.655535    1.760889
 ---------------------------------------------------------------------
                    Distance matrix (angstroms):
                    1          2          3          4          5
     1  C    0.000000
     2  C    1.525913   0.000000
     3  O    2.457997   1.422527   0.000000
     4  C    2.525200   1.525033   2.410413   0.000000
     5  O    3.030427   2.471545   3.691759   1.442844   0.000000
     6  C    4.258526   3.292185   4.220770   2.076314   1.441015
     7  C    3.952571   2.629235   3.081054   1.555905   2.152643
     8  C    4.995154   3.708926   3.750759   2.579557   3.318556
     9  C    5.986508   4.756504   4.592832   3.649029   4.407117
    10  H    1.097550   2.171383   2.756535   2.799449   3.446838
    11  H    1.093683   2.164796   3.392245   2.755867   2.697064
    12  H    1.093159   2.165401   2.719576   3.474015   4.004332
    13  H    2.153779   1.096770   2.008620   2.134366   2.671190
    14  H    2.596374   1.949125   0.963970   2.635565   3.997410
    15  H    2.776885   2.166471   2.722000   1.100999   2.108417
    16  H    4.778825   3.810122   4.779948   2.908082   2.113319
    17  H    5.043392   4.186948   5.052186   2.784988   2.113129
    18  H    4.150401   2.677513   2.934884   2.200984   2.808719
    19  H    6.919935   5.732882   5.448873   4.650083   5.411964
                    6          7          8          9         10
     6  C    0.000000
     7  C    1.554884   0.000000
     8  C    2.573934   1.446049   0.000000
     9  C    3.641540   2.648361   1.202453   0.000000
    10  H    4.690731   4.310505   5.107575   5.952016   0.000000
    11  H    4.063742   4.169841   5.334963   6.385016   1.771556
    12  H    5.167674   4.773124   5.833481   6.821912   1.775977
    13  H    3.283497   2.780356   4.056578   5.188636   3.071073
    14  H    4.612539   3.465726   3.876611   4.553157   2.487217
    15  H    2.768543   2.226400   2.690479   3.499124   2.600163
    16  H    1.095059   2.262856   3.347521   4.407634   5.391144
    17  H    1.095688   2.235785   2.700370   3.507270   5.306070
    18  H    2.217747   1.093419   2.096478   3.207901   4.695557
    19  H    4.641648   3.710178   2.264239   1.061818   6.791373
                   11         12         13         14         15
    11  H    0.000000
    12  H    1.781108   0.000000
    13  H    2.505511   2.484695   0.000000
    14  H    3.598056   2.938471   2.813419   0.000000
    15  H    3.101031   3.784203   3.055582   2.537969   0.000000
    16  H    4.480933   5.565983   3.480136   5.329142   3.761894
    17  H    4.800947   6.029288   4.322733   5.300413   3.132602
    18  H    4.447612   4.772050   2.469433   3.562251   3.051309
    19  H    7.354106   7.746411   6.209584   5.307754   4.370947
                   16         17         18         19
    16  H    0.000000
    17  H    1.791141   0.000000
    18  H    2.466478   3.071484   0.000000
    19  H    5.394406   4.377624   4.228252   0.000000
 Stoichiometry    C7H10O2
 Framework group  C1[X(C7H10O2)]
 Deg. of freedom    51
 Full point group                 C1      NOp   1
 Largest Abelian subgroup         C1      NOp   1
 Largest concise Abelian subgroup C1      NOp   1
                         Standard orientation:                         
 ---------------------------------------------------------------------
 Center     Atomic      Atomic             Coordinates (Angstroms)
 Number     Number       Type             X           Y           Z
 ---------------------------------------------------------------------
      1          6           0        2.759516    0.054641   -0.480802
      2          6           0        1.514661   -0.325777    0.315457
      3          8           0        1.377105   -1.730813    0.490199
      4          6           0        0.246558    0.239770   -0.315255
      5          8           0        0.209778    1.682023   -0.296549
      6          6           0       -1.085254    1.693760    0.335337
      7          6           0       -1.063055    0.150044    0.520032
      8          6           0       -2.168364   -0.615094   -0.012803
      9          6           0       -3.085624   -1.238654   -0.477238
     10          1           0        2.712861   -0.362210   -1.495038
     11          1           0        2.838281    1.142018   -0.567689
     12          1           0        3.658138   -0.330599    0.008140
     13          1           0        1.595448    0.080190    1.331119
     14          1           0        1.376334   -2.140418   -0.382419
     15          1           0        0.126188   -0.149209   -1.338194
     16          1           0       -1.091482    2.290556    1.253460
     17          1           0       -1.870822    2.048691   -0.341005
     18          1           0       -0.853683   -0.146273    1.551499
     19          1           0       -3.896956   -1.794564   -0.877439
 ---------------------------------------------------------------------
 Rotational constants (GHZ):      2.5177362      1.1699249      0.8787311
 Standard basis: 6-31G(2df,p) (6D, 7F)
 There are   329 symmetry adapted cartesian basis functions of A   symmetry.
 There are   302 symmetry adapted basis functions of A   symmetry.
   302 basis functions,   466 primitive gaussians,   329 cartesian basis functions
    34 alpha electrons       34 beta electrons
       nuclear repulsion energy       443.5813748733 Hartrees.
 NAtoms=   19 NActive=   19 NUniq=   19 SFac= 1.00D+00 NAtFMM=   60 NAOKFM=F Big=F
 Integral buffers will be    131072 words long.
 Raffenetti 2 integral format.
 Two-electron integral symmetry is turned on.
 One-electron integrals computed using PRISM.
 NBasis=   302 RedAO= T EigKep=  1.47D-04  NBF=   302
 NBsUse=   302 1.00D-06 EigRej= -1.00D+00 NBFU=   302
 ExpMin= 1.61D-01 ExpMax= 5.48D+03 ExpMxC= 8.25D+02 IAcc=1 IRadAn=         1 AccDes= 0.00D+00
 Harris functional with IExCor=  402 and IRadAn=       1 diagonalized for initial guess.
 HarFok:  IExCor=  402 AccDes= 0.00D+00 IRadAn=         1 IDoV= 1 UseB2=F ITyADJ=14
 ICtDFT=  3500011 ScaDFX=  1.000000  1.000000  1.000000  1.000000
 FoFCou: FMM=F IPFlag=           0 FMFlag=      100000 FMFlg1=           0
         NFxFlg=           0 DoJE=T BraDBF=F KetDBF=T FulRan=T
         wScrn=  0.000000 ICntrl=     500 IOpCl=  0 I1Cent=   200000004 NGrid=           0
         NMat0=    1 NMatS0=      1 NMatT0=    0 NMatD0=    1 NMtDS0=    0 NMtDT0=    0
 Petite list used in FoFCou.
 Requested convergence on RMS density matrix=1.00D-08 within 128 cycles.
 Requested convergence on MAX density matrix=1.00D-06.
 Requested convergence on             energy=1.00D-06.
 No special actions if energy rises.
 Integral accuracy reduced to 1.0D-05 until final iterations.
 Initial convergence to 1.0D-05 achieved.  Increase integral accuracy.
 SCF Done:  E(RB3LYP) =  -423.127263375     A.U. after   14 cycles
            NFock= 14  Conv=0.41D-08     -V/T= 2.0074

 **********************************************************************

            Population analysis using the SCF density.

 **********************************************************************

 Orbital symmetries:
       Occupied  (A) (A) (A) (A) (A) (A) (A) (A) (A) (A) (A) (A)
                 (A) (A) (A) (A) (A) (A) (A) (A) (A) (A) (A) (A)
                 (A) (A) (A) (A) (A) (A) (A) (A) (A) (A)
       Virtual   (A) (A) (A) (A) (A) (A) (A) (A) (A) (A) (A) (A)
                 (A) (A) (A) (A) (A) (A) (A) (A) (A) (A) (A) (A)
                 (A) (A) (A) (A) (A) (A) (A) (A) (A) (A) (A) (A)
                 (A) (A) (A) (A) (A) (A) (A) (A) (A) (A) (A) (A)
                 (A) (A) (A) (A) (A) (A) (A) (A) (A) (A) (A) (A)
                 (A) (A) (A) (A) (A) (A) (A) (A) (A) (A) (A) (A)
                 (A) (A) (A) (A) (A) (A) (A) (A) (A) (A) (A) (A)
                 (A) (A) (A) (A) (A) (A) (A) (A) (A) (A) (A) (A)
                 (A) (A) (A) (A) (A) (A) (A) (A) (A) (A) (A) (A)
                 (A) (A) (A) (A) (A) (A) (A) (A) (A) (A) (A) (A)
                 (A) (A) (A) (A) (A) (A) (A) (A) (A) (A) (A) (A)
                 (A) (A) (A) (A) (A) (A) (A) (A) (A) (A) (A) (A)
                 (A) (A) (A) (A) (A) (A) (A) (A) (A) (A) (A) (A)
                 (A) (A) (A) (A) (A) (A) (A) (A) (A) (A) (A) (A)
                 (A) (A) (A) (A) (A) (A) (A) (A) (A) (A) (A) (A)
                 (A) (A) (A) (A) (A) (A) (A) (A) (A) (A) (A) (A)
                 (A) (A) (A) (A) (A) (A) (A) (A) (A) (A) (A) (A)
                 (A) (A) (A) (A) (A) (A) (A) (A) (A) (A) (A) (A)
                 (A) (A) (A) (A) (A) (A) (A) (A) (A) (A) (A) (A)
                 (A) (A) (A) (A) (A) (A) (A) (A) (A) (A) (A) (A)
                 (A) (A) (A) (A) (A) (A) (A) (A) (A) (A) (A) (A)
                 (A) (A) (A) (A) (A) (A) (A) (A) (A) (A) (A) (A)
                 (A) (A) (A) (A)
 The electronic state is 1-A.
 Alpha  occ. eigenvalues --  -19.14157 -19.14050 -10.24002 -10.23939 -10.23564
 Alpha  occ. eigenvalues --  -10.21706 -10.18432 -10.17846 -10.17542  -1.04835
 Alpha  occ. eigenvalues --   -1.02222  -0.79358  -0.76710  -0.71854  -0.69156
 Alpha  occ. eigenvalues --   -0.62448  -0.58289  -0.54080  -0.51312  -0.49820
 Alpha  occ. eigenvalues --   -0.47483  -0.45197  -0.44402  -0.42076  -0.40719
 Alpha  occ. eigenvalues --   -0.39051  -0.37324  -0.34790  -0.33537  -0.32634
 Alpha  occ. eigenvalues --   -0.28817  -0.26512  -0.26231  -0.24954
 Alpha virt. eigenvalues --    0.04012   0.04402   0.06889   0.08814   0.10949
 Alpha virt. eigenvalues --    0.11922   0.12894   0.13960   0.14505   0.16177
 Alpha virt. eigenvalues --    0.16898   0.17809   0.18969   0.20169   0.22142
 Alpha virt. eigenvalues --    0.23483   0.23913   0.26794   0.29770   0.33354
 Alpha virt. eigenvalues --    0.36857   0.40751   0.43848   0.45114   0.47445
 Alpha virt. eigenvalues --    0.48136   0.49037   0.50595   0.51509   0.52530
 Alpha virt. eigenvalues --    0.53757   0.54035   0.55987   0.58279   0.59941
 Alpha virt. eigenvalues --    0.64064   0.66865   0.67778   0.69393   0.70655
 Alpha virt. eigenvalues --    0.71594   0.71935   0.72067   0.73969   0.74529
 Alpha virt. eigenvalues --    0.75002   0.76258   0.76871   0.77994   0.79500
 Alpha virt. eigenvalues --    0.80307   0.81161   0.81758   0.83146   0.84966
 Alpha virt. eigenvalues --    0.85548   0.89756   0.90862   0.93192   0.94387
 Alpha virt. eigenvalues --    0.95546   0.97168   0.98922   1.00869   1.04589
 Alpha virt. eigenvalues --    1.04824   1.09948   1.10629   1.13383   1.15821
 Alpha virt. eigenvalues --    1.17716   1.19128   1.23178   1.23523   1.24257
 Alpha virt. eigenvalues --    1.26198   1.29289   1.31030   1.33312   1.36780
 Alpha virt. eigenvalues --    1.39359   1.40369   1.41332   1.43072   1.45558
 Alpha virt. eigenvalues --    1.47320   1.49905   1.53655   1.54086   1.57218
 Alpha virt. eigenvalues --    1.57880   1.58372   1.61997   1.65253   1.66579
 Alpha virt. eigenvalues --    1.68946   1.72191   1.73260   1.74339   1.80359
 Alpha virt. eigenvalues --    1.82024   1.84893   1.86822   1.88905   1.90679
 Alpha virt. eigenvalues --    1.93351   1.94877   1.97628   2.08119   2.09156
 Alpha virt. eigenvalues --    2.14360   2.20242   2.25030   2.25712   2.31145
 Alpha virt. eigenvalues --    2.33541   2.38003   2.38933   2.40731   2.47324
 Alpha virt. eigenvalues --    2.47545   2.48894   2.51403   2.54620   2.56237
 Alpha virt. eigenvalues --    2.60451   2.60901   2.65541   2.67380   2.67862
 Alpha virt. eigenvalues --    2.69211   2.71302   2.73779   2.76056   2.77062
 Alpha virt. eigenvalues --    2.79669   2.82087   2.83862   2.84661   2.85846
 Alpha virt. eigenvalues --    2.89356   2.91785   2.94107   2.97123   2.97859
 Alpha virt. eigenvalues --    2.99029   3.02300   3.03357   3.04663   3.06557
 Alpha virt. eigenvalues --    3.09412   3.12074   3.13060   3.14789   3.17914
 Alpha virt. eigenvalues --    3.21476   3.23883   3.27123   3.30355   3.33103
 Alpha virt. eigenvalues --    3.34604   3.36972   3.39577   3.42438   3.43188
 Alpha virt. eigenvalues --    3.45556   3.46333   3.49001   3.51117   3.53395
 Alpha virt. eigenvalues --    3.55846   3.57317   3.60310   3.64611   3.65696
 Alpha virt. eigenvalues --    3.68478   3.69105   3.70521   3.80288   3.82496
 Alpha virt. eigenvalues --    3.83794   3.90934   3.92792   3.98118   3.98790
 Alpha virt. eigenvalues --    4.00648   4.06091   4.10300   4.16609   4.18843
 Alpha virt. eigenvalues --    4.21210   4.22640   4.27405   4.30307   4.32833
 Alpha virt. eigenvalues --    4.34355   4.35089   4.38162   4.40021   4.41576
 Alpha virt. eigenvalues --    4.42239   4.44251   4.47272   4.49800   4.51070
 Alpha virt. eigenvalues --    4.53348   4.55445   4.58018   4.59669   4.60258
 Alpha virt. eigenvalues --    4.64760   4.65774   4.68051   4.70018   4.73322
 Alpha virt. eigenvalues --    4.73725   4.75137   4.75936   4.79502   4.80049
 Alpha virt. eigenvalues --    4.83575   4.85171   4.86728   4.87752   4.89136
 Alpha virt. eigenvalues --    4.93198   4.94150   4.96245   5.04357   5.09585
 Alpha virt. eigenvalues --    5.10112   5.15941   5.22938   5.26015   5.29443
 Alpha virt. eigenvalues --    5.29744   5.33063   5.37727   5.42645   5.44698
 Alpha virt. eigenvalues --    5.45241   5.50006   5.54716   5.57076   5.68475
 Alpha virt. eigenvalues --    5.70900   5.77212   5.86387   5.89617   5.95592
 Alpha virt. eigenvalues --    6.00587   6.04688   6.10149   6.23926   6.35177
 Alpha virt. eigenvalues --    6.37668   7.02880   7.08406   7.43217   9.67452
 Alpha virt. eigenvalues --   10.90609  11.34080  11.52704  11.97471  12.38242
 Alpha virt. eigenvalues --   12.64776  13.28247  13.53949
          Condensed to atoms (all electrons):
               1          2          3          4          5          6
     1  C    5.090917   0.368522  -0.035164  -0.039102  -0.001387   0.000294
     2  C    0.368522   4.684988   0.351365   0.362526  -0.020096   0.001362
     3  O   -0.035164   0.351365   7.849420  -0.045847   0.001540   0.000610
     4  C   -0.039102   0.362526  -0.045847   4.893932   0.273852  -0.178969
     5  O   -0.001387  -0.020096   0.001540   0.273852   7.815649   0.346192
     6  C    0.000294   0.001362   0.000610  -0.178969   0.346192   4.909647
     7  C    0.003719  -0.006218   0.006322   0.381397  -0.065177   0.340418
     8  C   -0.000347   0.004063  -0.000590  -0.032343   0.002834  -0.021606
     9  C   -0.000010   0.000128  -0.000107  -0.005057   0.000077  -0.003891
    10  H    0.363505  -0.025913  -0.001823  -0.006378  -0.000046  -0.000027
    11  H    0.356917  -0.016294   0.002783  -0.001189   0.005473  -0.000197
    12  H    0.367619  -0.014566   0.000765   0.003286  -0.000003   0.000000
    13  H   -0.048975   0.336966  -0.017682  -0.035058   0.002633   0.001181
    14  H   -0.004018  -0.069951   0.311212  -0.002993   0.000018   0.000011
    15  H   -0.007506  -0.059407   0.002183   0.329985  -0.024512   0.009290
    16  H    0.000029   0.000597  -0.000010   0.009121  -0.024189   0.351467
    17  H    0.000011  -0.000428   0.000007  -0.001673  -0.024832   0.354282
    18  H    0.000255  -0.006645   0.002015  -0.036435   0.005491  -0.030575
    19  H    0.000000  -0.000001   0.000000   0.000026   0.000000   0.000012
               7          8          9         10         11         12
     1  C    0.003719  -0.000347  -0.000010   0.363505   0.356917   0.367619
     2  C   -0.006218   0.004063   0.000128  -0.025913  -0.016294  -0.014566
     3  O    0.006322  -0.000590  -0.000107  -0.001823   0.002783   0.000765
     4  C    0.381397  -0.032343  -0.005057  -0.006378  -0.001189   0.003286
     5  O   -0.065177   0.002834   0.000077  -0.000046   0.005473  -0.000003
     6  C    0.340418  -0.021606  -0.003891  -0.000027  -0.000197   0.000000
     7  C    4.958619   0.391165  -0.032033   0.000054   0.000249  -0.000103
     8  C    0.391165   4.421168   0.949249   0.000013   0.000005   0.000003
     9  C   -0.032033   0.949249   5.179702   0.000001   0.000000   0.000000
    10  H    0.000054   0.000013   0.000001   0.606693  -0.026857  -0.032980
    11  H    0.000249   0.000005   0.000000  -0.026857   0.564240  -0.027630
    12  H   -0.000103   0.000003   0.000000  -0.032980  -0.027630   0.583361
    13  H   -0.009309   0.000744   0.000028   0.005832  -0.000042  -0.004031
    14  H   -0.001034   0.000479   0.000095   0.005466  -0.000113  -0.000238
    15  H   -0.041705  -0.005027   0.001745   0.005864   0.000640  -0.000160
    16  H   -0.012942   0.001700  -0.000086  -0.000001  -0.000020  -0.000001
    17  H   -0.018871  -0.007082   0.001730   0.000002   0.000012   0.000000
    18  H    0.354963  -0.034160  -0.001746   0.000015  -0.000030  -0.000012
    19  H    0.000330   0.008469   0.368309   0.000000   0.000000   0.000000
              13         14         15         16         17         18
     1  C   -0.048975  -0.004018  -0.007506   0.000029   0.000011   0.000255
     2  C    0.336966  -0.069951  -0.059407   0.000597  -0.000428  -0.006645
     3  O   -0.017682   0.311212   0.002183  -0.000010   0.000007   0.002015
     4  C   -0.035058  -0.002993   0.329985   0.009121  -0.001673  -0.036435
     5  O    0.002633   0.000018  -0.024512  -0.024189  -0.024832   0.005491
     6  C    0.001181   0.000011   0.009290   0.351467   0.354282  -0.030575
     7  C   -0.009309  -0.001034  -0.041705  -0.012942  -0.018871   0.354963
     8  C    0.000744   0.000479  -0.005027   0.001700  -0.007082  -0.034160
     9  C    0.000028   0.000095   0.001745  -0.000086   0.001730  -0.001746
    10  H    0.005832   0.005466   0.005864  -0.000001   0.000002   0.000015
    11  H   -0.000042  -0.000113   0.000640  -0.000020   0.000012  -0.000030
    12  H   -0.004031  -0.000238  -0.000160  -0.000001   0.000000  -0.000012
    13  H    0.655267   0.007924   0.007724  -0.000254   0.000055   0.005444
    14  H    0.007924   0.466228   0.004463  -0.000001   0.000001  -0.000004
    15  H    0.007724   0.004463   0.696379  -0.000918   0.002277   0.005828
    16  H   -0.000254  -0.000001  -0.000918   0.625122  -0.053894  -0.007475
    17  H    0.000055   0.000001   0.002277  -0.053894   0.630570   0.004902
    18  H    0.005444  -0.000004   0.005828  -0.007475   0.004902   0.619614
    19  H    0.000000   0.000000  -0.000001   0.000000  -0.000009  -0.000068
              19
     1  C    0.000000
     2  C   -0.000001
     3  O    0.000000
     4  C    0.000026
     5  O    0.000000
     6  C    0.000012
     7  C    0.000330
     8  C    0.008469
     9  C    0.368309
    10  H    0.000000
    11  H    0.000000
    12  H    0.000000
    13  H    0.000000
    14  H    0.000000
    15  H   -0.000001
    16  H    0.000000
    17  H   -0.000009
    18  H   -0.000068
    19  H    0.424342
 Mulliken charges:
               1
     1  C   -0.415279
     2  C    0.109004
     3  O   -0.426998
     4  C    0.130918
     5  O   -0.293517
     6  C   -0.079501
     7  C   -0.249844
     8  C    0.321263
     9  C   -0.458136
    10  H    0.106580
    11  H    0.142052
    12  H    0.124690
    13  H    0.091552
    14  H    0.282453
    15  H    0.072857
    16  H    0.111753
    17  H    0.112939
    18  H    0.118624
    19  H    0.198589
 Sum of Mulliken charges =   0.00000
 Mulliken charges with hydrogens summed into heavy atoms:
               1
     1  C   -0.041958
     2  C    0.200556
     3  O   -0.144545
     4  C    0.203776
     5  O   -0.293517
     6  C    0.145192
     7  C   -0.131220
     8  C    0.321263
     9  C   -0.259547
 Electronic spatial extent (au):  <R**2>=           1344.0728
 Charge=              0.0000 electrons
 Dipole moment (field-independent basis, Debye):
    X=             -0.2165    Y=             -0.2482    Z=             -0.5981  Tot=              0.6828
 Quadrupole moment (field-independent basis, Debye-Ang):
   XX=            -50.1041   YY=            -54.9939   ZZ=            -52.0960
   XY=             -0.1286   XZ=             -0.5205   YZ=              5.9808
 Traceless Quadrupole moment (field-independent basis, Debye-Ang):
   XX=              2.2939   YY=             -2.5959   ZZ=              0.3020
   XY=             -0.1286   XZ=             -0.5205   YZ=              5.9808
 Octapole moment (field-independent basis, Debye-Ang**2):
  XXX=             -1.0033  YYY=             -5.2593  ZZZ=              3.2313  XYY=             -6.8440
  XXY=             -8.7738  XXZ=             -9.8352  XZZ=              2.8609  YZZ=              0.2825
  YYZ=             -6.0338  XYZ=              0.1173
 Hexadecapole moment (field-independent basis, Debye-Ang**3):
 XXXX=          -1073.9772 YYYY=           -455.6733 ZZZZ=           -137.7640 XXXY=             49.6666
 XXXZ=             44.3881 YYYX=            -13.5593 YYYZ=             21.8395 ZZZX=              0.2896
 ZZZY=             -0.2995 XXYY=           -240.6580 XXZZ=           -214.5295 YYZZ=           -100.1604
 XXYZ=             25.1860 YYXZ=             -0.5562 ZZXY=             -2.4139
 N-N= 4.435813748733D+02 E-N=-1.874001061535D+03  KE= 4.200228597043D+02
 Calling FoFJK, ICntrl=      2127 FMM=F ISym2X=0 I1Cent= 0 IOpClX= 0 NMat=1 NMatS=1 NMatT=0.
 ***** Axes restored to original set *****
 -------------------------------------------------------------------
 Center     Atomic                   Forces (Hartrees/Bohr)
 Number     Number              X              Y              Z
 -------------------------------------------------------------------
      1        6           0.000001465    0.000003860    0.000005676
      2        6           0.000008073   -0.000015835   -0.000010398
      3        8          -0.000006899    0.000016239   -0.000001024
      4        6           0.000005343    0.000005354    0.000005358
      5        8           0.000006089    0.000005847    0.000005868
      6        6          -0.000013852    0.000004752    0.000005252
      7        6           0.000003218   -0.000012381    0.000006025
      8        6           0.000009108    0.000000893   -0.000011347
      9        6           0.000006452    0.000002056   -0.000005248
     10        1          -0.000007390   -0.000002816    0.000001611
     11        1          -0.000004582   -0.000005098    0.000001335
     12        1          -0.000006595   -0.000001844    0.000003007
     13        1           0.000002187    0.000003468    0.000000433
     14        1           0.000001420   -0.000017310    0.000006759
     15        1          -0.000006308    0.000003974   -0.000004902
     16        1          -0.000000717    0.000005090   -0.000000734
     17        1           0.000000641    0.000004339   -0.000002385
     18        1          -0.000001778    0.000001042   -0.000001485
     19        1           0.000004126   -0.000001629   -0.000003799
 -------------------------------------------------------------------
 Cartesian Forces:  Max     0.000017310 RMS     0.000006504

 GradGradGradGradGradGradGradGradGradGradGradGradGradGradGradGradGradGrad
 Berny optimization.
 FormGI is forming the generalized inverse of G from B-inverse, IUseBI=4.
 GSVD:  received Info=                   1 from GESDD.
 Internal  Forces:  Max     0.000014111 RMS     0.000003486
 Search for a local minimum.
 Step number   1 out of a maximum of  110
 All quantities printed in internal units (Hartrees-Bohrs-Radians)
 Mixed Optimization -- En-DIIS/RFO-DIIS
 Second derivative matrix not updated -- first step.
 ITU=  0
     Eigenvalues ---    0.00423   0.00435   0.00482   0.00608   0.00608
     Eigenvalues ---    0.01394   0.02641   0.03564   0.04157   0.04702
     Eigenvalues ---    0.04702   0.04790   0.04835   0.05104   0.05482
     Eigenvalues ---    0.05638   0.05670   0.06599   0.07029   0.07427
     Eigenvalues ---    0.08244   0.08527   0.10252   0.10521   0.13101
     Eigenvalues ---    0.16000   0.16000   0.16000   0.16000   0.17059
     Eigenvalues ---    0.20287   0.20783   0.25638   0.26759   0.29804
     Eigenvalues ---    0.29887   0.33572   0.33955   0.34042   0.34164
     Eigenvalues ---    0.34234   0.34390   0.34421   0.34450   0.36552
     Eigenvalues ---    0.37428   0.38284   0.38767   0.42082   0.54628
     Eigenvalues ---    1.03600
 RFO step:  Lambda=-2.12680934D-08 EMin= 4.23170744D-03
 Linear search not attempted -- first point.
 Iteration  1 RMS(Cart)=  0.00014062 RMS(Int)=  0.00000004
 Iteration  2 RMS(Cart)=  0.00000004 RMS(Int)=  0.00000000
 Variable       Old X    -DE/DX   Delta X   Delta X   Delta X     New X
                                 (Linear)    (Quad)   (Total)
    R1        2.88356   0.00000   0.00000   0.00001   0.00001   2.88357
    R2        2.07407   0.00000   0.00000   0.00000   0.00000   2.07407
    R3        2.06676   0.00000   0.00000  -0.00001  -0.00001   2.06675
    R4        2.06577   0.00000   0.00000   0.00000   0.00000   2.06578
    R5        2.68819   0.00000   0.00000   0.00000   0.00000   2.68819
    R6        2.88189   0.00000   0.00000   0.00000   0.00000   2.88189
    R7        2.07260   0.00000   0.00000   0.00001   0.00001   2.07260
    R8        1.82164   0.00001   0.00000   0.00001   0.00001   1.82165
    R9        2.72658   0.00000   0.00000   0.00001   0.00001   2.72659
   R10        2.94023   0.00001   0.00000   0.00002   0.00002   2.94026
   R11        2.08059   0.00000   0.00000  -0.00001  -0.00001   2.08058
   R12        2.72312  -0.00001   0.00000  -0.00001  -0.00001   2.72311
   R13        2.93831   0.00000   0.00000  -0.00001  -0.00001   2.93830
   R14        2.06936   0.00000   0.00000   0.00000   0.00000   2.06936
   R15        2.07055   0.00000   0.00000  -0.00001  -0.00001   2.07054
   R16        2.73264  -0.00001   0.00000  -0.00002  -0.00002   2.73261
   R17        2.06626   0.00000   0.00000   0.00000   0.00000   2.06626
   R18        2.27231   0.00000   0.00000   0.00000   0.00000   2.27230
   R19        2.00654   0.00000   0.00000   0.00000   0.00000   2.00655
    A1        1.93141   0.00000   0.00000   0.00002   0.00002   1.93143
    A2        1.92632   0.00000   0.00000  -0.00002  -0.00002   1.92629
    A3        1.92770   0.00000   0.00000   0.00000   0.00000   1.92770
    A4        1.88311   0.00000   0.00000   0.00002   0.00002   1.88313
    A5        1.89064   0.00000   0.00000  -0.00003  -0.00003   1.89061
    A6        1.90362   0.00000   0.00000   0.00001   0.00001   1.90362
    A7        1.97059   0.00000   0.00000  -0.00002  -0.00002   1.97057
    A8        1.94991   0.00000   0.00000  -0.00004  -0.00004   1.94988
    A9        1.90801   0.00000   0.00000  -0.00001  -0.00001   1.90801
   A10        1.91418   0.00000   0.00000   0.00000   0.00000   1.91418
   A11        1.83275   0.00000   0.00000   0.00005   0.00005   1.83279
   A12        1.88281   0.00000   0.00000   0.00003   0.00003   1.88284
   A13        1.88448   0.00001   0.00000   0.00009   0.00009   1.88457
   A14        1.96766   0.00000   0.00000   0.00002   0.00002   1.96767
   A15        2.04484   0.00000   0.00000  -0.00003  -0.00003   2.04481
   A16        1.92212   0.00000   0.00000  -0.00006  -0.00006   1.92206
   A17        1.60003   0.00000   0.00000   0.00002   0.00002   1.60005
   A18        1.94165   0.00000   0.00000   0.00000   0.00000   1.94164
   A19        1.96751   0.00001   0.00000   0.00006   0.00006   1.96758
   A20        1.60754   0.00000   0.00000  -0.00002  -0.00002   1.60752
   A21        1.60197   0.00001   0.00000   0.00004   0.00004   1.60201
   A22        1.95757   0.00000   0.00000  -0.00001  -0.00001   1.95755
   A23        1.95659   0.00000   0.00000  -0.00001  -0.00001   1.95658
   A24        2.02814   0.00000   0.00000  -0.00001  -0.00001   2.02812
   A25        1.98796   0.00000   0.00000   0.00001   0.00001   1.98797
   A26        1.91444   0.00000   0.00000  -0.00001  -0.00001   1.91443
   A27        1.46157  -0.00001   0.00000  -0.00003  -0.00003   1.46155
   A28        2.06697   0.00001   0.00000   0.00006   0.00006   2.06703
   A29        1.94002   0.00000   0.00000  -0.00003  -0.00003   1.93998
   A30        2.06081   0.00000   0.00000  -0.00001  -0.00001   2.06081
   A31        1.96475   0.00000   0.00000   0.00003   0.00003   1.96478
   A32        1.92898   0.00000   0.00000  -0.00002  -0.00002   1.92895
   A33        3.14277   0.00000   0.00000  -0.00007  -0.00007   3.14270
   A34        3.14168   0.00000   0.00000  -0.00056  -0.00056   3.14112
   A35        3.16483   0.00000   0.00000   0.00005   0.00005   3.16488
   A36        3.12753   0.00000   0.00000   0.00007   0.00007   3.12760
    D1        1.08416   0.00000   0.00000  -0.00003  -0.00003   1.08413
    D2       -1.08317   0.00000   0.00000   0.00002   0.00002  -1.08315
    D3        3.11732   0.00000   0.00000   0.00001   0.00001   3.11733
    D4       -3.11579   0.00000   0.00000  -0.00001  -0.00001  -3.11579
    D5        1.00007   0.00000   0.00000   0.00004   0.00004   1.00011
    D6       -1.08263   0.00000   0.00000   0.00003   0.00003  -1.08260
    D7       -1.00936   0.00000   0.00000  -0.00001  -0.00001  -1.00937
    D8        3.10650   0.00000   0.00000   0.00004   0.00004   3.10654
    D9        1.02380   0.00000   0.00000   0.00003   0.00003   1.02383
   D10       -0.98298  -0.00001   0.00000  -0.00048  -0.00048  -0.98346
   D11        1.20383  -0.00001   0.00000  -0.00055  -0.00055   1.20328
   D12       -3.06032  -0.00001   0.00000  -0.00049  -0.00049  -3.06081
   D13       -1.13111   0.00000   0.00000   0.00002   0.00002  -1.13110
   D14       -2.95525   0.00000   0.00000  -0.00001  -0.00001  -2.95526
   D15        1.04878   0.00000   0.00000  -0.00002  -0.00002   1.04876
   D16        2.95343   0.00000   0.00000   0.00008   0.00008   2.95351
   D17        1.12929   0.00000   0.00000   0.00005   0.00005   1.12934
   D18       -1.14986   0.00000   0.00000   0.00004   0.00004  -1.14982
   D19        0.96643   0.00000   0.00000   0.00000   0.00000   0.96643
   D20       -0.85771   0.00000   0.00000  -0.00002  -0.00002  -0.85774
   D21       -3.13687   0.00000   0.00000  -0.00003  -0.00003  -3.13690
   D22       -2.21669   0.00000   0.00000   0.00009   0.00009  -2.21660
   D23       -0.11370   0.00000   0.00000   0.00008   0.00008  -0.11362
   D24        1.89729   0.00001   0.00000   0.00016   0.00016   1.89746
   D25        2.14304   0.00000   0.00000  -0.00005  -0.00005   2.14299
   D26       -2.06981   0.00000   0.00000  -0.00006  -0.00006  -2.06987
   D27        0.19150   0.00000   0.00000  -0.00007  -0.00007   0.19143
   D28        0.10591   0.00000   0.00000  -0.00008  -0.00008   0.10583
   D29        2.17624   0.00000   0.00000  -0.00009  -0.00009   2.17616
   D30       -1.84563   0.00000   0.00000  -0.00010  -0.00010  -1.84573
   D31       -1.88225   0.00000   0.00000  -0.00010  -0.00010  -1.88234
   D32        0.18809   0.00000   0.00000  -0.00011  -0.00011   0.18798
   D33        2.44940   0.00000   0.00000  -0.00012  -0.00012   2.44928
   D34        0.11379   0.00000   0.00000  -0.00008  -0.00008   0.11371
   D35        2.19635   0.00000   0.00000  -0.00008  -0.00008   2.19627
   D36       -1.92399   0.00000   0.00000  -0.00011  -0.00011  -1.92409
   D37       -0.10605   0.00000   0.00000   0.00007   0.00007  -0.10597
   D38       -2.18241   0.00000   0.00000   0.00002   0.00002  -2.18239
   D39        1.81974   0.00000   0.00000   0.00003   0.00003   1.81977
   D40       -2.12795   0.00000   0.00000   0.00007   0.00007  -2.12788
   D41        2.07888   0.00000   0.00000   0.00002   0.00002   2.07890
   D42       -0.20216   0.00000   0.00000   0.00002   0.00002  -0.20213
   D43        1.90438   0.00000   0.00000   0.00009   0.00009   1.90448
   D44       -0.17197   0.00000   0.00000   0.00004   0.00004  -0.17194
   D45       -2.45301   0.00000   0.00000   0.00004   0.00004  -2.45297
         Item               Value     Threshold  Converged?
 Maximum Force            0.000014     0.000450     YES
 RMS     Force            0.000003     0.000300     YES
 Maximum Displacement     0.000902     0.001800     YES
 RMS     Displacement     0.000141     0.001200     YES
 Predicted change in Energy=-1.063405D-08
 Optimization completed.
    -- Stationary point found.
                           ----------------------------
                           !   Optimized Parameters   !
                           ! (Angstroms and Degrees)  !
 --------------------------                            --------------------------
 ! Name  Definition              Value          Derivative Info.                !
 --------------------------------------------------------------------------------
 ! R1    R(1,2)                  1.5259         -DE/DX =    0.0                 !
 ! R2    R(1,10)                 1.0975         -DE/DX =    0.0                 !
 ! R3    R(1,11)                 1.0937         -DE/DX =    0.0                 !
 ! R4    R(1,12)                 1.0932         -DE/DX =    0.0                 !
 ! R5    R(2,3)                  1.4225         -DE/DX =    0.0                 !
 ! R6    R(2,4)                  1.525          -DE/DX =    0.0                 !
 ! R7    R(2,13)                 1.0968         -DE/DX =    0.0                 !
 ! R8    R(3,14)                 0.964          -DE/DX =    0.0                 !
 ! R9    R(4,5)                  1.4428         -DE/DX =    0.0                 !
 ! R10   R(4,7)                  1.5559         -DE/DX =    0.0                 !
 ! R11   R(4,15)                 1.101          -DE/DX =    0.0                 !
 ! R12   R(5,6)                  1.441          -DE/DX =    0.0                 !
 ! R13   R(6,7)                  1.5549         -DE/DX =    0.0                 !
 ! R14   R(6,16)                 1.0951         -DE/DX =    0.0                 !
 ! R15   R(6,17)                 1.0957         -DE/DX =    0.0                 !
 ! R16   R(7,8)                  1.446          -DE/DX =    0.0                 !
 ! R17   R(7,18)                 1.0934         -DE/DX =    0.0                 !
 ! R18   R(8,9)                  1.2025         -DE/DX =    0.0                 !
 ! R19   R(9,19)                 1.0618         -DE/DX =    0.0                 !
 ! A1    A(2,1,10)             110.6616         -DE/DX =    0.0                 !
 ! A2    A(2,1,11)             110.3697         -DE/DX =    0.0                 !
 ! A3    A(2,1,12)             110.449          -DE/DX =    0.0                 !
 ! A4    A(10,1,11)            107.8942         -DE/DX =    0.0                 !
 ! A5    A(10,1,12)            108.3258         -DE/DX =    0.0                 !
 ! A6    A(11,1,12)            109.0691         -DE/DX =    0.0                 !
 ! A7    A(1,2,3)              112.9064         -DE/DX =    0.0                 !
 ! A8    A(1,2,4)              111.7218         -DE/DX =    0.0                 !
 ! A9    A(1,2,13)             109.3212         -DE/DX =    0.0                 !
 ! A10   A(3,2,4)              109.6746         -DE/DX =    0.0                 !
 ! A11   A(3,2,13)             105.0086         -DE/DX =    0.0                 !
 ! A12   A(4,2,13)             107.8768         -DE/DX =    0.0                 !
 ! A13   A(2,3,14)             107.973          -DE/DX =    0.0                 !
 ! A14   A(2,4,5)              112.7385         -DE/DX =    0.0                 !
 ! A15   A(2,4,7)              117.1606         -DE/DX =    0.0                 !
 ! A16   A(2,4,15)             110.1295         -DE/DX =    0.0                 !
 ! A17   A(5,4,7)               91.6749         -DE/DX =    0.0                 !
 ! A18   A(5,4,15)             111.2483         -DE/DX =    0.0                 !
 ! A19   A(7,4,15)             112.7302         -DE/DX =    0.0                 !
 ! A20   A(4,5,6)               92.1052         -DE/DX =    0.0                 !
 ! A21   A(5,6,7)               91.7862         -DE/DX =    0.0                 !
 ! A22   A(5,6,16)             112.1603         -DE/DX =    0.0                 !
 ! A23   A(5,6,17)             112.1043         -DE/DX =    0.0                 !
 ! A24   A(7,6,16)             116.2038         -DE/DX =    0.0                 !
 ! A25   A(7,6,17)             113.9016         -DE/DX =    0.0                 !
 ! A26   A(16,6,17)            109.6893         -DE/DX =    0.0                 !
 ! A27   A(4,7,6)               83.742          -DE/DX =    0.0                 !
 ! A28   A(4,7,8)              118.4288         -DE/DX =    0.0                 !
 ! A29   A(4,7,18)             111.1547         -DE/DX =    0.0                 !
 ! A30   A(6,7,8)              118.0759         -DE/DX =    0.0                 !
 ! A31   A(6,7,18)             112.5719         -DE/DX =    0.0                 !
 ! A32   A(8,7,18)             110.5222         -DE/DX =    0.0                 !
 ! A33   L(7,8,9,14,-1)        180.0675         -DE/DX =    0.0                 !
 ! A34   L(8,9,19,14,-1)       180.0052         -DE/DX =    0.0                 !
 ! A35   L(7,8,9,14,-2)        181.3317         -DE/DX =    0.0                 !
 ! A36   L(8,9,19,14,-2)       179.194          -DE/DX =    0.0                 !
 ! D1    D(10,1,2,3)            62.118          -DE/DX =    0.0                 !
 ! D2    D(10,1,2,4)           -62.0608         -DE/DX =    0.0                 !
 ! D3    D(10,1,2,13)          178.6094         -DE/DX =    0.0                 !
 ! D4    D(11,1,2,3)          -178.5215         -DE/DX =    0.0                 !
 ! D5    D(11,1,2,4)            57.2997         -DE/DX =    0.0                 !
 ! D6    D(11,1,2,13)          -62.0301         -DE/DX =    0.0                 !
 ! D7    D(12,1,2,3)           -57.832          -DE/DX =    0.0                 !
 ! D8    D(12,1,2,4)           177.9892         -DE/DX =    0.0                 !
 ! D9    D(12,1,2,13)           58.6594         -DE/DX =    0.0                 !
 ! D10   D(1,2,3,14)           -56.3203         -DE/DX =    0.0                 !
 ! D11   D(4,2,3,14)            68.9742         -DE/DX =    0.0                 !
 ! D12   D(13,2,3,14)         -175.3436         -DE/DX =    0.0                 !
 ! D13   D(1,2,4,5)            -64.808          -DE/DX =    0.0                 !
 ! D14   D(1,2,4,7)           -169.3235         -DE/DX =    0.0                 !
 ! D15   D(1,2,4,15)            60.0907         -DE/DX =    0.0                 !
 ! D16   D(3,2,4,5)            169.2193         -DE/DX =    0.0                 !
 ! D17   D(3,2,4,7)             64.7038         -DE/DX =    0.0                 !
 ! D18   D(3,2,4,15)           -65.882          -DE/DX =    0.0                 !
 ! D19   D(13,2,4,5)            55.3721         -DE/DX =    0.0                 !
 ! D20   D(13,2,4,7)           -49.1434         -DE/DX =    0.0                 !
 ! D21   D(13,2,4,15)         -179.7292         -DE/DX =    0.0                 !
 ! D22   D(2,4,5,6)           -127.007          -DE/DX =    0.0                 !
 ! D23   D(7,4,5,6)             -6.5147         -DE/DX =    0.0                 !
 ! D24   D(15,4,5,6)           108.707          -DE/DX =    0.0                 !
 ! D25   D(2,4,7,6)            122.7872         -DE/DX =    0.0                 !
 ! D26   D(2,4,7,8)           -118.5913         -DE/DX =    0.0                 !
 ! D27   D(2,4,7,18)            10.9721         -DE/DX =    0.0                 !
 ! D28   D(5,4,7,6)              6.068          -DE/DX =    0.0                 !
 ! D29   D(5,4,7,8)            124.6896         -DE/DX =    0.0                 !
 ! D30   D(5,4,7,18)          -105.747          -DE/DX =    0.0                 !
 ! D31   D(15,4,7,6)          -107.8447         -DE/DX =    0.0                 !
 ! D32   D(15,4,7,8)            10.7769         -DE/DX =    0.0                 !
 ! D33   D(15,4,7,18)          140.3403         -DE/DX =    0.0                 !
 ! D34   D(4,5,6,7)              6.5194         -DE/DX =    0.0                 !
 ! D35   D(4,5,6,16)           125.8414         -DE/DX =    0.0                 !
 ! D36   D(4,5,6,17)          -110.2362         -DE/DX =    0.0                 !
 ! D37   D(5,6,7,4)             -6.0761         -DE/DX =    0.0                 !
 ! D38   D(5,6,7,8)           -125.0427         -DE/DX =    0.0                 !
 ! D39   D(5,6,7,18)           104.2636         -DE/DX =    0.0                 !
 ! D40   D(16,6,7,4)          -121.9223         -DE/DX =    0.0                 !
 ! D41   D(16,6,7,8)           119.1111         -DE/DX =    0.0                 !
 ! D42   D(16,6,7,18)          -11.5826         -DE/DX =    0.0                 !
 ! D43   D(17,6,7,4)           109.1132         -DE/DX =    0.0                 !
 ! D44   D(17,6,7,8)            -9.8534         -DE/DX =    0.0                 !
 ! D45   D(17,6,7,18)         -140.5471         -DE/DX =    0.0                 !
 --------------------------------------------------------------------------------
 GradGradGradGradGradGradGradGradGradGradGradGradGradGradGradGradGradGrad

                          Input orientation:                          
 ---------------------------------------------------------------------
 Center     Atomic      Atomic             Coordinates (Angstroms)
 Number     Number       Type             X           Y           Z
 ---------------------------------------------------------------------
      1          6           0       -4.065822    0.088433   -1.258373
      2          6           0       -3.417094   -1.272864   -1.491682
      3          8           0       -4.366017   -2.326999   -1.600894
      4          6           0       -2.400775   -1.607447   -0.405001
      5          8           0       -1.270499   -0.710636   -0.403305
      6          6           0       -0.334721   -1.804741   -0.464763
      7          6           0       -1.481309   -2.838984   -0.647361
      8          6           0       -1.553887   -3.945544    0.280709
      9          6           0       -1.611162   -4.849733    1.071314
     10          1           0       -4.620373    0.095936   -0.311256
     11          1           0       -3.302586    0.870088   -1.207100
     12          1           0       -4.763248    0.322746   -2.066886
     13          1           0       -2.890611   -1.263838   -2.453784
     14          1           0       -4.905328   -2.325697   -0.801907
     15          1           0       -2.892825   -1.631120    0.579644
     16          1           0        0.363772   -1.704314   -1.302126
     17          1           0        0.224309   -1.922157    0.470240
     18          1           0       -1.563937   -3.196509   -1.677367
     19          1           0       -1.662411   -5.655535    1.760889
 ---------------------------------------------------------------------
                    Distance matrix (angstroms):
                    1          2          3          4          5
     1  C    0.000000
     2  C    1.525913   0.000000
     3  O    2.457997   1.422527   0.000000
     4  C    2.525200   1.525033   2.410413   0.000000
     5  O    3.030427   2.471545   3.691759   1.442844   0.000000
     6  C    4.258526   3.292185   4.220770   2.076314   1.441015
     7  C    3.952571   2.629235   3.081054   1.555905   2.152643
     8  C    4.995154   3.708926   3.750759   2.579557   3.318556
     9  C    5.986508   4.756504   4.592832   3.649029   4.407117
    10  H    1.097550   2.171383   2.756535   2.799449   3.446838
    11  H    1.093683   2.164796   3.392245   2.755867   2.697064
    12  H    1.093159   2.165401   2.719576   3.474015   4.004332
    13  H    2.153779   1.096770   2.008620   2.134366   2.671190
    14  H    2.596374   1.949125   0.963970   2.635565   3.997410
    15  H    2.776885   2.166471   2.722000   1.100999   2.108417
    16  H    4.778825   3.810122   4.779948   2.908082   2.113319
    17  H    5.043392   4.186948   5.052186   2.784988   2.113129
    18  H    4.150401   2.677513   2.934884   2.200984   2.808719
    19  H    6.919935   5.732882   5.448873   4.650083   5.411964
                    6          7          8          9         10
     6  C    0.000000
     7  C    1.554884   0.000000
     8  C    2.573934   1.446049   0.000000
     9  C    3.641540   2.648361   1.202453   0.000000
    10  H    4.690731   4.310505   5.107575   5.952016   0.000000
    11  H    4.063742   4.169841   5.334963   6.385016   1.771556
    12  H    5.167674   4.773124   5.833481   6.821912   1.775977
    13  H    3.283497   2.780356   4.056578   5.188636   3.071073
    14  H    4.612539   3.465726   3.876611   4.553157   2.487217
    15  H    2.768543   2.226400   2.690479   3.499124   2.600163
    16  H    1.095059   2.262856   3.347521   4.407634   5.391144
    17  H    1.095688   2.235785   2.700370   3.507270   5.306070
    18  H    2.217747   1.093419   2.096478   3.207901   4.695557
    19  H    4.641648   3.710178   2.264239   1.061818   6.791373
                   11         12         13         14         15
    11  H    0.000000
    12  H    1.781108   0.000000
    13  H    2.505511   2.484695   0.000000
    14  H    3.598056   2.938471   2.813419   0.000000
    15  H    3.101031   3.784203   3.055582   2.537969   0.000000
    16  H    4.480933   5.565983   3.480136   5.329142   3.761894
    17  H    4.800947   6.029288   4.322733   5.300413   3.132602
    18  H    4.447612   4.772050   2.469433   3.562251   3.051309
    19  H    7.354106   7.746411   6.209584   5.307754   4.370947
                   16         17         18         19
    16  H    0.000000
    17  H    1.791141   0.000000
    18  H    2.466478   3.071484   0.000000
    19  H    5.394406   4.377624   4.228252   0.000000
 Stoichiometry    C7H10O2
 Framework group  C1[X(C7H10O2)]
 Deg. of freedom    51
 Full point group                 C1      NOp   1
 Largest Abelian subgroup         C1      NOp   1
 Largest concise Abelian subgroup C1      NOp   1
                         Standard orientation:                         
 ---------------------------------------------------------------------
 Center     Atomic      Atomic             Coordinates (Angstroms)
 Number     Number       Type             X           Y           Z
 ---------------------------------------------------------------------
      1          6           0        2.759516    0.054641   -0.480802
      2          6           0        1.514661   -0.325777    0.315457
      3          8           0        1.377105   -1.730813    0.490199
      4          6           0        0.246558    0.239770   -0.315255
      5          8           0        0.209778    1.682023   -0.296549
      6          6           0       -1.085254    1.693760    0.335337
      7          6           0       -1.063055    0.150044    0.520032
      8          6           0       -2.168364   -0.615094   -0.012803
      9          6           0       -3.085624   -1.238654   -0.477238
     10          1           0        2.712861   -0.362210   -1.495038
     11          1           0        2.838281    1.142018   -0.567689
     12          1           0        3.658138   -0.330599    0.008140
     13          1           0        1.595448    0.080190    1.331119
     14          1           0        1.376334   -2.140418   -0.382419
     15          1           0        0.126188   -0.149209   -1.338194
     16          1           0       -1.091482    2.290556    1.253460
     17          1           0       -1.870822    2.048691   -0.341005
     18          1           0       -0.853683   -0.146273    1.551499
     19          1           0       -3.896956   -1.794564   -0.877439
 ---------------------------------------------------------------------
 Rotational constants (GHZ):      2.5177362      1.1699249      0.8787311
 1\1\GINC-ALCHEMY-MG\FOpt\RB3LYP\6-31G(2df,p)\C7H10O2\PUCK\27-Jan-2020\
 0\\# b3lyp 6-31G(2df,p) opt Freq\\titel\\0,1\C,-4.0658223447,0.0884327
 594,-1.2583734605\C,-3.417093643,-1.2728636769,-1.4916821905\O,-4.3660
 165272,-2.3269994922,-1.6008941608\C,-2.4007754099,-1.6074471286,-0.40
 50006479\O,-1.2704987224,-0.7106359589,-0.4033051798\C,-0.3347205255,-
 1.8047410089,-0.4647630718\C,-1.4813085619,-2.8389841283,-0.6473607878
 \C,-1.5538870882,-3.9455442963,0.2807092279\C,-1.6111622626,-4.8497329
 378,1.0713138821\H,-4.6203730402,0.0959364033,-0.3112555655\H,-3.30258
 60787,0.8700876634,-1.2070997913\H,-4.7632475419,0.32274632,-2.0668857
 241\H,-2.8906105351,-1.2638383833,-2.4537835749\H,-4.9053277263,-2.325
 6974492,-0.8019069942\H,-2.892825352,-1.6311198871,0.5796438122\H,0.36
 37724757,-1.7043142515,-1.3021257477\H,0.2243088301,-1.9221573512,0.47
 02402442\H,-1.5639372566,-3.1965085713,-1.6773672894\H,-1.6624108296,-
 5.6555346348,1.7608889001\\Version=ES64L-G09RevD.01\State=1-A\HF=-423.
 1272634\RMSD=4.099e-09\RMSF=6.504e-06\Dipole=-0.0855761,-0.0510808,0.2
 494702\Quadrupole=1.4460918,-1.6005178,0.154426,-2.1220159,-2.9113013,
 -2.8206306\PG=C01 [X(C7H10O2)]\\@


 AND THIS OUR LIFE, EXEMPT FROM PUBLIC HAUNT,
 FINDS TONGUES IN TREES, BOOKS IN THE RUNNING BROOKS,
 SERMONS IN STONES, AND GOOD IN EVERYTHING.
 I WOULD NOT CHANGE IT. -- W. SHAKESPEARE
 AS YOU LIKE IT, ACT II, SCENE 1.
 Job cpu time:       0 days  0 hours  5 minutes 46.9 seconds.
 File lengths (MBytes):  RWF=     52 Int=      0 D2E=      0 Chk=      7 Scr=      1
 Normal termination of Gaussian 09 at Mon Jan 27 15:36:27 2020.
 Link1:  Proceeding to internal job step number  2.
 ----------------------------------------------------------------------
 #N Geom=AllCheck Guess=TCheck SCRF=Check GenChk RB3LYP/6-31G(2df,p) Fr
 eq
 ----------------------------------------------------------------------
 1/10=4,29=7,30=1,38=1,40=1/1,3;
 2/12=2,40=1/2;
 3/5=1,6=6,7=104,11=2,14=-4,16=1,25=1,30=1,70=2,71=2,74=-5,116=1,140=1/1,2,3;
 4/5=101/1;
 5/5=2,98=1/2;
 8/6=4,10=90,11=11/1;
 11/6=1,8=1,9=11,15=111,16=1/1,2,10;
 10/6=1/2;
 6/7=2,8=2,9=2,10=2,18=1,28=1/1;
 7/8=1,10=1,25=1/1,2,3,16;
 1/10=4,30=1/3;
 99//99;
 Structure from the checkpoint file:  "/scratch/puck/g09_c7d1e8cb-3a27-4b99-bf4b-1c156dbd2a7b/Gau-45568.chk"
 -----
 titel
 -----
 Charge =  0 Multiplicity = 1
 Redundant internal coordinates found in file.
 C,0,-4.0658223447,0.0884327594,-1.2583734605
 C,0,-3.417093643,-1.2728636769,-1.4916821905
 O,0,-4.3660165272,-2.3269994922,-1.6008941608
 C,0,-2.4007754099,-1.6074471286,-0.4050006479
 O,0,-1.2704987224,-0.7106359589,-0.4033051798
 C,0,-0.3347205255,-1.8047410089,-0.4647630718
 C,0,-1.4813085619,-2.8389841283,-0.6473607878
 C,0,-1.5538870882,-3.9455442963,0.2807092279
 C,0,-1.6111622626,-4.8497329378,1.0713138821
 H,0,-4.6203730402,0.0959364033,-0.3112555655
 H,0,-3.3025860787,0.8700876634,-1.2070997913
 H,0,-4.7632475419,0.32274632,-2.0668857241
 H,0,-2.8906105351,-1.2638383833,-2.4537835749
 H,0,-4.9053277263,-2.3256974492,-0.8019069942
 H,0,-2.892825352,-1.6311198871,0.5796438122
 H,0,0.3637724757,-1.7043142515,-1.3021257477
 H,0,0.2243088301,-1.9221573512,0.4702402442
 H,0,-1.5639372566,-3.1965085713,-1.6773672894
 H,0,-1.6624108296,-5.6555346348,1.7608889001
 Recover connectivity data from disk.

 GradGradGradGradGradGradGradGradGradGradGradGradGradGradGradGradGradGrad
 Berny optimization.
 Initialization pass.
                           ----------------------------
                           !    Initial Parameters    !
                           ! (Angstroms and Degrees)  !
 --------------------------                            --------------------------
 ! Name  Definition              Value          Derivative Info.                !
 --------------------------------------------------------------------------------
 ! R1    R(1,2)                  1.5259         calculate D2E/DX2 analytically  !
 ! R2    R(1,10)                 1.0975         calculate D2E/DX2 analytically  !
 ! R3    R(1,11)                 1.0937         calculate D2E/DX2 analytically  !
 ! R4    R(1,12)                 1.0932         calculate D2E/DX2 analytically  !
 ! R5    R(2,3)                  1.4225         calculate D2E/DX2 analytically  !
 ! R6    R(2,4)                  1.525          calculate D2E/DX2 analytically  !
 ! R7    R(2,13)                 1.0968         calculate D2E/DX2 analytically  !
 ! R8    R(3,14)                 0.964          calculate D2E/DX2 analytically  !
 ! R9    R(4,5)                  1.4428         calculate D2E/DX2 analytically  !
 ! R10   R(4,7)                  1.5559         calculate D2E/DX2 analytically  !
 ! R11   R(4,15)                 1.101          calculate D2E/DX2 analytically  !
 ! R12   R(5,6)                  1.441          calculate D2E/DX2 analytically  !
 ! R13   R(6,7)                  1.5549         calculate D2E/DX2 analytically  !
 ! R14   R(6,16)                 1.0951         calculate D2E/DX2 analytically  !
 ! R15   R(6,17)                 1.0957         calculate D2E/DX2 analytically  !
 ! R16   R(7,8)                  1.446          calculate D2E/DX2 analytically  !
 ! R17   R(7,18)                 1.0934         calculate D2E/DX2 analytically  !
 ! R18   R(8,9)                  1.2025         calculate D2E/DX2 analytically  !
 ! R19   R(9,19)                 1.0618         calculate D2E/DX2 analytically  !
 ! A1    A(2,1,10)             110.6616         calculate D2E/DX2 analytically  !
 ! A2    A(2,1,11)             110.3697         calculate D2E/DX2 analytically  !
 ! A3    A(2,1,12)             110.449          calculate D2E/DX2 analytically  !
 ! A4    A(10,1,11)            107.8942         calculate D2E/DX2 analytically  !
 ! A5    A(10,1,12)            108.3258         calculate D2E/DX2 analytically  !
 ! A6    A(11,1,12)            109.0691         calculate D2E/DX2 analytically  !
 ! A7    A(1,2,3)              112.9064         calculate D2E/DX2 analytically  !
 ! A8    A(1,2,4)              111.7218         calculate D2E/DX2 analytically  !
 ! A9    A(1,2,13)             109.3212         calculate D2E/DX2 analytically  !
 ! A10   A(3,2,4)              109.6746         calculate D2E/DX2 analytically  !
 ! A11   A(3,2,13)             105.0086         calculate D2E/DX2 analytically  !
 ! A12   A(4,2,13)             107.8768         calculate D2E/DX2 analytically  !
 ! A13   A(2,3,14)             107.973          calculate D2E/DX2 analytically  !
 ! A14   A(2,4,5)              112.7385         calculate D2E/DX2 analytically  !
 ! A15   A(2,4,7)              117.1606         calculate D2E/DX2 analytically  !
 ! A16   A(2,4,15)             110.1295         calculate D2E/DX2 analytically  !
 ! A17   A(5,4,7)               91.6749         calculate D2E/DX2 analytically  !
 ! A18   A(5,4,15)             111.2483         calculate D2E/DX2 analytically  !
 ! A19   A(7,4,15)             112.7302         calculate D2E/DX2 analytically  !
 ! A20   A(4,5,6)               92.1052         calculate D2E/DX2 analytically  !
 ! A21   A(5,6,7)               91.7862         calculate D2E/DX2 analytically  !
 ! A22   A(5,6,16)             112.1603         calculate D2E/DX2 analytically  !
 ! A23   A(5,6,17)             112.1043         calculate D2E/DX2 analytically  !
 ! A24   A(7,6,16)             116.2038         calculate D2E/DX2 analytically  !
 ! A25   A(7,6,17)             113.9016         calculate D2E/DX2 analytically  !
 ! A26   A(16,6,17)            109.6893         calculate D2E/DX2 analytically  !
 ! A27   A(4,7,6)               83.742          calculate D2E/DX2 analytically  !
 ! A28   A(4,7,8)              118.4288         calculate D2E/DX2 analytically  !
 ! A29   A(4,7,18)             111.1547         calculate D2E/DX2 analytically  !
 ! A30   A(6,7,8)              118.0759         calculate D2E/DX2 analytically  !
 ! A31   A(6,7,18)             112.5719         calculate D2E/DX2 analytically  !
 ! A32   A(8,7,18)             110.5222         calculate D2E/DX2 analytically  !
 ! A33   L(7,8,9,14,-1)        180.0675         calculate D2E/DX2 analytically  !
 ! A34   L(8,9,19,14,-1)       180.0052         calculate D2E/DX2 analytically  !
 ! A35   L(7,8,9,14,-2)        181.3317         calculate D2E/DX2 analytically  !
 ! A36   L(8,9,19,14,-2)       179.194          calculate D2E/DX2 analytically  !
 ! D1    D(10,1,2,3)            62.118          calculate D2E/DX2 analytically  !
 ! D2    D(10,1,2,4)           -62.0608         calculate D2E/DX2 analytically  !
 ! D3    D(10,1,2,13)          178.6094         calculate D2E/DX2 analytically  !
 ! D4    D(11,1,2,3)          -178.5215         calculate D2E/DX2 analytically  !
 ! D5    D(11,1,2,4)            57.2997         calculate D2E/DX2 analytically  !
 ! D6    D(11,1,2,13)          -62.0301         calculate D2E/DX2 analytically  !
 ! D7    D(12,1,2,3)           -57.832          calculate D2E/DX2 analytically  !
 ! D8    D(12,1,2,4)           177.9892         calculate D2E/DX2 analytically  !
 ! D9    D(12,1,2,13)           58.6594         calculate D2E/DX2 analytically  !
 ! D10   D(1,2,3,14)           -56.3203         calculate D2E/DX2 analytically  !
 ! D11   D(4,2,3,14)            68.9742         calculate D2E/DX2 analytically  !
 ! D12   D(13,2,3,14)         -175.3436         calculate D2E/DX2 analytically  !
 ! D13   D(1,2,4,5)            -64.808          calculate D2E/DX2 analytically  !
 ! D14   D(1,2,4,7)           -169.3235         calculate D2E/DX2 analytically  !
 ! D15   D(1,2,4,15)            60.0907         calculate D2E/DX2 analytically  !
 ! D16   D(3,2,4,5)            169.2193         calculate D2E/DX2 analytically  !
 ! D17   D(3,2,4,7)             64.7038         calculate D2E/DX2 analytically  !
 ! D18   D(3,2,4,15)           -65.882          calculate D2E/DX2 analytically  !
 ! D19   D(13,2,4,5)            55.3721         calculate D2E/DX2 analytically  !
 ! D20   D(13,2,4,7)           -49.1434         calculate D2E/DX2 analytically  !
 ! D21   D(13,2,4,15)         -179.7292         calculate D2E/DX2 analytically  !
 ! D22   D(2,4,5,6)           -127.007          calculate D2E/DX2 analytically  !
 ! D23   D(7,4,5,6)             -6.5147         calculate D2E/DX2 analytically  !
 ! D24   D(15,4,5,6)           108.707          calculate D2E/DX2 analytically  !
 ! D25   D(2,4,7,6)            122.7872         calculate D2E/DX2 analytically  !
 ! D26   D(2,4,7,8)           -118.5913         calculate D2E/DX2 analytically  !
 ! D27   D(2,4,7,18)            10.9721         calculate D2E/DX2 analytically  !
 ! D28   D(5,4,7,6)              6.068          calculate D2E/DX2 analytically  !
 ! D29   D(5,4,7,8)            124.6896         calculate D2E/DX2 analytically  !
 ! D30   D(5,4,7,18)          -105.747          calculate D2E/DX2 analytically  !
 ! D31   D(15,4,7,6)          -107.8447         calculate D2E/DX2 analytically  !
 ! D32   D(15,4,7,8)            10.7769         calculate D2E/DX2 analytically  !
 ! D33   D(15,4,7,18)          140.3403         calculate D2E/DX2 analytically  !
 ! D34   D(4,5,6,7)              6.5194         calculate D2E/DX2 analytically  !
 ! D35   D(4,5,6,16)           125.8414         calculate D2E/DX2 analytically  !
 ! D36   D(4,5,6,17)          -110.2362         calculate D2E/DX2 analytically  !
 ! D37   D(5,6,7,4)             -6.0761         calculate D2E/DX2 analytically  !
 ! D38   D(5,6,7,8)           -125.0427         calculate D2E/DX2 analytically  !
 ! D39   D(5,6,7,18)           104.2636         calculate D2E/DX2 analytically  !
 ! D40   D(16,6,7,4)          -121.9223         calculate D2E/DX2 analytically  !
 ! D41   D(16,6,7,8)           119.1111         calculate D2E/DX2 analytically  !
 ! D42   D(16,6,7,18)          -11.5826         calculate D2E/DX2 analytically  !
 ! D43   D(17,6,7,4)           109.1132         calculate D2E/DX2 analytically  !
 ! D44   D(17,6,7,8)            -9.8534         calculate D2E/DX2 analytically  !
 ! D45   D(17,6,7,18)         -140.5471         calculate D2E/DX2 analytically  !
 --------------------------------------------------------------------------------
 Trust Radius=3.00D-01 FncErr=1.00D-07 GrdErr=1.00D-07
 Number of steps in this run=      2 maximum allowed number of steps=      2.
 GradGradGradGradGradGradGradGradGradGradGradGradGradGradGradGradGradGrad

                          Input orientation:                          
 ---------------------------------------------------------------------
 Center     Atomic      Atomic             Coordinates (Angstroms)
 Number     Number       Type             X           Y           Z
 ---------------------------------------------------------------------
      1          6           0       -4.065822    0.088433   -1.258373
      2          6           0       -3.417094   -1.272864   -1.491682
      3          8           0       -4.366017   -2.326999   -1.600894
      4          6           0       -2.400775   -1.607447   -0.405001
      5          8           0       -1.270499   -0.710636   -0.403305
      6          6           0       -0.334721   -1.804741   -0.464763
      7          6           0       -1.481309   -2.838984   -0.647361
      8          6           0       -1.553887   -3.945544    0.280709
      9          6           0       -1.611162   -4.849733    1.071314
     10          1           0       -4.620373    0.095936   -0.311256
     11          1           0       -3.302586    0.870088   -1.207100
     12          1           0       -4.763248    0.322746   -2.066886
     13          1           0       -2.890611   -1.263838   -2.453784
     14          1           0       -4.905328   -2.325697   -0.801907
     15          1           0       -2.892825   -1.631120    0.579644
     16          1           0        0.363772   -1.704314   -1.302126
     17          1           0        0.224309   -1.922157    0.470240
     18          1           0       -1.563937   -3.196509   -1.677367
     19          1           0       -1.662411   -5.655535    1.760889
 ---------------------------------------------------------------------
                    Distance matrix (angstroms):
                    1          2          3          4          5
     1  C    0.000000
     2  C    1.525913   0.000000
     3  O    2.457997   1.422527   0.000000
     4  C    2.525200   1.525033   2.410413   0.000000
     5  O    3.030427   2.471545   3.691759   1.442844   0.000000
     6  C    4.258526   3.292185   4.220770   2.076314   1.441015
     7  C    3.952571   2.629235   3.081054   1.555905   2.152643
     8  C    4.995154   3.708926   3.750759   2.579557   3.318556
     9  C    5.986508   4.756504   4.592832   3.649029   4.407117
    10  H    1.097550   2.171383   2.756535   2.799449   3.446838
    11  H    1.093683   2.164796   3.392245   2.755867   2.697064
    12  H    1.093159   2.165401   2.719576   3.474015   4.004332
    13  H    2.153779   1.096770   2.008620   2.134366   2.671190
    14  H    2.596374   1.949125   0.963970   2.635565   3.997410
    15  H    2.776885   2.166471   2.722000   1.100999   2.108417
    16  H    4.778825   3.810122   4.779948   2.908082   2.113319
    17  H    5.043392   4.186948   5.052186   2.784988   2.113129
    18  H    4.150401   2.677513   2.934884   2.200984   2.808719
    19  H    6.919935   5.732882   5.448873   4.650083   5.411964
                    6          7          8          9         10
     6  C    0.000000
     7  C    1.554884   0.000000
     8  C    2.573934   1.446049   0.000000
     9  C    3.641540   2.648361   1.202453   0.000000
    10  H    4.690731   4.310505   5.107575   5.952016   0.000000
    11  H    4.063742   4.169841   5.334963   6.385016   1.771556
    12  H    5.167674   4.773124   5.833481   6.821912   1.775977
    13  H    3.283497   2.780356   4.056578   5.188636   3.071073
    14  H    4.612539   3.465726   3.876611   4.553157   2.487217
    15  H    2.768543   2.226400   2.690479   3.499124   2.600163
    16  H    1.095059   2.262856   3.347521   4.407634   5.391144
    17  H    1.095688   2.235785   2.700370   3.507270   5.306070
    18  H    2.217747   1.093419   2.096478   3.207901   4.695557
    19  H    4.641648   3.710178   2.264239   1.061818   6.791373
[...]
 40032936,0.00247200,0.00290910,0.00414983,-0.04663291,0.02555737,-0.14
 965966,0.00071064,-0.00173672,0.00164903,-0.04719144,-0.01365656,0.561
 48311,0.00100253,0.00096815,0.00006927,-0.02105833,-0.02421501,0.00598
 078,-0.00976466,-0.00083811,-0.00697968,-0.13220013,-0.08633687,-0.004
 94017,0.34141605,-0.00149415,-0.00106998,-0.00133851,-0.00331719,0.003
 30201,-0.00258340,0.00139369,0.00289046,0.00163544,-0.03721234,-0.1185
 7524,-0.00013236,-0.00063794,0.37158072,0.00064745,0.00044967,0.000925
 00,-0.01350462,-0.01576608,0.00583361,-0.00726025,-0.00098125,-0.00204
 768,0.00474319,0.00485786,-0.06629064,-0.00547950,0.00855265,0.0834598
 6,0.00014670,0.00028152,0.00044999,-0.00455652,-0.00016993,-0.00038606
 ,0.00207188,0.00107120,0.00043635,-0.09912384,0.01540177,0.00147766,-0
 .11174930,0.04119536,0.00275102,0.57340911,0.00099844,-0.00005932,0.00
 077999,0.00074718,-0.00447883,0.00202269,-0.00374002,-0.00148474,-0.00
 202087,0.00404627,0.00481268,-0.00211173,0.08971425,-0.14341433,-0.003
 99085,0.00904761,0.35498698,0.00031750,0.00010870,0.00021309,-0.000995
 96,-0.00226964,-0.00044223,-0.00124145,0.00001530,-0.00045953,0.006044
 74,-0.00278050,0.00999610,0.00684536,-0.00222570,-0.06597919,-0.009395
 60,-0.03298908,0.60194699,-0.00202949,-0.00088825,-0.00346347,-0.01078
 158,0.01778583,0.00248367,0.00180342,-0.00012716,0.00129413,-0.0771717
 2,0.06326684,0.01435058,-0.01920676,-0.00813901,-0.00033690,-0.1052599
 8,-0.06775463,-0.01192838,0.33382636,0.00047776,0.00121900,0.00055087,
 0.00740078,-0.00928328,-0.00054081,-0.00098541,0.00183015,-0.00016248,
 0.04542473,-0.09647112,-0.00986062,-0.00806475,-0.09779473,-0.01200971
 ,-0.04880154,-0.07861542,-0.00309425,0.02195991,0.53906174,-0.00282523
 ,-0.00022815,-0.00387519,-0.00758043,0.02077140,0.00546286,0.00171345,
 -0.00084549,0.00047509,0.01292173,-0.01698156,-0.08328506,0.00046693,-
 0.00391630,0.01379473,-0.01399276,-0.00847761,-0.08217138,0.01299139,-
 0.00552555,0.58740413,-0.00086767,-0.00024714,-0.00079414,-0.00076501,
 0.00383456,0.00161626,-0.00003184,-0.00074019,0.00026503,0.00222672,0.
 00789221,-0.01994714,0.00479175,-0.00139940,-0.00041433,0.00060572,-0.
 01312058,0.02189326,-0.06823377,-0.00761755,0.00738002,0.09121599,-0.0
 0011769,-0.00015624,-0.00017493,-0.00001776,-0.00072957,0.00039220,-0.
 00032935,0.00001164,0.00001455,0.00026000,-0.02595054,0.01503218,-0.00
 104359,-0.00688395,-0.00250695,-0.00382228,-0.02328058,0.01092049,-0.0
 0809381,-0.18577356,0.10980106,0.05024677,0.86678983,0.00025608,0.0001
 3282,0.00093202,-0.00026065,-0.00131066,-0.00174637,0.00067185,0.00043
 842,0.00019213,-0.00633671,0.00856479,0.00367188,-0.00052536,-0.005972
 80,-0.00067640,0.00754594,0.00749980,0.00197148,0.00683194,0.10597413,
 -0.16221809,-0.04238303,-0.66782072,0.66819666,0.00016384,0.00008806,0
 .00017598,-0.00015819,-0.00076808,-0.00028768,0.00009106,0.00052222,-0
 .00020592,-0.00093397,0.00087745,0.00149197,0.00038204,-0.00008171,-0.
 00002956,-0.00047375,-0.00004353,-0.00109057,0.00518112,-0.00051330,0.
 00017616,-0.02951062,-0.03892487,0.03392797,0.04335192,0.00038612,0.00
 019936,0.00051043,-0.00084944,-0.00132983,-0.00107574,0.00069354,0.000
 63725,0.00006546,-0.00215781,0.00463265,0.00205420,0.00004386,-0.00125
 218,-0.00020956,0.00270782,0.00395164,0.00190330,-0.00034652,-0.003398
 96,0.00541559,-0.03873817,-0.63988707,0.53297324,0.05409076,0.89395755
 ,-0.00033594,-0.00014287,-0.00051228,0.00040070,0.00098502,0.00119139,
 -0.00059507,-0.00035686,-0.00005983,0.00390794,-0.00455315,-0.00251574
 ,0.00001622,0.00244459,0.00074288,-0.00402530,-0.00341349,-0.00195360,
 0.00022662,0.00661086,-0.00050331,0.03395299,0.53462234,-0.48916892,-0
 .04706403,-0.74137938,0.68022714,-0.11058365,0.00013406,0.10968083,-0.
 01033802,-0.00143874,0.01368763,0.00137665,-0.00040128,-0.00175281,0.0
 0028437,-0.00100407,0.00219491,-0.00013847,0.00038287,-0.00036313,-0.0
 0002397,-0.00005894,-0.00010372,0.00010009,0.00013993,-0.00026667,-0.0
 0007583,0.00000082,-0.00004263,0.00001525,0.00002013,-0.00004210,0.118
 48312,-0.00076594,-0.04723238,0.00169453,0.01679717,-0.00132327,-0.028
 41651,0.00059482,0.00363136,0.00076419,-0.00100545,0.00139362,-0.00142
 990,-0.00028471,0.00002504,0.00006160,0.00002433,-0.00006040,-0.000043
 05,-0.00011037,-0.00014825,0.00000191,0.00004710,0.00001569,0.00010605
 ,-0.00001836,-0.00001552,0.00001051,-0.00249004,0.04981903,0.11031913,
 0.00216968,-0.23784272,0.00396929,0.00038508,-0.00599501,-0.00171940,-
 0.00022609,0.00128525,-0.00104738,0.00011454,0.00054900,0.00008529,0.0
 0004959,-0.00000419,-0.00014494,0.00003166,-0.00000323,0.00002315,-0.0
 0004769,0.00029930,0.00006136,0.00001902,-0.00005310,-0.00002193,-0.00
 005619,0.00005968,-0.12373303,-0.00011339,0.25823307,-0.17902277,-0.13
 397774,-0.00842663,0.01144935,0.00758077,0.00007064,0.00078178,0.00512
 116,0.00053126,0.00041863,-0.00064471,-0.00044011,-0.00053030,0.000503
 68,-0.00031718,-0.00048407,0.00027324,0.00010543,0.00006815,-0.0002083
 9,0.00021467,0.00004919,-0.00001993,-0.00008327,-0.00001313,-0.0000672
 4,0.00006544,-0.01072770,-0.01027812,-0.00162570,0.19099087,-0.1310600
 1,-0.18166593,-0.00837966,-0.02394551,-0.01632942,0.00068558,0.0020111
 4,-0.00868751,-0.00121140,-0.00122262,-0.00075726,0.00035403,0.0000843
 2,0.00127395,0.00014495,0.00050918,-0.00016866,-0.00028735,-0.00031340
 ,0.00013325,-0.00019296,0.00000448,0.00000680,0.00008932,0.00005350,0.
 00009259,-0.00006990,0.00098130,0.00043156,0.00019021,0.14596887,0.198
 03056,-0.00839644,-0.00860463,-0.04705780,-0.00419062,-0.00237852,-0.0
 0213479,0.00028828,-0.00177778,0.00149478,0.00008967,0.00029293,0.0001
 9965,0.00006358,0.00007264,-0.00035771,-0.00025145,0.00004904,0.000039
 93,0.00005227,-0.00006338,0.00002060,-0.00002685,0.00000004,-0.0000468
 8,-0.00000378,-0.00002436,0.00001920,0.01964758,0.02116228,0.00149176,
 0.00890946,0.01007301,0.04699257,-0.15380301,0.03526879,-0.12609644,-0
 .01137375,0.00218556,-0.01157428,0.00176204,-0.00078107,0.00098584,-0.
 00023557,0.00228778,0.00206686,0.00000369,0.00007150,0.00006699,0.0003
 3668,0.00008051,0.00001311,-0.00037731,0.00001110,-0.00082883,-0.00021
 433,0.00002382,0.00012501,0.00003241,0.00014164,-0.00012311,0.01119679
 ,-0.00399068,0.01309964,-0.01313521,0.00587202,-0.01600160,0.16563004,
 0.03347181,-0.05631887,0.04022036,0.02150115,-0.00801038,0.02486069,-0
 .00165422,0.00369343,-0.00085133,0.00102308,-0.00627420,-0.00287614,-0
 .00000966,0.00097972,-0.00013505,-0.00005728,-0.00017837,-0.00012860,0
 .00097579,-0.00010439,0.00132866,0.00036356,0.00006964,-0.00024431,-0.
 00006507,-0.00021217,0.00018580,-0.00009227,-0.00100913,0.00030006,-0.
 01374380,0.00583757,-0.01834279,-0.04085167,0.06042620,-0.12692258,0.0
 4147085,-0.19615988,0.00489919,-0.00235428,0.00455342,0.00085947,0.000
 82953,0.00028114,-0.00009100,-0.00106905,0.00021649,-0.00014222,0.0001
 5276,-0.00007214,0.00002876,-0.00009118,0.00001824,0.00028940,-0.00031
 818,0.00042089,0.00007440,0.00001531,-0.00006092,-0.00001372,-0.000004
 21,0.00001595,-0.01787296,0.00532414,-0.01964800,0.00090440,-0.0001631
 1,-0.00054551,0.13830162,-0.04434254,0.20991421,-0.00617392,0.00253917
 ,0.01352448,-0.10041046,0.00338317,0.09936848,-0.02015934,-0.00914976,
 0.02291069,0.00741643,0.00131904,-0.02099255,0.00214438,0.00049914,0.0
 0158654,0.00003468,0.00016370,-0.00010357,0.00114181,-0.00067144,-0.00
 054684,0.00013800,0.00004635,-0.00008683,-0.00003694,0.00002458,0.0000
 8931,-0.00028653,0.00260818,0.00034279,0.00044766,0.00030279,-0.000178
 39,0.00011717,-0.00074367,-0.00004021,0.12037417,0.01523325,-0.0015968
 7,-0.02627477,0.00655093,-0.04666055,-0.00736800,-0.02138463,-0.006003
 99,0.02369099,-0.00198139,0.00004535,0.00886866,0.00020698,0.00002249,
 -0.00081368,-0.00006146,0.00018901,-0.00001472,-0.00071938,0.00080284,
 0.00114118,-0.00001677,-0.00015481,-0.00000721,0.00005901,0.00006064,-
 0.00009617,0.00299695,-0.00518047,-0.00116304,-0.00073161,0.00096916,0
 .00027445,-0.00044385,0.00123527,0.00064627,0.00326102,0.06053597,0.00
 185378,-0.00043285,-0.00381491,0.10472192,-0.00046956,-0.24802874,0.00
 054544,0.00219648,0.00547293,0.01125291,0.00104384,-0.02682940,-0.0001
 4068,-0.00060339,0.00349012,-0.00004820,0.00011781,-0.00030217,0.00066
 909,-0.00102513,0.00060360,0.00028500,0.00008385,0.00034453,-0.0000968
 3,-0.00005842,0.00016129,-0.00011475,-0.00070191,0.00124362,0.00009042
 ,-0.00049014,0.00001789,0.00007917,-0.00028217,0.00089888,-0.11298072,
 -0.00072835,0.26676495,0.00277451,0.00069310,-0.00124909,-0.02116315,-
 0.00116942,0.02764810,-0.16363136,-0.02092364,0.20759323,-0.00187387,0
 .00005244,0.00251958,0.00165931,0.00018233,-0.00078301,-0.00035388,0.0
 0040587,-0.00001090,-0.00040563,0.00025833,0.00012669,-0.00007007,0.00
 004760,-0.00008551,0.00015252,-0.00012127,0.00006026,0.00063703,-0.000
 89052,0.00009616,-0.00033822,0.00071726,-0.00007014,0.00001012,0.00010
 407,-0.00029982,-0.00243104,-0.00362544,-0.00201254,0.18487210,-0.0003
 4900,0.00159715,0.00278640,-0.02354515,-0.00486775,0.03029612,0.001989
 88,-0.02800836,-0.03801538,0.00001360,0.00093597,-0.00037908,0.0003584
 4,-0.00034464,-0.00011930,-0.00001868,0.00017301,0.00016224,0.00033087
 ,-0.00004538,-0.00040788,0.00003402,0.00021556,-0.00024330,-0.00027121
 ,-0.00026027,0.00019497,0.00058401,-0.00049188,-0.00148273,0.00037396,
 0.00056037,-0.00067498,0.00012042,-0.00035810,0.00005056,-0.00412039,-
 0.00389372,-0.00058358,0.02458157,0.03456399,-0.00214854,-0.00073058,0
 .00165514,-0.00374142,-0.00289745,-0.00109428,0.23909539,-0.00479099,-
 0.36049740,-0.00182265,-0.00159007,0.00395162,-0.00048725,0.00025884,-
 0.00106961,-0.00010097,-0.00010240,-0.00011999,-0.00011338,0.00001030,
 -0.00015560,-0.00006453,-0.00002174,0.00005047,0.00008236,0.00000796,-
 0.00007691,0.00014674,0.00071112,-0.00027013,0.00000147,-0.00078414,-0
 .00009236,0.00011514,0.00035276,-0.00035104,0.00002338,0.00088935,0.00
 189446,-0.23196337,0.00879239,0.35685229,0.00124158,-0.00106098,-0.000
 18031,0.00767287,0.00137737,-0.02058178,0.00279515,0.00156732,0.001235
 93,-0.08868976,0.00350937,0.08797348,-0.02260960,-0.00987633,0.0204984
 7,0.00124687,-0.00352691,0.00104839,-0.00426207,0.00321204,0.01269007,
 0.00112250,-0.00105084,0.00127414,0.00025255,0.00041685,-0.00091679,-0
 .00003634,-0.00013942,0.00043038,-0.00004015,0.00024807,-0.00000249,0.
 00007408,-0.00019669,0.00014766,-0.00252546,0.00067239,-0.00343594,-0.
 00021989,-0.00012925,0.00080702,0.10784971,-0.00087670,0.00081560,0.00
 067787,-0.00251334,0.00187884,0.00869158,0.00109168,0.00038875,-0.0003
 1626,0.00495109,-0.04905351,-0.00203737,-0.01991441,-0.00136650,0.0185
 9816,0.00065396,-0.00399393,0.00191236,0.01080013,-0.00219202,-0.02298
 078,-0.00058463,0.00269800,-0.00185673,-0.00042089,-0.00032928,0.00087
 723,0.00032412,-0.00000351,-0.00026891,-0.00011054,0.00003173,0.000008
 49,0.00000992,0.00000673,-0.00020155,0.00061406,-0.00001108,0.00107031
 ,-0.00009769,0.00030045,-0.00015727,0.00274486,0.05160305,0.00097677,-
 0.00121288,0.00083975,0.01290281,0.00079824,-0.02466838,-0.00055596,-0
 .00071207,0.00293463,0.09012415,-0.00242009,-0.25098467,0.00306312,0.0
 0445051,0.00937450,-0.00059440,0.00052843,-0.00079032,0.00016511,0.000
 70962,-0.00356677,-0.00021369,0.00076298,0.00074328,-0.00023866,-0.000
 37534,0.00053042,-0.00093127,0.00073029,0.00070224,0.00000156,-0.00000
 161,-0.00000491,-0.00023785,-0.00006203,0.00049700,-0.00340320,0.00119
 341,-0.00261422,-0.00146634,-0.00047651,-0.00062532,-0.10056985,-0.003
 30079,0.26741963,-0.00001550,0.00004794,-0.00020109,-0.00016707,-0.000
 19712,0.00119306,-0.00032086,-0.00003924,-0.00041101,-0.00113822,0.002
 31174,0.00081237,-0.01855550,0.00650941,0.01280767,-0.14348459,-0.0184
 9242,0.12048332,-0.00879878,-0.00360666,0.01222675,-0.00216966,0.00038
 413,-0.00078532,0.00011049,-0.00055353,0.00048218,0.00004917,-0.000040
 43,-0.00002142,0.00003153,-0.00003807,0.00004616,-0.00006745,0.0000597
 5,-0.00002273,0.00002300,0.00000277,-0.00020860,0.00017498,0.00001628,
 0.00001847,-0.00116153,-0.00038988,0.00023733,0.16252741,-0.00023360,-
 0.00001164,-0.00019844,-0.00001294,0.00049917,-0.00012386,0.00026936,0
 .00019362,0.00025023,-0.00202380,-0.00493479,-0.00289322,0.02537304,0.
 00072329,-0.01926054,-0.02304259,-0.05503983,0.02679498,-0.01140427,-0
 .00058021,0.01790033,-0.00274738,-0.00023843,-0.00082392,0.00014050,-0
 .00086576,0.00053909,-0.00000612,-0.00000046,0.00000600,-0.00000875,0.
 00003981,-0.00002591,-0.00001479,0.00007557,0.00001284,0.00000152,0.00
 003602,0.00000386,-0.00005952,-0.00005217,-0.00000309,0.00105824,0.001
 55981,0.00002881,0.01336110,0.05348392,-0.00000940,-0.00000698,0.00000
 812,-0.00033254,0.00008126,-0.00019302,0.00022228,0.00008532,0.0000551
 4,-0.00197722,-0.00072304,-0.00060020,0.00233772,-0.00394040,0.0070895
 6,0.12242688,0.02444755,-0.21178019,-0.00554643,-0.00223097,0.00520009
 ,-0.00081552,0.00080104,-0.00018393,0.00019070,-0.00030005,0.00049798,
 -0.00000238,-0.00000801,-0.00000110,-0.00002791,0.00004976,-0.00001395
 ,0.00002497,0.00000266,0.00000497,-0.00004086,-0.00001268,-0.00003676,
 -0.00004633,0.00000534,0.00000368,-0.00006560,0.00021358,-0.00004550,-
 0.13439124,-0.02322872,0.21935317,0.00007399,0.00002476,-0.00004653,-0
 .00064934,-0.00046523,0.00044593,-0.00050453,-0.00012000,-0.00030607,0
 .00137653,0.00244730,-0.00068485,-0.01688057,0.01165495,-0.01479803,-0
 .10846525,0.00751882,-0.10347118,-0.00770607,-0.00142789,-0.01621198,0
 .00160519,0.00123247,-0.00147088,0.00021902,-0.00038519,0.00086561,-0.
 00004383,-0.00001215,0.00001038,0.00006447,-0.00010982,0.00001939,-0.0
 0004993,0.00002372,-0.00001138,0.00005409,-0.00003189,0.00011489,0.000
 09047,0.00004557,-0.00002670,-0.00060034,0.00000083,0.00022445,0.01110
 942,-0.00235361,0.01738897,0.12320857,-0.00024342,-0.00005716,-0.00009
 645,0.00005185,0.00120558,-0.00042282,0.00080360,0.00055054,0.00047350
 ,-0.00163653,-0.00511084,0.00219666,0.02479832,-0.00718606,0.02068902,
 0.00585242,-0.04947295,0.01692270,-0.01066889,0.00104665,-0.02050218,0
 .00089453,0.00249160,-0.00163634,0.00035013,-0.00033486,0.00066572,0.0
 0004125,0.00002535,-0.00001833,-0.00004470,0.00017971,-0.00001700,0.00
 002481,0.00008552,0.00000267,-0.00003049,-0.00005817,0.00000447,-0.000
 04641,-0.00001550,0.00003572,0.00016922,0.00022128,-0.00024184,0.00080
 152,0.00383188,0.00462388,-0.01714999,0.05443410,-0.00001061,-0.000043
 87,-0.00002379,0.00022533,0.00007977,-0.00002709,-0.00013301,-0.000037
 73,0.00000714,0.00063333,0.00025502,-0.00084444,-0.00017040,0.00364440
 ,0.01190970,-0.10644648,0.01753734,-0.24924194,0.00059521,0.00035893,-
 0.00224176,0.00027143,0.00058764,0.00100720,0.00018935,-0.00036446,0.0
 0039899,-0.00001976,0.00000534,0.00002530,0.00002297,-0.00001593,-0.00
 000268,-0.00002542,0.00003325,-0.00000415,0.00001576,-0.00000569,0.000
 04506,0.00003702,0.00000831,0.00001717,-0.00029142,-0.00013929,-0.0000
 5969,-0.01218884,0.00083409,-0.02055564,0.11779996,-0.02247876,0.25878
 195,0.00024425,-0.00005431,0.00028483,0.00130032,-0.00056122,0.0006305
 9,0.00028936,-0.00050334,-0.00050063,-0.00052658,0.00624417,0.02392662
 ,0.00171764,-0.00032620,0.00016197,-0.00396918,-0.00655135,-0.02749256
 ,-0.04427517,-0.00674174,-0.01889059,0.00088529,0.00091737,0.00173834,
 0.00046819,-0.00041728,0.00017467,0.00010936,-0.00004670,-0.00012769,-
 0.00000770,-0.00005095,0.00000179,0.00008352,-0.00009285,-0.00008476,0
 .00014653,0.00001789,-0.00057951,0.00011078,-0.00008212,0.00019696,-0.
 00203072,0.00366181,0.00048397,0.00176479,0.00153107,0.00059898,-0.002
 81412,-0.00390919,-0.00045891,0.04645103,-0.00023810,-0.00011675,0.000
 21359,-0.00016306,0.00104313,-0.00213177,0.00030796,0.00031697,0.00046
 276,-0.00068791,-0.00632908,-0.01947255,-0.00023750,-0.00331862,0.0024
 3440,-0.00058491,-0.00390084,-0.01472382,-0.00637453,-0.07299726,-0.07
 934290,0.00173610,0.00731192,0.02847464,-0.00024407,-0.00231423,0.0009
 2737,-0.00012078,0.00013039,0.00010568,0.00000137,0.00003494,-0.000030
 20,0.00001233,0.00002375,0.00004676,-0.00004286,-0.00033920,0.00088859
 ,-0.00017687,-0.00000382,-0.00000788,0.00099007,-0.00249315,-0.0003625
 8,-0.00020777,0.00118924,0.00018023,-0.00087534,-0.00178827,-0.0002272
 2,0.00701637,0.08423885,-0.00025336,-0.00003050,0.00026515,-0.00202564
 ,0.00066034,0.00044737,0.00005667,0.00086493,0.00026160,0.00125629,-0.
 00236478,-0.00467470,-0.00010186,-0.00069921,-0.00016274,0.00030098,-0
 .00023251,-0.00080812,-0.01880343,-0.08200113,-0.27987200,-0.00086193,
 0.00086572,-0.02432129,-0.00001392,-0.00031462,0.00094551,-0.00012133,
 0.00014416,-0.00006190,0.00000700,0.00001156,-0.00001965,-0.00000370,-
 0.00000762,0.00001761,0.00050872,-0.00022352,0.00071886,-0.00005199,0.
 00005848,-0.00007061,-0.00008259,-0.00075174,0.00036060,-0.00006600,0.
 00018766,0.00119945,0.00016137,-0.00017271,0.00086084,0.02002896,0.083
 53947,0.30430528,0.00003618,0.00001065,0.00003258,0.00009271,-0.000133
 09,-0.00010285,-0.00006808,-0.00006543,0.00000553,0.00011947,-0.000240
 56,0.00083251,-0.00042377,0.00009133,0.00002320,0.00009268,0.00029249,
 -0.00091722,0.00638737,-0.00024591,0.00023548,-0.00070156,0.00026076,-
 0.00031110,-0.01929381,-0.01488884,0.01286038,0.00000252,0.00000127,0.
 00000391,-0.00000239,-0.00001254,0.00000356,0.00001004,-0.00001574,-0.
 00000352,-0.00001423,-0.00000477,0.00000514,0.00000528,0.00006719,-0.0
 0001813,-0.00007946,0.00005560,0.00003197,0.00008836,0.00017253,0.0000
 6492,-0.00008778,-0.00005803,-0.00004551,0.00005241,-0.00011049,0.0000
 6576,0.01378406,-0.00004480,-0.00001022,-0.00007813,0.00011232,0.00013
 156,0.00017248,-0.00012931,-0.00002187,-0.00007562,0.00016915,0.000053
 02,-0.00038595,0.00003520,0.00040856,0.00000463,-0.00018650,0.00003488
 ,-0.00018337,-0.00017915,0.00331095,0.00304125,0.00015847,0.00344407,-
 0.00433723,-0.01483054,-0.25333155,0.20194834,0.00000680,-0.00000678,0
 .00000484,0.00001249,-0.00001323,0.00000667,-0.00002816,0.00003222,-0.
 00000757,-0.00000412,0.00000210,-0.00003372,0.00006821,-0.00000491,0.0
 0002717,0.00001460,-0.00006126,-0.00003652,0.00007048,0.00009097,-0.00
 003978,-0.00001730,-0.00004840,-0.00003113,-0.00005143,-0.00068798,0.0
 0046601,0.01482361,0.24667788,0.00001860,0.00000188,0.00001801,-0.0000
 3639,0.00006379,-0.00001670,0.00006828,-0.00008641,0.00002880,0.000043
 17,0.00044109,-0.00018219,0.00003884,0.00015066,0.00004033,-0.00003142
 ,0.00041541,-0.00013391,0.00021943,0.00266519,0.00420786,-0.00027859,-
 0.00339410,0.00136625,0.01283211,0.20123214,-0.18999983,0.00000885,-0.
 00000334,-0.00000985,-0.00000392,-0.00000221,-0.00000013,0.00001288,-0
 .00001164,0.00000284,0.00000301,0.00000354,-0.00003001,-0.00004201,0.0
 0002791,-0.00000158,0.00002123,-0.00003890,-0.00004228,-0.00001108,-0.
 00000018,-0.00000187,-0.00000337,-0.00002788,-0.00005217,-0.00009303,-
 0.00097458,0.00060874,-0.01276661,-0.20046236,0.18419768\\-0.00000144,
 -0.00000392,-0.00000568,-0.00000792,0.00001592,0.00001044,0.00000690,-
 0.00001625,0.00000098,-0.00000546,-0.00000532,-0.00000543,-0.00000611,
 -0.00000586,-0.00000585,0.00001391,-0.00000475,-0.00000528,-0.00000321
 ,0.00001245,-0.00000609,-0.00000911,-0.00000082,0.00001127,-0.00000646
 ,-0.00000218,0.00000535,0.00000739,0.00000282,-0.00000162,0.00000457,0
 .00000509,-0.00000134,0.00000659,0.00000185,-0.00000301,-0.00000222,-0
 .00000348,-0.00000040,-0.00000146,0.00001729,-0.00000673,0.00000633,-0
 .00000398,0.00000490,0.00000069,-0.00000510,0.00000075,-0.00000065,-0.
 00000434,0.00000240,0.00000178,-0.00000105,0.00000150,-0.00000413,0.00
 000161,0.00000382\\\@


 ALL MY ATTEMPTS TO ADAPT THE THEORETICAL FOUNDATIONS OF PHYSICS
 TO THESE NEW NOTIONS FAILED COMPLETELY. IT WAS AS IF THE GROUND HAD
 BEEN PULLED OUT FROM UNDER ONE WITH NO FIRM FOUNDATION TO BE SEEN ANYWHERE,
 UPON WHICH ONE COULD HAVE BUILT.  -- A.EINSTEIN
 Job cpu time:       0 days  0 hours 38 minutes 19.8 seconds.
 File lengths (MBytes):  RWF=    152 Int=      0 D2E=      0 Chk=      8 Scr=      1
 Normal termination of Gaussian 09 at Mon Jan 27 16:14:45 2020.
