 Entering Gaussian System, Link 0=/home/puck/opt/gaussian_09/g09
 Input=dsC7O2H10nsd_3612.com
 Output=dsC7O2H10nsd_3612.log
 Initial command:
 /home/puck/opt/gaussian_09/l1.exe "/scratch/puck/g09_ffcf4f12-5be1-4808-9182-9e0d2f125a0c/Gau-81499.inp" -scrdir="/scratch/puck/g09_ffcf4f12-5be1-4808-9182-9e0d2f125a0c/"
 Entering Link 1 = /home/puck/opt/gaussian_09/l1.exe PID=     81515.
  
 Copyright (c) 1988,1990,1992,1993,1995,1998,2003,2009,2013,
            Gaussian, Inc.  All Rights Reserved.
  
 This is part of the Gaussian(R) 09 program.  It is based on
 the Gaussian(R) 03 system (copyright 2003, Gaussian, Inc.),
 the Gaussian(R) 98 system (copyright 1998, Gaussian, Inc.),
 the Gaussian(R) 94 system (copyright 1995, Gaussian, Inc.),
 the Gaussian 92(TM) system (copyright 1992, Gaussian, Inc.),
 the Gaussian 90(TM) system (copyright 1990, Gaussian, Inc.),
 the Gaussian 88(TM) system (copyright 1988, Gaussian, Inc.),
 the Gaussian 86(TM) system (copyright 1986, Carnegie Mellon
 University), and the Gaussian 82(TM) system (copyright 1983,
 Carnegie Mellon University). Gaussian is a federally registered
 trademark of Gaussian, Inc.
  
 This software contains proprietary and confidential information,
 including trade secrets, belonging to Gaussian, Inc.
  
 This software is provided under written license and may be
 used, copied, transmitted, or stored only in accord with that
 written license.
  
 The following legend is applicable only to US Government
 contracts under FAR:
  
                    RESTRICTED RIGHTS LEGEND
  
 Use, reproduction and disclosure by the US Government is
 subject to restrictions as set forth in subparagraphs (a)
 and (c) of the Commercial Computer Software - Restricted
 Rights clause in FAR 52.227-19.
  
 Gaussian, Inc.
 340 Quinnipiac St., Bldg. 40, Wallingford CT 06492
  
  
 ---------------------------------------------------------------
 Warning -- This program may not be used in any manner that
 competes with the business of Gaussian, Inc. or will provide
 assistance to any competitor of Gaussian, Inc.  The licensee
 of this program is prohibited from giving any competitor of
 Gaussian, Inc. access to this program.  By using this program,
 the user acknowledges that Gaussian, Inc. is engaged in the
 business of creating and licensing software in the field of
 computational chemistry and represents and warrants to the
 licensee that it is not a competitor of Gaussian, Inc. and that
 it will not use this program in any manner prohibited above.
 ---------------------------------------------------------------
  

 Cite this work as:
 Gaussian 09, Revision D.01,
 M. J. Frisch, G. W. Trucks, H. B. Schlegel, G. E. Scuseria, 
 M. A. Robb, J. R. Cheeseman, G. Scalmani, V. Barone, B. Mennucci, 
 G. A. Petersson, H. Nakatsuji, M. Caricato, X. Li, H. P. Hratchian, 
 A. F. Izmaylov, J. Bloino, G. Zheng, J. L. Sonnenberg, M. Hada, 
 M. Ehara, K. Toyota, R. Fukuda, J. Hasegawa, M. Ishida, T. Nakajima, 
 Y. Honda, O. Kitao, H. Nakai, T. Vreven, J. A. Montgomery, Jr., 
 J. E. Peralta, F. Ogliaro, M. Bearpark, J. J. Heyd, E. Brothers, 
 K. N. Kudin, V. N. Staroverov, T. Keith, R. Kobayashi, J. Normand, 
 K. Raghavachari, A. Rendell, J. C. Burant, S. S. Iyengar, J. Tomasi, 
 M. Cossi, N. Rega, J. M. Millam, M. Klene, J. E. Knox, J. B. Cross, 
 V. Bakken, C. Adamo, J. Jaramillo, R. Gomperts, R. E. Stratmann, 
 O. Yazyev, A. J. Austin, R. Cammi, C. Pomelli, J. W. Ochterski, 
 R. L. Martin, K. Morokuma, V. G. Zakrzewski, G. A. Voth, 
 P. Salvador, J. J. Dannenberg, S. Dapprich, A. D. Daniels, 
 O. Farkas, J. B. Foresman, J. V. Ortiz, J. Cioslowski, 
 and D. J. Fox, Gaussian, Inc., Wallingford CT, 2013.
 
 ******************************************
 Gaussian 09:  ES64L-G09RevD.01 24-Apr-2013
                28-Jan-2020 
 ******************************************
 -----------------------------
 # b3lyp 6-31G(2df,p) opt Freq
 -----------------------------
 1/14=-1,18=20,19=15,26=3,38=1/1,3;
 2/9=110,12=2,17=6,18=5,40=1/2;
 3/5=1,6=6,7=104,11=2,16=1,25=1,30=1,71=1,74=-5/1,2,3;
 4//1;
 5/5=2,38=5/2;
 6/7=2,8=2,9=2,10=2,28=1/1;
 7//1,2,3,16;
 1/14=-1,18=20,19=15,26=3/3(2);
 2/9=110/2;
 99//99;
 2/9=110/2;
 3/5=1,6=6,7=104,11=2,16=1,25=1,30=1,71=1,74=-5/1,2,3;
 4/5=5,16=3,69=1/1;
 5/5=2,38=5/2;
 7//1,2,3,16;
 1/14=-1,18=20,19=15,26=3/3(-5);
 2/9=110/2;
 6/7=2,8=2,9=2,10=2,19=2,28=1/1;
 99/9=1/99;
 -----
 titel
 -----
 Symbolic Z-matrix:
 Charge =  0 Multiplicity = 1
 O                     0.36289   1.10357   0.06077 
 C                    -0.72122   0.5307    0.79113 
 C                    -0.20846  -0.29567   1.97864 
 C                    -1.26145  -0.65581   3.03293 
 O                    -0.63266  -1.26524   4.16497 
 C                    -2.40439  -1.51954   2.56529 
 C                    -2.84196  -1.76738   1.32241 
 C                    -2.38712  -1.24181   0.03524 
 C                    -1.50319  -0.26901  -0.21452 
 H                     0.87277   1.64724   0.66943 
 H                    -1.3724    1.33684   1.17804 
 H                     0.26689  -1.20767   1.59861 
 H                     0.56752   0.27859   2.49844 
 H                    -1.67859   0.27474   3.44377 
 H                    -0.31932  -2.13254   3.88359 
 H                    -2.92027  -2.00301   3.39244 
 H                    -3.68302  -2.45325   1.24172 
 H                    -2.8697   -1.69688  -0.82634 
 H                    -1.30071   0.01244  -1.24379 
 

 GradGradGradGradGradGradGradGradGradGradGradGradGradGradGradGradGradGrad
 Berny optimization.
 Initialization pass.
                           ----------------------------
                           !    Initial Parameters    !
                           ! (Angstroms and Degrees)  !
 --------------------------                            --------------------------
 ! Name  Definition              Value          Derivative Info.                !
 --------------------------------------------------------------------------------
 ! R1    R(1,2)                  1.4272         estimate D2E/DX2                !
 ! R2    R(1,10)                 0.9623         estimate D2E/DX2                !
 ! R3    R(2,3)                  1.5349         estimate D2E/DX2                !
 ! R4    R(2,9)                  1.5041         estimate D2E/DX2                !
 ! R5    R(2,11)                 1.1062         estimate D2E/DX2                !
 ! R6    R(3,4)                  1.533          estimate D2E/DX2                !
 ! R7    R(3,12)                 1.0964         estimate D2E/DX2                !
 ! R8    R(3,13)                 1.0964         estimate D2E/DX2                !
 ! R9    R(4,5)                  1.4312         estimate D2E/DX2                !
 ! R10   R(4,6)                  1.507          estimate D2E/DX2                !
 ! R11   R(4,14)                 1.0994         estimate D2E/DX2                !
 ! R12   R(5,15)                 0.9641         estimate D2E/DX2                !
 ! R13   R(6,7)                  1.3408         estimate D2E/DX2                !
 ! R14   R(6,16)                 1.0881         estimate D2E/DX2                !
 ! R15   R(7,8)                  1.4628         estimate D2E/DX2                !
 ! R16   R(7,17)                 1.0883         estimate D2E/DX2                !
 ! R17   R(8,9)                  1.3379         estimate D2E/DX2                !
 ! R18   R(8,18)                 1.0873         estimate D2E/DX2                !
 ! R19   R(9,19)                 1.0861         estimate D2E/DX2                !
 ! A1    A(2,1,10)             107.7927         estimate D2E/DX2                !
 ! A2    A(1,2,3)              110.9937         estimate D2E/DX2                !
 ! A3    A(1,2,9)              105.4363         estimate D2E/DX2                !
 ! A4    A(1,2,11)             109.4895         estimate D2E/DX2                !
 ! A5    A(3,2,9)              113.8723         estimate D2E/DX2                !
 ! A6    A(3,2,11)             108.5667         estimate D2E/DX2                !
 ! A7    A(9,2,11)             108.3781         estimate D2E/DX2                !
 ! A8    A(2,3,4)              115.41           estimate D2E/DX2                !
 ! A9    A(2,3,12)             108.9353         estimate D2E/DX2                !
 ! A10   A(2,3,13)             108.7376         estimate D2E/DX2                !
 ! A11   A(4,3,12)             109.9235         estimate D2E/DX2                !
 ! A12   A(4,3,13)             106.4475         estimate D2E/DX2                !
 ! A13   A(12,3,13)            107.0469         estimate D2E/DX2                !
 ! A14   A(3,4,5)              110.0136         estimate D2E/DX2                !
 ! A15   A(3,4,6)              116.2436         estimate D2E/DX2                !
 ! A16   A(3,4,14)             108.5888         estimate D2E/DX2                !
 ! A17   A(5,4,6)              109.5487         estimate D2E/DX2                !
 ! A18   A(5,4,14)             103.3876         estimate D2E/DX2                !
 ! A19   A(6,4,14)             108.2589         estimate D2E/DX2                !
 ! A20   A(4,5,15)             107.1575         estimate D2E/DX2                !
 ! A21   A(4,6,7)              129.8756         estimate D2E/DX2                !
 ! A22   A(4,6,16)             112.2305         estimate D2E/DX2                !
 ! A23   A(7,6,16)             117.8917         estimate D2E/DX2                !
 ! A24   A(6,7,8)              130.3749         estimate D2E/DX2                !
 ! A25   A(6,7,17)             115.9416         estimate D2E/DX2                !
 ! A26   A(8,7,17)             113.6717         estimate D2E/DX2                !
 ! A27   A(7,8,9)              129.1172         estimate D2E/DX2                !
 ! A28   A(7,8,18)             114.133          estimate D2E/DX2                !
 ! A29   A(9,8,18)             116.7186         estimate D2E/DX2                !
 ! A30   A(2,9,8)              127.2465         estimate D2E/DX2                !
 ! A31   A(2,9,19)             113.5109         estimate D2E/DX2                !
 ! A32   A(8,9,19)             119.2414         estimate D2E/DX2                !
 ! D1    D(10,1,2,3)           -57.9561         estimate D2E/DX2                !
 ! D2    D(10,1,2,9)           178.2879         estimate D2E/DX2                !
 ! D3    D(10,1,2,11)           61.8844         estimate D2E/DX2                !
 ! D4    D(1,2,3,4)            164.926          estimate D2E/DX2                !
 ! D5    D(1,2,3,12)           -70.8924         estimate D2E/DX2                !
 ! D6    D(1,2,3,13)            45.4443         estimate D2E/DX2                !
 ! D7    D(9,2,3,4)            -76.2846         estimate D2E/DX2                !
 ! D8    D(9,2,3,12)            47.897          estimate D2E/DX2                !
 ! D9    D(9,2,3,13)           164.2336         estimate D2E/DX2                !
 ! D10   D(11,2,3,4)            44.5369         estimate D2E/DX2                !
 ! D11   D(11,2,3,12)          168.7185         estimate D2E/DX2                !
 ! D12   D(11,2,3,13)          -74.9449         estimate D2E/DX2                !
 ! D13   D(1,2,9,8)            161.6097         estimate D2E/DX2                !
 ! D14   D(1,2,9,19)           -18.7945         estimate D2E/DX2                !
 ! D15   D(3,2,9,8)             39.6955         estimate D2E/DX2                !
 ! D16   D(3,2,9,19)          -140.7087         estimate D2E/DX2                !
 ! D17   D(11,2,9,8)           -81.2314         estimate D2E/DX2                !
 ! D18   D(11,2,9,19)           98.3644         estimate D2E/DX2                !
 ! D19   D(2,3,4,5)           -172.3292         estimate D2E/DX2                !
 ! D20   D(2,3,4,6)             62.4583         estimate D2E/DX2                !
 ! D21   D(2,3,4,14)           -59.8417         estimate D2E/DX2                !
 ! D22   D(12,3,4,5)            64.0075         estimate D2E/DX2                !
 ! D23   D(12,3,4,6)           -61.205          estimate D2E/DX2                !
 ! D24   D(12,3,4,14)          176.495          estimate D2E/DX2                !
 ! D25   D(13,3,4,5)           -51.595          estimate D2E/DX2                !
 ! D26   D(13,3,4,6)          -176.8076         estimate D2E/DX2                !
 ! D27   D(13,3,4,14)           60.8924         estimate D2E/DX2                !
 ! D28   D(3,4,5,15)           -69.5568         estimate D2E/DX2                !
 ! D29   D(6,4,5,15)            59.3994         estimate D2E/DX2                !
 ! D30   D(14,4,5,15)          174.6307         estimate D2E/DX2                !
 ! D31   D(3,4,6,7)            -18.3225         estimate D2E/DX2                !
 ! D32   D(3,4,6,16)           161.1066         estimate D2E/DX2                !
 ! D33   D(5,4,6,7)           -143.7709         estimate D2E/DX2                !
 ! D34   D(5,4,6,16)            35.6582         estimate D2E/DX2                !
 ! D35   D(14,4,6,7)           104.1508         estimate D2E/DX2                !
 ! D36   D(14,4,6,16)          -76.4202         estimate D2E/DX2                !
 ! D37   D(4,6,7,8)             -2.7089         estimate D2E/DX2                !
 ! D38   D(4,6,7,17)           178.6331         estimate D2E/DX2                !
 ! D39   D(16,6,7,8)           177.8891         estimate D2E/DX2                !
 ! D40   D(16,6,7,17)           -0.769          estimate D2E/DX2                !
 ! D41   D(6,7,8,9)             -7.7492         estimate D2E/DX2                !
 ! D42   D(6,7,8,18)           174.3726         estimate D2E/DX2                !
 ! D43   D(17,7,8,9)           170.9332         estimate D2E/DX2                !
 ! D44   D(17,7,8,18)           -6.945          estimate D2E/DX2                !
 ! D45   D(7,8,9,2)              1.11           estimate D2E/DX2                !
 ! D46   D(7,8,9,19)          -178.4653         estimate D2E/DX2                !
 ! D47   D(18,8,9,2)           178.9421         estimate D2E/DX2                !
 ! D48   D(18,8,9,19)           -0.6331         estimate D2E/DX2                !
 --------------------------------------------------------------------------------
 Trust Radius=3.00D-01 FncErr=1.00D-07 GrdErr=1.00D-06
 Number of steps in this run=    109 maximum allowed number of steps=    114.
 GradGradGradGradGradGradGradGradGradGradGradGradGradGradGradGradGradGrad

                          Input orientation:                          
 ---------------------------------------------------------------------
 Center     Atomic      Atomic             Coordinates (Angstroms)
 Number     Number       Type             X           Y           Z
 ---------------------------------------------------------------------
      1          8           0        0.362887    1.103570    0.060768
      2          6           0       -0.721219    0.530698    0.791135
      3          6           0       -0.208459   -0.295672    1.978638
      4          6           0       -1.261449   -0.655812    3.032932
      5          8           0       -0.632661   -1.265243    4.164969
      6          6           0       -2.404395   -1.519536    2.565290
      7          6           0       -2.841957   -1.767382    1.322405
      8          6           0       -2.387124   -1.241807    0.035237
      9          6           0       -1.503189   -0.269009   -0.214520
     10          1           0        0.872771    1.647244    0.669430
     11          1           0       -1.372401    1.336844    1.178044
     12          1           0        0.266887   -1.207671    1.598610
     13          1           0        0.567520    0.278589    2.498440
     14          1           0       -1.678588    0.274744    3.443770
     15          1           0       -0.319317   -2.132540    3.883594
     16          1           0       -2.920271   -2.003007    3.392436
     17          1           0       -3.683021   -2.453253    1.241718
     18          1           0       -2.869703   -1.696882   -0.826338
     19          1           0       -1.300714    0.012441   -1.243792
 ---------------------------------------------------------------------
                    Distance matrix (angstroms):
                    1          2          3          4          5
     1  O    0.000000
     2  C    1.427202   0.000000
     3  C    2.441832   1.534918   0.000000
     4  C    3.816759   2.593319   1.532978   0.000000
     5  O    4.842196   3.823088   2.429004   1.431185   0.000000
     6  C    4.561926   3.191264   2.581498   1.506995   2.400558
     7  C    4.483874   3.171900   3.087375   2.580600   3.635011
     8  C    3.614417   2.547232   3.068967   3.255258   4.487023
     9  C    2.332809   1.504111   2.546955   3.279329   4.574957
    10  H    0.962305   1.949946   2.580312   3.930025   4.792463
    11  H    2.077004   1.106168   2.158894   2.724628   4.029863
    12  H    2.777771   2.156454   1.096410   2.167403   2.720055
    13  H    2.581611   2.153903   1.096409   2.122242   2.569274
    14  H    4.037236   2.831703   2.152502   1.099421   1.996410
    15  H    5.054880   4.100935   2.648628   1.947297   0.964137
    16  H    5.615154   4.245263   3.502533   2.166995   2.524730
    17  H    5.514980   4.228387   4.155813   3.507599   4.388789
    18  H    4.367966   3.492035   4.112602   4.308627   5.486695
    19  H    2.379078   2.178379   3.416433   4.328796   5.597631
                    6          7          8          9         10
     6  C    0.000000
     7  C    1.340766   0.000000
     8  C    2.545309   1.462841   0.000000
     9  C    3.178574   2.529735   1.337929   0.000000
    10  H    4.935848   5.087755   4.401787   3.177826   0.000000
    11  H    3.338917   3.437536   2.997517   2.129579   2.322893
    12  H    2.857879   3.170879   3.080434   2.702165   3.062843
    13  H    3.474190   4.146515   4.136289   3.456567   2.304707
    14  H    2.125549   3.166053   3.797373   3.702637   4.011253
    15  H    2.541899   3.613412   4.458597   4.654980   5.102812
    16  H    1.088137   2.084869   3.483454   4.245586   5.926741
    17  H    2.063627   1.088263   2.145354   3.412216   6.156040
    18  H    3.427988   2.150078   1.087330   2.068937   5.237042
    19  H    4.251373   3.482610   2.095075   1.086099   3.325213
                   11         12         13         14         15
    11  H    0.000000
    12  H    3.055928   0.000000
    13  H    2.574227   1.763247   0.000000
    14  H    2.520976   3.063827   2.436937   0.000000
    15  H    4.523894   2.533805   2.918676   2.799300   0.000000
    16  H    4.295816   3.742772   4.262580   2.594718   2.650090
    17  H    4.439353   4.156996   5.206670   4.038409   4.289158
    18  H    3.932296   3.994733   5.174083   4.851791   5.373800
    19  H    2.761245   3.467751   4.191114   4.710078   5.643951
                   16         17         18         19
    16  H    0.000000
    17  H    2.325962   0.000000
    18  H    4.230168   2.347432   0.000000
    19  H    5.308447   4.234713   2.357494   0.000000
 Stoichiometry    C7H10O2
 Framework group  C1[X(C7H10O2)]
 Deg. of freedom    51
 Full point group                 C1      NOp   1
 Largest Abelian subgroup         C1      NOp   1
 Largest concise Abelian subgroup C1      NOp   1
                         Standard orientation:                         
 ---------------------------------------------------------------------
 Center     Atomic      Atomic             Coordinates (Angstroms)
 Number     Number       Type             X           Y           Z
 ---------------------------------------------------------------------
      1          8           0        2.455916   -1.231875   -0.062407
      2          6           0        1.301472   -0.494683    0.338481
      3          6           0        0.029369   -1.080698   -0.289463
      4          6           0       -1.289117   -0.613662    0.337829
      5          8           0       -2.382418   -1.357952   -0.208994
      6          6           0       -1.586071    0.860826    0.244364
      7          6           0       -0.762474    1.889585   -0.002612
      8          6           0        0.685791    1.916108   -0.206883
      9          6           0        1.577098    0.929068   -0.060662
     10          1           0        2.326542   -2.147879    0.202602
     11          1           0        1.201665   -0.535169    1.439393
     12          1           0        0.029899   -0.862406   -1.363923
     13          1           0        0.054465   -2.171649   -0.183109
     14          1           0       -1.292584   -0.899115    1.399540
     15          1           0       -2.483251   -1.082073   -1.127299
     16          1           0       -2.640918    1.078914    0.398562
     17          1           0       -1.227323    2.872797   -0.041701
     18          1           0        1.077589    2.891211   -0.486086
     19          1           0        2.629519    1.134714   -0.233089
 ---------------------------------------------------------------------
 Rotational constants (GHZ):      2.2309648      1.4637720      0.9277458
 Standard basis: 6-31G(2df,p) (6D, 7F)
 There are   329 symmetry adapted cartesian basis functions of A   symmetry.
 There are   302 symmetry adapted basis functions of A   symmetry.
   302 basis functions,   466 primitive gaussians,   329 cartesian basis functions
    34 alpha electrons       34 beta electrons
       nuclear repulsion energy       448.6294007309 Hartrees.
 NAtoms=   19 NActive=   19 NUniq=   19 SFac= 1.00D+00 NAtFMM=   60 NAOKFM=F Big=F
 Integral buffers will be    131072 words long.
 Raffenetti 2 integral format.
 Two-electron integral symmetry is turned on.
 One-electron integrals computed using PRISM.
 NBasis=   302 RedAO= T EigKep=  3.27D-04  NBF=   302
 NBsUse=   302 1.00D-06 EigRej= -1.00D+00 NBFU=   302
 ExpMin= 1.61D-01 ExpMax= 5.48D+03 ExpMxC= 8.25D+02 IAcc=1 IRadAn=         1 AccDes= 0.00D+00
 Harris functional with IExCor=  402 and IRadAn=       1 diagonalized for initial guess.
 HarFok:  IExCor=  402 AccDes= 0.00D+00 IRadAn=         1 IDoV= 1 UseB2=F ITyADJ=14
 ICtDFT=  3500011 ScaDFX=  1.000000  1.000000  1.000000  1.000000
 FoFCou: FMM=F IPFlag=           0 FMFlag=      100000 FMFlg1=           0
         NFxFlg=           0 DoJE=T BraDBF=F KetDBF=T FulRan=T
         wScrn=  0.000000 ICntrl=     500 IOpCl=  0 I1Cent=   200000004 NGrid=           0
         NMat0=    1 NMatS0=      1 NMatT0=    0 NMatD0=    1 NMtDS0=    0 NMtDT0=    0
 Petite list used in FoFCou.
 Requested convergence on RMS density matrix=1.00D-08 within 128 cycles.
 Requested convergence on MAX density matrix=1.00D-06.
 Requested convergence on             energy=1.00D-06.
 No special actions if energy rises.
 Integral accuracy reduced to 1.0D-05 until final iterations.
 Initial convergence to 1.0D-05 achieved.  Increase integral accuracy.
 SCF Done:  E(RB3LYP) =  -423.186314155     A.U. after   14 cycles
            NFock= 14  Conv=0.30D-08     -V/T= 2.0074

 **********************************************************************

            Population analysis using the SCF density.

 **********************************************************************

 Orbital symmetries:
       Occupied  (A) (A) (A) (A) (A) (A) (A) (A) (A) (A) (A) (A)
                 (A) (A) (A) (A) (A) (A) (A) (A) (A) (A) (A) (A)
                 (A) (A) (A) (A) (A) (A) (A) (A) (A) (A)
       Virtual   (A) (A) (A) (A) (A) (A) (A) (A) (A) (A) (A) (A)
                 (A) (A) (A) (A) (A) (A) (A) (A) (A) (A) (A) (A)
                 (A) (A) (A) (A) (A) (A) (A) (A) (A) (A) (A) (A)
                 (A) (A) (A) (A) (A) (A) (A) (A) (A) (A) (A) (A)
                 (A) (A) (A) (A) (A) (A) (A) (A) (A) (A) (A) (A)
                 (A) (A) (A) (A) (A) (A) (A) (A) (A) (A) (A) (A)
                 (A) (A) (A) (A) (A) (A) (A) (A) (A) (A) (A) (A)
                 (A) (A) (A) (A) (A) (A) (A) (A) (A) (A) (A) (A)
                 (A) (A) (A) (A) (A) (A) (A) (A) (A) (A) (A) (A)
                 (A) (A) (A) (A) (A) (A) (A) (A) (A) (A) (A) (A)
                 (A) (A) (A) (A) (A) (A) (A) (A) (A) (A) (A) (A)
                 (A) (A) (A) (A) (A) (A) (A) (A) (A) (A) (A) (A)
                 (A) (A) (A) (A) (A) (A) (A) (A) (A) (A) (A) (A)
                 (A) (A) (A) (A) (A) (A) (A) (A) (A) (A) (A) (A)
                 (A) (A) (A) (A) (A) (A) (A) (A) (A) (A) (A) (A)
                 (A) (A) (A) (A) (A) (A) (A) (A) (A) (A) (A) (A)
                 (A) (A) (A) (A) (A) (A) (A) (A) (A) (A) (A) (A)
                 (A) (A) (A) (A) (A) (A) (A) (A) (A) (A) (A) (A)
                 (A) (A) (A) (A) (A) (A) (A) (A) (A) (A) (A) (A)
                 (A) (A) (A) (A) (A) (A) (A) (A) (A) (A) (A) (A)
                 (A) (A) (A) (A) (A) (A) (A) (A) (A) (A) (A) (A)
                 (A) (A) (A) (A) (A) (A) (A) (A) (A) (A) (A) (A)
                 (A) (A) (A) (A)
 The electronic state is 1-A.
 Alpha  occ. eigenvalues --  -19.13760 -19.13700 -10.23984 -10.23878 -10.19007
 Alpha  occ. eigenvalues --  -10.18629 -10.18517 -10.18476 -10.18407  -1.02124
 Alpha  occ. eigenvalues --   -1.01825  -0.82321  -0.75964  -0.75696  -0.65376
 Alpha  occ. eigenvalues --   -0.64866  -0.57096  -0.52887  -0.50630  -0.50150
 Alpha  occ. eigenvalues --   -0.47278  -0.45047  -0.44228  -0.40601  -0.39953
 Alpha  occ. eigenvalues --   -0.38864  -0.36861  -0.34329  -0.33470  -0.31656
 Alpha  occ. eigenvalues --   -0.31543  -0.28103  -0.26790  -0.22090
 Alpha virt. eigenvalues --   -0.03661   0.07183   0.08256   0.08958   0.10290
 Alpha virt. eigenvalues --    0.12668   0.13784   0.14157   0.15318   0.16619
 Alpha virt. eigenvalues --    0.19791   0.19959   0.21261   0.22520   0.24900
 Alpha virt. eigenvalues --    0.25491   0.28578   0.30458   0.36074   0.38396
 Alpha virt. eigenvalues --    0.41761   0.44962   0.46218   0.47533   0.48227
 Alpha virt. eigenvalues --    0.49634   0.49846   0.51980   0.52396   0.53104
 Alpha virt. eigenvalues --    0.53781   0.57422   0.59857   0.59946   0.62926
 Alpha virt. eigenvalues --    0.65145   0.66008   0.67053   0.69642   0.70608
 Alpha virt. eigenvalues --    0.71611   0.72431   0.73831   0.75392   0.76388
 Alpha virt. eigenvalues --    0.77613   0.78097   0.78655   0.79927   0.80335
 Alpha virt. eigenvalues --    0.82203   0.83768   0.84614   0.87513   0.87991
 Alpha virt. eigenvalues --    0.89231   0.90995   0.92032   0.93066   0.94190
 Alpha virt. eigenvalues --    0.95264   0.97841   0.98928   1.00870   1.04745
 Alpha virt. eigenvalues --    1.06855   1.08059   1.09188   1.11767   1.17625
 Alpha virt. eigenvalues --    1.19502   1.19887   1.24555   1.27080   1.29864
 Alpha virt. eigenvalues --    1.30397   1.34722   1.35732   1.35905   1.37953
 Alpha virt. eigenvalues --    1.40382   1.42338   1.43857   1.44789   1.47370
 Alpha virt. eigenvalues --    1.48640   1.51559   1.52175   1.54737   1.59005
 Alpha virt. eigenvalues --    1.62421   1.65929   1.65976   1.69540   1.70857
 Alpha virt. eigenvalues --    1.72385   1.74824   1.77008   1.79496   1.84817
 Alpha virt. eigenvalues --    1.88182   1.89775   1.92064   1.94460   1.97560
 Alpha virt. eigenvalues --    1.99161   2.02772   2.03927   2.06205   2.10711
 Alpha virt. eigenvalues --    2.12838   2.17292   2.19590   2.21921   2.23405
 Alpha virt. eigenvalues --    2.27107   2.33654   2.35701   2.38247   2.43396
 Alpha virt. eigenvalues --    2.46269   2.50697   2.53072   2.55239   2.57019
 Alpha virt. eigenvalues --    2.60042   2.63632   2.65817   2.71693   2.74039
 Alpha virt. eigenvalues --    2.75116   2.76533   2.78440   2.80579   2.83371
 Alpha virt. eigenvalues --    2.85555   2.89511   2.89942   2.90122   2.92607
 Alpha virt. eigenvalues --    2.96236   2.96871   2.98046   2.99773   3.01773
 Alpha virt. eigenvalues --    3.02202   3.04074   3.09570   3.11283   3.15193
 Alpha virt. eigenvalues --    3.16764   3.18723   3.21453   3.23503   3.24770
 Alpha virt. eigenvalues --    3.25621   3.27887   3.30506   3.32652   3.33672
 Alpha virt. eigenvalues --    3.34661   3.36583   3.40365   3.43747   3.44357
 Alpha virt. eigenvalues --    3.45057   3.47451   3.49792   3.51210   3.52897
 Alpha virt. eigenvalues --    3.62841   3.64669   3.66973   3.68420   3.70359
 Alpha virt. eigenvalues --    3.71910   3.76676   3.79027   3.79530   3.83195
 Alpha virt. eigenvalues --    3.87570   3.89456   3.90369   3.98433   4.03554
 Alpha virt. eigenvalues --    4.05273   4.14230   4.17142   4.18007   4.21204
 Alpha virt. eigenvalues --    4.26509   4.28096   4.29422   4.32441   4.32686
 Alpha virt. eigenvalues --    4.36410   4.39988   4.40832   4.41469   4.47142
 Alpha virt. eigenvalues --    4.47528   4.49178   4.50139   4.52705   4.54844
 Alpha virt. eigenvalues --    4.56678   4.60968   4.61186   4.62972   4.64838
 Alpha virt. eigenvalues --    4.66242   4.68950   4.70237   4.73470   4.74786
 Alpha virt. eigenvalues --    4.76924   4.80079   4.81210   4.82857   4.84571
 Alpha virt. eigenvalues --    4.87138   4.89208   4.92699   4.94159   4.95791
 Alpha virt. eigenvalues --    5.01390   5.02227   5.05696   5.10170   5.12449
 Alpha virt. eigenvalues --    5.19567   5.20721   5.23155   5.28919   5.30661
 Alpha virt. eigenvalues --    5.33019   5.38587   5.44423   5.45628   5.47868
 Alpha virt. eigenvalues --    5.49908   5.53821   5.56746   5.59488   5.65343
 Alpha virt. eigenvalues --    5.66514   5.75916   5.77286   5.81309   5.93088
 Alpha virt. eigenvalues --    5.96024   5.98236   6.02598   6.10918   6.13398
 Alpha virt. eigenvalues --    6.21185   7.00472   7.07533   7.18335   9.93324
 Alpha virt. eigenvalues --   10.63376  11.25715  11.76129  11.92497  12.36723
 Alpha virt. eigenvalues --   12.60711  13.28209  13.35677
          Condensed to atoms (all electrons):
               1          2          3          4          5          6
     1  O    7.887039   0.317551  -0.024990   0.002770  -0.000015  -0.000129
     2  C    0.317551   4.800157   0.299248  -0.012545   0.002633   0.007958
     3  C   -0.024990   0.299248   5.170258   0.294827  -0.031115  -0.006039
     4  C    0.002770  -0.012545   0.294827   4.782906   0.353055   0.350427
     5  O   -0.000015   0.002633  -0.031115   0.353055   7.847557  -0.041202
     6  C   -0.000129   0.007958  -0.006039   0.350427  -0.041202   4.991954
     7  C    0.000151  -0.027510  -0.011905   0.005486   0.003304   0.542772
     8  C    0.001019   0.006992  -0.005986  -0.020261  -0.000080   0.018723
     9  C   -0.020395   0.337052  -0.002576  -0.001158   0.000036  -0.027870
    10  H    0.310149  -0.062942  -0.000413  -0.000203  -0.000006  -0.000001
    11  H   -0.031749   0.363821  -0.075045   0.003655   0.000042  -0.001291
    12  H    0.001092  -0.015947   0.341298  -0.022025  -0.000479  -0.009959
    13  H   -0.002298  -0.026483   0.342366  -0.019056   0.001685   0.004539
    14  H   -0.000021  -0.004406  -0.046644   0.347873  -0.017761  -0.045155
    15  H   -0.000001  -0.000130  -0.001944  -0.076786   0.311216   0.002734
    16  H    0.000000  -0.000230   0.005924  -0.061777   0.002728   0.359254
    17  H    0.000000   0.000007  -0.000222   0.006400  -0.000061  -0.043863
    18  H   -0.000037   0.007079  -0.000115  -0.000001   0.000000   0.006312
    19  H    0.001869  -0.051565   0.003986  -0.000112   0.000001   0.000037
               7          8          9         10         11         12
     1  O    0.000151   0.001019  -0.020395   0.310149  -0.031749   0.001092
     2  C   -0.027510   0.006992   0.337052  -0.062942   0.363821  -0.015947
     3  C   -0.011905  -0.005986  -0.002576  -0.000413  -0.075045   0.341298
     4  C    0.005486  -0.020261  -0.001158  -0.000203   0.003655  -0.022025
     5  O    0.003304  -0.000080   0.000036  -0.000006   0.000042  -0.000479
     6  C    0.542772   0.018723  -0.027870  -0.000001  -0.001291  -0.009959
     7  C    4.860742   0.384519   0.022021   0.000002   0.002640   0.003124
     8  C    0.384519   4.824455   0.583146  -0.000321  -0.001157   0.002559
     9  C    0.022021   0.583146   4.896961   0.007011  -0.048109  -0.009882
    10  H    0.000002  -0.000321   0.007011   0.462665  -0.004197  -0.000222
    11  H    0.002640  -0.001157  -0.048109  -0.004197   0.698069   0.006975
    12  H    0.003124   0.002559  -0.009882  -0.000222   0.006975   0.626583
    13  H    0.000049   0.000028   0.004429   0.007010  -0.002831  -0.038280
    14  H    0.001781   0.000808  -0.000527  -0.000013   0.004853   0.006277
    15  H    0.000771   0.000018  -0.000034  -0.000001   0.000007   0.004611
    16  H   -0.031270   0.006133   0.000105   0.000000  -0.000017  -0.000054
    17  H    0.369154  -0.055261   0.005893   0.000000   0.000015  -0.000039
    18  H   -0.056236   0.372858  -0.046747   0.000006  -0.000241  -0.000080
    19  H    0.005991  -0.032432   0.359191  -0.000426   0.002973   0.000268
              13         14         15         16         17         18
     1  O   -0.002298  -0.000021  -0.000001   0.000000   0.000000  -0.000037
     2  C   -0.026483  -0.004406  -0.000130  -0.000230   0.000007   0.007079
     3  C    0.342366  -0.046644  -0.001944   0.005924  -0.000222  -0.000115
     4  C   -0.019056   0.347873  -0.076786  -0.061777   0.006400  -0.000001
     5  O    0.001685  -0.017761   0.311216   0.002728  -0.000061   0.000000
     6  C    0.004539  -0.045155   0.002734   0.359254  -0.043863   0.006312
     7  C    0.000049   0.001781   0.000771  -0.031270   0.369154  -0.056236
     8  C    0.000028   0.000808   0.000018   0.006133  -0.055261   0.372858
     9  C    0.004429  -0.000527  -0.000034   0.000105   0.005893  -0.046747
    10  H    0.007010  -0.000013  -0.000001   0.000000   0.000000   0.000006
    11  H   -0.002831   0.004853   0.000007  -0.000017   0.000015  -0.000241
    12  H   -0.038280   0.006277   0.004611  -0.000054  -0.000039  -0.000080
    13  H    0.640429  -0.005885  -0.000513  -0.000218   0.000007   0.000005
    14  H   -0.005885   0.651339   0.008477  -0.000754  -0.000227   0.000000
    15  H   -0.000513   0.008477   0.473592   0.000244  -0.000037  -0.000001
    16  H   -0.000218  -0.000754   0.000244   0.635152  -0.013937  -0.000174
    17  H    0.000007  -0.000227  -0.000037  -0.013937   0.651151  -0.009688
    18  H    0.000005   0.000000  -0.000001  -0.000174  -0.009688   0.649414
    19  H   -0.000250  -0.000002   0.000000   0.000005  -0.000174  -0.012832
              19
     1  O    0.001869
     2  C   -0.051565
     3  C    0.003986
     4  C   -0.000112
     5  O    0.000001
     6  C    0.000037
     7  C    0.005991
     8  C   -0.032432
     9  C    0.359191
    10  H   -0.000426
    11  H    0.002973
    12  H    0.000268
    13  H   -0.000250
    14  H   -0.000002
    15  H    0.000000
    16  H    0.000005
    17  H   -0.000174
    18  H   -0.012832
    19  H    0.616669
 Mulliken charges:
               1
     1  O   -0.442004
     2  C    0.059262
     3  C   -0.250911
     4  C    0.066526
     5  O   -0.431537
     6  C   -0.109202
     7  C   -0.075584
     8  C   -0.085760
     9  C   -0.058545
    10  H    0.281902
    11  H    0.081588
    12  H    0.104181
    13  H    0.095269
    14  H    0.099989
    15  H    0.277778
    16  H    0.098887
    17  H    0.090884
    18  H    0.090476
    19  H    0.106802
 Sum of Mulliken charges =   0.00000
 Mulliken charges with hydrogens summed into heavy atoms:
               1
     1  O   -0.160102
     2  C    0.140850
     3  C   -0.051462
     4  C    0.166515
     5  O   -0.153759
     6  C   -0.010315
     7  C    0.015300
     8  C    0.004717
     9  C    0.048257
 Electronic spatial extent (au):  <R**2>=           1240.8536
 Charge=              0.0000 electrons
 Dipole moment (field-independent basis, Debye):
    X=             -0.1892    Y=              0.1348    Z=             -0.0831  Tot=              0.2467
 Quadrupole moment (field-independent basis, Debye-Ang):
   XX=            -58.7293   YY=            -49.5112   ZZ=            -52.2193
   XY=             -3.7972   XZ=              3.5019   YZ=             -1.2309
 Traceless Quadrupole moment (field-independent basis, Debye-Ang):
   XX=             -5.2427   YY=              3.9754   ZZ=              1.2673
   XY=             -3.7972   XZ=              3.5019   YZ=             -1.2309
 Octapole moment (field-independent basis, Debye-Ang**2):
  XXX=             -5.6561  YYY=            -12.8624  ZZZ=             -2.9499  XYY=             15.0375
  XXY=              6.8103  XXZ=             -4.4577  XZZ=             -5.9415  YZZ=            -10.3100
  YYZ=             -0.6271  XYZ=             -6.2454
 Hexadecapole moment (field-independent basis, Debye-Ang**3):
 XXXX=           -889.3814 YYYY=           -560.5089 ZZZZ=            -94.6558 XXXY=            -16.6043
 XXXZ=             25.6043 YYYX=            -43.4999 YYYZ=            -10.3012 ZZZX=             11.1084
 ZZZY=              3.0466 XXYY=           -234.3939 XXZZ=           -145.7957 YYZZ=           -122.3116
 XXYZ=              1.4401 YYXZ=              5.4481 ZZXY=              7.1267
 N-N= 4.486294007309D+02 E-N=-1.884462640552D+03  KE= 4.200799423087D+02
 Calling FoFJK, ICntrl=      2127 FMM=F ISym2X=0 I1Cent= 0 IOpClX= 0 NMat=1 NMatS=1 NMatT=0.
 ***** Axes restored to original set *****
 -------------------------------------------------------------------
 Center     Atomic                   Forces (Hartrees/Bohr)
 Number     Number              X              Y              Z
 -------------------------------------------------------------------
      1        8          -0.000028091   -0.000028523    0.000060529
      2        6           0.000046710    0.000021692   -0.000092092
      3        6           0.000028786   -0.000017871    0.000000034
      4        6           0.000020203   -0.000043197    0.000095455
      5        8          -0.000032028    0.000019249   -0.000064093
      6        6          -0.000004439    0.000000434   -0.000001516
      7        6          -0.000006986    0.000012797   -0.000031321
      8        6          -0.000021455   -0.000012422    0.000011545
      9        6           0.000000464    0.000014879    0.000025374
     10        1           0.000006632    0.000015913   -0.000008007
     11        1          -0.000007671    0.000000692    0.000020351
     12        1          -0.000000793    0.000002374   -0.000003151
     13        1          -0.000009318    0.000008638    0.000005291
     14        1          -0.000000333    0.000009356   -0.000016356
     15        1           0.000005245   -0.000002186    0.000003010
     16        1           0.000003500   -0.000009831   -0.000004657
     17        1           0.000001855   -0.000001119    0.000005167
     18        1          -0.000000199    0.000011240   -0.000004136
     19        1          -0.000002081   -0.000002114   -0.000001427
 -------------------------------------------------------------------
 Cartesian Forces:  Max     0.000095455 RMS     0.000026164

 GradGradGradGradGradGradGradGradGradGradGradGradGradGradGradGradGradGrad
 Berny optimization.
 FormGI is forming the generalized inverse of G from B-inverse, IUseBI=4.
 Internal  Forces:  Max     0.000067828 RMS     0.000010962
 Search for a local minimum.
 Step number   1 out of a maximum of  109
 All quantities printed in internal units (Hartrees-Bohrs-Radians)
 Mixed Optimization -- En-DIIS/RFO-DIIS
 Second derivative matrix not updated -- first step.
 ITU=  0
     Eigenvalues ---    0.00616   0.00760   0.01279   0.01332   0.01374
     Eigenvalues ---    0.01455   0.01651   0.02012   0.02069   0.02394
     Eigenvalues ---    0.03648   0.03818   0.04726   0.04814   0.05418
     Eigenvalues ---    0.06023   0.07737   0.08416   0.08738   0.10167
     Eigenvalues ---    0.14640   0.15745   0.15993   0.15998   0.16000
     Eigenvalues ---    0.16000   0.16000   0.16001   0.19173   0.19334
     Eigenvalues ---    0.21730   0.22001   0.28089   0.28467   0.30810
     Eigenvalues ---    0.31747   0.33009   0.33746   0.34082   0.34082
     Eigenvalues ---    0.35014   0.35029   0.35123   0.35267   0.35797
     Eigenvalues ---    0.40820   0.41394   0.54593   0.54980   0.55340
     Eigenvalues ---    0.56075
 RFO step:  Lambda=-9.56682678D-08 EMin= 6.16175223D-03
 Linear search not attempted -- first point.
 Iteration  1 RMS(Cart)=  0.00025202 RMS(Int)=  0.00000004
 Iteration  2 RMS(Cart)=  0.00000004 RMS(Int)=  0.00000001
 Variable       Old X    -DE/DX   Delta X   Delta X   Delta X     New X
                                 (Linear)    (Quad)   (Total)
    R1        2.69702  -0.00005   0.00000  -0.00011  -0.00011   2.69691
    R2        1.81849   0.00000   0.00000   0.00001   0.00001   1.81850
    R3        2.90058   0.00001   0.00000   0.00006   0.00006   2.90064
    R4        2.84236   0.00000   0.00000   0.00000   0.00000   2.84236
    R5        2.09035   0.00001   0.00000   0.00003   0.00003   2.09039
    R6        2.89691   0.00002   0.00000   0.00007   0.00007   2.89698
    R7        2.07192   0.00000   0.00000  -0.00001  -0.00001   2.07191
    R8        2.07191   0.00000   0.00000   0.00000   0.00000   2.07192
    R9        2.70455  -0.00007   0.00000  -0.00017  -0.00017   2.70438
   R10        2.84781   0.00001   0.00000   0.00003   0.00003   2.84783
   R11        2.07760   0.00000   0.00000   0.00001   0.00001   2.07762
   R12        1.82195   0.00000   0.00000   0.00000   0.00000   1.82195
   R13        2.53368   0.00001   0.00000   0.00001   0.00001   2.53369
   R14        2.05628   0.00000   0.00000   0.00000   0.00000   2.05628
   R15        2.76437  -0.00002   0.00000  -0.00005  -0.00005   2.76431
   R16        2.05652   0.00000   0.00000   0.00000   0.00000   2.05652
   R17        2.52832   0.00001   0.00000   0.00002   0.00002   2.52834
   R18        2.05476   0.00000   0.00000   0.00000   0.00000   2.05475
   R19        2.05243   0.00000   0.00000   0.00000   0.00000   2.05243
    A1        1.88134   0.00003   0.00000   0.00018   0.00018   1.88152
    A2        1.93721  -0.00001   0.00000  -0.00003  -0.00003   1.93718
    A3        1.84021   0.00002   0.00000   0.00015   0.00015   1.84036
    A4        1.91095   0.00000   0.00000   0.00005   0.00005   1.91100
    A5        1.98745   0.00000   0.00000   0.00008   0.00008   1.98753
    A6        1.89485   0.00000   0.00000  -0.00016  -0.00016   1.89468
    A7        1.89155  -0.00001   0.00000  -0.00008  -0.00008   1.89147
    A8        2.01428   0.00000   0.00000  -0.00001  -0.00001   2.01428
    A9        1.90128   0.00000   0.00000   0.00005   0.00005   1.90133
   A10        1.89783   0.00000   0.00000  -0.00011  -0.00011   1.89772
   A11        1.91853   0.00000   0.00000   0.00009   0.00009   1.91861
   A12        1.85786   0.00000   0.00000  -0.00010  -0.00010   1.85776
   A13        1.86832   0.00000   0.00000   0.00008   0.00008   1.86840
   A14        1.92010  -0.00001   0.00000   0.00000   0.00000   1.92010
   A15        2.02883   0.00000   0.00000   0.00003   0.00003   2.02886
   A16        1.89523  -0.00001   0.00000  -0.00014  -0.00014   1.89509
   A17        1.91199   0.00001   0.00000   0.00006   0.00006   1.91205
   A18        1.80445   0.00001   0.00000   0.00011   0.00011   1.80456
   A19        1.88947   0.00000   0.00000  -0.00006  -0.00006   1.88942
   A20        1.87025   0.00001   0.00000   0.00008   0.00008   1.87033
   A21        2.26676   0.00000   0.00000   0.00002   0.00002   2.26678
   A22        1.95879   0.00000   0.00000   0.00001   0.00001   1.95880
   A23        2.05760   0.00000   0.00000  -0.00003  -0.00003   2.05757
   A24        2.27547   0.00000   0.00000  -0.00002  -0.00002   2.27546
   A25        2.02356  -0.00001   0.00000  -0.00004  -0.00004   2.02352
   A26        1.98394   0.00001   0.00000   0.00006   0.00006   1.98401
   A27        2.25352   0.00000   0.00000   0.00002   0.00002   2.25354
   A28        1.99200   0.00001   0.00000   0.00003   0.00003   1.99203
   A29        2.03712  -0.00001   0.00000  -0.00004  -0.00004   2.03708
   A30        2.22087   0.00001   0.00000   0.00010   0.00010   2.22097
   A31        1.98114   0.00000   0.00000  -0.00001  -0.00001   1.98113
   A32        2.08116  -0.00001   0.00000  -0.00009  -0.00009   2.08106
    D1       -1.01152   0.00000   0.00000  -0.00039  -0.00039  -1.01192
    D2        3.11171  -0.00001   0.00000  -0.00057  -0.00057   3.11114
    D3        1.08009  -0.00001   0.00000  -0.00058  -0.00058   1.07951
    D4        2.87850  -0.00001   0.00000   0.00008   0.00008   2.87859
    D5       -1.23731   0.00000   0.00000   0.00023   0.00023  -1.23707
    D6        0.79315   0.00000   0.00000   0.00030   0.00030   0.79345
    D7       -1.33142   0.00001   0.00000   0.00031   0.00031  -1.33111
    D8        0.83596   0.00001   0.00000   0.00046   0.00046   0.83642
    D9        2.86642   0.00001   0.00000   0.00053   0.00053   2.86694
   D10        0.77731   0.00000   0.00000   0.00014   0.00014   0.77746
   D11        2.94469   0.00000   0.00000   0.00029   0.00029   2.94499
   D12       -1.30804   0.00000   0.00000   0.00036   0.00036  -1.30768
   D13        2.82062   0.00000   0.00000  -0.00001  -0.00001   2.82061
   D14       -0.32803   0.00000   0.00000  -0.00004  -0.00004  -0.32807
   D15        0.69282   0.00000   0.00000  -0.00013  -0.00013   0.69269
   D16       -2.45583   0.00000   0.00000  -0.00015  -0.00015  -2.45598
   D17       -1.41776   0.00001   0.00000   0.00009   0.00009  -1.41767
   D18        1.71678   0.00001   0.00000   0.00006   0.00006   1.71684
   D19       -3.00771   0.00000   0.00000   0.00019   0.00019  -3.00752
   D20        1.09010   0.00000   0.00000   0.00008   0.00008   1.09018
   D21       -1.04443   0.00000   0.00000   0.00024   0.00024  -1.04419
   D22        1.11714   0.00000   0.00000   0.00006   0.00006   1.11720
   D23       -1.06823   0.00000   0.00000  -0.00006  -0.00006  -1.06829
   D24        3.08042   0.00000   0.00000   0.00011   0.00011   3.08053
   D25       -0.90050   0.00000   0.00000  -0.00003  -0.00003  -0.90053
   D26       -3.08587  -0.00001   0.00000  -0.00014  -0.00014  -3.08601
   D27        1.06277   0.00000   0.00000   0.00003   0.00003   1.06280
   D28       -1.21399   0.00000   0.00000   0.00014   0.00014  -1.21385
   D29        1.03672   0.00000   0.00000   0.00023   0.00023   1.03695
   D30        3.04788   0.00001   0.00000   0.00025   0.00025   3.04813
   D31       -0.31979   0.00000   0.00000  -0.00043  -0.00043  -0.32022
   D32        2.81184   0.00000   0.00000  -0.00041  -0.00041   2.81143
   D33       -2.50928   0.00000   0.00000  -0.00051  -0.00051  -2.50979
   D34        0.62235   0.00000   0.00000  -0.00049  -0.00049   0.62186
   D35        1.81777  -0.00001   0.00000  -0.00064  -0.00064   1.81714
   D36       -1.33378  -0.00001   0.00000  -0.00062  -0.00062  -1.33440
   D37       -0.04728   0.00000   0.00000   0.00022   0.00022  -0.04706
   D38        3.11774   0.00000   0.00000   0.00005   0.00005   3.11778
   D39        3.10475   0.00000   0.00000   0.00020   0.00020   3.10495
   D40       -0.01342   0.00000   0.00000   0.00002   0.00002  -0.01340
   D41       -0.13525   0.00000   0.00000   0.00024   0.00024  -0.13501
   D42        3.04338   0.00000   0.00000   0.00009   0.00009   3.04347
   D43        2.98335   0.00000   0.00000   0.00041   0.00041   2.98376
   D44       -0.12121   0.00000   0.00000   0.00026   0.00026  -0.12095
   D45        0.01937   0.00000   0.00000  -0.00021  -0.00021   0.01916
   D46       -3.11481   0.00000   0.00000  -0.00018  -0.00018  -3.11499
   D47        3.12313   0.00000   0.00000  -0.00006  -0.00006   3.12307
   D48       -0.01105   0.00000   0.00000  -0.00003  -0.00003  -0.01108
         Item               Value     Threshold  Converged?
 Maximum Force            0.000068     0.000450     YES
 RMS     Force            0.000011     0.000300     YES
 Maximum Displacement     0.000909     0.001800     YES
 RMS     Displacement     0.000252     0.001200     YES
 Predicted change in Energy=-4.783481D-08
 Optimization completed.
    -- Stationary point found.
                           ----------------------------
                           !   Optimized Parameters   !
                           ! (Angstroms and Degrees)  !
 --------------------------                            --------------------------
 ! Name  Definition              Value          Derivative Info.                !
 --------------------------------------------------------------------------------
 ! R1    R(1,2)                  1.4272         -DE/DX =    0.0                 !
 ! R2    R(1,10)                 0.9623         -DE/DX =    0.0                 !
 ! R3    R(2,3)                  1.5349         -DE/DX =    0.0                 !
 ! R4    R(2,9)                  1.5041         -DE/DX =    0.0                 !
 ! R5    R(2,11)                 1.1062         -DE/DX =    0.0                 !
 ! R6    R(3,4)                  1.533          -DE/DX =    0.0                 !
 ! R7    R(3,12)                 1.0964         -DE/DX =    0.0                 !
 ! R8    R(3,13)                 1.0964         -DE/DX =    0.0                 !
 ! R9    R(4,5)                  1.4312         -DE/DX =   -0.0001              !
 ! R10   R(4,6)                  1.507          -DE/DX =    0.0                 !
 ! R11   R(4,14)                 1.0994         -DE/DX =    0.0                 !
 ! R12   R(5,15)                 0.9641         -DE/DX =    0.0                 !
 ! R13   R(6,7)                  1.3408         -DE/DX =    0.0                 !
 ! R14   R(6,16)                 1.0881         -DE/DX =    0.0                 !
 ! R15   R(7,8)                  1.4628         -DE/DX =    0.0                 !
 ! R16   R(7,17)                 1.0883         -DE/DX =    0.0                 !
 ! R17   R(8,9)                  1.3379         -DE/DX =    0.0                 !
 ! R18   R(8,18)                 1.0873         -DE/DX =    0.0                 !
 ! R19   R(9,19)                 1.0861         -DE/DX =    0.0                 !
 ! A1    A(2,1,10)             107.7927         -DE/DX =    0.0                 !
 ! A2    A(1,2,3)              110.9937         -DE/DX =    0.0                 !
 ! A3    A(1,2,9)              105.4363         -DE/DX =    0.0                 !
 ! A4    A(1,2,11)             109.4895         -DE/DX =    0.0                 !
 ! A5    A(3,2,9)              113.8723         -DE/DX =    0.0                 !
 ! A6    A(3,2,11)             108.5667         -DE/DX =    0.0                 !
 ! A7    A(9,2,11)             108.3781         -DE/DX =    0.0                 !
 ! A8    A(2,3,4)              115.41           -DE/DX =    0.0                 !
 ! A9    A(2,3,12)             108.9353         -DE/DX =    0.0                 !
 ! A10   A(2,3,13)             108.7376         -DE/DX =    0.0                 !
 ! A11   A(4,3,12)             109.9235         -DE/DX =    0.0                 !
 ! A12   A(4,3,13)             106.4475         -DE/DX =    0.0                 !
 ! A13   A(12,3,13)            107.0469         -DE/DX =    0.0                 !
 ! A14   A(3,4,5)              110.0136         -DE/DX =    0.0                 !
 ! A15   A(3,4,6)              116.2436         -DE/DX =    0.0                 !
 ! A16   A(3,4,14)             108.5888         -DE/DX =    0.0                 !
 ! A17   A(5,4,6)              109.5487         -DE/DX =    0.0                 !
 ! A18   A(5,4,14)             103.3876         -DE/DX =    0.0                 !
 ! A19   A(6,4,14)             108.2589         -DE/DX =    0.0                 !
 ! A20   A(4,5,15)             107.1575         -DE/DX =    0.0                 !
 ! A21   A(4,6,7)              129.8756         -DE/DX =    0.0                 !
 ! A22   A(4,6,16)             112.2305         -DE/DX =    0.0                 !
 ! A23   A(7,6,16)             117.8917         -DE/DX =    0.0                 !
 ! A24   A(6,7,8)              130.3749         -DE/DX =    0.0                 !
 ! A25   A(6,7,17)             115.9416         -DE/DX =    0.0                 !
 ! A26   A(8,7,17)             113.6717         -DE/DX =    0.0                 !
 ! A27   A(7,8,9)              129.1172         -DE/DX =    0.0                 !
 ! A28   A(7,8,18)             114.133          -DE/DX =    0.0                 !
 ! A29   A(9,8,18)             116.7186         -DE/DX =    0.0                 !
 ! A30   A(2,9,8)              127.2465         -DE/DX =    0.0                 !
 ! A31   A(2,9,19)             113.5109         -DE/DX =    0.0                 !
 ! A32   A(8,9,19)             119.2414         -DE/DX =    0.0                 !
 ! D1    D(10,1,2,3)           -57.9561         -DE/DX =    0.0                 !
 ! D2    D(10,1,2,9)           178.2879         -DE/DX =    0.0                 !
 ! D3    D(10,1,2,11)           61.8844         -DE/DX =    0.0                 !
 ! D4    D(1,2,3,4)            164.926          -DE/DX =    0.0                 !
 ! D5    D(1,2,3,12)           -70.8924         -DE/DX =    0.0                 !
 ! D6    D(1,2,3,13)            45.4443         -DE/DX =    0.0                 !
 ! D7    D(9,2,3,4)            -76.2846         -DE/DX =    0.0                 !
 ! D8    D(9,2,3,12)            47.897          -DE/DX =    0.0                 !
 ! D9    D(9,2,3,13)           164.2336         -DE/DX =    0.0                 !
 ! D10   D(11,2,3,4)            44.5369         -DE/DX =    0.0                 !
 ! D11   D(11,2,3,12)          168.7185         -DE/DX =    0.0                 !
 ! D12   D(11,2,3,13)          -74.9449         -DE/DX =    0.0                 !
 ! D13   D(1,2,9,8)            161.6097         -DE/DX =    0.0                 !
 ! D14   D(1,2,9,19)           -18.7945         -DE/DX =    0.0                 !
 ! D15   D(3,2,9,8)             39.6955         -DE/DX =    0.0                 !
 ! D16   D(3,2,9,19)          -140.7087         -DE/DX =    0.0                 !
 ! D17   D(11,2,9,8)           -81.2314         -DE/DX =    0.0                 !
 ! D18   D(11,2,9,19)           98.3644         -DE/DX =    0.0                 !
 ! D19   D(2,3,4,5)           -172.3292         -DE/DX =    0.0                 !
 ! D20   D(2,3,4,6)             62.4583         -DE/DX =    0.0                 !
 ! D21   D(2,3,4,14)           -59.8417         -DE/DX =    0.0                 !
 ! D22   D(12,3,4,5)            64.0075         -DE/DX =    0.0                 !
 ! D23   D(12,3,4,6)           -61.205          -DE/DX =    0.0                 !
 ! D24   D(12,3,4,14)          176.495          -DE/DX =    0.0                 !
 ! D25   D(13,3,4,5)           -51.595          -DE/DX =    0.0                 !
 ! D26   D(13,3,4,6)          -176.8076         -DE/DX =    0.0                 !
 ! D27   D(13,3,4,14)           60.8924         -DE/DX =    0.0                 !
 ! D28   D(3,4,5,15)           -69.5568         -DE/DX =    0.0                 !
 ! D29   D(6,4,5,15)            59.3994         -DE/DX =    0.0                 !
 ! D30   D(14,4,5,15)          174.6307         -DE/DX =    0.0                 !
 ! D31   D(3,4,6,7)            -18.3225         -DE/DX =    0.0                 !
 ! D32   D(3,4,6,16)           161.1066         -DE/DX =    0.0                 !
 ! D33   D(5,4,6,7)           -143.7709         -DE/DX =    0.0                 !
 ! D34   D(5,4,6,16)            35.6582         -DE/DX =    0.0                 !
 ! D35   D(14,4,6,7)           104.1508         -DE/DX =    0.0                 !
 ! D36   D(14,4,6,16)          -76.4202         -DE/DX =    0.0                 !
 ! D37   D(4,6,7,8)             -2.7089         -DE/DX =    0.0                 !
 ! D38   D(4,6,7,17)           178.6331         -DE/DX =    0.0                 !
 ! D39   D(16,6,7,8)           177.8891         -DE/DX =    0.0                 !
 ! D40   D(16,6,7,17)           -0.769          -DE/DX =    0.0                 !
 ! D41   D(6,7,8,9)             -7.7492         -DE/DX =    0.0                 !
 ! D42   D(6,7,8,18)           174.3726         -DE/DX =    0.0                 !
 ! D43   D(17,7,8,9)           170.9332         -DE/DX =    0.0                 !
 ! D44   D(17,7,8,18)           -6.945          -DE/DX =    0.0                 !
 ! D45   D(7,8,9,2)              1.11           -DE/DX =    0.0                 !
 ! D46   D(7,8,9,19)          -178.4653         -DE/DX =    0.0                 !
 ! D47   D(18,8,9,2)           178.9421         -DE/DX =    0.0                 !
 ! D48   D(18,8,9,19)           -0.6331         -DE/DX =    0.0                 !
 --------------------------------------------------------------------------------
 GradGradGradGradGradGradGradGradGradGradGradGradGradGradGradGradGradGrad

                          Input orientation:                          
 ---------------------------------------------------------------------
 Center     Atomic      Atomic             Coordinates (Angstroms)
 Number     Number       Type             X           Y           Z
 ---------------------------------------------------------------------
      1          8           0        0.362887    1.103570    0.060768
      2          6           0       -0.721219    0.530698    0.791135
      3          6           0       -0.208459   -0.295672    1.978638
      4          6           0       -1.261449   -0.655812    3.032932
      5          8           0       -0.632661   -1.265243    4.164969
      6          6           0       -2.404395   -1.519536    2.565290
      7          6           0       -2.841957   -1.767382    1.322405
      8          6           0       -2.387124   -1.241807    0.035237
      9          6           0       -1.503189   -0.269009   -0.214520
     10          1           0        0.872771    1.647244    0.669430
     11          1           0       -1.372401    1.336844    1.178044
     12          1           0        0.266887   -1.207671    1.598610
     13          1           0        0.567520    0.278589    2.498440
     14          1           0       -1.678588    0.274744    3.443770
     15          1           0       -0.319317   -2.132540    3.883594
     16          1           0       -2.920271   -2.003007    3.392436
     17          1           0       -3.683021   -2.453253    1.241718
     18          1           0       -2.869703   -1.696882   -0.826338
     19          1           0       -1.300714    0.012441   -1.243792
 ---------------------------------------------------------------------
                    Distance matrix (angstroms):
                    1          2          3          4          5
     1  O    0.000000
     2  C    1.427202   0.000000
     3  C    2.441832   1.534918   0.000000
     4  C    3.816759   2.593319   1.532978   0.000000
     5  O    4.842196   3.823088   2.429004   1.431185   0.000000
     6  C    4.561926   3.191264   2.581498   1.506995   2.400558
     7  C    4.483874   3.171900   3.087375   2.580600   3.635011
     8  C    3.614417   2.547232   3.068967   3.255258   4.487023
     9  C    2.332809   1.504111   2.546955   3.279329   4.574957
    10  H    0.962305   1.949946   2.580312   3.930025   4.792463
    11  H    2.077004   1.106168   2.158894   2.724628   4.029863
    12  H    2.777771   2.156454   1.096410   2.167403   2.720055
    13  H    2.581611   2.153903   1.096409   2.122242   2.569274
    14  H    4.037236   2.831703   2.152502   1.099421   1.996410
    15  H    5.054880   4.100935   2.648628   1.947297   0.964137
    16  H    5.615154   4.245263   3.502533   2.166995   2.524730
    17  H    5.514980   4.228387   4.155813   3.507599   4.388789
    18  H    4.367966   3.492035   4.112602   4.308627   5.486695
    19  H    2.379078   2.178379   3.416433   4.328796   5.597631
                    6          7          8          9         10
     6  C    0.000000
     7  C    1.340766   0.000000
     8  C    2.545309   1.462841   0.000000
     9  C    3.178574   2.529735   1.337929   0.000000
    10  H    4.935848   5.087755   4.401787   3.177826   0.000000
    11  H    3.338917   3.437536   2.997517   2.129579   2.322893
    12  H    2.857879   3.170879   3.080434   2.702165   3.062843
    13  H    3.474190   4.146515   4.136289   3.456567   2.304707
    14  H    2.125549   3.166053   3.797373   3.702637   4.011253
    15  H    2.541899   3.613412   4.458597   4.654980   5.102812
    16  H    1.088137   2.084869   3.483454   4.245586   5.926741
    17  H    2.063627   1.088263   2.145354   3.412216   6.156040
    18  H    3.427988   2.150078   1.087330   2.068937   5.237042
    19  H    4.251373   3.482610   2.095075   1.086099   3.325213
                   11         12         13         14         15
    11  H    0.000000
    12  H    3.055928   0.000000
    13  H    2.574227   1.763247   0.000000
    14  H    2.520976   3.063827   2.436937   0.000000
    15  H    4.523894   2.533805   2.918676   2.799300   0.000000
    16  H    4.295816   3.742772   4.262580   2.594718   2.650090
    17  H    4.439353   4.156996   5.206670   4.038409   4.289158
    18  H    3.932296   3.994733   5.174083   4.851791   5.373800
    19  H    2.761245   3.467751   4.191114   4.710078   5.643951
                   16         17         18         19
    16  H    0.000000
    17  H    2.325962   0.000000
    18  H    4.230168   2.347432   0.000000
    19  H    5.308447   4.234713   2.357494   0.000000
 Stoichiometry    C7H10O2
 Framework group  C1[X(C7H10O2)]
 Deg. of freedom    51
 Full point group                 C1      NOp   1
 Largest Abelian subgroup         C1      NOp   1
 Largest concise Abelian subgroup C1      NOp   1
                         Standard orientation:                         
 ---------------------------------------------------------------------
 Center     Atomic      Atomic             Coordinates (Angstroms)
 Number     Number       Type             X           Y           Z
 ---------------------------------------------------------------------
      1          8           0        2.455916   -1.231875   -0.062407
      2          6           0        1.301472   -0.494683    0.338481
      3          6           0        0.029369   -1.080698   -0.289463
      4          6           0       -1.289117   -0.613662    0.337829
      5          8           0       -2.382418   -1.357952   -0.208994
      6          6           0       -1.586071    0.860826    0.244364
      7          6           0       -0.762474    1.889585   -0.002612
      8          6           0        0.685791    1.916108   -0.206883
      9          6           0        1.577098    0.929068   -0.060662
     10          1           0        2.326542   -2.147879    0.202602
     11          1           0        1.201665   -0.535169    1.439393
     12          1           0        0.029899   -0.862406   -1.363923
     13          1           0        0.054465   -2.171649   -0.183109
     14          1           0       -1.292584   -0.899115    1.399540
     15          1           0       -2.483251   -1.082073   -1.127299
     16          1           0       -2.640918    1.078914    0.398562
     17          1           0       -1.227323    2.872797   -0.041701
     18          1           0        1.077589    2.891211   -0.486086
     19          1           0        2.629519    1.134714   -0.233089
 ---------------------------------------------------------------------
 Rotational constants (GHZ):      2.2309648      1.4637720      0.9277458
 1\1\GINC-ALCHEMY-N\FOpt\RB3LYP\6-31G(2df,p)\C7H10O2\PUCK\28-Jan-2020\0
 \\# b3lyp 6-31G(2df,p) opt Freq\\titel\\0,1\O,0.3628870334,1.103570472
 4,0.0607683503\C,-0.7212192178,0.5306980799,0.7911349893\C,-0.20845932
 86,-0.2956724205,1.9786381458\C,-1.2614489053,-0.6558115759,3.03293167
 17\O,-0.6326606765,-1.2652428813,4.1649694464\C,-2.4043946608,-1.51953
 57088,2.5652904152\C,-2.8419572197,-1.7673822065,1.3224051421\C,-2.387
 1239661,-1.2418068197,0.0352374943\C,-1.5031888201,-0.2690094148,-0.21
 45202723\H,0.8727706411,1.6472440585,0.6694302004\H,-1.3724014797,1.33
 68439711,1.1780439586\H,0.2668865447,-1.207670539,1.5986104348\H,0.567
 5197333,0.2785888977,2.4984402363\H,-1.6785880986,0.2747437659,3.44376
 98292\H,-0.3193165678,-2.1325396992,3.8835944797\H,-2.9202707869,-2.00
 30069953,3.3924361455\H,-3.683020841,-2.453253114,1.2417177694\H,-2.86
 97027677,-1.6968817597,-0.8263377485\H,-1.300714286,0.0124406992,-1.24
 37923682\\Version=ES64L-G09RevD.01\State=1-A\HF=-423.1863142\RMSD=3.00
 8e-09\RMSF=2.616e-05\Dipole=-0.0391184,-0.0838328,0.0293969\Quadrupole
 =1.2872412,3.9233728,-5.210614,1.4773992,1.6226486,1.0384892\PG=C01 [X
 (C7H10O2)]\\@


 Boundary, n.  In political geography, an imaginary
 line between two nations, separating the imaginary
 rights of one from the imaginary rights of another.
                               -- Ambrose Bierce
 Job cpu time:       0 days  0 hours  6 minutes 15.4 seconds.
 File lengths (MBytes):  RWF=     52 Int=      0 D2E=      0 Chk=      7 Scr=      1
 Normal termination of Gaussian 09 at Tue Jan 28 00:42:58 2020.
 Link1:  Proceeding to internal job step number  2.
 ----------------------------------------------------------------------
 #N Geom=AllCheck Guess=TCheck SCRF=Check GenChk RB3LYP/6-31G(2df,p) Fr
 eq
 ----------------------------------------------------------------------
 1/10=4,29=7,30=1,38=1,40=1/1,3;
 2/12=2,40=1/2;
 3/5=1,6=6,7=104,11=2,14=-4,16=1,25=1,30=1,70=2,71=2,74=-5,116=1,140=1/1,2,3;
 4/5=101/1;
 5/5=2,98=1/2;
 8/6=4,10=90,11=11/1;
 11/6=1,8=1,9=11,15=111,16=1/1,2,10;
 10/6=1/2;
 6/7=2,8=2,9=2,10=2,18=1,28=1/1;
 7/8=1,10=1,25=1/1,2,3,16;
 1/10=4,30=1/3;
 99//99;
 Structure from the checkpoint file:  "/scratch/puck/g09_ffcf4f12-5be1-4808-9182-9e0d2f125a0c/Gau-81515.chk"
 -----
 titel
 -----
 Charge =  0 Multiplicity = 1
 Redundant internal coordinates found in file.
 O,0,0.3628870334,1.1035704724,0.0607683503
 C,0,-0.7212192178,0.5306980799,0.7911349893
 C,0,-0.2084593286,-0.2956724205,1.9786381458
 C,0,-1.2614489053,-0.6558115759,3.0329316717
 O,0,-0.6326606765,-1.2652428813,4.1649694464
 C,0,-2.4043946608,-1.5195357088,2.5652904152
 C,0,-2.8419572197,-1.7673822065,1.3224051421
 C,0,-2.3871239661,-1.2418068197,0.0352374943
 C,0,-1.5031888201,-0.2690094148,-0.2145202723
 H,0,0.8727706411,1.6472440585,0.6694302004
 H,0,-1.3724014797,1.3368439711,1.1780439586
 H,0,0.2668865447,-1.207670539,1.5986104348
 H,0,0.5675197333,0.2785888977,2.4984402363
 H,0,-1.6785880986,0.2747437659,3.4437698292
 H,0,-0.3193165678,-2.1325396992,3.8835944797
 H,0,-2.9202707869,-2.0030069953,3.3924361455
 H,0,-3.683020841,-2.453253114,1.2417177694
 H,0,-2.8697027677,-1.6968817597,-0.8263377485
 H,0,-1.300714286,0.0124406992,-1.2437923682
 Recover connectivity data from disk.

 GradGradGradGradGradGradGradGradGradGradGradGradGradGradGradGradGradGrad
 Berny optimization.
 Initialization pass.
                           ----------------------------
                           !    Initial Parameters    !
                           ! (Angstroms and Degrees)  !
 --------------------------                            --------------------------
 ! Name  Definition              Value          Derivative Info.                !
 --------------------------------------------------------------------------------
 ! R1    R(1,2)                  1.4272         calculate D2E/DX2 analytically  !
 ! R2    R(1,10)                 0.9623         calculate D2E/DX2 analytically  !
 ! R3    R(2,3)                  1.5349         calculate D2E/DX2 analytically  !
 ! R4    R(2,9)                  1.5041         calculate D2E/DX2 analytically  !
 ! R5    R(2,11)                 1.1062         calculate D2E/DX2 analytically  !
 ! R6    R(3,4)                  1.533          calculate D2E/DX2 analytically  !
 ! R7    R(3,12)                 1.0964         calculate D2E/DX2 analytically  !
 ! R8    R(3,13)                 1.0964         calculate D2E/DX2 analytically  !
 ! R9    R(4,5)                  1.4312         calculate D2E/DX2 analytically  !
 ! R10   R(4,6)                  1.507          calculate D2E/DX2 analytically  !
 ! R11   R(4,14)                 1.0994         calculate D2E/DX2 analytically  !
 ! R12   R(5,15)                 0.9641         calculate D2E/DX2 analytically  !
 ! R13   R(6,7)                  1.3408         calculate D2E/DX2 analytically  !
 ! R14   R(6,16)                 1.0881         calculate D2E/DX2 analytically  !
 ! R15   R(7,8)                  1.4628         calculate D2E/DX2 analytically  !
 ! R16   R(7,17)                 1.0883         calculate D2E/DX2 analytically  !
 ! R17   R(8,9)                  1.3379         calculate D2E/DX2 analytically  !
 ! R18   R(8,18)                 1.0873         calculate D2E/DX2 analytically  !
 ! R19   R(9,19)                 1.0861         calculate D2E/DX2 analytically  !
 ! A1    A(2,1,10)             107.7927         calculate D2E/DX2 analytically  !
 ! A2    A(1,2,3)              110.9937         calculate D2E/DX2 analytically  !
 ! A3    A(1,2,9)              105.4363         calculate D2E/DX2 analytically  !
 ! A4    A(1,2,11)             109.4895         calculate D2E/DX2 analytically  !
 ! A5    A(3,2,9)              113.8723         calculate D2E/DX2 analytically  !
 ! A6    A(3,2,11)             108.5667         calculate D2E/DX2 analytically  !
 ! A7    A(9,2,11)             108.3781         calculate D2E/DX2 analytically  !
 ! A8    A(2,3,4)              115.41           calculate D2E/DX2 analytically  !
 ! A9    A(2,3,12)             108.9353         calculate D2E/DX2 analytically  !
 ! A10   A(2,3,13)             108.7376         calculate D2E/DX2 analytically  !
 ! A11   A(4,3,12)             109.9235         calculate D2E/DX2 analytically  !
 ! A12   A(4,3,13)             106.4475         calculate D2E/DX2 analytically  !
 ! A13   A(12,3,13)            107.0469         calculate D2E/DX2 analytically  !
 ! A14   A(3,4,5)              110.0136         calculate D2E/DX2 analytically  !
 ! A15   A(3,4,6)              116.2436         calculate D2E/DX2 analytically  !
 ! A16   A(3,4,14)             108.5888         calculate D2E/DX2 analytically  !
 ! A17   A(5,4,6)              109.5487         calculate D2E/DX2 analytically  !
 ! A18   A(5,4,14)             103.3876         calculate D2E/DX2 analytically  !
 ! A19   A(6,4,14)             108.2589         calculate D2E/DX2 analytically  !
 ! A20   A(4,5,15)             107.1575         calculate D2E/DX2 analytically  !
 ! A21   A(4,6,7)              129.8756         calculate D2E/DX2 analytically  !
 ! A22   A(4,6,16)             112.2305         calculate D2E/DX2 analytically  !
 ! A23   A(7,6,16)             117.8917         calculate D2E/DX2 analytically  !
 ! A24   A(6,7,8)              130.3749         calculate D2E/DX2 analytically  !
 ! A25   A(6,7,17)             115.9416         calculate D2E/DX2 analytically  !
 ! A26   A(8,7,17)             113.6717         calculate D2E/DX2 analytically  !
 ! A27   A(7,8,9)              129.1172         calculate D2E/DX2 analytically  !
 ! A28   A(7,8,18)             114.133          calculate D2E/DX2 analytically  !
 ! A29   A(9,8,18)             116.7186         calculate D2E/DX2 analytically  !
 ! A30   A(2,9,8)              127.2465         calculate D2E/DX2 analytically  !
 ! A31   A(2,9,19)             113.5109         calculate D2E/DX2 analytically  !
 ! A32   A(8,9,19)             119.2414         calculate D2E/DX2 analytically  !
 ! D1    D(10,1,2,3)           -57.9561         calculate D2E/DX2 analytically  !
 ! D2    D(10,1,2,9)           178.2879         calculate D2E/DX2 analytically  !
 ! D3    D(10,1,2,11)           61.8844         calculate D2E/DX2 analytically  !
 ! D4    D(1,2,3,4)            164.926          calculate D2E/DX2 analytically  !
 ! D5    D(1,2,3,12)           -70.8924         calculate D2E/DX2 analytically  !
 ! D6    D(1,2,3,13)            45.4443         calculate D2E/DX2 analytically  !
 ! D7    D(9,2,3,4)            -76.2846         calculate D2E/DX2 analytically  !
 ! D8    D(9,2,3,12)            47.897          calculate D2E/DX2 analytically  !
 ! D9    D(9,2,3,13)           164.2336         calculate D2E/DX2 analytically  !
 ! D10   D(11,2,3,4)            44.5369         calculate D2E/DX2 analytically  !
 ! D11   D(11,2,3,12)          168.7185         calculate D2E/DX2 analytically  !
 ! D12   D(11,2,3,13)          -74.9449         calculate D2E/DX2 analytically  !
 ! D13   D(1,2,9,8)            161.6097         calculate D2E/DX2 analytically  !
 ! D14   D(1,2,9,19)           -18.7945         calculate D2E/DX2 analytically  !
 ! D15   D(3,2,9,8)             39.6955         calculate D2E/DX2 analytically  !
 ! D16   D(3,2,9,19)          -140.7087         calculate D2E/DX2 analytically  !
 ! D17   D(11,2,9,8)           -81.2314         calculate D2E/DX2 analytically  !
 ! D18   D(11,2,9,19)           98.3644         calculate D2E/DX2 analytically  !
 ! D19   D(2,3,4,5)           -172.3292         calculate D2E/DX2 analytically  !
 ! D20   D(2,3,4,6)             62.4583         calculate D2E/DX2 analytically  !
 ! D21   D(2,3,4,14)           -59.8417         calculate D2E/DX2 analytically  !
 ! D22   D(12,3,4,5)            64.0075         calculate D2E/DX2 analytically  !
 ! D23   D(12,3,4,6)           -61.205          calculate D2E/DX2 analytically  !
 ! D24   D(12,3,4,14)          176.495          calculate D2E/DX2 analytically  !
 ! D25   D(13,3,4,5)           -51.595          calculate D2E/DX2 analytically  !
 ! D26   D(13,3,4,6)          -176.8076         calculate D2E/DX2 analytically  !
 ! D27   D(13,3,4,14)           60.8924         calculate D2E/DX2 analytically  !
 ! D28   D(3,4,5,15)           -69.5568         calculate D2E/DX2 analytically  !
 ! D29   D(6,4,5,15)            59.3994         calculate D2E/DX2 analytically  !
 ! D30   D(14,4,5,15)          174.6307         calculate D2E/DX2 analytically  !
 ! D31   D(3,4,6,7)            -18.3225         calculate D2E/DX2 analytically  !
 ! D32   D(3,4,6,16)           161.1066         calculate D2E/DX2 analytically  !
 ! D33   D(5,4,6,7)           -143.7709         calculate D2E/DX2 analytically  !
 ! D34   D(5,4,6,16)            35.6582         calculate D2E/DX2 analytically  !
 ! D35   D(14,4,6,7)           104.1508         calculate D2E/DX2 analytically  !
 ! D36   D(14,4,6,16)          -76.4202         calculate D2E/DX2 analytically  !
 ! D37   D(4,6,7,8)             -2.7089         calculate D2E/DX2 analytically  !
 ! D38   D(4,6,7,17)           178.6331         calculate D2E/DX2 analytically  !
 ! D39   D(16,6,7,8)           177.8891         calculate D2E/DX2 analytically  !
 ! D40   D(16,6,7,17)           -0.769          calculate D2E/DX2 analytically  !
 ! D41   D(6,7,8,9)             -7.7492         calculate D2E/DX2 analytically  !
 ! D42   D(6,7,8,18)           174.3726         calculate D2E/DX2 analytically  !
 ! D43   D(17,7,8,9)           170.9332         calculate D2E/DX2 analytically  !
 ! D44   D(17,7,8,18)           -6.945          calculate D2E/DX2 analytically  !
 ! D45   D(7,8,9,2)              1.11           calculate D2E/DX2 analytically  !
 ! D46   D(7,8,9,19)          -178.4653         calculate D2E/DX2 analytically  !
 ! D47   D(18,8,9,2)           178.9421         calculate D2E/DX2 analytically  !
 ! D48   D(18,8,9,19)           -0.6331         calculate D2E/DX2 analytically  !
 --------------------------------------------------------------------------------
 Trust Radius=3.00D-01 FncErr=1.00D-07 GrdErr=1.00D-07
 Number of steps in this run=      2 maximum allowed number of steps=      2.
 GradGradGradGradGradGradGradGradGradGradGradGradGradGradGradGradGradGrad

                          Input orientation:                          
 ---------------------------------------------------------------------
 Center     Atomic      Atomic             Coordinates (Angstroms)
 Number     Number       Type             X           Y           Z
 ---------------------------------------------------------------------
      1          8           0        0.362887    1.103570    0.060768
      2          6           0       -0.721219    0.530698    0.791135
      3          6           0       -0.208459   -0.295672    1.978638
      4          6           0       -1.261449   -0.655812    3.032932
      5          8           0       -0.632661   -1.265243    4.164969
      6          6           0       -2.404395   -1.519536    2.565290
      7          6           0       -2.841957   -1.767382    1.322405
      8          6           0       -2.387124   -1.241807    0.035237
      9          6           0       -1.503189   -0.269009   -0.214520
     10          1           0        0.872771    1.647244    0.669430
     11          1           0       -1.372401    1.336844    1.178044
     12          1           0        0.266887   -1.207671    1.598610
     13          1           0        0.567520    0.278589    2.498440
     14          1           0       -1.678588    0.274744    3.443770
     15          1           0       -0.319317   -2.132540    3.883594
     16          1           0       -2.920271   -2.003007    3.392436
     17          1           0       -3.683021   -2.453253    1.241718
     18          1           0       -2.869703   -1.696882   -0.826338
     19          1           0       -1.300714    0.012441   -1.243792
 ---------------------------------------------------------------------
                    Distance matrix (angstroms):
                    1          2          3          4          5
     1  O    0.000000
     2  C    1.427202   0.000000
     3  C    2.441832   1.534918   0.000000
     4  C    3.816759   2.593319   1.532978   0.000000
     5  O    4.842196   3.823088   2.429004   1.431185   0.000000
     6  C    4.561926   3.191264   2.581498   1.506995   2.400558
     7  C    4.483874   3.171900   3.087375   2.580600   3.635011
     8  C    3.614417   2.547232   3.068967   3.255258   4.487023
     9  C    2.332809   1.504111   2.546955   3.279329   4.574957
    10  H    0.962305   1.949946   2.580312   3.930025   4.792463
    11  H    2.077004   1.106168   2.158894   2.724628   4.029863
    12  H    2.777771   2.156454   1.096410   2.167403   2.720055
    13  H    2.581611   2.153903   1.096409   2.122242   2.569274
    14  H    4.037236   2.831703   2.152502   1.099421   1.996410
    15  H    5.054880   4.100935   2.648628   1.947297   0.964137
    16  H    5.615154   4.245263   3.502533   2.166995   2.524730
    17  H    5.514980   4.228387   4.155813   3.507599   4.388789
    18  H    4.367966   3.492035   4.112602   4.308627   5.486695
    19  H    2.379078   2.178379   3.416433   4.328796   5.597631
                    6          7          8          9         10
     6  C    0.000000
     7  C    1.340766   0.000000
     8  C    2.545309   1.462841   0.000000
     9  C    3.178574   2.529735   1.337929   0.000000
    10  H    4.935848   5.087755   4.401787   3.177826   0.000000
    11  H    3.338917   3.437536   2.997517   2.129579   2.322893
    12  H    2.857879   3.170879   3.080434   2.702165   3.062843
    13  H    3.474190   4.146515   4.136289   3.456567   2.304707
    14  H    2.125549   3.166053   3.797373   3.702637   4.011253
    15  H    2.541899   3.613412   4.458597   4.654980   5.102812
    16  H    1.088137   2.084869   3.483454   4.245586   5.926741
    17  H    2.063627   1.088263   2.145354   3.412216   6.156040
    18  H    3.427988   2.150078   1.087330   2.068937   5.237042
    19  H    4.251373   3.482610   2.095075   1.086099   3.325213
                   11         12         13         14         15
    11  H    0.000000
    12  H    3.055928   0.000000
    13  H    2.574227   1.763247   0.000000
    14  H    2.520976   3.063827   2.436937   0.000000
    15  H    4.523894   2.533805   2.918676   2.799300   0.000000
    16  H    4.295816   3.742772   4.262580   2.594718   2.650090
    17  H    4.439353   4.156996   5.206670   4.038409   4.289158
[...]
 1380,-0.00181091,0.00315256,-0.01119757,-0.00479882,0.01042722,-0.0135
 5645,-0.08083042,0.00789696,-0.02369878,0.55424026,-0.00091427,-0.0005
 7915,0.00054847,0.01091065,0.00971126,-0.01848845,0.05552551,0.0042239
 2,-0.11064931,-0.03076891,0.04418311,0.45556238,0.00023830,-0.00076545
 ,0.00113099,-0.00223703,0.00030727,0.00106630,0.00966949,-0.00765978,0
 .01276562,-0.08827908,0.02736125,-0.05156373,0.16310094,-0.00064521,-0
 .00132913,0.00242843,-0.00297071,0.00150984,0.00037965,0.00800389,-0.0
 0786937,0.01684683,0.03692627,-0.10582046,0.05457989,-0.19155591,0.528
 48513,0.00139596,0.00368901,-0.00414874,0.00752118,-0.00309958,0.00075
 296,-0.01840697,0.02494225,-0.03993302,-0.03441018,0.01533988,-0.15504
 925,0.04533225,0.06620252,0.30337728,0.00037683,0.00025908,0.00000581,
 -0.00002084,-0.00116098,-0.00130560,-0.01856507,-0.01726464,-0.0021918
 0,-0.14334235,-0.05268727,-0.01782115,-0.02186725,-0.00865109,-0.02180
 930,0.41047913,0.00011283,0.00038573,-0.00095411,0.00069532,0.00110291
 ,0.00124011,-0.00852725,-0.00585543,-0.00198318,-0.06579075,-0.1250493
 1,-0.02404763,0.01234267,0.00904857,0.01038966,0.20755054,0.31396705,-
 0.00029530,0.00031219,-0.00027382,0.00012180,0.00006036,0.00161250,0.0
 1770923,0.01280831,0.01201152,-0.01158630,-0.01341203,-0.09070291,-0.0
 3874460,-0.01034242,-0.02950483,0.07467989,0.00013225,0.81490363,0.000
 31635,-0.00029969,0.00029867,-0.00450633,0.00445746,0.00053686,0.00172
 063,0.00023570,-0.00145125,0.00008195,-0.00491269,-0.02006823,-0.00419
 439,-0.00049677,-0.00371517,-0.13456258,-0.05446968,-0.13426189,0.4377
 7921,0.00063745,0.00025461,0.00099705,0.00303612,-0.00321419,0.0001213
 9,0.00115947,0.00109797,-0.00025900,-0.00355600,0.00063886,-0.01770220
 ,-0.00324008,-0.00055991,-0.00223085,-0.05665700,-0.08933757,-0.072377
 08,0.24781056,0.33706390,-0.00057411,0.00011848,-0.00053652,0.00002104
 ,-0.00212683,-0.00027153,0.00073334,0.00083333,0.00028913,-0.00641388,
 -0.00622811,-0.00467231,0.00142863,0.00021259,0.00383464,-0.11737691,-
 0.05878138,-0.44868230,0.10111268,0.02333944,0.75913830,-0.00134613,-0
 .00073922,-0.00109114,-0.00536872,-0.01282908,-0.00094405,0.00071050,-
 0.00150473,0.00116612,-0.00317160,0.00399267,0.00061834,0.00013794,0.0
 0030086,-0.00012230,0.01337246,0.00636676,0.00212182,-0.09959898,-0.03
 411708,0.01862330,0.45511619,-0.00117702,-0.00042312,-0.00183471,-0.01
 054387,-0.01207924,-0.00214531,0.00080513,-0.00027308,0.00169441,0.002
 08117,-0.00422625,-0.00147604,0.00096586,0.00051474,0.00096706,0.00507
 418,0.00991772,0.00717163,-0.03659447,-0.09859624,0.03020004,0.3461464
 5,0.49604209,-0.00390105,-0.00346273,-0.00274787,-0.01299824,-0.014309
 29,0.01061235,-0.00055914,-0.00145776,0.00118199,-0.00043346,0.0000501
 6,0.00132334,0.00099238,0.00056892,-0.00019915,0.00621102,0.00786520,-
 0.03955256,0.04887646,0.05385937,-0.20615679,0.00653909,-0.02135470,0.
 59173880,-0.03090668,-0.03041327,-0.01910933,-0.10157683,-0.03020611,-
 0.03176647,-0.00538142,-0.00187732,-0.01365100,0.00027699,-0.00119530,
 -0.00074413,-0.00031891,-0.00024642,0.00017729,-0.00042816,-0.00036579
 ,-0.00706430,-0.00326397,-0.01114007,0.02023587,-0.25786663,-0.2243167
 3,0.03824524,0.45090383,-0.02253816,-0.01620101,-0.01022242,-0.0388836
 5,-0.11061814,-0.03873702,0.00834174,0.01184476,0.00714121,0.00188062,
 0.00103515,-0.00058015,-0.00100874,-0.00086821,0.00052817,-0.00084205,
 -0.00111556,-0.00770620,-0.01131113,-0.00726927,0.02077758,-0.22603162
 ,-0.29813414,0.04785392,0.33438346,0.51007449,0.01165298,0.01052895,0.
 01232943,-0.05197959,-0.04927666,-0.14603075,-0.01742490,-0.01270316,-
 0.02354836,0.00147908,-0.00077170,-0.00048937,-0.00100225,-0.00071379,
 0.00067133,0.00319471,0.00285547,0.00266559,0.02125292,0.02365250,-0.0
 0663202,0.05135273,0.06035903,-0.12431899,-0.04744251,-0.07803198,0.60
 301435,-0.15253845,-0.14598928,-0.13008856,-0.02123048,-0.02101396,-0.
 02286243,0.00216349,0.00085739,-0.00011056,-0.00023259,0.00018946,0.00
 007028,-0.00005469,0.00031621,-0.00039609,-0.00007372,-0.00007309,-0.0
 0003405,-0.00000780,0.00017886,-0.00013221,-0.00032952,-0.00043592,-0.
 00121827,-0.00543279,-0.00276528,0.00422228,0.17597066,-0.15923065,-0.
 16536605,-0.16371547,-0.00809329,-0.01089561,-0.01275310,0.00059941,-0
 .00029248,-0.00244648,-0.00057607,0.00051143,0.00101478,0.00036823,0.0
 0041336,-0.00064187,0.00012769,-0.00020502,-0.00041744,0.00014546,0.00
 021644,-0.00002236,-0.00019661,0.00031263,-0.00087961,-0.00336463,-0.0
 0097628,0.00236134,0.16826298,0.17524196,-0.17299891,-0.19424932,-0.24
 175139,0.01822806,0.01675459,0.00918186,0.00293337,0.00154982,0.002087
 53,-0.00001144,0.00005875,-0.00055823,-0.00013264,-0.00015647,0.000051
 71,-0.00014425,-0.00004759,0.00019487,-0.00003323,-0.00022036,0.000056
 67,0.00017219,0.00050498,0.00122696,0.00143972,0.00111741,-0.00206441,
 0.15062580,0.17496246,0.23226881,-0.02991227,0.00913345,0.02176253,-0.
 11450659,0.09195971,0.03517200,-0.00529113,0.01344390,0.00245807,-0.00
 062727,0.00040477,0.00169261,0.00060525,-0.00030581,-0.00059551,-0.000
 16870,0.00028683,0.00001020,0.00109233,-0.00004976,-0.00125570,-0.0009
 3990,-0.00165050,-0.00050997,0.01027400,-0.01137223,-0.00548627,0.0008
 1643,0.00101101,0.00065583,0.13958589,-0.01362098,0.01475816,0.0090735
 3,0.09927828,-0.17939276,-0.05771212,0.01125919,-0.01552333,-0.0049318
 1,0.00065002,-0.00096790,-0.00141530,-0.00043088,0.00069658,0.00033901
 ,-0.00031028,-0.00004731,0.00046563,0.00085493,-0.00009977,-0.00006626
 ,-0.00049485,0.00067055,-0.00204290,0.00602630,-0.01450383,-0.00806194
 ,0.00084213,0.00143775,-0.00005983,-0.10411760,0.19248701,0.02224187,-
 0.00647502,-0.00964500,0.04063693,-0.05813671,-0.07269374,-0.01381048,
 0.02073760,0.00689832,-0.00139982,-0.00047178,0.00088319,0.00041857,0.
 00000568,0.00018193,0.00038563,-0.00037997,0.00036183,0.00099156,-0.00
 045733,0.00014460,-0.00006507,0.00054321,-0.00145014,0.00780030,-0.020
 29183,-0.00750824,-0.00111790,0.00023283,0.00002097,-0.05210175,0.0607
 0760,0.08652703,0.00114309,-0.00048982,-0.00015209,-0.00741832,0.01048
 834,0.00300834,-0.09205555,0.08788952,0.03819130,-0.01194331,0.0213578
 8,0.00860626,0.00121377,-0.00094047,-0.00192877,0.00133656,0.00102007,
 0.00047261,-0.00031351,-0.00032728,0.00004780,-0.00013654,-0.00016785,
 -0.00036569,0.00065635,0.00093092,0.00078225,0.00005881,-0.00003371,-0
 .00036350,-0.00042333,0.00146304,-0.00196432,0.10048922,-0.00176345,0.
 00167265,0.00015530,0.01004094,-0.01565467,-0.00547487,0.08882798,-0.2
 2691543,-0.07563878,-0.00326286,0.00659570,0.00453139,-0.00117334,0.00
 191133,-0.00144506,0.00013626,0.00077696,-0.00036856,0.00017117,0.0000
 0559,0.00013981,0.00021761,0.00081742,-0.00012362,-0.00192356,0.000126
 93,-0.00119879,0.00039557,-0.00009187,-0.00024720,0.00100791,-0.000920
 99,0.00306711,-0.10001572,0.24552186,0.00042380,-0.00213671,0.00102753
 ,-0.01337646,0.02324798,0.00682606,0.03905450,-0.07749708,-0.07859852,
 0.01083779,-0.01913385,-0.00956932,-0.00116536,-0.00010821,0.00223380,
 -0.00192376,-0.00019672,0.00011856,0.00001301,0.00021112,0.00057022,0.
 00008027,-0.00035887,0.00000310,0.00051436,0.00114334,0.00189229,-0.00
 007034,0.00001395,-0.00017296,-0.00194174,0.00328086,-0.00360376,-0.04
 237821,0.08102463,0.08760266,0.00208109,0.00040587,0.00262696,-0.01050
 394,-0.00783641,-0.00576834,-0.17044799,-0.09370949,-0.08589424,-0.022
 05961,-0.01463344,-0.01059533,0.00255876,0.00203009,-0.00108181,-0.001
 20930,-0.00012911,0.00504664,0.00011324,0.00032787,-0.00019829,0.00002
 498,-0.00010642,0.00045612,0.00078927,0.00216864,-0.00077492,0.0007087
 7,0.00051408,-0.00083344,0.00020596,0.00020553,0.00015539,0.00954203,0
 .00743841,0.00630169,0.18864067,0.00226446,0.00197428,-0.00116535,0.01
 242824,0.00810891,0.01102396,-0.09365431,-0.12140678,-0.06620347,-0.00
 601201,-0.00490446,-0.00414025,0.00125315,0.00039835,-0.00018682,-0.00
 055353,0.00094961,0.00168940,0.00008396,0.00003409,-0.00011101,-0.0000
 9110,0.00022189,0.00027679,-0.00032915,-0.00200050,0.00288675,-0.00050
 280,0.00000180,-0.00024805,-0.00046690,0.00076173,-0.00076880,-0.01928
 010,-0.01448492,-0.01208141,0.10468369,0.12916453,0.00041336,-0.001628
 43,0.00289460,-0.01826337,-0.01293194,-0.01512211,-0.08715283,-0.06809
 272,-0.10204546,0.01816633,0.01357452,0.00821884,0.00016830,-0.0009530
 3,0.00204296,0.00205983,0.00115862,-0.00387113,0.00021729,0.00031277,-
 0.00046540,-0.00022168,0.00001957,-0.00034979,-0.00062847,0.00370284,-
 0.00258981,0.00045406,0.00185647,-0.00118057,0.00056800,0.00025327,0.0
 0062368,-0.00764699,-0.00562167,-0.00511082,0.09208097,0.06845508,0.11
 595709,0.00035992,-0.00063442,0.00012927,-0.00079949,0.00160728,-0.001
 31752,-0.01028276,0.01881402,0.01284447,-0.07826035,0.06722161,0.03493
 399,-0.00783140,0.01996962,-0.00023698,0.00813438,-0.02193644,-0.01214
 007,-0.00188977,-0.00157204,0.00034194,0.00097288,-0.00039746,0.000499
 38,-0.00006933,-0.00042780,-0.00076004,-0.00009226,0.00016671,0.000026
 62,0.00098695,-0.00042581,0.00017564,-0.00276513,-0.00114666,0.0031720
 4,0.00074050,0.00035955,-0.00056754,0.09380992,-0.00016195,0.00022471,
 0.00003705,0.00005787,-0.00069898,-0.00095259,-0.00308923,0.00607303,0
 .00229205,0.07604755,-0.21888388,-0.08041014,0.01220259,-0.01988194,0.
 00307969,0.00187684,-0.01598821,-0.01237013,-0.00139653,-0.00123169,0.
 00143715,0.00045008,-0.00040263,0.00045089,0.00042561,0.00036283,0.000
 10327,0.00004529,-0.00003306,0.00004486,-0.00051335,0.00061208,0.00033
 914,-0.00122961,0.00064520,0.00163700,0.00044172,0.00086505,-0.0000372
 8,-0.08538464,0.24700861,-0.00065797,0.00050979,0.00024759,0.00095452,
 -0.00167711,0.00067028,0.01070612,-0.01908818,-0.01001700,0.04365851,-
 0.08918170,-0.08331966,-0.01671344,0.03184800,0.00351765,0.00054158,-0
 .01107863,-0.00522497,-0.00105617,-0.00096329,0.00174328,0.00075013,0.
 00028899,-0.00006770,-0.00074009,-0.00005122,-0.00041856,0.00017255,-0
 .00012471,0.00001677,-0.00036150,0.00105730,-0.00036943,0.00311607,0.0
 0190215,-0.00256181,-0.00060619,0.00050591,0.00127395,-0.03517865,0.08
 149864,0.09793352,-0.00022700,-0.00000724,-0.00012803,0.00009371,0.000
 13525,0.00078861,0.00164674,-0.00202817,-0.00045326,-0.01007382,0.0203
 2604,0.00487582,-0.05734850,0.13582243,0.02651365,0.00135138,0.0005354
 4,0.00171272,0.00043941,-0.00000955,-0.00064820,-0.00032403,-0.0002173
 7,-0.00029690,0.00003463,0.00029828,0.00043746,0.00003136,-0.00011896,
 0.00002501,-0.00016166,-0.00002225,-0.00020743,0.00042929,0.00052494,0
 .00030373,-0.00009870,-0.00030454,-0.00007408,-0.00141922,0.00176157,-
 0.00376659,0.06683023,0.00011634,0.00052266,-0.00052204,0.00049318,-0.
 00022394,0.00040566,-0.00141340,0.00049141,-0.00142674,0.00674176,-0.0
 1923744,-0.00764336,0.15046037,-0.40792289,-0.11463669,-0.00038303,0.0
 0280402,-0.00053733,0.00005031,-0.00022000,-0.00050091,-0.00034655,0.0
 0002216,0.00000863,0.00021983,0.00031236,0.00031710,-0.00003492,-0.000
 17664,0.00005631,-0.00026232,0.00020718,-0.00020693,-0.00049366,-0.000
 09678,0.00090628,-0.00006529,-0.00022328,0.00005373,0.00131113,0.00011
 335,0.00417920,-0.15655220,0.42386230,-0.00006621,-0.00030887,0.000115
 66,0.00009476,0.00025413,-0.00069032,-0.00126304,0.00195599,0.00180760
 ,-0.01583263,0.03683622,0.00370612,0.04735747,-0.15975909,-0.08777186,
 0.00039184,0.00019561,0.00173306,0.00016324,-0.00010380,-0.00082998,-0
 .00014920,-0.00014975,-0.00011194,0.00003517,-0.00002885,0.00000709,0.
 00001770,0.00011001,-0.00004499,0.00027019,-0.00032852,0.00007659,0.00
 069238,-0.00081443,-0.00081396,0.00007496,-0.00020456,-0.00015173,-0.0
 0249414,0.00287919,-0.00352816,-0.02946861,0.11946334,0.08637691,0.000
 06424,-0.00019284,0.00033556,0.00011955,-0.00003475,-0.00030409,-0.002
 13321,-0.00267348,-0.00319427,-0.01173322,-0.01246068,0.01702603,0.003
 49160,0.00170865,0.00124857,-0.10729346,-0.06706000,0.10174578,0.00722
 128,0.00283600,-0.01066130,0.00442463,-0.00534027,-0.00234454,-0.00039
 310,-0.00025706,-0.00026583,0.00005474,0.00016319,-0.00005755,-0.00007
 137,0.00003054,-0.00000710,0.00016073,0.00018496,-0.00005879,-0.000910
 42,-0.00050462,0.00120589,-0.00008055,-0.00045607,-0.00033828,-0.00115
 446,-0.00001013,0.00009294,0.11097588,0.00002173,-0.00025551,0.0003808
 2,-0.00058147,0.00078974,-0.00083880,-0.00156139,-0.00153906,-0.002924
 76,-0.01044663,-0.00635224,0.01815924,0.00213983,0.00153424,-0.0009602
 7,-0.06844740,-0.09921469,0.09380761,0.00017492,0.00576220,-0.00709203
 ,-0.00538479,0.00729281,0.00010641,0.00002947,-0.00037654,-0.00057872,
 0.00002894,0.00016256,-0.00008660,0.00028458,0.00000964,0.00019090,-0.
 00012360,0.00007288,0.00008646,-0.00119432,-0.00014592,0.00070108,0.00
 074106,0.00025329,-0.00020943,-0.00008567,0.00028840,-0.00000278,0.078
 64510,0.09628043,0.00013388,0.00003703,0.00009481,-0.00023041,0.000000
 80,-0.00021187,-0.00155090,-0.00052285,-0.00043955,-0.00642097,-0.0039
 6011,0.00512470,0.00027633,-0.00112086,0.00162492,0.09913156,0.0924893
 4,-0.20873817,0.01455198,0.01439064,-0.02279294,-0.00357563,-0.0018952
 9,-0.00144189,-0.00006335,-0.00016850,-0.00008598,0.00000958,0.0000449
 6,-0.00001350,0.00009762,0.00004900,0.00007069,-0.00012677,-0.00001529
 ,-0.00000028,-0.00035455,-0.00013240,0.00044244,0.00068727,0.00040321,
 0.00017941,0.00016521,0.00028500,0.00006933,-0.10370534,-0.09996622,0.
 22677467,-0.00014070,-0.00012446,-0.00001913,0.00018966,0.00041126,0.0
 0010720,0.00052862,0.00054966,-0.00000881,0.00590315,-0.00651075,-0.00
 223780,0.00069946,0.00050705,0.00064236,-0.00734120,-0.00883478,-0.001
 16624,-0.21038806,-0.13994838,-0.01445647,-0.00552111,-0.00731264,-0.0
 0303888,0.00088717,-0.00049779,0.00224271,0.00000305,0.00000218,-0.000
 02510,-0.00000513,-0.00002818,-0.00004196,0.00001718,0.00006804,0.0001
 0751,0.00003247,0.00005942,-0.00003666,-0.00151700,-0.00103290,-0.0006
 7073,0.00003495,0.00024294,0.00008106,-0.00233762,0.00491510,0.0003967
 3,0.21882743,-0.00011326,-0.00009276,0.00004895,0.00015290,0.00023029,
 -0.00001006,-0.00016732,-0.00048914,0.00017132,-0.00360308,0.01023228,
 0.00125612,-0.00193895,-0.00066488,-0.00202353,-0.00717182,-0.00236050
 ,0.00008757,-0.14009500,-0.15371483,-0.01265848,-0.01106994,-0.0059652
 7,-0.00075259,-0.00026306,0.00177978,0.00253969,0.00000533,0.00003166,
 -0.00002301,-0.00003173,-0.00002167,0.00000229,-0.00001173,-0.00007367
 ,-0.00004819,-0.00013740,-0.00006704,-0.00003097,0.00158375,0.00079669
 ,0.00067583,0.00008098,-0.00046588,-0.00002295,0.00464180,-0.00400765,
 -0.00049253,0.15724817,0.15533939,0.00012297,-0.00001158,0.00030262,-0
 .00031973,-0.00019461,-0.00055103,0.00017671,0.00000368,-0.00018837,0.
 00080652,0.00147373,-0.00256598,-0.00139155,-0.00004316,-0.00127341,-0
 .02707909,-0.02122427,-0.00455479,-0.01421272,-0.01126086,-0.05422486,
 0.02302743,0.01951700,0.00045478,0.00049402,0.00087186,-0.00450452,0.0
 0005183,0.00006755,0.00000664,0.00001349,0.00005452,0.00005605,-0.0000
 7016,0.00001387,0.00006216,-0.00010684,-0.00006828,0.00014836,-0.00012
 492,-0.00042520,-0.00005200,0.00014459,-0.00012051,-0.00000272,-0.0002
 5017,-0.00073522,0.00053746,0.01801648,0.01099854,0.06565087,-0.000349
 29,-0.00021706,0.00017750,0.00546512,-0.00762243,0.00106872,0.00046503
 ,0.00030285,0.00102356,-0.00028891,-0.00014509,0.00025650,0.00017575,0
 .00011580,-0.00009034,0.00056799,-0.00130181,0.00172028,0.00529537,0.0
 0233406,0.00936769,-0.09967103,-0.05901210,-0.09649013,-0.00822174,-0.
 01128847,-0.01892738,-0.00000853,0.00007873,0.00011072,-0.00090998,-0.
 00097785,-0.00143736,0.00002975,0.00018910,0.00000189,0.00002232,-0.00
 002063,0.00008040,0.00002402,0.00001448,0.00005922,-0.00004405,-0.0000
 4944,0.00001428,0.00015339,-0.00005771,0.00033741,0.00039676,0.0011014
 9,0.00018774,0.10083207,-0.00138077,-0.00133329,-0.00132164,-0.0066679
 6,0.00545502,0.00427520,-0.00001251,-0.00037396,-0.00054114,-0.0003317
 4,-0.00021491,0.00011881,0.00016687,0.00016463,-0.00013425,-0.00129603
 ,0.00024626,0.00117903,0.00353936,0.00573356,0.01232160,-0.05766016,-0
 .09239378,-0.09072609,-0.01421800,-0.01058193,-0.02072687,-0.00043366,
 -0.00030388,0.00026937,0.00100466,0.00063025,0.00092572,-0.00004850,-0
 .00000546,-0.00008406,-0.00009125,0.00009971,-0.00020302,0.00001851,0.
 00000463,-0.00002045,-0.00004272,-0.00001359,0.00001500,0.00011847,0.0
 0002101,0.00046442,0.00073742,0.00008136,-0.00005695,0.07215540,0.0961
 5033,0.00000722,-0.00011674,-0.00003681,0.00050689,0.00171662,0.001104
 08,0.00013487,0.00013055,-0.00008976,0.00066489,0.00032816,0.00027678,
 -0.00040976,-0.00014374,-0.00011856,0.00331303,0.00278242,-0.00243407,
 -0.01348860,-0.01193717,-0.02260475,-0.09713894,-0.09130318,-0.2273035
 4,0.00368916,0.00394955,0.00572679,0.00004815,0.00002954,-0.00000639,0
 .00013615,0.00011961,0.00011676,0.00001974,-0.00002028,0.00000668,-0.0
 0006774,-0.00006344,0.00008387,-0.00006513,-0.00005895,-0.00005305,0.0
 0013037,-0.00000759,0.00003054,-0.00055393,-0.00006871,-0.00119849,0.0
 0012479,0.00019165,0.00092577,0.10225869,0.09442915,0.24408862,0.00086
 899,0.00100023,-0.00062389,0.00367437,0.00014991,-0.01490297,-0.001856
 01,-0.00164980,-0.00132902,0.00006949,-0.00036945,0.00019757,0.0002399
 9,0.00011154,-0.00003784,-0.00074612,-0.00042176,-0.00004824,0.0046656
 1,-0.00770315,-0.00019522,-0.00048539,-0.00780017,0.02033658,-0.049962
 69,-0.02077969,0.04744659,0.00019352,0.00017425,0.00038275,-0.00054946
 ,-0.00018126,-0.00065270,-0.00002108,0.00008269,0.00010407,-0.00023008
 ,0.00058721,-0.00082279,-0.00002133,-0.00005933,0.00013090,-0.00004027
 ,-0.00002491,-0.00001215,-0.00055863,0.00090226,0.00024035,-0.00026911
 ,-0.00021113,0.00051339,-0.00393404,0.00444261,0.00069015,0.04896224,0
 .00072161,0.00045094,0.00022306,0.00016200,0.00702967,-0.01587645,-0.0
 0103668,-0.00221367,-0.00071174,-0.00072655,-0.00015665,0.00021569,0.0
 0020505,0.00024003,-0.00011832,0.00040053,-0.00002523,-0.00018280,-0.0
 0794784,0.00343627,-0.00179266,-0.00700871,-0.00331826,0.02406900,-0.0
 2122525,-0.06289090,0.06645951,0.00012674,0.00001131,0.00001988,0.0002
 3338,-0.00079335,0.00043626,0.00001228,0.00009728,0.00009349,-0.000312
 78,0.00065296,-0.00058888,0.00013203,0.00016093,-0.00007112,-0.0000962
 4,-0.00004342,0.00001411,0.00066117,-0.00057558,0.00010964,-0.00045138
 ,-0.00056816,0.00113989,0.00440069,-0.00336595,0.00004256,0.03174996,0
 .06187179,0.00152158,0.00125426,0.00216341,0.00416669,0.00708023,-0.01
 907084,-0.00120514,-0.00326856,-0.00076905,-0.00043967,-0.00016198,0.0
 0042095,0.00018649,0.00026824,-0.00029038,-0.00026304,-0.00041520,-0.0
 0006202,0.00027258,0.00062764,0.00209255,-0.00114342,-0.00074808,-0.00
 284098,0.04857853,0.06873228,-0.30811587,0.00035819,0.00030714,0.00067
 964,-0.00058424,-0.00078165,-0.00069136,0.00005974,0.00013429,0.000088
 37,-0.00046102,0.00053595,-0.00079898,0.00007438,0.00005215,0.00002989
 ,-0.00005407,-0.00007316,0.00002277,0.00008641,0.00003101,0.00000423,-
 0.00001708,0.00009036,-0.00022705,0.00028062,-0.00018382,0.00148552,-0
 .05141752,-0.07348111,0.32587918\\0.00002806,0.00002850,-0.00006053,-0
 .00004672,-0.00002171,0.00009206,-0.00002876,0.00001785,-0.00000007,-0
 .00002020,0.00004318,-0.00009545,0.00003203,-0.00001926,0.00006409,0.0
 0000444,-0.00000043,0.00000154,0.00000698,-0.00001281,0.00003132,0.000
 02147,0.00001244,-0.00001156,-0.00000043,-0.00001485,-0.00002535,-0.00
 000662,-0.00001590,0.00000802,0.00000767,-0.00000069,-0.00002035,0.000
 00078,-0.00000235,0.00000316,0.00000932,-0.00000864,-0.00000529,0.0000
 0033,-0.00000934,0.00001636,-0.00000525,0.00000219,-0.00000301,-0.0000
 0350,0.00000983,0.00000466,-0.00000186,0.00000111,-0.00000517,0.000000
 19,-0.00001125,0.00000413,0.00000208,0.00000211,0.00000143\\\@


 ... THE UNIVERSE IS NOT ONLY QUEERER THAN WE SUPPOSE,
 BUT QUEERER THAN WE CAN SUPPOSE ... 

                                   -- J. B. S. HALDANE
 Job cpu time:       0 days  0 hours 42 minutes 42.4 seconds.
 File lengths (MBytes):  RWF=    152 Int=      0 D2E=      0 Chk=      8 Scr=      1
 Normal termination of Gaussian 09 at Tue Jan 28 01:25:38 2020.
