 Entering Gaussian System, Link 0=/home/puck/opt/gaussian_09/g09
 Input=dsC7O2H10nsd_2944.com
 Output=dsC7O2H10nsd_2944.log
 Initial command:
 /home/puck/opt/gaussian_09/l1.exe "/scratch/puck/g09_f83f9d8d-1677-4e84-a8c0-379f7369431d/Gau-183250.inp" -scrdir="/scratch/puck/g09_f83f9d8d-1677-4e84-a8c0-379f7369431d/"
 Entering Link 1 = /home/puck/opt/gaussian_09/l1.exe PID=    183265.
  
 Copyright (c) 1988,1990,1992,1993,1995,1998,2003,2009,2013,
            Gaussian, Inc.  All Rights Reserved.
  
 This is part of the Gaussian(R) 09 program.  It is based on
 the Gaussian(R) 03 system (copyright 2003, Gaussian, Inc.),
 the Gaussian(R) 98 system (copyright 1998, Gaussian, Inc.),
 the Gaussian(R) 94 system (copyright 1995, Gaussian, Inc.),
 the Gaussian 92(TM) system (copyright 1992, Gaussian, Inc.),
 the Gaussian 90(TM) system (copyright 1990, Gaussian, Inc.),
 the Gaussian 88(TM) system (copyright 1988, Gaussian, Inc.),
 the Gaussian 86(TM) system (copyright 1986, Carnegie Mellon
 University), and the Gaussian 82(TM) system (copyright 1983,
 Carnegie Mellon University). Gaussian is a federally registered
 trademark of Gaussian, Inc.
  
 This software contains proprietary and confidential information,
 including trade secrets, belonging to Gaussian, Inc.
  
 This software is provided under written license and may be
 used, copied, transmitted, or stored only in accord with that
 written license.
  
 The following legend is applicable only to US Government
 contracts under FAR:
  
                    RESTRICTED RIGHTS LEGEND
  
 Use, reproduction and disclosure by the US Government is
 subject to restrictions as set forth in subparagraphs (a)
 and (c) of the Commercial Computer Software - Restricted
 Rights clause in FAR 52.227-19.
  
 Gaussian, Inc.
 340 Quinnipiac St., Bldg. 40, Wallingford CT 06492
  
  
 ---------------------------------------------------------------
 Warning -- This program may not be used in any manner that
 competes with the business of Gaussian, Inc. or will provide
 assistance to any competitor of Gaussian, Inc.  The licensee
 of this program is prohibited from giving any competitor of
 Gaussian, Inc. access to this program.  By using this program,
 the user acknowledges that Gaussian, Inc. is engaged in the
 business of creating and licensing software in the field of
 computational chemistry and represents and warrants to the
 licensee that it is not a competitor of Gaussian, Inc. and that
 it will not use this program in any manner prohibited above.
 ---------------------------------------------------------------
  

 Cite this work as:
 Gaussian 09, Revision D.01,
 M. J. Frisch, G. W. Trucks, H. B. Schlegel, G. E. Scuseria, 
 M. A. Robb, J. R. Cheeseman, G. Scalmani, V. Barone, B. Mennucci, 
 G. A. Petersson, H. Nakatsuji, M. Caricato, X. Li, H. P. Hratchian, 
 A. F. Izmaylov, J. Bloino, G. Zheng, J. L. Sonnenberg, M. Hada, 
 M. Ehara, K. Toyota, R. Fukuda, J. Hasegawa, M. Ishida, T. Nakajima, 
 Y. Honda, O. Kitao, H. Nakai, T. Vreven, J. A. Montgomery, Jr., 
 J. E. Peralta, F. Ogliaro, M. Bearpark, J. J. Heyd, E. Brothers, 
 K. N. Kudin, V. N. Staroverov, T. Keith, R. Kobayashi, J. Normand, 
 K. Raghavachari, A. Rendell, J. C. Burant, S. S. Iyengar, J. Tomasi, 
 M. Cossi, N. Rega, J. M. Millam, M. Klene, J. E. Knox, J. B. Cross, 
 V. Bakken, C. Adamo, J. Jaramillo, R. Gomperts, R. E. Stratmann, 
 O. Yazyev, A. J. Austin, R. Cammi, C. Pomelli, J. W. Ochterski, 
 R. L. Martin, K. Morokuma, V. G. Zakrzewski, G. A. Voth, 
 P. Salvador, J. J. Dannenberg, S. Dapprich, A. D. Daniels, 
 O. Farkas, J. B. Foresman, J. V. Ortiz, J. Cioslowski, 
 and D. J. Fox, Gaussian, Inc., Wallingford CT, 2013.
 
 ******************************************
 Gaussian 09:  ES64L-G09RevD.01 24-Apr-2013
                27-Jan-2020 
 ******************************************
 -----------------------------
 # b3lyp 6-31G(2df,p) opt Freq
 -----------------------------
 1/14=-1,18=20,19=15,26=3,38=1/1,3;
 2/9=110,12=2,17=6,18=5,40=1/2;
 3/5=1,6=6,7=104,11=2,16=1,25=1,30=1,71=1,74=-5/1,2,3;
 4//1;
 5/5=2,38=5/2;
 6/7=2,8=2,9=2,10=2,28=1/1;
 7//1,2,3,16;
 1/14=-1,18=20,19=15,26=3/3(2);
 2/9=110/2;
 99//99;
 2/9=110/2;
 3/5=1,6=6,7=104,11=2,16=1,25=1,30=1,71=1,74=-5/1,2,3;
 4/5=5,16=3,69=1/1;
 5/5=2,38=5/2;
 7//1,2,3,16;
 1/14=-1,18=20,19=15,26=3/3(-5);
 2/9=110/2;
 6/7=2,8=2,9=2,10=2,19=2,28=1/1;
 99/9=1/99;
 -----
 titel
 -----
 Symbolic Z-matrix:
 Charge =  0 Multiplicity = 1
 C                     1.35464   1.18379  -0.1051 
 C                     1.07414  -0.32336   0.00865 
 C                     1.52678  -1.09737  -1.21457 
 C                     2.505    -1.96917  -0.94836 
 C                     2.82009  -2.01384   0.50362 
 C                     1.6487   -2.46481   1.38147 
 O                     1.90935  -2.82439   2.71181 
 C                     1.85819  -0.99893   1.13953 
 O                     2.19077  -0.20477   2.22662 
 H                     1.05307   1.70366   0.80709 
 H                     2.42044   1.37037  -0.26628 
 H                     0.80227   1.60966  -0.94881 
 H                    -0.0036   -0.45955   0.17398 
 H                     1.09653  -0.91855  -2.19374 
 H                     2.99044  -2.60728  -1.67873 
 H                     3.82645  -2.17167   0.87833 
 H                     0.82444  -2.99912   0.90794 
 H                     2.45059  -3.62037   2.71891 
 H                     2.24677  -0.80055   2.98673 
 

 GradGradGradGradGradGradGradGradGradGradGradGradGradGradGradGradGradGrad
 Berny optimization.
 Initialization pass.
                           ----------------------------
                           !    Initial Parameters    !
                           ! (Angstroms and Degrees)  !
 --------------------------                            --------------------------
 ! Name  Definition              Value          Derivative Info.                !
 --------------------------------------------------------------------------------
 ! R1    R(1,2)                  1.5372         estimate D2E/DX2                !
 ! R2    R(1,10)                 1.0924         estimate D2E/DX2                !
 ! R3    R(1,11)                 1.0939         estimate D2E/DX2                !
 ! R4    R(1,12)                 1.0947         estimate D2E/DX2                !
 ! R5    R(2,3)                  1.5167         estimate D2E/DX2                !
 ! R6    R(2,8)                  1.533          estimate D2E/DX2                !
 ! R7    R(2,13)                 1.0988         estimate D2E/DX2                !
 ! R8    R(3,4)                  1.3371         estimate D2E/DX2                !
 ! R9    R(3,14)                 1.0844         estimate D2E/DX2                !
 ! R10   R(4,5)                  1.4864         estimate D2E/DX2                !
 ! R11   R(4,15)                 1.0846         estimate D2E/DX2                !
 ! R12   R(5,6)                  1.5317         estimate D2E/DX2                !
 ! R13   R(5,8)                  1.5361         estimate D2E/DX2                !
 ! R14   R(5,16)                 1.0854         estimate D2E/DX2                !
 ! R15   R(6,7)                  1.4025         estimate D2E/DX2                !
 ! R16   R(6,8)                  1.5004         estimate D2E/DX2                !
 ! R17   R(6,17)                 1.0905         estimate D2E/DX2                !
 ! R18   R(7,18)                 0.9626         estimate D2E/DX2                !
 ! R19   R(8,9)                  1.3867         estimate D2E/DX2                !
 ! R20   R(9,19)                 0.9674         estimate D2E/DX2                !
 ! A1    A(2,1,10)             110.7583         estimate D2E/DX2                !
 ! A2    A(2,1,11)             110.8485         estimate D2E/DX2                !
 ! A3    A(2,1,12)             110.2664         estimate D2E/DX2                !
 ! A4    A(10,1,11)            108.109          estimate D2E/DX2                !
 ! A5    A(10,1,12)            108.6116         estimate D2E/DX2                !
 ! A6    A(11,1,12)            108.1613         estimate D2E/DX2                !
 ! A7    A(1,2,3)              112.7191         estimate D2E/DX2                !
 ! A8    A(1,2,8)              113.1617         estimate D2E/DX2                !
 ! A9    A(1,2,13)             108.1564         estimate D2E/DX2                !
 ! A10   A(3,2,8)              102.5585         estimate D2E/DX2                !
 ! A11   A(3,2,13)             110.5374         estimate D2E/DX2                !
 ! A12   A(8,2,13)             109.635          estimate D2E/DX2                !
 ! A13   A(2,3,4)              112.9863         estimate D2E/DX2                !
 ! A14   A(2,3,14)             121.7158         estimate D2E/DX2                !
 ! A15   A(4,3,14)             125.2807         estimate D2E/DX2                !
 ! A16   A(3,4,5)              111.6636         estimate D2E/DX2                !
 ! A17   A(3,4,15)             125.2395         estimate D2E/DX2                !
 ! A18   A(5,4,15)             123.0417         estimate D2E/DX2                !
 ! A19   A(4,5,6)              113.9893         estimate D2E/DX2                !
 ! A20   A(4,5,8)              104.5831         estimate D2E/DX2                !
 ! A21   A(4,5,16)             122.5568         estimate D2E/DX2                !
 ! A22   A(6,5,16)             117.9307         estimate D2E/DX2                !
 ! A23   A(8,5,16)             122.2588         estimate D2E/DX2                !
 ! A24   A(5,6,7)              118.4883         estimate D2E/DX2                !
 ! A25   A(5,6,17)             118.2585         estimate D2E/DX2                !
 ! A26   A(7,6,8)              112.178          estimate D2E/DX2                !
 ! A27   A(7,6,17)             115.2616         estimate D2E/DX2                !
 ! A28   A(8,6,17)             120.9457         estimate D2E/DX2                !
 ! A29   A(6,7,18)             108.8746         estimate D2E/DX2                !
 ! A30   A(2,8,5)              107.8205         estimate D2E/DX2                !
 ! A31   A(2,8,6)              118.5608         estimate D2E/DX2                !
 ! A32   A(2,8,9)              116.6526         estimate D2E/DX2                !
 ! A33   A(5,8,9)              123.5531         estimate D2E/DX2                !
 ! A34   A(6,8,9)              117.8129         estimate D2E/DX2                !
 ! A35   A(8,9,19)             106.0897         estimate D2E/DX2                !
 ! D1    D(10,1,2,3)          -177.7509         estimate D2E/DX2                !
 ! D2    D(10,1,2,8)           -61.9329         estimate D2E/DX2                !
 ! D3    D(10,1,2,13)           59.7309         estimate D2E/DX2                !
 ! D4    D(11,1,2,3)           -57.7482         estimate D2E/DX2                !
 ! D5    D(11,1,2,8)            58.0698         estimate D2E/DX2                !
 ! D6    D(11,1,2,13)          179.7336         estimate D2E/DX2                !
 ! D7    D(12,1,2,3)            61.9982         estimate D2E/DX2                !
 ! D8    D(12,1,2,8)           177.8163         estimate D2E/DX2                !
 ! D9    D(12,1,2,13)          -60.52           estimate D2E/DX2                !
 ! D10   D(1,2,3,4)            115.806          estimate D2E/DX2                !
 ! D11   D(1,2,3,14)           -62.7618         estimate D2E/DX2                !
 ! D12   D(8,2,3,4)             -6.2087         estimate D2E/DX2                !
 ! D13   D(8,2,3,14)           175.2235         estimate D2E/DX2                !
 ! D14   D(13,2,3,4)          -123.022          estimate D2E/DX2                !
 ! D15   D(13,2,3,14)           58.4103         estimate D2E/DX2                !
 ! D16   D(1,2,8,5)           -115.9124         estimate D2E/DX2                !
 ! D17   D(1,2,8,6)            178.4551         estimate D2E/DX2                !
 ! D18   D(1,2,8,9)             28.2748         estimate D2E/DX2                !
 ! D19   D(3,2,8,5)              5.8009         estimate D2E/DX2                !
 ! D20   D(3,2,8,6)            -59.8317         estimate D2E/DX2                !
 ! D21   D(3,2,8,9)            149.9881         estimate D2E/DX2                !
 ! D22   D(13,2,8,5)           123.258          estimate D2E/DX2                !
 ! D23   D(13,2,8,6)            57.6255         estimate D2E/DX2                !
 ! D24   D(13,2,8,9)           -92.5548         estimate D2E/DX2                !
 ! D25   D(2,3,4,5)              4.0981         estimate D2E/DX2                !
 ! D26   D(2,3,4,15)          -178.5433         estimate D2E/DX2                !
 ! D27   D(14,3,4,5)          -177.3945         estimate D2E/DX2                !
 ! D28   D(14,3,4,15)           -0.0359         estimate D2E/DX2                !
 ! D29   D(3,4,5,6)             61.6254         estimate D2E/DX2                !
 ! D30   D(3,4,5,8)             -0.0697         estimate D2E/DX2                !
 ! D31   D(3,4,5,16)          -145.1989         estimate D2E/DX2                !
 ! D32   D(15,4,5,6)          -115.8011         estimate D2E/DX2                !
 ! D33   D(15,4,5,8)          -177.4962         estimate D2E/DX2                !
 ! D34   D(15,4,5,16)           37.3746         estimate D2E/DX2                !
 ! D35   D(4,5,6,7)            166.172          estimate D2E/DX2                !
 ! D36   D(4,5,6,17)            18.7198         estimate D2E/DX2                !
 ! D37   D(16,5,6,7)            11.6708         estimate D2E/DX2                !
 ! D38   D(16,5,6,17)         -135.7814         estimate D2E/DX2                !
 ! D39   D(4,5,8,2)             -3.8098         estimate D2E/DX2                !
 ! D40   D(4,5,8,9)           -144.942          estimate D2E/DX2                !
 ! D41   D(16,5,8,2)           141.4508         estimate D2E/DX2                !
 ! D42   D(16,5,8,9)             0.3187         estimate D2E/DX2                !
 ! D43   D(5,6,7,18)           -66.1237         estimate D2E/DX2                !
 ! D44   D(8,6,7,18)          -133.9796         estimate D2E/DX2                !
 ! D45   D(17,6,7,18)           82.2757         estimate D2E/DX2                !
 ! D46   D(7,6,8,2)           -153.4104         estimate D2E/DX2                !
 ! D47   D(7,6,8,9)             -3.5748         estimate D2E/DX2                !
 ! D48   D(17,6,8,2)           -11.9896         estimate D2E/DX2                !
 ! D49   D(17,6,8,9)           137.846          estimate D2E/DX2                !
 ! D50   D(2,8,9,19)           151.732          estimate D2E/DX2                !
 ! D51   D(5,8,9,19)           -70.2151         estimate D2E/DX2                !
 ! D52   D(6,8,9,19)             1.3231         estimate D2E/DX2                !
 --------------------------------------------------------------------------------
 Trust Radius=3.00D-01 FncErr=1.00D-07 GrdErr=1.00D-06
 Number of steps in this run=    114 maximum allowed number of steps=    114.
 GradGradGradGradGradGradGradGradGradGradGradGradGradGradGradGradGradGrad

                          Input orientation:                          
 ---------------------------------------------------------------------
 Center     Atomic      Atomic             Coordinates (Angstroms)
 Number     Number       Type             X           Y           Z
 ---------------------------------------------------------------------
      1          6           0        1.354639    1.183786   -0.105101
      2          6           0        1.074144   -0.323363    0.008648
      3          6           0        1.526781   -1.097370   -1.214574
      4          6           0        2.505004   -1.969168   -0.948362
      5          6           0        2.820092   -2.013840    0.503615
      6          6           0        1.648698   -2.464809    1.381467
      7          8           0        1.909353   -2.824393    2.711814
      8          6           0        1.858191   -0.998933    1.139531
      9          8           0        2.190771   -0.204771    2.226615
     10          1           0        1.053071    1.703656    0.807088
     11          1           0        2.420436    1.370372   -0.266283
     12          1           0        0.802272    1.609662   -0.948807
     13          1           0       -0.003595   -0.459550    0.173977
     14          1           0        1.096535   -0.918549   -2.193739
     15          1           0        2.990442   -2.607282   -1.678735
     16          1           0        3.826451   -2.171666    0.878325
     17          1           0        0.824439   -2.999121    0.907936
     18          1           0        2.450590   -3.620366    2.718910
     19          1           0        2.246768   -0.800545    2.986734
 ---------------------------------------------------------------------
                    Distance matrix (angstroms):
                    1          2          3          4          5
     1  C    0.000000
     2  C    1.537243   0.000000
     3  C    2.542486   1.516653   0.000000
     4  C    3.460570   2.381575   1.337094   0.000000
     5  C    3.569720   2.480129   2.337679   1.486444   0.000000
     6  C    3.950772   2.607783   2.936695   2.531210   1.531719
     7  O    4.930336   3.776219   4.306448   3.805667   2.522417
     8  C    2.562603   1.532978   2.379356   2.391448   1.536125
     9  O    2.839737   2.486021   3.616545   3.645863   2.576336
    10  H    1.092381   2.178705   3.486726   4.321961   4.127255
    11  H    1.093945   2.181016   2.790632   3.409532   3.493617
    12  H    1.094677   2.174217   2.814883   3.963245   4.394416
    13  H    2.150172   1.098819   2.162623   3.135548   3.240014
    14  H    2.974700   2.281503   1.084368   2.153729   3.383199
    15  H    4.418639   3.425747   2.153505   1.084566   2.268004
    16  H    4.282060   3.427499   3.289805   2.263629   1.085391
    17  H    4.336365   2.833858   2.935130   2.707571   2.262053
    18  H    5.679439   4.484457   4.763531   4.022226   2.761339
    19  H    3.780596   3.236008   4.272877   4.113071   2.822528
                    6          7          8          9         10
     6  C    0.000000
     7  O    1.402521   0.000000
     8  C    1.500404   2.409771   0.000000
     9  O    2.473032   2.678999   1.386742   0.000000
    10  H    4.249797   4.986424   2.839493   2.636572   0.000000
    11  H    4.244911   5.169751   2.811768   2.957763   1.769997
    12  H    4.769478   5.855477   3.504410   3.911956   1.776204
    13  H    2.865164   3.961372   2.165520   3.015540   2.489344
    14  H    3.934197   5.325164   3.420128   4.609378   3.985324
    15  H    3.344460   4.526898   3.436772   4.654384   5.340122
    16  H    2.254261   2.731849   2.305987   2.891714   4.766007
    17  H    1.090469   2.112237   2.263411   3.378486   4.709411
    18  H    1.940902   0.962581   3.117256   3.460657   5.826949
    19  H    2.388377   2.070118   1.898027   0.967400   3.528001
                   11         12         13         14         15
    11  H    0.000000
    12  H    1.772442   0.000000
    13  H    3.068937   2.488313   0.000000
    14  H    3.272149   2.833425   2.650858   0.000000
    15  H    4.259303   4.806609   4.124264   2.589195   0.000000
    16  H    3.979075   5.175181   4.254021   4.296548   2.725294
    17  H    4.797756   4.968789   2.770154   3.744757   3.396464
    18  H    5.815475   6.597142   4.742412   5.767790   4.545004
    19  H    3.914737   4.835716   3.618289   5.307944   5.058058
                   16         17         18         19
    16  H    0.000000
    17  H    3.114102   0.000000
    18  H    2.716519   2.511960   0.000000
    19  H    2.969976   3.343375   2.839835   0.000000
 Stoichiometry    C7H10O2
 Framework group  C1[X(C7H10O2)]
 Deg. of freedom    51
 Full point group                 C1      NOp   1
 Largest Abelian subgroup         C1      NOp   1
 Largest concise Abelian subgroup C1      NOp   1
                         Standard orientation:                         
 ---------------------------------------------------------------------
 Center     Atomic      Atomic             Coordinates (Angstroms)
 Number     Number       Type             X           Y           Z
 ---------------------------------------------------------------------
      1          6           0       -2.260701   -1.147144    0.053493
      2          6           0       -1.201072   -0.225045   -0.571035
      3          6           0       -1.466415    1.242668   -0.295993
      4          6           0       -0.515061    1.814524    0.449478
      5          6           0        0.602652    0.875023    0.727992
      6          6           0        1.333433    0.387202   -0.526661
      7          8           0        2.569807   -0.256831   -0.372823
      8          6           0        0.198520   -0.427357    0.020769
      9          8           0        0.488077   -1.689994    0.515702
     10          1           0       -2.017593   -2.196211   -0.129954
     11          1           0       -2.319527   -0.995888    1.135333
     12          1           0       -3.246049   -0.936851   -0.374510
     13          1           0       -1.175684   -0.416073   -1.652823
     14          1           0       -2.358861    1.738799   -0.661025
     15          1           0       -0.516663    2.846838    0.782059
     16          1           0        1.149598    0.879517    1.665490
     17          1           0        1.219001    0.961163   -1.446768
     18          1           0        3.210095    0.375739   -0.031577
     19          1           0        1.444478   -1.801665    0.422483
 ---------------------------------------------------------------------
 Rotational constants (GHZ):      2.6417444      1.5794430      1.1396652
 Standard basis: 6-31G(2df,p) (6D, 7F)
 There are   329 symmetry adapted cartesian basis functions of A   symmetry.
 There are   302 symmetry adapted basis functions of A   symmetry.
   302 basis functions,   466 primitive gaussians,   329 cartesian basis functions
    34 alpha electrons       34 beta electrons
       nuclear repulsion energy       468.0876128281 Hartrees.
 NAtoms=   19 NActive=   19 NUniq=   19 SFac= 1.00D+00 NAtFMM=   60 NAOKFM=F Big=F
 Integral buffers will be    131072 words long.
 Raffenetti 2 integral format.
 Two-electron integral symmetry is turned on.
 One-electron integrals computed using PRISM.
 NBasis=   302 RedAO= T EigKep=  3.55D-04  NBF=   302
 NBsUse=   302 1.00D-06 EigRej= -1.00D+00 NBFU=   302
 ExpMin= 1.61D-01 ExpMax= 5.48D+03 ExpMxC= 8.25D+02 IAcc=1 IRadAn=         1 AccDes= 0.00D+00
 Harris functional with IExCor=  402 and IRadAn=       1 diagonalized for initial guess.
 HarFok:  IExCor=  402 AccDes= 0.00D+00 IRadAn=         1 IDoV= 1 UseB2=F ITyADJ=14
 ICtDFT=  3500011 ScaDFX=  1.000000  1.000000  1.000000  1.000000
 FoFCou: FMM=F IPFlag=           0 FMFlag=      100000 FMFlg1=           0
         NFxFlg=           0 DoJE=T BraDBF=F KetDBF=T FulRan=T
         wScrn=  0.000000 ICntrl=     500 IOpCl=  0 I1Cent=   200000004 NGrid=           0
         NMat0=    1 NMatS0=      1 NMatT0=    0 NMatD0=    1 NMtDS0=    0 NMtDT0=    0
 Petite list used in FoFCou.
 Requested convergence on RMS density matrix=1.00D-08 within 128 cycles.
 Requested convergence on MAX density matrix=1.00D-06.
 Requested convergence on             energy=1.00D-06.
 No special actions if energy rises.
 Integral accuracy reduced to 1.0D-05 until final iterations.
 Initial convergence to 1.0D-05 achieved.  Increase integral accuracy.
 SCF Done:  E(RB3LYP) =  -423.173325508     A.U. after   14 cycles
            NFock= 14  Conv=0.21D-08     -V/T= 2.0074

 **********************************************************************

            Population analysis using the SCF density.

 **********************************************************************

 Orbital symmetries:
       Occupied  (A) (A) (A) (A) (A) (A) (A) (A) (A) (A) (A) (A)
                 (A) (A) (A) (A) (A) (A) (A) (A) (A) (A) (A) (A)
                 (A) (A) (A) (A) (A) (A) (A) (A) (A) (A)
       Virtual   (A) (A) (A) (A) (A) (A) (A) (A) (A) (A) (A) (A)
                 (A) (A) (A) (A) (A) (A) (A) (A) (A) (A) (A) (A)
                 (A) (A) (A) (A) (A) (A) (A) (A) (A) (A) (A) (A)
                 (A) (A) (A) (A) (A) (A) (A) (A) (A) (A) (A) (A)
                 (A) (A) (A) (A) (A) (A) (A) (A) (A) (A) (A) (A)
                 (A) (A) (A) (A) (A) (A) (A) (A) (A) (A) (A) (A)
                 (A) (A) (A) (A) (A) (A) (A) (A) (A) (A) (A) (A)
                 (A) (A) (A) (A) (A) (A) (A) (A) (A) (A) (A) (A)
                 (A) (A) (A) (A) (A) (A) (A) (A) (A) (A) (A) (A)
                 (A) (A) (A) (A) (A) (A) (A) (A) (A) (A) (A) (A)
                 (A) (A) (A) (A) (A) (A) (A) (A) (A) (A) (A) (A)
                 (A) (A) (A) (A) (A) (A) (A) (A) (A) (A) (A) (A)
                 (A) (A) (A) (A) (A) (A) (A) (A) (A) (A) (A) (A)
                 (A) (A) (A) (A) (A) (A) (A) (A) (A) (A) (A) (A)
                 (A) (A) (A) (A) (A) (A) (A) (A) (A) (A) (A) (A)
                 (A) (A) (A) (A) (A) (A) (A) (A) (A) (A) (A) (A)
                 (A) (A) (A) (A) (A) (A) (A) (A) (A) (A) (A) (A)
                 (A) (A) (A) (A) (A) (A) (A) (A) (A) (A) (A) (A)
                 (A) (A) (A) (A) (A) (A) (A) (A) (A) (A) (A) (A)
                 (A) (A) (A) (A) (A) (A) (A) (A) (A) (A) (A) (A)
                 (A) (A) (A) (A) (A) (A) (A) (A) (A) (A) (A) (A)
                 (A) (A) (A) (A) (A) (A) (A) (A) (A) (A) (A) (A)
                 (A) (A) (A) (A)
 The electronic state is 1-A.
 Alpha  occ. eigenvalues --  -19.16137 -19.13444 -10.23544 -10.23300 -10.18820
 Alpha  occ. eigenvalues --  -10.18429 -10.18154 -10.17623 -10.16577  -1.05131
 Alpha  occ. eigenvalues --   -1.01546  -0.87048  -0.77027  -0.72671  -0.64293
 Alpha  occ. eigenvalues --   -0.61478  -0.55935  -0.54507  -0.52293  -0.50473
 Alpha  occ. eigenvalues --   -0.48443  -0.42114  -0.41602  -0.41046  -0.38733
 Alpha  occ. eigenvalues --   -0.37290  -0.36353  -0.35547  -0.34915  -0.32853
 Alpha  occ. eigenvalues --   -0.31099  -0.29171  -0.23987  -0.21707
 Alpha virt. eigenvalues --    0.01809   0.06328   0.11009   0.11988   0.12983
 Alpha virt. eigenvalues --    0.14356   0.15503   0.15917   0.16848   0.17646
 Alpha virt. eigenvalues --    0.18454   0.19504   0.20119   0.21412   0.23969
 Alpha virt. eigenvalues --    0.24483   0.27430   0.29405   0.32831   0.34816
 Alpha virt. eigenvalues --    0.40349   0.44466   0.45206   0.47451   0.48435
 Alpha virt. eigenvalues --    0.49525   0.51931   0.52124   0.53598   0.55059
 Alpha virt. eigenvalues --    0.56018   0.57017   0.57843   0.58847   0.60221
 Alpha virt. eigenvalues --    0.61237   0.65723   0.67026   0.68128   0.69463
 Alpha virt. eigenvalues --    0.70050   0.72453   0.73469   0.74559   0.74950
 Alpha virt. eigenvalues --    0.76884   0.78005   0.78409   0.79399   0.80028
 Alpha virt. eigenvalues --    0.81897   0.84070   0.84485   0.88150   0.89659
 Alpha virt. eigenvalues --    0.91518   0.93204   0.93689   0.95800   0.96782
 Alpha virt. eigenvalues --    0.98341   0.99055   1.01405   1.06411   1.08836
 Alpha virt. eigenvalues --    1.09781   1.14608   1.16071   1.17990   1.19337
 Alpha virt. eigenvalues --    1.22196   1.24371   1.26523   1.31456   1.34344
 Alpha virt. eigenvalues --    1.34787   1.37038   1.39172   1.39668   1.41294
 Alpha virt. eigenvalues --    1.43223   1.44052   1.45683   1.46942   1.48059
 Alpha virt. eigenvalues --    1.52187   1.55665   1.56196   1.57480   1.59546
 Alpha virt. eigenvalues --    1.62090   1.63789   1.65673   1.68261   1.70324
 Alpha virt. eigenvalues --    1.71411   1.75376   1.76463   1.83640   1.85358
 Alpha virt. eigenvalues --    1.87763   1.90404   1.92046   1.95758   1.98466
 Alpha virt. eigenvalues --    1.99233   2.02976   2.04037   2.09002   2.14213
 Alpha virt. eigenvalues --    2.20166   2.21895   2.24650   2.28296   2.29528
 Alpha virt. eigenvalues --    2.33599   2.34870   2.38229   2.43413   2.47000
 Alpha virt. eigenvalues --    2.50204   2.52256   2.55718   2.57073   2.58318
 Alpha virt. eigenvalues --    2.61125   2.63448   2.67013   2.70168   2.75929
 Alpha virt. eigenvalues --    2.77373   2.80133   2.81489   2.83401   2.86123
 Alpha virt. eigenvalues --    2.90111   2.90835   2.92257   2.93444   2.94502
 Alpha virt. eigenvalues --    2.96034   2.97826   2.98422   3.00973   3.04584
 Alpha virt. eigenvalues --    3.06731   3.08787   3.11075   3.12935   3.13375
 Alpha virt. eigenvalues --    3.16763   3.17865   3.20278   3.22466   3.24488
 Alpha virt. eigenvalues --    3.25848   3.28398   3.30491   3.31394   3.33457
 Alpha virt. eigenvalues --    3.36748   3.38750   3.41655   3.44221   3.47683
 Alpha virt. eigenvalues --    3.50348   3.52959   3.56338   3.58353   3.61572
 Alpha virt. eigenvalues --    3.66576   3.68197   3.69716   3.71949   3.78916
 Alpha virt. eigenvalues --    3.83977   3.87351   3.91879   3.93652   3.97876
 Alpha virt. eigenvalues --    4.00354   4.02696   4.05321   4.07077   4.10680
 Alpha virt. eigenvalues --    4.12195   4.16207   4.19497   4.23698   4.26786
 Alpha virt. eigenvalues --    4.27648   4.31232   4.36064   4.37031   4.38587
 Alpha virt. eigenvalues --    4.41958   4.43740   4.45763   4.46289   4.50331
 Alpha virt. eigenvalues --    4.53435   4.54313   4.54707   4.57258   4.58798
 Alpha virt. eigenvalues --    4.59096   4.61816   4.64409   4.67434   4.69055
 Alpha virt. eigenvalues --    4.70956   4.72788   4.73989   4.77022   4.78397
 Alpha virt. eigenvalues --    4.78773   4.80191   4.81788   4.84240   4.86948
 Alpha virt. eigenvalues --    4.88097   4.90479   4.91591   4.93701   5.02241
 Alpha virt. eigenvalues --    5.04024   5.06044   5.09381   5.14891   5.21602
 Alpha virt. eigenvalues --    5.25517   5.29110   5.33393   5.36323   5.38326
 Alpha virt. eigenvalues --    5.41378   5.43884   5.44882   5.46643   5.48235
 Alpha virt. eigenvalues --    5.50420   5.53902   5.55717   5.62196   5.62593
 Alpha virt. eigenvalues --    5.70516   5.75851   5.83207   5.87635   5.95825
 Alpha virt. eigenvalues --    5.97071   6.02290   6.08782   6.14477   6.30320
 Alpha virt. eigenvalues --    6.41092   6.89625   7.16381   7.26417  10.35293
 Alpha virt. eigenvalues --   11.14520  11.41510  11.97187  12.12260  12.38653
 Alpha virt. eigenvalues --   12.72657  13.39053  13.58854
          Condensed to atoms (all electrons):
               1          2          3          4          5          6
     1  C    5.006425   0.367668  -0.026655  -0.005398   0.002134   0.004728
     2  C    0.367668   4.902600   0.333724   0.016847  -0.117568  -0.035319
     3  C   -0.026655   0.333724   4.863016   0.668613   0.014665  -0.007733
     4  C   -0.005398   0.016847   0.668613   4.815699   0.293526   0.004903
     5  C    0.002134  -0.117568   0.014665   0.293526   5.287715   0.266028
     6  C    0.004728  -0.035319  -0.007733   0.004903   0.266028   4.871612
     7  O   -0.000014   0.000316   0.000125   0.002335  -0.026744   0.386842
     8  C   -0.014798   0.406234  -0.033795  -0.022527   0.259830   0.288314
     9  O   -0.006625  -0.028888   0.000217   0.003268  -0.036881  -0.029960
    10  H    0.369018  -0.018441   0.003728   0.000070  -0.000017   0.000076
    11  H    0.373625  -0.023973  -0.004371   0.002440   0.001996   0.000166
    12  H    0.366903  -0.021697  -0.001743   0.000157  -0.000113  -0.000108
    13  H   -0.047162   0.358195  -0.040777   0.001026   0.009589  -0.007565
    14  H    0.000399  -0.050522   0.368946  -0.041084   0.005965  -0.000259
    15  H   -0.000200   0.006532  -0.048918   0.370556  -0.051130   0.001035
    16  H    0.000220   0.004536   0.002871  -0.032519   0.362252  -0.030911
    17  H    0.000092  -0.003348   0.001469   0.003291  -0.042195   0.365489
    18  H    0.000004  -0.000061   0.000025   0.000123  -0.003989  -0.070475
    19  H   -0.000275   0.007089  -0.000355  -0.000030   0.006464  -0.009320
               7          8          9         10         11         12
     1  C   -0.000014  -0.014798  -0.006625   0.369018   0.373625   0.366903
     2  C    0.000316   0.406234  -0.028888  -0.018441  -0.023973  -0.021697
     3  C    0.000125  -0.033795   0.000217   0.003728  -0.004371  -0.001743
     4  C    0.002335  -0.022527   0.003268   0.000070   0.002440   0.000157
     5  C   -0.026744   0.259830  -0.036881  -0.000017   0.001996  -0.000113
     6  C    0.386842   0.288314  -0.029960   0.000076   0.000166  -0.000108
     7  O    7.807583  -0.037007  -0.009483   0.000000   0.000000   0.000000
     8  C   -0.037007   4.491998   0.441008  -0.003222  -0.004980   0.002223
     9  O   -0.009483   0.441008   7.824987   0.006104   0.000362   0.000272
    10  H    0.000000  -0.003222   0.006104   0.575932  -0.029517  -0.031234
    11  H    0.000000  -0.004980   0.000362  -0.029517   0.588933  -0.032499
    12  H    0.000000   0.002223   0.000272  -0.031234  -0.032499   0.613309
    13  H   -0.000009  -0.040940   0.001449  -0.002404   0.006211  -0.002594
    14  H    0.000001   0.004414  -0.000025  -0.000130  -0.000079   0.002003
    15  H   -0.000014   0.003799  -0.000020   0.000006  -0.000038   0.000003
    16  H   -0.001690  -0.029442  -0.000923  -0.000008  -0.000110   0.000001
    17  H   -0.034339  -0.061170   0.001554  -0.000008   0.000010  -0.000006
    18  H    0.316642   0.006457   0.000399   0.000000   0.000000   0.000000
    19  H    0.035101  -0.084341   0.318142  -0.000172  -0.000042   0.000002
              13         14         15         16         17         18
     1  C   -0.047162   0.000399  -0.000200   0.000220   0.000092   0.000004
     2  C    0.358195  -0.050522   0.006532   0.004536  -0.003348  -0.000061
     3  C   -0.040777   0.368946  -0.048918   0.002871   0.001469   0.000025
     4  C    0.001026  -0.041084   0.370556  -0.032519   0.003291   0.000123
     5  C    0.009589   0.005965  -0.051130   0.362252  -0.042195  -0.003989
     6  C   -0.007565  -0.000259   0.001035  -0.030911   0.365489  -0.070475
     7  O   -0.000009   0.000001  -0.000014  -0.001690  -0.034339   0.316642
     8  C   -0.040940   0.004414   0.003799  -0.029442  -0.061170   0.006457
     9  O    0.001449  -0.000025  -0.000020  -0.000923   0.001554   0.000399
    10  H   -0.002404  -0.000130   0.000006  -0.000008  -0.000008   0.000000
    11  H    0.006211  -0.000079  -0.000038  -0.000110   0.000010   0.000000
    12  H   -0.002594   0.002003   0.000003   0.000001  -0.000006   0.000000
    13  H    0.678325  -0.000228  -0.000163  -0.000172   0.003884  -0.000021
    14  H   -0.000228   0.621882  -0.004582  -0.000182  -0.000128  -0.000001
    15  H   -0.000163  -0.004582   0.629567  -0.001737   0.000952  -0.000018
    16  H   -0.000172  -0.000182  -0.001737   0.634317   0.002441   0.003949
    17  H    0.003884  -0.000128   0.000952   0.002441   0.670242  -0.000663
    18  H   -0.000021  -0.000001  -0.000018   0.003949  -0.000663   0.454130
    19  H   -0.000014   0.000004   0.000005   0.000174   0.001594  -0.002195
              19
     1  C   -0.000275
     2  C    0.007089
     3  C   -0.000355
     4  C   -0.000030
     5  C    0.006464
     6  C   -0.009320
     7  O    0.035101
     8  C   -0.084341
     9  O    0.318142
    10  H   -0.000172
    11  H   -0.000042
    12  H    0.000002
    13  H   -0.000014
    14  H    0.000004
    15  H    0.000005
    16  H    0.000174
    17  H    0.001594
    18  H   -0.002195
    19  H    0.436087
 Mulliken charges:
               1
     1  C   -0.390089
     2  C   -0.103923
     3  C   -0.093054
     4  C   -0.081296
     5  C   -0.231526
     6  C    0.002455
     7  O   -0.439644
     8  C    0.427943
     9  O   -0.484958
    10  H    0.130218
    11  H    0.121866
    12  H    0.105119
    13  H    0.083369
    14  H    0.093606
    15  H    0.094367
    16  H    0.086932
    17  H    0.090840
    18  H    0.295694
    19  H    0.292080
 Sum of Mulliken charges =   0.00000
 Mulliken charges with hydrogens summed into heavy atoms:
               1
     1  C   -0.032885
     2  C   -0.020554
     3  C    0.000552
     4  C    0.013071
     5  C   -0.144593
     6  C    0.093296
     7  O   -0.143951
     8  C    0.427943
     9  O   -0.192878
 Electronic spatial extent (au):  <R**2>=           1101.6659
 Charge=              0.0000 electrons
 Dipole moment (field-independent basis, Debye):
    X=              1.1810    Y=              1.8041    Z=             -0.1312  Tot=              2.1602
 Quadrupole moment (field-independent basis, Debye-Ang):
   XX=            -46.7696   YY=            -54.0022   ZZ=            -53.5475
   XY=              1.7100   XZ=              3.2780   YZ=              1.0355
 Traceless Quadrupole moment (field-independent basis, Debye-Ang):
   XX=              4.6702   YY=             -2.5624   ZZ=             -2.1078
   XY=              1.7100   XZ=              3.2780   YZ=              1.0355
 Octapole moment (field-independent basis, Debye-Ang**2):
  XXX=             34.2843  YYY=             -4.1306  ZZZ=              0.4258  XYY=              8.0431
  XXY=              4.7194  XXZ=              4.3597  XZZ=              5.3958  YZZ=             -1.4928
  YYZ=              0.5346  XYZ=             -0.9811
 Hexadecapole moment (field-independent basis, Debye-Ang**3):
 XXXX=           -695.7183 YYYY=           -455.5992 ZZZZ=           -150.1796 XXXY=             14.5121
 XXXZ=             24.0563 YYYX=            -19.3663 YYYZ=              6.3320 ZZZX=             -0.1231
 ZZZY=             -1.9965 XXYY=           -197.2964 XXZZ=           -157.9712 YYZZ=           -105.2878
 XXYZ=             -8.8384 YYXZ=              2.5189 ZZXY=              1.0388
 N-N= 4.680876128281D+02 E-N=-1.923407688863D+03  KE= 4.200476603768D+02
 Calling FoFJK, ICntrl=      2127 FMM=F ISym2X=0 I1Cent= 0 IOpClX= 0 NMat=1 NMatS=1 NMatT=0.
 ***** Axes restored to original set *****
 -------------------------------------------------------------------
 Center     Atomic                   Forces (Hartrees/Bohr)
 Number     Number              X              Y              Z
 -------------------------------------------------------------------
      1        6           0.000003750    0.000001186    0.000005076
      2        6           0.000009646   -0.000001497   -0.000040082
      3        6          -0.000022886    0.000022849    0.000022328
      4        6           0.000013386   -0.000019408    0.000002679
      5        6           0.000017948    0.000026387    0.000009695
      6        6          -0.000031418    0.000014035   -0.000078523
      7        8          -0.000009923   -0.000003546    0.000043421
      8        6           0.000021890   -0.000042891    0.000009913
      9        8           0.000000780    0.000026262   -0.000009742
     10        1          -0.000003595   -0.000007887    0.000001100
     11        1           0.000003002    0.000004355   -0.000001396
     12        1           0.000003387    0.000000981   -0.000003889
     13        1          -0.000006384    0.000001267    0.000002352
     14        1           0.000015786   -0.000004909   -0.000000661
     15        1           0.000000884    0.000008396    0.000005071
     16        1          -0.000008050   -0.000002902    0.000008622
     17        1           0.000000641    0.000000774    0.000015173
     18        1           0.000004412   -0.000010878   -0.000003808
     19        1          -0.000013254   -0.000012573    0.000012671
 -------------------------------------------------------------------
 Cartesian Forces:  Max     0.000078523 RMS     0.000018300

 GradGradGradGradGradGradGradGradGradGradGradGradGradGradGradGradGradGrad
 Berny optimization.
 FormGI is forming the generalized inverse of G from B-inverse, IUseBI=4.
 Internal  Forces:  Max     0.000042025 RMS     0.000007446
 Search for a local minimum.
 Step number   1 out of a maximum of  114
 All quantities printed in internal units (Hartrees-Bohrs-Radians)
 Mixed Optimization -- En-DIIS/RFO-DIIS
 Second derivative matrix not updated -- first step.
 ITU=  0
     Eigenvalues ---    0.00273   0.00738   0.01306   0.01635   0.01658
     Eigenvalues ---    0.01867   0.01919   0.02119   0.02476   0.02843
     Eigenvalues ---    0.03806   0.04244   0.04834   0.05506   0.05554
     Eigenvalues ---    0.06038   0.06562   0.10319   0.11049   0.12091
     Eigenvalues ---    0.14013   0.15966   0.15994   0.16000   0.16000
     Eigenvalues ---    0.16000   0.16000   0.16000   0.17765   0.18259
     Eigenvalues ---    0.20521   0.22123   0.23607   0.27884   0.28765
     Eigenvalues ---    0.29527   0.30342   0.32801   0.33813   0.34278
     Eigenvalues ---    0.34361   0.34539   0.34758   0.35351   0.35448
     Eigenvalues ---    0.35472   0.45205   0.47890   0.53912   0.54100
     Eigenvalues ---    0.54922
 RFO step:  Lambda=-3.04559567D-08 EMin= 2.73296960D-03
 Linear search not attempted -- first point.
 Iteration  1 RMS(Cart)=  0.00010204 RMS(Int)=  0.00000001
 Iteration  2 RMS(Cart)=  0.00000001 RMS(Int)=  0.00000000
 Variable       Old X    -DE/DX   Delta X   Delta X   Delta X     New X
                                 (Linear)    (Quad)   (Total)
    R1        2.90497   0.00000   0.00000  -0.00001  -0.00001   2.90496
    R2        2.06430   0.00000   0.00000   0.00000   0.00000   2.06430
    R3        2.06726   0.00000   0.00000   0.00001   0.00001   2.06726
    R4        2.06864   0.00000   0.00000   0.00001   0.00001   2.06865
    R5        2.86606  -0.00003   0.00000  -0.00008  -0.00008   2.86598
    R6        2.89691   0.00001   0.00000   0.00004   0.00004   2.89695
    R7        2.07647   0.00001   0.00000   0.00002   0.00002   2.07649
    R8        2.52674   0.00001   0.00000   0.00002   0.00002   2.52677
    R9        2.04916  -0.00001   0.00000  -0.00002  -0.00002   2.04914
   R10        2.80897   0.00000   0.00000  -0.00001  -0.00001   2.80896
   R11        2.04953  -0.00001   0.00000  -0.00002  -0.00002   2.04951
   R12        2.89453   0.00000   0.00000   0.00003   0.00003   2.89456
   R13        2.90286  -0.00001   0.00000  -0.00007  -0.00007   2.90278
   R14        2.05109   0.00000   0.00000  -0.00001  -0.00001   2.05108
   R15        2.65038   0.00004   0.00000   0.00009   0.00009   2.65047
   R16        2.83535   0.00000   0.00000  -0.00003  -0.00003   2.83532
   R17        2.06069  -0.00001   0.00000  -0.00003  -0.00003   2.06066
   R18        1.81901   0.00001   0.00000   0.00003   0.00003   1.81904
   R19        2.62056   0.00001   0.00000   0.00002   0.00002   2.62058
   R20        1.82812   0.00002   0.00000   0.00003   0.00003   1.82815
    A1        1.93310  -0.00001   0.00000  -0.00008  -0.00008   1.93301
    A2        1.93467   0.00001   0.00000   0.00006   0.00006   1.93473
    A3        1.92451   0.00000   0.00000   0.00000   0.00000   1.92451
    A4        1.88686   0.00000   0.00000   0.00003   0.00003   1.88689
    A5        1.89563   0.00000   0.00000   0.00001   0.00001   1.89564
    A6        1.88777   0.00000   0.00000  -0.00001  -0.00001   1.88776
    A7        1.96732   0.00001   0.00000   0.00007   0.00007   1.96739
    A8        1.97504   0.00000   0.00000   0.00001   0.00001   1.97505
    A9        1.88769   0.00000   0.00000  -0.00004  -0.00004   1.88765
   A10        1.78998   0.00000   0.00000  -0.00002  -0.00002   1.78997
   A11        1.92924   0.00000   0.00000   0.00004   0.00004   1.92928
   A12        1.91349   0.00000   0.00000  -0.00006  -0.00006   1.91343
   A13        1.97198   0.00000   0.00000   0.00001   0.00001   1.97199
   A14        2.12434   0.00001   0.00000   0.00005   0.00005   2.12439
   A15        2.18656  -0.00001   0.00000  -0.00006  -0.00006   2.18650
   A16        1.94890   0.00000   0.00000  -0.00001  -0.00001   1.94889
   A17        2.18584   0.00000   0.00000  -0.00002  -0.00002   2.18582
   A18        2.14748   0.00000   0.00000   0.00003   0.00003   2.14751
   A19        1.98949  -0.00002   0.00000  -0.00008  -0.00008   1.98941
   A20        1.82532   0.00000   0.00000   0.00000   0.00000   1.82532
   A21        2.13902   0.00001   0.00000   0.00006   0.00006   2.13908
   A22        2.05828   0.00001   0.00000  -0.00002  -0.00002   2.05826
   A23        2.13382   0.00000   0.00000   0.00002   0.00002   2.13384
   A24        2.06801  -0.00001   0.00000  -0.00005  -0.00005   2.06796
   A25        2.06400   0.00001   0.00000   0.00012   0.00012   2.06412
   A26        1.95787   0.00000   0.00000   0.00002   0.00002   1.95789
   A27        2.01170  -0.00001   0.00000  -0.00007  -0.00007   2.01163
   A28        2.11090   0.00001   0.00000   0.00003   0.00003   2.11093
   A29        1.90022  -0.00001   0.00000  -0.00005  -0.00005   1.90017
   A30        1.88182   0.00000   0.00000   0.00001   0.00001   1.88184
   A31        2.06928  -0.00001   0.00000  -0.00007  -0.00007   2.06921
   A32        2.03597   0.00000   0.00000  -0.00003  -0.00003   2.03594
   A33        2.15641   0.00000   0.00000   0.00002   0.00002   2.15643
   A34        2.05622   0.00001   0.00000   0.00006   0.00006   2.05628
   A35        1.85161  -0.00001   0.00000  -0.00004  -0.00004   1.85157
    D1       -3.10234   0.00000   0.00000   0.00019   0.00019  -3.10215
    D2       -1.08093   0.00000   0.00000   0.00022   0.00022  -1.08071
    D3        1.04250   0.00000   0.00000   0.00012   0.00012   1.04262
    D4       -1.00790   0.00000   0.00000   0.00021   0.00021  -1.00768
    D5        1.01351   0.00000   0.00000   0.00024   0.00024   1.01375
    D6        3.13694   0.00000   0.00000   0.00014   0.00014   3.13709
    D7        1.08207   0.00000   0.00000   0.00023   0.00023   1.08230
    D8        3.10348   0.00000   0.00000   0.00026   0.00026   3.10374
    D9       -1.05627   0.00000   0.00000   0.00016   0.00016  -1.05611
   D10        2.02120   0.00000   0.00000  -0.00003  -0.00003   2.02116
   D11       -1.09540   0.00000   0.00000   0.00004   0.00004  -1.09536
   D12       -0.10836   0.00000   0.00000  -0.00006  -0.00006  -0.10843
   D13        3.05823   0.00000   0.00000   0.00001   0.00001   3.05824
   D14       -2.14714   0.00000   0.00000   0.00000   0.00000  -2.14714
   D15        1.01945   0.00000   0.00000   0.00007   0.00007   1.01952
   D16       -2.02305   0.00000   0.00000  -0.00003  -0.00003  -2.02308
   D17        3.11463  -0.00001   0.00000  -0.00006  -0.00006   3.11456
   D18        0.49349   0.00000   0.00000  -0.00001  -0.00001   0.49348
   D19        0.10125   0.00000   0.00000   0.00005   0.00005   0.10129
   D20       -1.04426   0.00000   0.00000   0.00001   0.00001  -1.04425
   D21        2.61779   0.00000   0.00000   0.00006   0.00006   2.61785
   D22        2.15126   0.00000   0.00000   0.00006   0.00006   2.15132
   D23        1.00575   0.00000   0.00000   0.00002   0.00002   1.00578
   D24       -1.61539   0.00000   0.00000   0.00007   0.00007  -1.61531
   D25        0.07152   0.00000   0.00000   0.00006   0.00006   0.07158
   D26       -3.11617   0.00000   0.00000   0.00004   0.00004  -3.11612
   D27       -3.09612   0.00000   0.00000  -0.00001  -0.00001  -3.09613
   D28       -0.00063   0.00000   0.00000  -0.00003  -0.00003  -0.00065
   D29        1.07557   0.00000   0.00000  -0.00003  -0.00003   1.07553
   D30       -0.00122   0.00000   0.00000  -0.00002  -0.00002  -0.00124
   D31       -2.53420   0.00000   0.00000  -0.00014  -0.00014  -2.53434
   D32       -2.02111   0.00000   0.00000  -0.00002  -0.00002  -2.02113
   D33       -3.09789   0.00000   0.00000  -0.00001  -0.00001  -3.09790
   D34        0.65231   0.00000   0.00000  -0.00013  -0.00013   0.65218
   D35        2.90025   0.00000   0.00000  -0.00008  -0.00008   2.90017
   D36        0.32672   0.00000   0.00000  -0.00007  -0.00007   0.32665
   D37        0.20369   0.00000   0.00000   0.00000   0.00000   0.20370
   D38       -2.36983   0.00000   0.00000   0.00001   0.00001  -2.36982
   D39       -0.06649   0.00000   0.00000  -0.00002  -0.00002  -0.06651
   D40       -2.52972   0.00000   0.00000  -0.00001  -0.00001  -2.52972
   D41        2.46878   0.00000   0.00000   0.00012   0.00012   2.46890
   D42        0.00556   0.00001   0.00000   0.00013   0.00013   0.00569
   D43       -1.15408   0.00000   0.00000   0.00009   0.00009  -1.15399
   D44       -2.33839   0.00001   0.00000   0.00012   0.00012  -2.33826
   D45        1.43598   0.00000   0.00000   0.00014   0.00014   1.43612
   D46       -2.67752   0.00000   0.00000  -0.00001  -0.00001  -2.67752
   D47       -0.06239   0.00000   0.00000  -0.00009  -0.00009  -0.06248
   D48       -0.20926   0.00000   0.00000  -0.00006  -0.00006  -0.20932
   D49        2.40587  -0.00001   0.00000  -0.00014  -0.00014   2.40573
   D50        2.64822  -0.00001   0.00000  -0.00023  -0.00023   2.64799
   D51       -1.22548  -0.00001   0.00000  -0.00022  -0.00022  -1.22571
   D52        0.02309   0.00000   0.00000  -0.00014  -0.00014   0.02295
         Item               Value     Threshold  Converged?
 Maximum Force            0.000042     0.000450     YES
 RMS     Force            0.000007     0.000300     YES
 Maximum Displacement     0.000486     0.001800     YES
 RMS     Displacement     0.000102     0.001200     YES
 Predicted change in Energy=-1.522803D-08
 Optimization completed.
    -- Stationary point found.
                           ----------------------------
                           !   Optimized Parameters   !
                           ! (Angstroms and Degrees)  !
 --------------------------                            --------------------------
 ! Name  Definition              Value          Derivative Info.                !
 --------------------------------------------------------------------------------
 ! R1    R(1,2)                  1.5372         -DE/DX =    0.0                 !
 ! R2    R(1,10)                 1.0924         -DE/DX =    0.0                 !
 ! R3    R(1,11)                 1.0939         -DE/DX =    0.0                 !
 ! R4    R(1,12)                 1.0947         -DE/DX =    0.0                 !
 ! R5    R(2,3)                  1.5167         -DE/DX =    0.0                 !
 ! R6    R(2,8)                  1.533          -DE/DX =    0.0                 !
 ! R7    R(2,13)                 1.0988         -DE/DX =    0.0                 !
 ! R8    R(3,4)                  1.3371         -DE/DX =    0.0                 !
 ! R9    R(3,14)                 1.0844         -DE/DX =    0.0                 !
 ! R10   R(4,5)                  1.4864         -DE/DX =    0.0                 !
 ! R11   R(4,15)                 1.0846         -DE/DX =    0.0                 !
 ! R12   R(5,6)                  1.5317         -DE/DX =    0.0                 !
 ! R13   R(5,8)                  1.5361         -DE/DX =    0.0                 !
 ! R14   R(5,16)                 1.0854         -DE/DX =    0.0                 !
 ! R15   R(6,7)                  1.4025         -DE/DX =    0.0                 !
 ! R16   R(6,8)                  1.5004         -DE/DX =    0.0                 !
 ! R17   R(6,17)                 1.0905         -DE/DX =    0.0                 !
 ! R18   R(7,18)                 0.9626         -DE/DX =    0.0                 !
 ! R19   R(8,9)                  1.3867         -DE/DX =    0.0                 !
 ! R20   R(9,19)                 0.9674         -DE/DX =    0.0                 !
 ! A1    A(2,1,10)             110.7583         -DE/DX =    0.0                 !
 ! A2    A(2,1,11)             110.8485         -DE/DX =    0.0                 !
 ! A3    A(2,1,12)             110.2664         -DE/DX =    0.0                 !
 ! A4    A(10,1,11)            108.109          -DE/DX =    0.0                 !
 ! A5    A(10,1,12)            108.6116         -DE/DX =    0.0                 !
 ! A6    A(11,1,12)            108.1613         -DE/DX =    0.0                 !
 ! A7    A(1,2,3)              112.7191         -DE/DX =    0.0                 !
 ! A8    A(1,2,8)              113.1617         -DE/DX =    0.0                 !
 ! A9    A(1,2,13)             108.1564         -DE/DX =    0.0                 !
 ! A10   A(3,2,8)              102.5585         -DE/DX =    0.0                 !
 ! A11   A(3,2,13)             110.5374         -DE/DX =    0.0                 !
 ! A12   A(8,2,13)             109.635          -DE/DX =    0.0                 !
 ! A13   A(2,3,4)              112.9863         -DE/DX =    0.0                 !
 ! A14   A(2,3,14)             121.7158         -DE/DX =    0.0                 !
 ! A15   A(4,3,14)             125.2807         -DE/DX =    0.0                 !
 ! A16   A(3,4,5)              111.6636         -DE/DX =    0.0                 !
 ! A17   A(3,4,15)             125.2395         -DE/DX =    0.0                 !
 ! A18   A(5,4,15)             123.0417         -DE/DX =    0.0                 !
 ! A19   A(4,5,6)              113.9893         -DE/DX =    0.0                 !
 ! A20   A(4,5,8)              104.5831         -DE/DX =    0.0                 !
 ! A21   A(4,5,16)             122.5568         -DE/DX =    0.0                 !
 ! A22   A(6,5,16)             117.9307         -DE/DX =    0.0                 !
 ! A23   A(8,5,16)             122.2588         -DE/DX =    0.0                 !
 ! A24   A(5,6,7)              118.4883         -DE/DX =    0.0                 !
 ! A25   A(5,6,17)             118.2585         -DE/DX =    0.0                 !
 ! A26   A(7,6,8)              112.178          -DE/DX =    0.0                 !
 ! A27   A(7,6,17)             115.2616         -DE/DX =    0.0                 !
 ! A28   A(8,6,17)             120.9457         -DE/DX =    0.0                 !
 ! A29   A(6,7,18)             108.8746         -DE/DX =    0.0                 !
 ! A30   A(2,8,5)              107.8205         -DE/DX =    0.0                 !
 ! A31   A(2,8,6)              118.5608         -DE/DX =    0.0                 !
 ! A32   A(2,8,9)              116.6526         -DE/DX =    0.0                 !
 ! A33   A(5,8,9)              123.5531         -DE/DX =    0.0                 !
 ! A34   A(6,8,9)              117.8129         -DE/DX =    0.0                 !
 ! A35   A(8,9,19)             106.0897         -DE/DX =    0.0                 !
 ! D1    D(10,1,2,3)          -177.7509         -DE/DX =    0.0                 !
 ! D2    D(10,1,2,8)           -61.9329         -DE/DX =    0.0                 !
 ! D3    D(10,1,2,13)           59.7309         -DE/DX =    0.0                 !
 ! D4    D(11,1,2,3)           -57.7482         -DE/DX =    0.0                 !
 ! D5    D(11,1,2,8)            58.0698         -DE/DX =    0.0                 !
 ! D6    D(11,1,2,13)          179.7336         -DE/DX =    0.0                 !
 ! D7    D(12,1,2,3)            61.9982         -DE/DX =    0.0                 !
 ! D8    D(12,1,2,8)           177.8163         -DE/DX =    0.0                 !
 ! D9    D(12,1,2,13)          -60.52           -DE/DX =    0.0                 !
 ! D10   D(1,2,3,4)            115.806          -DE/DX =    0.0                 !
 ! D11   D(1,2,3,14)           -62.7618         -DE/DX =    0.0                 !
 ! D12   D(8,2,3,4)             -6.2087         -DE/DX =    0.0                 !
 ! D13   D(8,2,3,14)           175.2235         -DE/DX =    0.0                 !
 ! D14   D(13,2,3,4)          -123.022          -DE/DX =    0.0                 !
 ! D15   D(13,2,3,14)           58.4103         -DE/DX =    0.0                 !
 ! D16   D(1,2,8,5)           -115.9124         -DE/DX =    0.0                 !
 ! D17   D(1,2,8,6)            178.4551         -DE/DX =    0.0                 !
 ! D18   D(1,2,8,9)             28.2748         -DE/DX =    0.0                 !
 ! D19   D(3,2,8,5)              5.8009         -DE/DX =    0.0                 !
 ! D20   D(3,2,8,6)            -59.8317         -DE/DX =    0.0                 !
 ! D21   D(3,2,8,9)            149.9881         -DE/DX =    0.0                 !
 ! D22   D(13,2,8,5)           123.258          -DE/DX =    0.0                 !
 ! D23   D(13,2,8,6)            57.6255         -DE/DX =    0.0                 !
 ! D24   D(13,2,8,9)           -92.5548         -DE/DX =    0.0                 !
 ! D25   D(2,3,4,5)              4.0981         -DE/DX =    0.0                 !
 ! D26   D(2,3,4,15)          -178.5433         -DE/DX =    0.0                 !
 ! D27   D(14,3,4,5)          -177.3945         -DE/DX =    0.0                 !
 ! D28   D(14,3,4,15)           -0.0359         -DE/DX =    0.0                 !
 ! D29   D(3,4,5,6)             61.6254         -DE/DX =    0.0                 !
 ! D30   D(3,4,5,8)             -0.0697         -DE/DX =    0.0                 !
 ! D31   D(3,4,5,16)          -145.1989         -DE/DX =    0.0                 !
 ! D32   D(15,4,5,6)          -115.8011         -DE/DX =    0.0                 !
 ! D33   D(15,4,5,8)          -177.4962         -DE/DX =    0.0                 !
 ! D34   D(15,4,5,16)           37.3746         -DE/DX =    0.0                 !
 ! D35   D(4,5,6,7)            166.172          -DE/DX =    0.0                 !
 ! D36   D(4,5,6,17)            18.7198         -DE/DX =    0.0                 !
 ! D37   D(16,5,6,7)            11.6708         -DE/DX =    0.0                 !
 ! D38   D(16,5,6,17)         -135.7814         -DE/DX =    0.0                 !
 ! D39   D(4,5,8,2)             -3.8098         -DE/DX =    0.0                 !
 ! D40   D(4,5,8,9)           -144.942          -DE/DX =    0.0                 !
 ! D41   D(16,5,8,2)           141.4508         -DE/DX =    0.0                 !
 ! D42   D(16,5,8,9)             0.3187         -DE/DX =    0.0                 !
 ! D43   D(5,6,7,18)           -66.1237         -DE/DX =    0.0                 !
 ! D44   D(8,6,7,18)          -133.9796         -DE/DX =    0.0                 !
 ! D45   D(17,6,7,18)           82.2757         -DE/DX =    0.0                 !
 ! D46   D(7,6,8,2)           -153.4104         -DE/DX =    0.0                 !
 ! D47   D(7,6,8,9)             -3.5748         -DE/DX =    0.0                 !
 ! D48   D(17,6,8,2)           -11.9896         -DE/DX =    0.0                 !
 ! D49   D(17,6,8,9)           137.846          -DE/DX =    0.0                 !
 ! D50   D(2,8,9,19)           151.732          -DE/DX =    0.0                 !
 ! D51   D(5,8,9,19)           -70.2151         -DE/DX =    0.0                 !
 ! D52   D(6,8,9,19)             1.3231         -DE/DX =    0.0                 !
 --------------------------------------------------------------------------------
 GradGradGradGradGradGradGradGradGradGradGradGradGradGradGradGradGradGrad

                          Input orientation:                          
 ---------------------------------------------------------------------
 Center     Atomic      Atomic             Coordinates (Angstroms)
 Number     Number       Type             X           Y           Z
 ---------------------------------------------------------------------
      1          6           0        1.354639    1.183786   -0.105101
      2          6           0        1.074144   -0.323363    0.008648
      3          6           0        1.526781   -1.097370   -1.214574
      4          6           0        2.505004   -1.969168   -0.948362
      5          6           0        2.820092   -2.013840    0.503615
      6          6           0        1.648698   -2.464809    1.381467
      7          8           0        1.909353   -2.824393    2.711814
      8          6           0        1.858191   -0.998933    1.139531
      9          8           0        2.190771   -0.204771    2.226615
     10          1           0        1.053071    1.703656    0.807088
     11          1           0        2.420436    1.370372   -0.266283
     12          1           0        0.802272    1.609662   -0.948807
     13          1           0       -0.003595   -0.459550    0.173977
     14          1           0        1.096535   -0.918549   -2.193739
     15          1           0        2.990442   -2.607282   -1.678735
     16          1           0        3.826451   -2.171666    0.878325
     17          1           0        0.824439   -2.999121    0.907936
     18          1           0        2.450590   -3.620366    2.718910
     19          1           0        2.246768   -0.800545    2.986734
 ---------------------------------------------------------------------
                    Distance matrix (angstroms):
                    1          2          3          4          5
     1  C    0.000000
     2  C    1.537243   0.000000
     3  C    2.542486   1.516653   0.000000
     4  C    3.460570   2.381575   1.337094   0.000000
     5  C    3.569720   2.480129   2.337679   1.486444   0.000000
     6  C    3.950772   2.607783   2.936695   2.531210   1.531719
     7  O    4.930336   3.776219   4.306448   3.805667   2.522417
     8  C    2.562603   1.532978   2.379356   2.391448   1.536125
     9  O    2.839737   2.486021   3.616545   3.645863   2.576336
    10  H    1.092381   2.178705   3.486726   4.321961   4.127255
    11  H    1.093945   2.181016   2.790632   3.409532   3.493617
    12  H    1.094677   2.174217   2.814883   3.963245   4.394416
    13  H    2.150172   1.098819   2.162623   3.135548   3.240014
    14  H    2.974700   2.281503   1.084368   2.153729   3.383199
    15  H    4.418639   3.425747   2.153505   1.084566   2.268004
    16  H    4.282060   3.427499   3.289805   2.263629   1.085391
    17  H    4.336365   2.833858   2.935130   2.707571   2.262053
    18  H    5.679439   4.484457   4.763531   4.022226   2.761339
    19  H    3.780596   3.236008   4.272877   4.113071   2.822528
                    6          7          8          9         10
     6  C    0.000000
     7  O    1.402521   0.000000
     8  C    1.500404   2.409771   0.000000
     9  O    2.473032   2.678999   1.386742   0.000000
    10  H    4.249797   4.986424   2.839493   2.636572   0.000000
    11  H    4.244911   5.169751   2.811768   2.957763   1.769997
    12  H    4.769478   5.855477   3.504410   3.911956   1.776204
    13  H    2.865164   3.961372   2.165520   3.015540   2.489344
    14  H    3.934197   5.325164   3.420128   4.609378   3.985324
    15  H    3.344460   4.526898   3.436772   4.654384   5.340122
    16  H    2.254261   2.731849   2.305987   2.891714   4.766007
    17  H    1.090469   2.112237   2.263411   3.378486   4.709411
    18  H    1.940902   0.962581   3.117256   3.460657   5.826949
    19  H    2.388377   2.070118   1.898027   0.967400   3.528001
                   11         12         13         14         15
    11  H    0.000000
    12  H    1.772442   0.000000
    13  H    3.068937   2.488313   0.000000
    14  H    3.272149   2.833425   2.650858   0.000000
    15  H    4.259303   4.806609   4.124264   2.589195   0.000000
    16  H    3.979075   5.175181   4.254021   4.296548   2.725294
    17  H    4.797756   4.968789   2.770154   3.744757   3.396464
    18  H    5.815475   6.597142   4.742412   5.767790   4.545004
    19  H    3.914737   4.835716   3.618289   5.307944   5.058058
                   16         17         18         19
    16  H    0.000000
    17  H    3.114102   0.000000
    18  H    2.716519   2.511960   0.000000
    19  H    2.969976   3.343375   2.839835   0.000000
 Stoichiometry    C7H10O2
 Framework group  C1[X(C7H10O2)]
 Deg. of freedom    51
 Full point group                 C1      NOp   1
 Largest Abelian subgroup         C1      NOp   1
 Largest concise Abelian subgroup C1      NOp   1
                         Standard orientation:                         
 ---------------------------------------------------------------------
 Center     Atomic      Atomic             Coordinates (Angstroms)
 Number     Number       Type             X           Y           Z
 ---------------------------------------------------------------------
      1          6           0       -2.260701   -1.147144    0.053493
      2          6           0       -1.201072   -0.225045   -0.571035
      3          6           0       -1.466415    1.242668   -0.295993
      4          6           0       -0.515061    1.814524    0.449478
      5          6           0        0.602652    0.875023    0.727992
      6          6           0        1.333433    0.387202   -0.526661
      7          8           0        2.569807   -0.256831   -0.372823
      8          6           0        0.198520   -0.427357    0.020769
      9          8           0        0.488077   -1.689994    0.515702
     10          1           0       -2.017593   -2.196211   -0.129954
     11          1           0       -2.319527   -0.995888    1.135333
     12          1           0       -3.246049   -0.936851   -0.374510
     13          1           0       -1.175684   -0.416073   -1.652823
     14          1           0       -2.358861    1.738799   -0.661025
     15          1           0       -0.516663    2.846838    0.782059
     16          1           0        1.149598    0.879517    1.665490
     17          1           0        1.219001    0.961163   -1.446768
     18          1           0        3.210095    0.375739   -0.031577
     19          1           0        1.444478   -1.801665    0.422483
 ---------------------------------------------------------------------
 Rotational constants (GHZ):      2.6417444      1.5794430      1.1396652
 1\1\GINC-ALCHEMY-BE\FOpt\RB3LYP\6-31G(2df,p)\C7H10O2\PUCK\27-Jan-2020\
 0\\# b3lyp 6-31G(2df,p) opt Freq\\titel\\0,1\C,1.3546394434,1.18378604
 81,-0.1051009934\C,1.0741441177,-0.323363231,0.0086476916\C,1.52678087
 97,-1.0973698522,-1.214573675\C,2.5050039163,-1.9691677829,-0.94836233
 56\C,2.8200923265,-2.0138398628,0.5036150059\C,1.648697511,-2.46480863
 56,1.381467081\O,1.9093527477,-2.8243929935,2.7118140951\C,1.858191189
 7,-0.9989329641,1.1395314376\O,2.190771159,-0.2047709248,2.2266150863\
 H,1.0530709248,1.7036555165,0.8070880512\H,2.4204361058,1.3703722513,-
 0.2662830072\H,0.8022723275,1.6096616066,-0.9488066931\H,-0.0035953437
 ,-0.4595501625,0.1739773042\H,1.0965348172,-0.9185489107,-2.1937392411
 \H,2.9904416453,-2.6072821214,-1.6787348085\H,3.8264507326,-2.17166552
 13,0.8783253411\H,0.8244393844,-2.999120841,0.907935729\H,2.4505904599
 ,-3.6203659089,2.7189101939\H,2.246768025,-0.8005450899,2.986734127\\V
 ersion=ES64L-G09RevD.01\State=1-A\HF=-423.1733255\RMSD=2.120e-09\RMSF=
 1.830e-05\Dipole=0.1411492,-0.821203,-0.1673939\Quadrupole=-0.3089862,
 0.7912643,-0.4822781,-2.849368,1.7958293,-2.3233615\PG=C01 [X(C7H10O2)
 ]\\@


 A MAN IS NEVER SO BRILLIANT AS WHEN HE TAKES THE WORDS RIGHT OUT
 OF YOUR MOUTH. -- ARNOT SHEPPARD, JR.
 Job cpu time:       0 days  0 hours  6 minutes 48.3 seconds.
 File lengths (MBytes):  RWF=     52 Int=      0 D2E=      0 Chk=      7 Scr=      1
 Normal termination of Gaussian 09 at Mon Jan 27 22:54:53 2020.
 Link1:  Proceeding to internal job step number  2.
 ----------------------------------------------------------------------
 #N Geom=AllCheck Guess=TCheck SCRF=Check GenChk RB3LYP/6-31G(2df,p) Fr
 eq
 ----------------------------------------------------------------------
 1/10=4,29=7,30=1,38=1,40=1/1,3;
 2/12=2,40=1/2;
 3/5=1,6=6,7=104,11=2,14=-4,16=1,25=1,30=1,70=2,71=2,74=-5,116=1,140=1/1,2,3;
 4/5=101/1;
 5/5=2,98=1/2;
 8/6=4,10=90,11=11/1;
 11/6=1,8=1,9=11,15=111,16=1/1,2,10;
 10/6=1/2;
 6/7=2,8=2,9=2,10=2,18=1,28=1/1;
 7/8=1,10=1,25=1/1,2,3,16;
 1/10=4,30=1/3;
 99//99;
 Structure from the checkpoint file:  "/scratch/puck/g09_f83f9d8d-1677-4e84-a8c0-379f7369431d/Gau-183265.chk"
 -----
 titel
 -----
 Charge =  0 Multiplicity = 1
 Redundant internal coordinates found in file.
 C,0,1.3546394434,1.1837860481,-0.1051009934
 C,0,1.0741441177,-0.323363231,0.0086476916
 C,0,1.5267808797,-1.0973698522,-1.214573675
 C,0,2.5050039163,-1.9691677829,-0.9483623356
 C,0,2.8200923265,-2.0138398628,0.5036150059
 C,0,1.648697511,-2.4648086356,1.381467081
 O,0,1.9093527477,-2.8243929935,2.7118140951
 C,0,1.8581911897,-0.9989329641,1.1395314376
 O,0,2.190771159,-0.2047709248,2.2266150863
 H,0,1.0530709248,1.7036555165,0.8070880512
 H,0,2.4204361058,1.3703722513,-0.2662830072
 H,0,0.8022723275,1.6096616066,-0.9488066931
 H,0,-0.0035953437,-0.4595501625,0.1739773042
 H,0,1.0965348172,-0.9185489107,-2.1937392411
 H,0,2.9904416453,-2.6072821214,-1.6787348085
 H,0,3.8264507326,-2.1716655213,0.8783253411
 H,0,0.8244393844,-2.999120841,0.907935729
 H,0,2.4505904599,-3.6203659089,2.7189101939
 H,0,2.246768025,-0.8005450899,2.986734127
 Recover connectivity data from disk.

 GradGradGradGradGradGradGradGradGradGradGradGradGradGradGradGradGradGrad
 Berny optimization.
 Initialization pass.
                           ----------------------------
                           !    Initial Parameters    !
                           ! (Angstroms and Degrees)  !
 --------------------------                            --------------------------
 ! Name  Definition              Value          Derivative Info.                !
 --------------------------------------------------------------------------------
 ! R1    R(1,2)                  1.5372         calculate D2E/DX2 analytically  !
 ! R2    R(1,10)                 1.0924         calculate D2E/DX2 analytically  !
 ! R3    R(1,11)                 1.0939         calculate D2E/DX2 analytically  !
 ! R4    R(1,12)                 1.0947         calculate D2E/DX2 analytically  !
 ! R5    R(2,3)                  1.5167         calculate D2E/DX2 analytically  !
 ! R6    R(2,8)                  1.533          calculate D2E/DX2 analytically  !
 ! R7    R(2,13)                 1.0988         calculate D2E/DX2 analytically  !
 ! R8    R(3,4)                  1.3371         calculate D2E/DX2 analytically  !
 ! R9    R(3,14)                 1.0844         calculate D2E/DX2 analytically  !
 ! R10   R(4,5)                  1.4864         calculate D2E/DX2 analytically  !
 ! R11   R(4,15)                 1.0846         calculate D2E/DX2 analytically  !
 ! R12   R(5,6)                  1.5317         calculate D2E/DX2 analytically  !
 ! R13   R(5,8)                  1.5361         calculate D2E/DX2 analytically  !
 ! R14   R(5,16)                 1.0854         calculate D2E/DX2 analytically  !
 ! R15   R(6,7)                  1.4025         calculate D2E/DX2 analytically  !
 ! R16   R(6,8)                  1.5004         calculate D2E/DX2 analytically  !
 ! R17   R(6,17)                 1.0905         calculate D2E/DX2 analytically  !
 ! R18   R(7,18)                 0.9626         calculate D2E/DX2 analytically  !
 ! R19   R(8,9)                  1.3867         calculate D2E/DX2 analytically  !
 ! R20   R(9,19)                 0.9674         calculate D2E/DX2 analytically  !
 ! A1    A(2,1,10)             110.7583         calculate D2E/DX2 analytically  !
 ! A2    A(2,1,11)             110.8485         calculate D2E/DX2 analytically  !
 ! A3    A(2,1,12)             110.2664         calculate D2E/DX2 analytically  !
 ! A4    A(10,1,11)            108.109          calculate D2E/DX2 analytically  !
 ! A5    A(10,1,12)            108.6116         calculate D2E/DX2 analytically  !
 ! A6    A(11,1,12)            108.1613         calculate D2E/DX2 analytically  !
 ! A7    A(1,2,3)              112.7191         calculate D2E/DX2 analytically  !
 ! A8    A(1,2,8)              113.1617         calculate D2E/DX2 analytically  !
 ! A9    A(1,2,13)             108.1564         calculate D2E/DX2 analytically  !
 ! A10   A(3,2,8)              102.5585         calculate D2E/DX2 analytically  !
 ! A11   A(3,2,13)             110.5374         calculate D2E/DX2 analytically  !
 ! A12   A(8,2,13)             109.635          calculate D2E/DX2 analytically  !
 ! A13   A(2,3,4)              112.9863         calculate D2E/DX2 analytically  !
 ! A14   A(2,3,14)             121.7158         calculate D2E/DX2 analytically  !
 ! A15   A(4,3,14)             125.2807         calculate D2E/DX2 analytically  !
 ! A16   A(3,4,5)              111.6636         calculate D2E/DX2 analytically  !
 ! A17   A(3,4,15)             125.2395         calculate D2E/DX2 analytically  !
 ! A18   A(5,4,15)             123.0417         calculate D2E/DX2 analytically  !
 ! A19   A(4,5,6)              113.9893         calculate D2E/DX2 analytically  !
 ! A20   A(4,5,8)              104.5831         calculate D2E/DX2 analytically  !
 ! A21   A(4,5,16)             122.5568         calculate D2E/DX2 analytically  !
 ! A22   A(6,5,16)             117.9307         calculate D2E/DX2 analytically  !
 ! A23   A(8,5,16)             122.2588         calculate D2E/DX2 analytically  !
 ! A24   A(5,6,7)              118.4883         calculate D2E/DX2 analytically  !
 ! A25   A(5,6,17)             118.2585         calculate D2E/DX2 analytically  !
 ! A26   A(7,6,8)              112.178          calculate D2E/DX2 analytically  !
 ! A27   A(7,6,17)             115.2616         calculate D2E/DX2 analytically  !
 ! A28   A(8,6,17)             120.9457         calculate D2E/DX2 analytically  !
 ! A29   A(6,7,18)             108.8746         calculate D2E/DX2 analytically  !
 ! A30   A(2,8,5)              107.8205         calculate D2E/DX2 analytically  !
 ! A31   A(2,8,6)              118.5608         calculate D2E/DX2 analytically  !
 ! A32   A(2,8,9)              116.6526         calculate D2E/DX2 analytically  !
 ! A33   A(5,8,9)              123.5531         calculate D2E/DX2 analytically  !
 ! A34   A(6,8,9)              117.8129         calculate D2E/DX2 analytically  !
 ! A35   A(8,9,19)             106.0897         calculate D2E/DX2 analytically  !
 ! D1    D(10,1,2,3)          -177.7509         calculate D2E/DX2 analytically  !
 ! D2    D(10,1,2,8)           -61.9329         calculate D2E/DX2 analytically  !
 ! D3    D(10,1,2,13)           59.7309         calculate D2E/DX2 analytically  !
 ! D4    D(11,1,2,3)           -57.7482         calculate D2E/DX2 analytically  !
 ! D5    D(11,1,2,8)            58.0698         calculate D2E/DX2 analytically  !
 ! D6    D(11,1,2,13)          179.7336         calculate D2E/DX2 analytically  !
 ! D7    D(12,1,2,3)            61.9982         calculate D2E/DX2 analytically  !
 ! D8    D(12,1,2,8)           177.8163         calculate D2E/DX2 analytically  !
 ! D9    D(12,1,2,13)          -60.52           calculate D2E/DX2 analytically  !
 ! D10   D(1,2,3,4)            115.806          calculate D2E/DX2 analytically  !
 ! D11   D(1,2,3,14)           -62.7618         calculate D2E/DX2 analytically  !
 ! D12   D(8,2,3,4)             -6.2087         calculate D2E/DX2 analytically  !
 ! D13   D(8,2,3,14)           175.2235         calculate D2E/DX2 analytically  !
 ! D14   D(13,2,3,4)          -123.022          calculate D2E/DX2 analytically  !
 ! D15   D(13,2,3,14)           58.4103         calculate D2E/DX2 analytically  !
 ! D16   D(1,2,8,5)           -115.9124         calculate D2E/DX2 analytically  !
 ! D17   D(1,2,8,6)            178.4551         calculate D2E/DX2 analytically  !
 ! D18   D(1,2,8,9)             28.2748         calculate D2E/DX2 analytically  !
 ! D19   D(3,2,8,5)              5.8009         calculate D2E/DX2 analytically  !
 ! D20   D(3,2,8,6)            -59.8317         calculate D2E/DX2 analytically  !
 ! D21   D(3,2,8,9)            149.9881         calculate D2E/DX2 analytically  !
 ! D22   D(13,2,8,5)           123.258          calculate D2E/DX2 analytically  !
 ! D23   D(13,2,8,6)            57.6255         calculate D2E/DX2 analytically  !
 ! D24   D(13,2,8,9)           -92.5548         calculate D2E/DX2 analytically  !
 ! D25   D(2,3,4,5)              4.0981         calculate D2E/DX2 analytically  !
 ! D26   D(2,3,4,15)          -178.5433         calculate D2E/DX2 analytically  !
 ! D27   D(14,3,4,5)          -177.3945         calculate D2E/DX2 analytically  !
 ! D28   D(14,3,4,15)           -0.0359         calculate D2E/DX2 analytically  !
 ! D29   D(3,4,5,6)             61.6254         calculate D2E/DX2 analytically  !
 ! D30   D(3,4,5,8)             -0.0697         calculate D2E/DX2 analytically  !
 ! D31   D(3,4,5,16)          -145.1989         calculate D2E/DX2 analytically  !
 ! D32   D(15,4,5,6)          -115.8011         calculate D2E/DX2 analytically  !
 ! D33   D(15,4,5,8)          -177.4962         calculate D2E/DX2 analytically  !
 ! D34   D(15,4,5,16)           37.3746         calculate D2E/DX2 analytically  !
 ! D35   D(4,5,6,7)            166.172          calculate D2E/DX2 analytically  !
 ! D36   D(4,5,6,17)            18.7198         calculate D2E/DX2 analytically  !
 ! D37   D(16,5,6,7)            11.6708         calculate D2E/DX2 analytically  !
 ! D38   D(16,5,6,17)         -135.7814         calculate D2E/DX2 analytically  !
 ! D39   D(4,5,8,2)             -3.8098         calculate D2E/DX2 analytically  !
 ! D40   D(4,5,8,9)           -144.942          calculate D2E/DX2 analytically  !
 ! D41   D(16,5,8,2)           141.4508         calculate D2E/DX2 analytically  !
 ! D42   D(16,5,8,9)             0.3187         calculate D2E/DX2 analytically  !
 ! D43   D(5,6,7,18)           -66.1237         calculate D2E/DX2 analytically  !
 ! D44   D(8,6,7,18)          -133.9796         calculate D2E/DX2 analytically  !
 ! D45   D(17,6,7,18)           82.2757         calculate D2E/DX2 analytically  !
 ! D46   D(7,6,8,2)           -153.4104         calculate D2E/DX2 analytically  !
 ! D47   D(7,6,8,9)             -3.5748         calculate D2E/DX2 analytically  !
 ! D48   D(17,6,8,2)           -11.9896         calculate D2E/DX2 analytically  !
 ! D49   D(17,6,8,9)           137.846          calculate D2E/DX2 analytically  !
 ! D50   D(2,8,9,19)           151.732          calculate D2E/DX2 analytically  !
 ! D51   D(5,8,9,19)           -70.2151         calculate D2E/DX2 analytically  !
 ! D52   D(6,8,9,19)             1.3231         calculate D2E/DX2 analytically  !
 --------------------------------------------------------------------------------
 Trust Radius=3.00D-01 FncErr=1.00D-07 GrdErr=1.00D-07
 Number of steps in this run=      2 maximum allowed number of steps=      2.
 GradGradGradGradGradGradGradGradGradGradGradGradGradGradGradGradGradGrad

                          Input orientation:                          
 ---------------------------------------------------------------------
 Center     Atomic      Atomic             Coordinates (Angstroms)
 Number     Number       Type             X           Y           Z
 ---------------------------------------------------------------------
      1          6           0        1.354639    1.183786   -0.105101
      2          6           0        1.074144   -0.323363    0.008648
      3          6           0        1.526781   -1.097370   -1.214574
      4          6           0        2.505004   -1.969168   -0.948362
      5          6           0        2.820092   -2.013840    0.503615
      6          6           0        1.648698   -2.464809    1.381467
      7          8           0        1.909353   -2.824393    2.711814
      8          6           0        1.858191   -0.998933    1.139531
      9          8           0        2.190771   -0.204771    2.226615
     10          1           0        1.053071    1.703656    0.807088
     11          1           0        2.420436    1.370372   -0.266283
     12          1           0        0.802272    1.609662   -0.948807
     13          1           0       -0.003595   -0.459550    0.173977
     14          1           0        1.096535   -0.918549   -2.193739
     15          1           0        2.990442   -2.607282   -1.678735
     16          1           0        3.826451   -2.171666    0.878325
     17          1           0        0.824439   -2.999121    0.907936
     18          1           0        2.450590   -3.620366    2.718910
     19          1           0        2.246768   -0.800545    2.986734
 ---------------------------------------------------------------------
                    Distance matrix (angstroms):
                    1          2          3          4          5
     1  C    0.000000
[...]
 0.00134479,-0.00194860,0.02128676,-0.01726486,-0.00938113,0.22601386,-
 0.25800740,0.04635040,-0.34951687,0.48869980,0.00170563,-0.00103868,-0
 .00436981,0.01307873,-0.02020769,0.00342410,-0.06503337,0.04931570,-0.
 11390731,0.00052311,0.07653209,0.56312852,0.00016351,-0.00057765,-0.00
 109216,-0.02673910,0.00248130,0.00219526,-0.00556882,0.01154000,-0.024
 24888,-0.08962263,0.00962219,-0.03666549,0.64245908,0.00016100,-0.0004
 0464,-0.00103235,0.02319790,-0.01272209,0.00230137,0.00884386,0.001624
 60,0.01924770,0.01053963,-0.06266056,0.00205113,-0.08518123,0.22308004
 ,0.00002797,0.00013683,-0.00051063,-0.00710837,0.00204943,0.00486280,-
 0.02760096,0.01477745,-0.02880489,-0.02732489,0.00317999,-0.20888544,0
 .08884065,-0.01805311,0.50290243,-0.00104287,0.00083060,-0.00188708,0.
 00391066,0.01636508,-0.00605415,-0.00244890,0.00100165,-0.00669255,0.0
 0641809,0.00738310,0.00696730,-0.15336054,-0.01808937,0.03723238,0.477
 63592,-0.00074957,0.00076357,-0.00088443,-0.00206777,-0.00940917,0.009
 71982,0.00100331,0.00070000,0.00501151,0.00240649,-0.00289704,-0.00256
 803,-0.05651530,-0.01937374,0.04540135,0.15250803,0.47496730,-0.001877
 96,-0.00014288,-0.00304831,0.01229219,0.01403902,-0.00400523,0.0033497
 3,0.00065499,-0.00138745,0.00810759,0.02059269,-0.02671500,0.04590828,
 0.01103902,-0.07266142,0.10737316,-0.04009448,0.49952801,-0.00054909,-
 0.00004004,-0.00140212,0.00193413,0.00249879,0.00049321,0.00043717,0.0
 0057559,0.00274189,-0.00169314,-0.00456123,0.00057773,0.00970443,-0.00
 555489,0.02363355,-0.07531808,0.01651850,-0.05139956,0.23087337,0.0010
 4841,-0.00012389,0.00181115,-0.00543143,-0.00347632,-0.00073197,0.0017
 7104,-0.00028613,-0.00005383,-0.00018943,-0.00022909,-0.00249995,-0.00
 291465,-0.00023317,0.00226921,0.01398411,-0.08636701,0.05214917,-0.260
 55499,0.45151216,-0.00027538,0.00001058,0.00028354,0.00205756,-0.00040
 710,0.00060455,0.00039000,-0.00103435,-0.00290913,0.00436188,0.0082134
 5,0.00144301,-0.00671320,0.00657629,-0.03303084,-0.02451965,0.02037670
 ,-0.23217287,0.04350993,-0.05534573,0.33932730,0.00520653,0.00146915,0
 .00656713,-0.09637753,0.02340219,-0.03928330,-0.00111041,-0.00292913,-
 0.00724683,0.00308243,-0.00177289,0.02212843,-0.10083814,0.02415565,0.
 00218203,-0.02958063,-0.00628752,-0.01135337,-0.00588824,0.00647126,-0
 .00118589,0.31479219,0.01689374,-0.01708447,0.02764265,0.01834681,-0.0
 9793606,0.02933029,-0.00473257,0.00571656,-0.00704929,0.00112740,-0.00
 202214,-0.01428997,0.06868106,-0.08171085,-0.04591867,-0.04373787,-0.2
 0838321,0.04467407,0.00606180,-0.01771126,0.00946499,-0.03318076,0.570
 37566,0.00052568,0.00945237,-0.00205872,-0.03932049,0.03422706,-0.1150
 9701,-0.00746986,0.00191672,-0.03684241,0.00566843,-0.02523361,-0.0277
 8950,0.00641017,-0.01205825,-0.05447943,-0.01145374,-0.01088520,-0.060
 13409,-0.01366129,0.03524498,-0.01228825,0.10479080,0.04341028,0.55432
 814,0.00033417,-0.00011034,0.00073979,-0.00021193,-0.01132889,-0.01206
 705,-0.00139072,0.00166997,-0.00019658,-0.00113311,0.00462047,-0.00057
 194,0.01942267,0.01021120,0.01657006,-0.01023710,-0.01011057,-0.016904
 24,0.00274120,0.00556496,0.00062485,-0.06522010,-0.03332378,-0.0397753
 6,0.05772632,0.00033731,-0.00113575,0.00040734,-0.00049482,0.01048979,
 0.00678519,0.00101736,-0.00039393,0.00172401,0.00112183,-0.00365478,0.
 00474968,0.00025321,-0.01159524,-0.01664469,-0.00868144,-0.02634780,-0
 .02768189,-0.00325469,-0.00236021,-0.00095968,-0.02323270,-0.15310077,
 -0.05526710,0.03041977,0.40718327,-0.00024268,-0.00134272,0.00077899,-
 0.00604548,-0.01728803,-0.02604527,-0.00454693,0.00284503,-0.00456004,
 0.00179286,-0.00424091,0.00233805,-0.00147405,-0.01544028,-0.02121177,
 -0.00467079,-0.00461520,-0.00368361,-0.00077853,0.00754226,0.00317071,
 -0.04988397,-0.10290141,-0.19749924,0.08240553,-0.10902624,0.55501810,
 -0.06870856,0.03481318,0.06349026,0.00086878,-0.00356825,-0.00662003,0
 .00030122,-0.00088564,0.00047687,0.00067601,-0.00020842,-0.00021927,0.
 00005301,-0.00016783,-0.00009221,-0.00003037,0.00001111,-0.00003284,-0
 .00008031,-0.00009882,-0.00009197,0.00026831,0.00063671,0.00117062,-0.
 00024936,-0.00030445,-0.00007742,0.06985488,0.03428830,-0.10336775,-0.
 10431475,0.00924110,-0.01629796,-0.02770327,-0.00133680,-0.00606302,0.
 00334825,-0.00008822,-0.00055274,-0.00212501,-0.00074542,0.00001006,0.
 00040213,0.00019780,-0.00019744,-0.00033659,-0.00009112,0.00021856,0.0
 0049545,0.00032738,-0.00012753,-0.00259469,-0.00006806,0.00109092,0.00
 115274,-0.03663890,0.11465062,0.06425821,-0.10662790,-0.23614325,-0.00
 083601,0.00203877,0.00354393,-0.00001899,0.00038196,0.00051248,-0.0002
 7707,0.00014943,0.00011599,-0.00010126,-0.00006042,-0.00007993,0.00013
 746,0.00003251,0.00001497,0.00002109,-0.00008443,0.00010004,-0.0004461
 8,-0.00046327,-0.00004113,-0.00049667,0.00133753,-0.00086286,-0.069794
 76,0.11561093,0.25484831,-0.29967162,-0.04024915,0.03802783,-0.0054268
 7,-0.00152843,0.00081627,0.00052562,0.00092823,0.00022133,0.00054598,-
 0.00033338,-0.00012242,0.00035633,-0.00042123,0.00004705,0.00006466,0.
 00025189,0.00003081,0.00007159,-0.00002431,0.00004255,-0.00019513,-0.0
 0031920,-0.00064786,0.00037435,0.00034113,0.00002173,-0.00801644,-0.00
 103242,0.00017883,0.32479638,-0.03828465,-0.05276886,0.00562812,-0.033
 38506,-0.00708456,0.00402860,-0.00112066,0.00258015,0.00092955,0.00086
 427,0.00013252,0.00002631,0.00055779,-0.00030096,0.00007763,0.00008809
 ,0.00010656,-0.00016650,0.00009934,0.00006987,-0.00006284,-0.00099675,
 0.00135962,-0.00038015,0.00026984,0.00004974,0.00051411,0.01501970,0.0
 0223018,-0.00103655,0.04595491,0.05917460,0.03784020,0.00590172,-0.053
 06891,0.00273831,0.00043598,-0.00141023,-0.00099706,-0.00009175,-0.000
 10570,0.00005819,0.00009187,0.00038604,0.00001256,0.00000204,0.0000800
 4,-0.00013876,0.00002392,0.00003196,-0.00001116,-0.00009458,-0.0000760
 8,0.00107556,0.00022458,0.00050657,-0.00046257,-0.00021344,-0.00009660
 ,0.02692611,0.00496529,-0.00322607,-0.04177935,-0.00710896,0.05212566,
 -0.11554654,0.05098416,-0.10359086,0.00277407,-0.00296212,0.00642946,0
 .00009162,0.00012955,-0.00034866,-0.00005120,0.00007530,0.00012176,0.0
 0023840,-0.00023113,0.00021965,0.00030180,-0.00010579,0.00002312,0.000
 01437,0.00000845,-0.00000774,0.00030157,-0.00161180,-0.00021870,0.0001
 0456,0.00019539,-0.00008137,0.00453089,-0.00461461,0.00774642,-0.01484
 410,0.01214111,-0.02511986,0.12143578,0.05050524,-0.08276550,0.0761691
 9,0.01811995,-0.01451823,0.02633874,0.00014630,0.00187488,0.00047731,0
 .00017386,-0.00009522,0.00013571,0.00021279,0.00009120,-0.00016850,0.0
 0058165,0.00073182,0.00111644,0.00055475,-0.00069878,0.00010334,-0.003
 91687,-0.00593631,-0.00183204,-0.00013418,0.00075599,-0.00050799,-0.00
 896020,0.00606765,-0.01115767,-0.00220568,0.00146238,-0.00467779,-0.05
 469661,0.09233546,-0.10320625,0.07663979,-0.20350090,-0.00043179,-0.00
 008023,-0.00174189,0.00041753,-0.00015717,0.00065520,0.00003132,0.0001
 0091,0.00026496,0.00006764,0.00016209,-0.00005042,-0.00012041,-0.00023
 150,0.00002247,-0.00003916,0.00020740,-0.00005866,0.00046106,-0.000844
 66,-0.00008434,-0.00007098,0.00076570,0.00010363,-0.01452237,0.0109163
 8,-0.01934667,0.00316969,-0.00291610,0.00411773,0.11423310,-0.08511502
 ,0.21904918,-0.00691300,-0.00225115,0.00130722,-0.28312840,-0.03123647
 ,0.03732005,-0.00717456,0.00071320,0.00199355,-0.00049398,0.00001288,-
 0.00053566,-0.00232664,0.00005808,0.00050982,0.00224954,-0.00165499,-0
 .00023093,0.00023671,0.00013342,-0.00035960,-0.01520266,0.00138936,0.0
 0134896,0.00022284,0.00001703,-0.00090398,0.00043252,-0.00019928,-0.00
 032689,0.00131203,-0.00132009,0.00007768,0.00058033,-0.00026576,0.0002
 8930,0.31065984,-0.03435812,-0.00913660,0.00597644,-0.03012411,-0.0443
 1701,0.00429183,0.01609175,0.00065319,-0.00302771,0.00095583,-0.000613
 70,-0.00066414,0.00349839,-0.00174334,0.00007659,0.00144455,0.00279980
 ,-0.00036185,-0.00041267,-0.00010079,0.00000488,0.01198443,-0.00108886
 ,-0.00014150,0.00005903,0.00004194,-0.00002168,0.00050779,0.00170107,-
 0.00051694,-0.00106574,-0.00673098,0.00060264,0.00058446,0.00137469,0.
 00020516,0.03177653,0.05949423,0.00262670,0.00100155,0.00020347,0.0390
 5557,0.00499813,-0.05176373,0.02867221,0.00160164,-0.00375571,0.000042
 61,-0.00157753,-0.00512353,-0.00343308,0.00200172,-0.00166419,0.001505
 39,-0.00313131,0.00054243,0.00014654,-0.00002698,0.00005717,-0.0256249
 6,0.00093952,0.00211947,0.00060627,0.00055229,-0.00044401,-0.00052987,
 0.00000266,0.00037686,-0.00002642,0.00043695,0.00092002,0.00030139,-0.
 00015050,0.00001448,-0.04117857,-0.00654909,0.05651931,0.00001273,-0.0
 0033564,-0.00001516,0.00589367,-0.00225693,0.01171684,-0.09011162,0.02
 930929,-0.10200064,-0.00189782,0.00058585,-0.02065301,0.00337559,0.005
 79213,-0.00263031,-0.00120221,0.00031620,-0.00114017,0.00071437,0.0002
 7772,-0.00121954,-0.00308240,0.00394615,0.00133279,0.00071750,-0.00045
 538,0.00065419,-0.00011824,-0.00001297,0.00002119,-0.00006825,-0.00003
 844,-0.00012795,0.00004228,0.00002404,-0.00024089,0.00014858,-0.000612
 01,-0.00101660,0.08705354,-0.00038755,0.00155713,0.00040111,-0.0072964
 0,0.00467462,-0.01020591,0.02859659,-0.05323072,0.03763197,0.00701917,
 0.00117438,0.02026348,0.00858370,0.00201630,-0.00199780,-0.00021517,-0
 .00000872,-0.00162193,0.00016591,0.00026705,-0.00058777,0.00075539,-0.
 00066917,-0.00244596,-0.00036304,0.00079587,-0.00082623,0.00010714,0.0
 0001113,0.00025354,-0.00013275,-0.00019001,-0.00003759,0.00021159,-0.0
 0036314,0.00023394,0.00033018,0.00026723,0.00013012,-0.03385087,0.0456
 6765,-0.00010995,0.00087677,0.00016709,-0.01066170,0.00755864,-0.01231
 358,-0.10531051,0.04090962,-0.28712422,0.00160203,-0.00285107,-0.00127
 267,-0.00246682,-0.00108165,0.00119445,0.00036881,-0.00074133,0.000150
 07,-0.00019384,0.00028708,0.00022849,0.00214335,-0.00291514,-0.0014180
 0,-0.00047520,0.00078449,-0.00131676,0.00010545,-0.00024923,0.00013995
 ,-0.00007406,-0.00010877,0.00002199,0.00016995,-0.00069898,0.00029534,
 0.00055575,0.00019650,0.00029147,0.11429731,-0.04320560,0.30099320,-0.
 00106825,0.00063632,0.00228384,0.00322021,0.00756773,-0.00354748,-0.00
 322937,0.01177317,0.01894741,-0.10327152,0.08293275,0.08062993,0.00513
 424,-0.00368673,-0.00476431,-0.00038343,-0.00131007,-0.00042251,0.0000
 3285,-0.00006905,-0.00002775,0.00170983,0.00055493,-0.00287825,-0.0000
 1567,-0.00042409,-0.00029333,0.00013513,0.00083265,-0.00007098,-0.0000
 0009,-0.00006596,0.00002950,-0.00004746,-0.00000618,-0.00006719,-0.000
 04222,-0.00045883,-0.00090515,-0.00204478,-0.00332888,0.00026834,0.099
 83438,-0.00049998,0.00067603,0.00107253,0.00789062,0.00554288,-0.00025
 867,0.00675287,-0.00670753,-0.01513222,0.08437857,-0.14317372,-0.11258
 508,-0.00254304,0.00461190,0.00453735,-0.00003557,-0.00082890,-0.00056
 910,-0.00014035,0.00002958,0.00005512,0.00300911,-0.00051386,0.0001491
 9,-0.00075471,0.00027270,0.00009375,-0.00003688,0.00030519,0.00000360,
 -0.00010325,-0.00013500,0.00010010,-0.00002121,-0.00001932,-0.00002383
 ,0.00028507,-0.00127889,-0.00205027,-0.00314420,-0.00233127,0.00102287
 ,-0.09507285,0.14369763,0.00028503,-0.00019780,0.00018201,-0.00320722,
 -0.00029020,-0.00039087,-0.00490901,0.00627491,0.00819260,0.08577393,-
 0.11448130,-0.18351275,0.01366833,-0.01595743,-0.01118952,-0.00036680,
 -0.00060770,0.00030263,0.00039568,0.00005136,-0.00050344,-0.00303220,0
 .00137322,-0.00205353,0.00100885,-0.00100806,-0.00177672,0.00000448,0.
 00009329,-0.00000805,0.00001874,0.00005490,-0.00007560,0.00001658,-0.0
 0013403,0.00002554,-0.00007384,0.00036213,0.00083328,0.00095333,0.0001
 4769,0.00043952,-0.09043807,0.12363652,0.18893226,0.00009860,-0.000069
 34,0.00003912,-0.00093468,-0.00093851,0.00036923,-0.00015292,-0.000613
 73,0.00009305,0.00187054,-0.00011167,0.00106793,-0.29125296,0.04235561
 ,-0.09366671,-0.01700045,0.00630889,-0.00619550,0.00420624,-0.00083184
 ,-0.00107129,-0.00650714,-0.00499099,-0.00066307,0.00218361,0.00070177
 ,0.00050509,-0.00000469,0.00002494,0.00001118,0.00007377,0.00006412,-0
 .00003037,0.00001094,-0.00000121,0.00000737,0.00000326,0.00051611,-0.0
 0032093,0.00019522,-0.00008385,0.00004361,0.00002102,0.00010113,-0.000
 54415,0.30926202,0.00028596,0.00028619,0.00031979,0.00493709,-0.000627
 57,-0.00217205,-0.00006681,0.00014273,-0.00162888,-0.00183259,-0.00164
 308,0.00182971,0.04140607,-0.03868875,0.01039795,-0.01802924,0.0003518
 1,-0.00945214,0.00315422,0.00106924,-0.00332050,0.01953020,0.00174268,
 0.01559000,-0.00536660,0.00214702,0.00084852,0.00000188,0.00003477,-0.
 00000398,-0.00014347,-0.00015173,0.00000676,-0.00010681,-0.00024095,0.
 00000158,0.00114273,-0.00115423,0.00141910,0.00046591,0.00040375,0.000
 36461,0.00007592,0.00005606,0.00047011,-0.04312491,0.03652049,-0.00005
 964,-0.00007946,0.00028234,0.00039855,-0.00034093,-0.00167684,-0.00123
 102,-0.00104706,-0.00538286,-0.02639702,0.00606962,-0.00136999,-0.0943
 9194,0.01297373,-0.08186696,0.01542248,-0.00444750,0.00172042,-0.00117
 894,-0.00037847,0.00233398,0.01015136,0.00216436,0.00045313,-0.0021770
 4,0.00006087,0.00078417,0.00000055,0.00015847,0.00003278,0.00001519,-0
 .00001920,-0.00005635,0.00002561,-0.00009604,0.00003343,-0.00001480,-0
 .00004413,0.00069649,-0.00008930,0.00209308,-0.00028603,0.00082806,-0.
 00028604,0.00058718,0.09809025,-0.01721901,0.08423106,0.00007077,0.000
 01564,0.00026890,0.00108858,-0.00107426,0.00002323,0.00163077,-0.00017
 137,0.00047826,0.00027866,0.00262791,-0.00356809,-0.01556686,-0.011535
 58,-0.00711777,-0.19815348,-0.10580033,-0.08731341,0.00094730,0.002350
 35,-0.00593908,0.00212086,0.00113590,0.00739733,0.00159156,0.00293036,
 0.00015594,0.00001586,-0.00001846,-0.00001165,-0.00004242,0.00005449,-
 0.00003833,-0.00002359,-0.00006693,0.00000785,-0.00027846,-0.00057755,
 0.00026116,-0.00001904,-0.00019621,0.00004593,-0.00008048,-0.00012306,
 0.00030941,-0.00093668,-0.00297269,0.00060473,0.20842341,0.00032888,0.
 00003999,-0.00015611,-0.00042208,0.00195309,-0.00216039,0.00031317,-0.
 00018741,0.00022714,-0.00116223,0.00148433,0.00076837,0.00293748,-0.00
 123580,0.00450761,-0.10694457,-0.11629856,-0.05664246,0.01022800,0.008
 30843,0.00808944,-0.01927366,-0.00692630,-0.00926307,-0.00390874,-0.00
 387083,-0.00113191,-0.00006692,0.00007360,-0.00000962,0.00005951,0.000
 18557,-0.00004561,0.00003560,-0.00001380,0.00004831,0.00111977,-0.0002
 8274,0.00044325,0.00001179,0.00007448,0.00007940,0.00003193,-0.0002566
 9,0.00057777,0.00126767,0.00036137,-0.00052718,0.11374790,0.11644620,0
 .00009625,0.00001037,-0.00015563,0.00022272,0.00124475,0.00044292,-0.0
 0134178,-0.00066315,0.00082170,0.00232114,-0.00123685,0.00314827,0.013
 43581,0.00702242,0.00322338,-0.08632582,-0.05427261,-0.08820972,-0.024
 69366,-0.00861513,-0.02757309,-0.00028882,0.00043339,-0.00068021,-0.00
 006193,-0.00068549,0.00080357,-0.00003890,0.00000604,-0.00000541,-0.00
 000468,0.00003878,-0.00002332,0.00001378,0.00004014,0.00000878,0.00015
 527,-0.00029891,0.00027026,-0.00004668,0.00006017,-0.00002883,0.000409
 64,0.00025908,-0.00015358,0.00103039,0.00225976,-0.00069463,0.09534103
 ,0.05453946,0.11003280,0.00013585,-0.00010044,0.00013176,-0.00061640,-
 0.00005082,-0.00008280,-0.00029240,-0.00014359,-0.00006162,-0.00018313
 ,-0.00021932,0.00052887,0.00462861,-0.00025752,-0.00018378,-0.00537298
 ,0.00524162,0.00074329,-0.16446119,0.23932315,-0.00832823,-0.00003554,
 -0.00495815,-0.00032248,-0.00007114,-0.00148626,0.00185143,-0.00000960
 ,0.00004347,0.00000566,0.00001346,0.00001990,-0.00000574,0.00000980,-0
 .00005334,0.00002681,0.00001395,0.00016323,-0.00007548,0.00002298,0.00
 010035,-0.00002039,0.00001986,-0.00000868,0.00000065,-0.00058695,0.000
 27075,-0.00043656,-0.00074422,0.00099358,-0.00027046,0.16709645,0.0001
 3207,0.00006955,0.00036921,-0.00050573,-0.00034527,-0.00011603,-0.0001
 2056,-0.00018394,-0.00061996,0.00049916,0.00096589,0.00054448,-0.00137
 531,0.00000213,-0.00359364,0.00440559,-0.00898319,0.00152141,0.2364308
 3,-0.35043154,0.00737700,0.00158948,-0.00133497,0.00243848,-0.00001560
 ,0.00075558,0.00175418,0.00000261,0.00009928,0.00000482,-0.00000952,-0
 .00000313,-0.00000897,-0.00001045,-0.00009837,0.00000628,-0.00001040,0
 .00007523,0.00001611,-0.00017397,0.00001911,0.00004743,0.00000079,0.00
 004888,-0.00016276,-0.00083408,-0.00061552,0.00107624,-0.00039959,0.00
 036343,-0.00175024,-0.24085408,0.35822875,-0.00021492,0.00001857,-0.00
 058914,0.00135052,0.00136738,-0.00003640,-0.00011214,0.00010765,0.0005
 8960,-0.00032791,-0.00066552,-0.00014911,0.00092234,-0.00101058,0.0028
 3931,-0.02510501,0.04053282,-0.01098312,0.02002739,-0.03252294,-0.0387
 3855,-0.00425604,0.00000702,-0.00628617,-0.00061753,-0.00187768,0.0008
 8008,-0.00001863,-0.00004784,-0.00000590,0.00001478,0.00002447,-0.0000
 0149,0.00002616,0.00019151,0.00001885,0.00014443,-0.00009294,0.0000772
 8,0.00011935,-0.00001641,-0.00004552,0.00003107,0.00002411,0.00005551,
 0.00117250,0.00052012,-0.00009602,-0.00079291,0.00025757,-0.00075619,0
 .00647066,-0.00863770,0.05302263,-0.00023832,-0.00032278,0.00018240,-0
 .00021862,-0.00245192,-0.00385224,-0.00097055,0.00058587,-0.00062736,-
 0.00039363,-0.00011082,0.00003983,-0.00026019,-0.00018956,0.00122616,0
 .00355037,0.00003587,-0.00095769,-0.00392367,-0.00081834,-0.00124743,-
 0.00344382,0.00808127,-0.01223369,-0.00688967,0.00099867,-0.01838825,0
 .00008097,-0.00010936,0.00000041,0.00013076,0.00007804,-0.00004697,0.0
 0007648,-0.00001163,-0.00001262,-0.00029971,0.00002694,-0.00010680,0.0
 0036789,-0.00001531,-0.00028807,0.00007575,0.00006640,0.00013628,-0.00
 054876,0.00037240,0.00043949,-0.00032254,0.00070292,0.00004668,0.00043
 259,0.00124875,0.00116589,0.01279467,0.00035277,-0.00035784,0.00027533
 ,-0.00089379,-0.00270290,-0.00227825,-0.00049762,0.00042357,-0.0004835
 2,-0.00000431,-0.00098736,-0.00023809,0.00007864,-0.00076709,-0.001437
 12,-0.00305703,-0.00132610,-0.00871698,-0.00167774,0.00054329,0.000950
 74,-0.00110397,0.01535123,-0.02232750,0.01266926,-0.22112352,0.2425920
 0,-0.00016382,0.00011340,0.00014768,0.00003286,0.00001406,-0.00007621,
 -0.00000509,0.00005556,0.00008097,-0.00004012,0.00003976,-0.00005736,0
 .00015135,-0.00013563,-0.00027567,0.00001646,0.00000432,-0.00020263,0.
 00025991,0.00000572,-0.00011136,0.00007350,-0.00021836,0.00160803,0.00
 197616,0.00136813,0.00182039,-0.00816743,0.20969976,0.00034187,-0.0006
 1176,0.00036753,0.00126324,-0.00286303,-0.00135414,-0.00036414,0.00019
 569,-0.00065416,0.00001961,0.00033607,-0.00115384,-0.00087416,0.001316
 55,-0.00066697,-0.00167222,0.00138068,0.00068785,0.00181126,0.00079139
 ,-0.00019788,-0.00689818,0.01471803,-0.04065527,-0.02807827,0.19619718
 ,-0.30638040,-0.00013608,0.00021976,0.00003395,0.00005000,0.00003965,-
 0.00004967,0.00004023,-0.00003381,0.00017332,-0.00007779,0.00000271,-0
 .00017080,0.00008526,-0.00026989,-0.00011597,-0.00001279,-0.00004900,0
 .00011355,0.00006231,-0.00023145,0.00027467,-0.00011253,0.00039802,-0.
 00047107,0.00002842,-0.00026635,0.00020437,0.03452397,-0.21127045,0.35
 001494\\-0.00000376,-0.00000117,-0.00000507,-0.00000968,0.00000149,0.0
 0004010,0.00002283,-0.00002281,-0.00002234,-0.00001331,0.00001936,-0.0
 0000267,-0.00001798,-0.00002641,-0.00000963,0.00003142,-0.00001399,0.0
 0007850,0.00000992,0.00000356,-0.00004349,-0.00002188,0.00004280,-0.00
 000991,-0.00000077,-0.00002626,0.00000977,0.00000359,0.00000789,-0.000
 00109,-0.00000298,-0.00000435,0.00000139,-0.00000339,-0.00000097,0.000
 00388,0.00000639,-0.00000126,-0.00000236,-0.00001579,0.00000491,0.0000
 0064,-0.00000089,-0.00000839,-0.00000508,0.00000805,0.00000291,-0.0000
 0863,-0.00000061,-0.00000076,-0.00001515,-0.00000441,0.00001087,0.0000
 0382,0.00001325,0.00001259,-0.00001268\\\@


 IF YOU PERCEIVE THAT THERE ARE FOUR POSSIBLE WAYS IN
 WHICH A PROCEDURE CAN GO WRONG AND CIRCUMVENT THESE, 
 THEN A FIFTH WAY WILL DEVELOP.

                              -- MURPHY'S TWELFTH LAW
 Job cpu time:       0 days  0 hours 43 minutes 50.6 seconds.
 File lengths (MBytes):  RWF=    152 Int=      0 D2E=      0 Chk=      8 Scr=      1
 Normal termination of Gaussian 09 at Mon Jan 27 23:38:41 2020.
