 Entering Gaussian System, Link 0=/home/puck/opt/gaussian_09/g09
 Input=dsC7O2H10nsd_0548.com
 Output=dsC7O2H10nsd_0548.log
 Initial command:
 /home/puck/opt/gaussian_09/l1.exe "/scratch/puck/g09_b6b4af11-9faa-45ab-a44c-243ac2bd5e6b/Gau-35487.inp" -scrdir="/scratch/puck/g09_b6b4af11-9faa-45ab-a44c-243ac2bd5e6b/"
 Entering Link 1 = /home/puck/opt/gaussian_09/l1.exe PID=     35499.
  
 Copyright (c) 1988,1990,1992,1993,1995,1998,2003,2009,2013,
            Gaussian, Inc.  All Rights Reserved.
  
 This is part of the Gaussian(R) 09 program.  It is based on
 the Gaussian(R) 03 system (copyright 2003, Gaussian, Inc.),
 the Gaussian(R) 98 system (copyright 1998, Gaussian, Inc.),
 the Gaussian(R) 94 system (copyright 1995, Gaussian, Inc.),
 the Gaussian 92(TM) system (copyright 1992, Gaussian, Inc.),
 the Gaussian 90(TM) system (copyright 1990, Gaussian, Inc.),
 the Gaussian 88(TM) system (copyright 1988, Gaussian, Inc.),
 the Gaussian 86(TM) system (copyright 1986, Carnegie Mellon
 University), and the Gaussian 82(TM) system (copyright 1983,
 Carnegie Mellon University). Gaussian is a federally registered
 trademark of Gaussian, Inc.
  
 This software contains proprietary and confidential information,
 including trade secrets, belonging to Gaussian, Inc.
  
 This software is provided under written license and may be
 used, copied, transmitted, or stored only in accord with that
 written license.
  
 The following legend is applicable only to US Government
 contracts under FAR:
  
                    RESTRICTED RIGHTS LEGEND
  
 Use, reproduction and disclosure by the US Government is
 subject to restrictions as set forth in subparagraphs (a)
 and (c) of the Commercial Computer Software - Restricted
 Rights clause in FAR 52.227-19.
  
 Gaussian, Inc.
 340 Quinnipiac St., Bldg. 40, Wallingford CT 06492
  
  
 ---------------------------------------------------------------
 Warning -- This program may not be used in any manner that
 competes with the business of Gaussian, Inc. or will provide
 assistance to any competitor of Gaussian, Inc.  The licensee
 of this program is prohibited from giving any competitor of
 Gaussian, Inc. access to this program.  By using this program,
 the user acknowledges that Gaussian, Inc. is engaged in the
 business of creating and licensing software in the field of
 computational chemistry and represents and warrants to the
 licensee that it is not a competitor of Gaussian, Inc. and that
 it will not use this program in any manner prohibited above.
 ---------------------------------------------------------------
  

 Cite this work as:
 Gaussian 09, Revision D.01,
 M. J. Frisch, G. W. Trucks, H. B. Schlegel, G. E. Scuseria, 
 M. A. Robb, J. R. Cheeseman, G. Scalmani, V. Barone, B. Mennucci, 
 G. A. Petersson, H. Nakatsuji, M. Caricato, X. Li, H. P. Hratchian, 
 A. F. Izmaylov, J. Bloino, G. Zheng, J. L. Sonnenberg, M. Hada, 
 M. Ehara, K. Toyota, R. Fukuda, J. Hasegawa, M. Ishida, T. Nakajima, 
 Y. Honda, O. Kitao, H. Nakai, T. Vreven, J. A. Montgomery, Jr., 
 J. E. Peralta, F. Ogliaro, M. Bearpark, J. J. Heyd, E. Brothers, 
 K. N. Kudin, V. N. Staroverov, T. Keith, R. Kobayashi, J. Normand, 
 K. Raghavachari, A. Rendell, J. C. Burant, S. S. Iyengar, J. Tomasi, 
 M. Cossi, N. Rega, J. M. Millam, M. Klene, J. E. Knox, J. B. Cross, 
 V. Bakken, C. Adamo, J. Jaramillo, R. Gomperts, R. E. Stratmann, 
 O. Yazyev, A. J. Austin, R. Cammi, C. Pomelli, J. W. Ochterski, 
 R. L. Martin, K. Morokuma, V. G. Zakrzewski, G. A. Voth, 
 P. Salvador, J. J. Dannenberg, S. Dapprich, A. D. Daniels, 
 O. Farkas, J. B. Foresman, J. V. Ortiz, J. Cioslowski, 
 and D. J. Fox, Gaussian, Inc., Wallingford CT, 2013.
 
 ******************************************
 Gaussian 09:  ES64L-G09RevD.01 24-Apr-2013
                27-Jan-2020 
 ******************************************
 -----------------------------
 # b3lyp 6-31G(2df,p) opt Freq
 -----------------------------
 1/14=-1,18=20,19=15,26=3,38=1/1,3;
 2/9=110,12=2,17=6,18=5,40=1/2;
 3/5=1,6=6,7=104,11=2,16=1,25=1,30=1,71=1,74=-5/1,2,3;
 4//1;
 5/5=2,38=5/2;
 6/7=2,8=2,9=2,10=2,28=1/1;
 7//1,2,3,16;
 1/14=-1,18=20,19=15,26=3/3(2);
 2/9=110/2;
 99//99;
 2/9=110/2;
 3/5=1,6=6,7=104,11=2,16=1,25=1,30=1,71=1,74=-5/1,2,3;
 4/5=5,16=3,69=1/1;
 5/5=2,38=5/2;
 7//1,2,3,16;
 1/14=-1,18=20,19=15,26=3/3(-5);
 2/9=110/2;
 6/7=2,8=2,9=2,10=2,19=2,28=1/1;
 99/9=1/99;
 -----
 titel
 -----
 Symbolic Z-matrix:
 Charge =  0 Multiplicity = 1
 C                     1.44027   0.35136  -1.2117 
 C                    -0.11054   0.22869  -1.12842 
 C                    -0.06481   0.58902   0.38021 
 C                     1.50209   0.73017   0.29342 
 C                     1.93858  -0.38899   1.24861 
 C                     1.5622    0.02541   2.6856 
 O                     0.12925  -0.10639   2.66594 
 C                    -0.16518  -0.58963   1.35565 
 O                     0.94304  -1.40734   1.0177 
 H                     1.96028  -0.57592  -1.46368 
 H                     1.79275   1.13987  -1.88049 
 H                    -0.64987   0.95687  -1.73852 
 H                    -0.50652  -0.76646  -1.34639 
 H                    -0.65307   1.44454   0.71092 
 H                     1.94846   1.69608   0.5345 
 H                     2.9371   -0.80301   1.11058 
 H                     1.98312  -0.65131   3.438 
 H                     1.84617   1.05599   2.92503 
 H                    -1.08723  -1.17143   1.3716 
 

 GradGradGradGradGradGradGradGradGradGradGradGradGradGradGradGradGradGrad
 Berny optimization.
 Initialization pass.
                           ----------------------------
                           !    Initial Parameters    !
                           ! (Angstroms and Degrees)  !
 --------------------------                            --------------------------
 ! Name  Definition              Value          Derivative Info.                !
 --------------------------------------------------------------------------------
 ! R1    R(1,2)                  1.5579         estimate D2E/DX2                !
 ! R2    R(1,4)                  1.5533         estimate D2E/DX2                !
 ! R3    R(1,10)                 1.0926         estimate D2E/DX2                !
 ! R4    R(1,11)                 1.0924         estimate D2E/DX2                !
 ! R5    R(2,3)                  1.5517         estimate D2E/DX2                !
 ! R6    R(2,12)                 1.0924         estimate D2E/DX2                !
 ! R7    R(2,13)                 1.093          estimate D2E/DX2                !
 ! R8    R(3,4)                  1.5756         estimate D2E/DX2                !
 ! R9    R(3,8)                  1.5332         estimate D2E/DX2                !
 ! R10   R(3,14)                 1.0896         estimate D2E/DX2                !
 ! R11   R(4,5)                  1.5347         estimate D2E/DX2                !
 ! R12   R(4,15)                 1.091          estimate D2E/DX2                !
 ! R13   R(5,6)                  1.5422         estimate D2E/DX2                !
 ! R14   R(5,9)                  1.4427         estimate D2E/DX2                !
 ! R15   R(5,16)                 1.0897         estimate D2E/DX2                !
 ! R16   R(6,7)                  1.4391         estimate D2E/DX2                !
 ! R17   R(6,17)                 1.096          estimate D2E/DX2                !
 ! R18   R(6,18)                 1.0955         estimate D2E/DX2                !
 ! R19   R(7,8)                  1.4273         estimate D2E/DX2                !
 ! R20   R(8,9)                  1.4181         estimate D2E/DX2                !
 ! R21   R(8,19)                 1.0904         estimate D2E/DX2                !
 ! A1    A(2,1,4)               90.4024         estimate D2E/DX2                !
 ! A2    A(2,1,10)             114.7894         estimate D2E/DX2                !
 ! A3    A(2,1,11)             114.2532         estimate D2E/DX2                !
 ! A4    A(4,1,10)             114.2997         estimate D2E/DX2                !
 ! A5    A(4,1,11)             113.8516         estimate D2E/DX2                !
 ! A6    A(10,1,11)            108.5332         estimate D2E/DX2                !
 ! A7    A(1,2,3)               90.249          estimate D2E/DX2                !
 ! A8    A(1,2,12)             114.15           estimate D2E/DX2                !
 ! A9    A(1,2,13)             114.9402         estimate D2E/DX2                !
 ! A10   A(3,2,12)             113.7496         estimate D2E/DX2                !
 ! A11   A(3,2,13)             114.5813         estimate D2E/DX2                !
 ! A12   A(12,2,13)            108.4619         estimate D2E/DX2                !
 ! A13   A(2,3,4)               89.803          estimate D2E/DX2                !
 ! A14   A(2,3,8)              115.9821         estimate D2E/DX2                !
 ! A15   A(2,3,14)             117.4825         estimate D2E/DX2                !
 ! A16   A(4,3,8)               99.7301         estimate D2E/DX2                !
 ! A17   A(4,3,14)             118.8981         estimate D2E/DX2                !
 ! A18   A(8,3,14)             112.0324         estimate D2E/DX2                !
 ! A19   A(1,4,3)               89.5386         estimate D2E/DX2                !
 ! A20   A(1,4,5)              115.8844         estimate D2E/DX2                !
 ! A21   A(1,4,15)             116.507          estimate D2E/DX2                !
 ! A22   A(3,4,5)              100.5577         estimate D2E/DX2                !
 ! A23   A(3,4,15)             118.2943         estimate D2E/DX2                !
 ! A24   A(5,4,15)             113.0605         estimate D2E/DX2                !
 ! A25   A(4,5,6)              108.3351         estimate D2E/DX2                !
 ! A26   A(4,5,9)              102.6416         estimate D2E/DX2                !
 ! A27   A(4,5,16)             117.3111         estimate D2E/DX2                !
 ! A28   A(6,5,9)               99.8107         estimate D2E/DX2                !
 ! A29   A(6,5,16)             116.3431         estimate D2E/DX2                !
 ! A30   A(9,5,16)             110.1106         estimate D2E/DX2                !
 ! A31   A(5,6,7)              101.8685         estimate D2E/DX2                !
 ! A32   A(5,6,17)             112.3358         estimate D2E/DX2                !
 ! A33   A(5,6,18)             113.1527         estimate D2E/DX2                !
 ! A34   A(7,6,17)             109.5863         estimate D2E/DX2                !
 ! A35   A(7,6,18)             110.3188         estimate D2E/DX2                !
 ! A36   A(17,6,18)            109.3462         estimate D2E/DX2                !
 ! A37   A(6,7,8)              104.4155         estimate D2E/DX2                !
 ! A38   A(3,8,7)              108.0762         estimate D2E/DX2                !
 ! A39   A(3,8,9)              103.916          estimate D2E/DX2                !
 ! A40   A(3,8,19)             118.3491         estimate D2E/DX2                !
 ! A41   A(7,8,9)              104.6436         estimate D2E/DX2                !
 ! A42   A(7,8,19)             109.9787         estimate D2E/DX2                !
 ! A43   A(9,8,19)             110.8949         estimate D2E/DX2                !
 ! A44   A(5,9,8)               95.3997         estimate D2E/DX2                !
 ! D1    D(4,1,2,3)             -0.6379         estimate D2E/DX2                !
 ! D2    D(4,1,2,12)           115.6783         estimate D2E/DX2                !
 ! D3    D(4,1,2,13)          -118.076          estimate D2E/DX2                !
 ! D4    D(10,1,2,3)           116.5257         estimate D2E/DX2                !
 ! D5    D(10,1,2,12)         -127.1582         estimate D2E/DX2                !
 ! D6    D(10,1,2,13)           -0.9124         estimate D2E/DX2                !
 ! D7    D(11,1,2,3)          -117.1693         estimate D2E/DX2                !
 ! D8    D(11,1,2,12)           -0.8532         estimate D2E/DX2                !
 ! D9    D(11,1,2,13)          125.3926         estimate D2E/DX2                !
 ! D10   D(2,1,4,3)              0.6282         estimate D2E/DX2                !
 ! D11   D(2,1,4,5)            102.1509         estimate D2E/DX2                !
 ! D12   D(2,1,4,15)          -121.0859         estimate D2E/DX2                !
 ! D13   D(10,1,4,3)          -116.9671         estimate D2E/DX2                !
 ! D14   D(10,1,4,5)           -15.4444         estimate D2E/DX2                !
 ! D15   D(10,1,4,15)          121.3188         estimate D2E/DX2                !
 ! D16   D(11,1,4,3)           117.516          estimate D2E/DX2                !
 ! D17   D(11,1,4,5)          -140.9614         estimate D2E/DX2                !
 ! D18   D(11,1,4,15)           -4.1982         estimate D2E/DX2                !
 ! D19   D(1,2,3,4)              0.6288         estimate D2E/DX2                !
 ! D20   D(1,2,3,8)           -100.1101         estimate D2E/DX2                !
 ! D21   D(1,2,3,14)           123.5128         estimate D2E/DX2                !
 ! D22   D(12,2,3,4)          -116.0441         estimate D2E/DX2                !
 ! D23   D(12,2,3,8)           143.217          estimate D2E/DX2                !
 ! D24   D(12,2,3,14)            6.8398         estimate D2E/DX2                !
 ! D25   D(13,2,3,4)           118.3836         estimate D2E/DX2                !
 ! D26   D(13,2,3,8)            17.6447         estimate D2E/DX2                !
 ! D27   D(13,2,3,14)         -118.7324         estimate D2E/DX2                !
 ! D28   D(2,3,4,1)             -0.6307         estimate D2E/DX2                !
 ! D29   D(2,3,4,5)           -116.8998         estimate D2E/DX2                !
 ! D30   D(2,3,4,15)           119.5379         estimate D2E/DX2                !
 ! D31   D(8,3,4,1)            115.7221         estimate D2E/DX2                !
 ! D32   D(8,3,4,5)             -0.547          estimate D2E/DX2                !
 ! D33   D(8,3,4,15)          -124.1093         estimate D2E/DX2                !
 ! D34   D(14,3,4,1)          -122.3137         estimate D2E/DX2                !
 ! D35   D(14,3,4,5)           121.4172         estimate D2E/DX2                !
 ! D36   D(14,3,4,15)           -2.1451         estimate D2E/DX2                !
 ! D37   D(2,3,8,7)            169.8968         estimate D2E/DX2                !
 ! D38   D(2,3,8,9)             59.113          estimate D2E/DX2                !
 ! D39   D(2,3,8,19)           -64.3361         estimate D2E/DX2                !
 ! D40   D(4,3,8,7)             75.3263         estimate D2E/DX2                !
 ! D41   D(4,3,8,9)            -35.4575         estimate D2E/DX2                !
 ! D42   D(4,3,8,19)          -158.9066         estimate D2E/DX2                !
 ! D43   D(14,3,8,7)           -51.4238         estimate D2E/DX2                !
 ! D44   D(14,3,8,9)          -162.2075         estimate D2E/DX2                !
 ! D45   D(14,3,8,19)           74.3433         estimate D2E/DX2                !
 ! D46   D(1,4,5,6)           -164.1135         estimate D2E/DX2                !
 ! D47   D(1,4,5,9)            -59.1446         estimate D2E/DX2                !
 ! D48   D(1,4,5,16)            61.6794         estimate D2E/DX2                !
 ! D49   D(3,4,5,6)            -69.4482         estimate D2E/DX2                !
 ! D50   D(3,4,5,9)             35.5207         estimate D2E/DX2                !
 ! D51   D(3,4,5,16)           156.3446         estimate D2E/DX2                !
 ! D52   D(15,4,5,6)            57.6644         estimate D2E/DX2                !
 ! D53   D(15,4,5,9)           162.6333         estimate D2E/DX2                !
 ! D54   D(15,4,5,16)          -76.5427         estimate D2E/DX2                !
 ! D55   D(4,5,6,7)             71.8348         estimate D2E/DX2                !
 ! D56   D(4,5,6,17)          -170.9921         estimate D2E/DX2                !
 ! D57   D(4,5,6,18)           -46.5752         estimate D2E/DX2                !
 ! D58   D(9,5,6,7)            -35.1            estimate D2E/DX2                !
 ! D59   D(9,5,6,17)            82.073          estimate D2E/DX2                !
 ! D60   D(9,5,6,18)          -153.51           estimate D2E/DX2                !
 ! D61   D(16,5,6,7)          -153.4591         estimate D2E/DX2                !
 ! D62   D(16,5,6,17)          -36.2861         estimate D2E/DX2                !
 ! D63   D(16,5,6,18)           88.1309         estimate D2E/DX2                !
 ! D64   D(4,5,9,8)            -57.9836         estimate D2E/DX2                !
 ! D65   D(6,5,9,8)             53.483          estimate D2E/DX2                !
 ! D66   D(16,5,9,8)           176.3634         estimate D2E/DX2                !
 ! D67   D(5,6,7,8)              1.9511         estimate D2E/DX2                !
 ! D68   D(17,6,7,8)          -117.19           estimate D2E/DX2                !
 ! D69   D(18,6,7,8)           122.3654         estimate D2E/DX2                !
 ! D70   D(6,7,8,3)            -77.1903         estimate D2E/DX2                !
 ! D71   D(6,7,8,9)             33.0991         estimate D2E/DX2                !
 ! D72   D(6,7,8,19)           152.2576         estimate D2E/DX2                !
 ! D73   D(3,8,9,5)             58.2437         estimate D2E/DX2                !
 ! D74   D(7,8,9,5)            -55.0308         estimate D2E/DX2                !
 ! D75   D(19,8,9,5)          -173.5695         estimate D2E/DX2                !
 --------------------------------------------------------------------------------
 Trust Radius=3.00D-01 FncErr=1.00D-07 GrdErr=1.00D-06
 Number of steps in this run=    114 maximum allowed number of steps=    114.
 GradGradGradGradGradGradGradGradGradGradGradGradGradGradGradGradGradGrad

                          Input orientation:                          
 ---------------------------------------------------------------------
 Center     Atomic      Atomic             Coordinates (Angstroms)
 Number     Number       Type             X           Y           Z
 ---------------------------------------------------------------------
      1          6           0        1.440270    0.351356   -1.211699
      2          6           0       -0.110543    0.228691   -1.128424
      3          6           0       -0.064809    0.589020    0.380206
      4          6           0        1.502088    0.730170    0.293421
      5          6           0        1.938580   -0.388986    1.248611
      6          6           0        1.562205    0.025405    2.685601
      7          8           0        0.129248   -0.106394    2.665937
      8          6           0       -0.165176   -0.589632    1.355650
      9          8           0        0.943040   -1.407337    1.017700
     10          1           0        1.960278   -0.575924   -1.463676
     11          1           0        1.792750    1.139873   -1.880494
     12          1           0       -0.649867    0.956867   -1.738519
     13          1           0       -0.506521   -0.766460   -1.346393
     14          1           0       -0.653070    1.444536    0.710920
     15          1           0        1.948462    1.696076    0.534501
     16          1           0        2.937104   -0.803014    1.110575
     17          1           0        1.983115   -0.651313    3.438000
     18          1           0        1.846167    1.055993    2.925034
     19          1           0       -1.087229   -1.171434    1.371600
 ---------------------------------------------------------------------
                    Distance matrix (angstroms):
                    1          2          3          4          5
     1  C    0.000000
     2  C    1.557885   0.000000
     3  C    2.203614   1.551740   0.000000
     4  C    1.553289   2.207647   1.575634   0.000000
     5  C    2.617163   3.198551   2.392528   1.534739   0.000000
     6  C    3.912807   4.169676   2.877443   2.494561   1.542180
     7  O    4.118784   3.816669   2.397045   2.865897   2.315676
     8  C    3.170836   2.615963   1.533227   2.376969   2.116012
     9  O    2.882786   2.896976   2.325424   2.325092   1.442727
    10  H    1.092588   2.246798   2.976235   2.236785   2.718807
    11  H    1.092377   2.240176   2.977370   2.231198   3.485681
    12  H    2.238941   1.092395   2.228588   2.968347   4.175443
    13  H    2.248922   1.092993   2.239103   2.993894   3.585394
    14  H    3.045256   2.270639   1.089646   2.308535   3.219870
    15  H    2.261801   3.026225   2.302746   1.091028   2.203981
    16  H    2.994335   3.919909   3.388610   2.253368   1.089735
    17  H    4.787456   5.100004   3.883622   3.468179   2.205499
    18  H    4.215902   4.576426   3.216527   2.673937   2.215152
    19  H    3.921808   3.027273   2.264376   3.388677   3.127759
                    6          7          8          9         10
     6  C    0.000000
     7  O    1.439140   0.000000
     8  C    2.265146   1.427255   0.000000
     9  O    2.284296   2.251976   1.418095   0.000000
    10  H    4.211479   4.541677   3.530771   2.807711   0.000000
    11  H    4.705785   4.999045   4.159001   3.950925   1.773631
    12  H    5.033262   4.597476   3.492917   3.965294   3.039382
    13  H    4.600397   4.115663   2.729253   2.846205   2.476924
    14  H    3.289489   2.615243   2.188962   3.282508   3.954834
    15  H    2.750921   3.331885   3.219660   3.297806   3.025695
    16  H    2.248851   3.284583   3.119252   2.085695   2.762703
    17  H    1.096001   2.080827   2.992514   2.740654   4.902309
    18  H    1.095479   2.089518   3.035877   3.243695   4.683690
    19  H    3.190380   2.071096   1.090380   2.074340   4.204844
                   11         12         13         14         15
    11  H    0.000000
    12  H    2.453574   0.000000
    13  H    3.034142   1.773180   0.000000
    14  H    3.576350   2.497516   3.023659   0.000000
    15  H    2.483104   3.530490   3.953325   2.619612   0.000000
    16  H    3.745778   4.907227   4.230435   4.254475   2.748586
    17  H    5.615244   6.026209   5.394623   4.333477   3.733864
    18  H    4.806557   5.290439   5.205916   3.361466   2.476857
    19  H    4.920623   3.793915   2.808685   2.732817   4.258963
                   16         17         18         19
    16  H    0.000000
    17  H    2.519923   0.000000
    18  H    2.817501   1.787954   0.000000
    19  H    4.049583   3.737319   3.997425   0.000000
 Stoichiometry    C7H10O2
 Framework group  C1[X(C7H10O2)]
 Deg. of freedom    51
 Full point group                 C1      NOp   1
 Largest Abelian subgroup         C1      NOp   1
 Largest concise Abelian subgroup C1      NOp   1
                         Standard orientation:                         
 ---------------------------------------------------------------------
 Center     Atomic      Atomic             Coordinates (Angstroms)
 Number     Number       Type             X           Y           Z
 ---------------------------------------------------------------------
      1          6           0        1.999956    0.802261    0.063639
      2          6           0        2.024341   -0.754803    0.019338
      3          6           0        0.615152   -0.765137   -0.630259
      4          6           0        0.596424    0.810128   -0.601751
      5          6           0       -0.589824    1.060263    0.339350
      6          6           0       -1.883302    0.641647   -0.388658
      7          8           0       -1.769882   -0.793012   -0.392219
      8          6           0       -0.557560   -1.055350    0.313834
      9          8           0       -0.477481   -0.024279    1.284130
     10          1           0        2.023943    1.232415    1.067702
     11          1           0        2.776538    1.280482   -0.537619
     12          1           0        2.806343   -1.171544   -0.619508
     13          1           0        2.078454   -1.242866    0.995811
     14          1           0        0.506036   -1.275825   -1.586617
     15          1           0        0.509865    1.343521   -1.549559
     16          1           0       -0.618134    2.014129    0.865524
     17          1           0       -2.784612    0.937584    0.160231
     18          1           0       -1.942210    1.021122   -1.414622
     19          1           0       -0.608449   -2.034745    0.790409
 ---------------------------------------------------------------------
 Rotational constants (GHZ):      3.4970660      1.6803792      1.4942479
 Standard basis: 6-31G(2df,p) (6D, 7F)
 There are   329 symmetry adapted cartesian basis functions of A   symmetry.
 There are   302 symmetry adapted basis functions of A   symmetry.
   302 basis functions,   466 primitive gaussians,   329 cartesian basis functions
    34 alpha electrons       34 beta electrons
       nuclear repulsion energy       496.5917639246 Hartrees.
 NAtoms=   19 NActive=   19 NUniq=   19 SFac= 1.00D+00 NAtFMM=   60 NAOKFM=F Big=F
 Integral buffers will be    131072 words long.
 Raffenetti 2 integral format.
 Two-electron integral symmetry is turned on.
 One-electron integrals computed using PRISM.
 NBasis=   302 RedAO= T EigKep=  2.90D-04  NBF=   302
 NBsUse=   302 1.00D-06 EigRej= -1.00D+00 NBFU=   302
 ExpMin= 1.61D-01 ExpMax= 5.48D+03 ExpMxC= 8.25D+02 IAcc=1 IRadAn=         1 AccDes= 0.00D+00
 Harris functional with IExCor=  402 and IRadAn=       1 diagonalized for initial guess.
 HarFok:  IExCor=  402 AccDes= 0.00D+00 IRadAn=         1 IDoV= 1 UseB2=F ITyADJ=14
 ICtDFT=  3500011 ScaDFX=  1.000000  1.000000  1.000000  1.000000
 FoFCou: FMM=F IPFlag=           0 FMFlag=      100000 FMFlg1=           0
         NFxFlg=           0 DoJE=T BraDBF=F KetDBF=T FulRan=T
         wScrn=  0.000000 ICntrl=     500 IOpCl=  0 I1Cent=   200000004 NGrid=           0
         NMat0=    1 NMatS0=      1 NMatT0=    0 NMatD0=    1 NMtDS0=    0 NMtDT0=    0
 Petite list used in FoFCou.
 Requested convergence on RMS density matrix=1.00D-08 within 128 cycles.
 Requested convergence on MAX density matrix=1.00D-06.
 Requested convergence on             energy=1.00D-06.
 No special actions if energy rises.
 Integral accuracy reduced to 1.0D-05 until final iterations.
 Initial convergence to 1.0D-05 achieved.  Increase integral accuracy.
 SCF Done:  E(RB3LYP) =  -423.187026193     A.U. after   13 cycles
            NFock= 13  Conv=0.58D-08     -V/T= 2.0074

 **********************************************************************

            Population analysis using the SCF density.

 **********************************************************************

 Orbital symmetries:
       Occupied  (A) (A) (A) (A) (A) (A) (A) (A) (A) (A) (A) (A)
                 (A) (A) (A) (A) (A) (A) (A) (A) (A) (A) (A) (A)
                 (A) (A) (A) (A) (A) (A) (A) (A) (A) (A)
       Virtual   (A) (A) (A) (A) (A) (A) (A) (A) (A) (A) (A) (A)
                 (A) (A) (A) (A) (A) (A) (A) (A) (A) (A) (A) (A)
                 (A) (A) (A) (A) (A) (A) (A) (A) (A) (A) (A) (A)
                 (A) (A) (A) (A) (A) (A) (A) (A) (A) (A) (A) (A)
                 (A) (A) (A) (A) (A) (A) (A) (A) (A) (A) (A) (A)
                 (A) (A) (A) (A) (A) (A) (A) (A) (A) (A) (A) (A)
                 (A) (A) (A) (A) (A) (A) (A) (A) (A) (A) (A) (A)
                 (A) (A) (A) (A) (A) (A) (A) (A) (A) (A) (A) (A)
                 (A) (A) (A) (A) (A) (A) (A) (A) (A) (A) (A) (A)
                 (A) (A) (A) (A) (A) (A) (A) (A) (A) (A) (A) (A)
                 (A) (A) (A) (A) (A) (A) (A) (A) (A) (A) (A) (A)
                 (A) (A) (A) (A) (A) (A) (A) (A) (A) (A) (A) (A)
                 (A) (A) (A) (A) (A) (A) (A) (A) (A) (A) (A) (A)
                 (A) (A) (A) (A) (A) (A) (A) (A) (A) (A) (A) (A)
                 (A) (A) (A) (A) (A) (A) (A) (A) (A) (A) (A) (A)
                 (A) (A) (A) (A) (A) (A) (A) (A) (A) (A) (A) (A)
                 (A) (A) (A) (A) (A) (A) (A) (A) (A) (A) (A) (A)
                 (A) (A) (A) (A) (A) (A) (A) (A) (A) (A) (A) (A)
                 (A) (A) (A) (A) (A) (A) (A) (A) (A) (A) (A) (A)
                 (A) (A) (A) (A) (A) (A) (A) (A) (A) (A) (A) (A)
                 (A) (A) (A) (A) (A) (A) (A) (A) (A) (A) (A) (A)
                 (A) (A) (A) (A) (A) (A) (A) (A) (A) (A) (A) (A)
                 (A) (A) (A) (A)
 The electronic state is 1-A.
 Alpha  occ. eigenvalues --  -19.14612 -19.13749 -10.27103 -10.23670 -10.22857
 Alpha  occ. eigenvalues --  -10.18955 -10.18408 -10.18090 -10.18028  -1.09098
 Alpha  occ. eigenvalues --   -0.98632  -0.84008  -0.76794  -0.69323  -0.66124
 Alpha  occ. eigenvalues --   -0.60333  -0.58984  -0.54070  -0.52576  -0.50622
 Alpha  occ. eigenvalues --   -0.48165  -0.44046  -0.42503  -0.41352  -0.39737
 Alpha  occ. eigenvalues --   -0.39153  -0.35840  -0.35023  -0.33476  -0.32180
 Alpha  occ. eigenvalues --   -0.30575  -0.29965  -0.27028  -0.24717
 Alpha virt. eigenvalues --    0.08067   0.10521   0.11336   0.11556   0.12183
 Alpha virt. eigenvalues --    0.13685   0.14416   0.15361   0.16047   0.17046
 Alpha virt. eigenvalues --    0.17610   0.18970   0.19505   0.22129   0.22247
 Alpha virt. eigenvalues --    0.23504   0.24814   0.26114   0.28082   0.31794
 Alpha virt. eigenvalues --    0.36887   0.41361   0.42166   0.43539   0.44597
 Alpha virt. eigenvalues --    0.46784   0.48704   0.50143   0.51864   0.52162
 Alpha virt. eigenvalues --    0.54516   0.56035   0.56830   0.58132   0.58963
 Alpha virt. eigenvalues --    0.59029   0.61407   0.64773   0.65173   0.67017
 Alpha virt. eigenvalues --    0.71342   0.72783   0.73349   0.74364   0.75655
 Alpha virt. eigenvalues --    0.76367   0.78466   0.78849   0.79665   0.82330
 Alpha virt. eigenvalues --    0.83321   0.84629   0.87263   0.87891   0.89605
 Alpha virt. eigenvalues --    0.90098   0.92448   0.96315   1.00262   1.01728
 Alpha virt. eigenvalues --    1.04917   1.06866   1.08862   1.11518   1.16033
 Alpha virt. eigenvalues --    1.17675   1.20480   1.21266   1.23759   1.28545
 Alpha virt. eigenvalues --    1.29087   1.31708   1.33100   1.35313   1.36891
 Alpha virt. eigenvalues --    1.38656   1.39774   1.42055   1.43435   1.44868
 Alpha virt. eigenvalues --    1.45109   1.46248   1.47731   1.48885   1.50762
 Alpha virt. eigenvalues --    1.52125   1.54009   1.56504   1.57671   1.58671
 Alpha virt. eigenvalues --    1.60261   1.64262   1.68533   1.68724   1.71075
 Alpha virt. eigenvalues --    1.72518   1.75408   1.78222   1.81568   1.82079
 Alpha virt. eigenvalues --    1.83433   1.86338   1.88636   1.88845   1.94436
 Alpha virt. eigenvalues --    2.01695   2.02839   2.04356   2.06680   2.13747
 Alpha virt. eigenvalues --    2.14870   2.18294   2.20533   2.26771   2.29625
 Alpha virt. eigenvalues --    2.30504   2.34583   2.38805   2.41659   2.42952
 Alpha virt. eigenvalues --    2.44217   2.48924   2.53625   2.58085   2.60225
 Alpha virt. eigenvalues --    2.61805   2.62318   2.66443   2.68386   2.71935
 Alpha virt. eigenvalues --    2.75456   2.79412   2.81188   2.83256   2.87590
 Alpha virt. eigenvalues --    2.89200   2.91319   2.91941   2.93903   2.95839
 Alpha virt. eigenvalues --    2.97355   3.00497   3.03046   3.04966   3.06543
 Alpha virt. eigenvalues --    3.10876   3.12440   3.13157   3.14320   3.15535
 Alpha virt. eigenvalues --    3.17858   3.21567   3.24610   3.25215   3.28000
 Alpha virt. eigenvalues --    3.32318   3.34030   3.35428   3.36632   3.39524
 Alpha virt. eigenvalues --    3.43118   3.45129   3.45367   3.48439   3.50146
 Alpha virt. eigenvalues --    3.50637   3.53548   3.56935   3.59767   3.61141
 Alpha virt. eigenvalues --    3.61462   3.65950   3.70790   3.73213   3.76329
 Alpha virt. eigenvalues --    3.84595   3.92040   3.95621   4.00249   4.04085
 Alpha virt. eigenvalues --    4.04208   4.11976   4.16998   4.21051   4.26859
 Alpha virt. eigenvalues --    4.29877   4.32893   4.34243   4.35174   4.37307
 Alpha virt. eigenvalues --    4.37897   4.39675   4.44017   4.45313   4.46362
 Alpha virt. eigenvalues --    4.47522   4.47942   4.49818   4.50793   4.53200
 Alpha virt. eigenvalues --    4.54545   4.57290   4.59425   4.62612   4.64386
 Alpha virt. eigenvalues --    4.65371   4.66757   4.67833   4.68589   4.69786
 Alpha virt. eigenvalues --    4.70785   4.72720   4.74218   4.77947   4.79752
 Alpha virt. eigenvalues --    4.80308   4.80738   4.83164   4.86132   4.89124
 Alpha virt. eigenvalues --    4.90161   4.91358   4.94835   4.96690   4.97901
 Alpha virt. eigenvalues --    5.06666   5.08787   5.10995   5.12470   5.16448
 Alpha virt. eigenvalues --    5.20889   5.28071   5.28721   5.33371   5.37695
 Alpha virt. eigenvalues --    5.41650   5.46021   5.50523   5.54482   5.56608
 Alpha virt. eigenvalues --    5.60431   5.69109   5.70318   5.77564   5.85151
 Alpha virt. eigenvalues --    5.87727   5.89094   5.92010   5.99206   6.03549
 Alpha virt. eigenvalues --    6.12090   6.15010   6.17711   6.24115   6.25618
 Alpha virt. eigenvalues --    6.84145   7.11633   7.44967   7.71367  10.88566
 Alpha virt. eigenvalues --   11.44216  11.62509  12.02215  12.21802  12.50448
 Alpha virt. eigenvalues --   13.23005  13.51206  13.67819
          Condensed to atoms (all electrons):
               1          2          3          4          5          6
     1  C    4.970870   0.356045  -0.068672   0.352309  -0.006026   0.003127
     2  C    0.356045   5.004367   0.310243  -0.065923  -0.007673   0.000194
     3  C   -0.068672   0.310243   4.962208   0.391148  -0.023465  -0.013297
     4  C    0.352309  -0.065923   0.391148   4.846208   0.355007  -0.018701
     5  C   -0.006026  -0.007673  -0.023465   0.355007   4.787826   0.362585
     6  C    0.003127   0.000194  -0.013297  -0.018701   0.362585   4.853298
     7  O    0.000233   0.002866  -0.037225  -0.013343  -0.030321   0.370157
     8  C   -0.006906  -0.003567   0.346494  -0.016886  -0.121454  -0.101473
     9  O    0.004185   0.004562  -0.060328  -0.068276   0.373905  -0.044092
    10  H    0.354916  -0.020341   0.000586  -0.018324  -0.010698   0.000392
    11  H    0.356329  -0.024501   0.003490  -0.016505   0.002587  -0.000071
    12  H   -0.024347   0.353368  -0.013737   0.003403  -0.000058   0.000016
    13  H   -0.021594   0.357779  -0.022284   0.002426   0.001483   0.000026
    14  H    0.010398  -0.042269   0.356288  -0.033532   0.005438   0.000506
    15  H   -0.041081   0.009571  -0.032209   0.356757  -0.040290  -0.003307
    16  H   -0.002681  -0.000396   0.004497  -0.044615   0.366321  -0.038062
    17  H   -0.000199   0.000056   0.000175   0.003327  -0.018340   0.354572
    18  H    0.000305  -0.000234   0.001389  -0.005270  -0.024717   0.355185
    19  H   -0.000414   0.000659  -0.062733   0.004420   0.006381   0.006038
               7          8          9         10         11         12
     1  C    0.000233  -0.006906   0.004185   0.354916   0.356329  -0.024347
     2  C    0.002866  -0.003567   0.004562  -0.020341  -0.024501   0.353368
     3  C   -0.037225   0.346494  -0.060328   0.000586   0.003490  -0.013737
     4  C   -0.013343  -0.016886  -0.068276  -0.018324  -0.016505   0.003403
     5  C   -0.030321  -0.121454   0.373905  -0.010698   0.002587  -0.000058
     6  C    0.370157  -0.101473  -0.044092   0.000392  -0.000071   0.000016
     7  O    7.751927   0.367678  -0.065092   0.000003   0.000005  -0.000037
     8  C    0.367678   4.650789   0.360695   0.002265   0.000020   0.002028
     9  O   -0.065092   0.360695   7.778091   0.003062   0.000206   0.000227
    10  H    0.000003   0.002265   0.003062   0.619359  -0.040075   0.004211
    11  H    0.000005   0.000020   0.000206  -0.040075   0.632245  -0.009111
    12  H   -0.000037   0.002028   0.000227   0.004211  -0.009111   0.631831
    13  H    0.000136  -0.009843   0.003242  -0.008117   0.004147  -0.040214
    14  H    0.001043  -0.033152   0.003231  -0.000492  -0.000454  -0.006652
    15  H    0.000019   0.004830   0.002992   0.004503  -0.007058  -0.000393
    16  H    0.002283   0.006580  -0.020803   0.002437   0.000004   0.000012
    17  H   -0.026743  -0.000627   0.001903  -0.000001   0.000002   0.000000
    18  H   -0.026700   0.006988   0.002080   0.000002  -0.000010   0.000000
    19  H   -0.020010   0.363499  -0.021071   0.000088   0.000015  -0.000133
              13         14         15         16         17         18
     1  C   -0.021594   0.010398  -0.041081  -0.002681  -0.000199   0.000305
     2  C    0.357779  -0.042269   0.009571  -0.000396   0.000056  -0.000234
     3  C   -0.022284   0.356288  -0.032209   0.004497   0.000175   0.001389
     4  C    0.002426  -0.033532   0.356757  -0.044615   0.003327  -0.005270
     5  C    0.001483   0.005438  -0.040290   0.366321  -0.018340  -0.024717
     6  C    0.000026   0.000506  -0.003307  -0.038062   0.354572   0.355185
     7  O    0.000136   0.001043   0.000019   0.002283  -0.026743  -0.026700
     8  C   -0.009843  -0.033152   0.004830   0.006580  -0.000627   0.006988
     9  O    0.003242   0.003231   0.002992  -0.020803   0.001903   0.002080
    10  H   -0.008117  -0.000492   0.004503   0.002437  -0.000001   0.000002
    11  H    0.004147  -0.000454  -0.007058   0.000004   0.000002  -0.000010
    12  H   -0.040214  -0.006652  -0.000393   0.000012   0.000000   0.000000
    13  H    0.621890   0.004317  -0.000497   0.000059   0.000000  -0.000004
    14  H    0.004317   0.660860  -0.006007  -0.000141   0.000009  -0.000385
    15  H   -0.000497  -0.006007   0.675983   0.001687  -0.000101   0.003040
    16  H    0.000059  -0.000141   0.001687   0.633944  -0.001960   0.003648
    17  H    0.000000   0.000009  -0.000101  -0.001960   0.636752  -0.054682
    18  H   -0.000004  -0.000385   0.003040   0.003648  -0.054682   0.637801
    19  H    0.002425   0.001418  -0.000135  -0.000238   0.000041  -0.000308
              19
     1  C   -0.000414
     2  C    0.000659
     3  C   -0.062733
     4  C    0.004420
     5  C    0.006381
     6  C    0.006038
     7  O   -0.020010
     8  C    0.363499
     9  O   -0.021071
    10  H    0.000088
    11  H    0.000015
    12  H   -0.000133
    13  H    0.002425
    14  H    0.001418
    15  H   -0.000135
    16  H   -0.000238
    17  H    0.000041
    18  H   -0.000308
    19  H    0.628675
 Mulliken charges:
               1
     1  C   -0.236796
     2  C   -0.234807
     3  C   -0.042568
     4  C   -0.013627
     5  C    0.021510
     6  C   -0.087092
     7  O   -0.276879
     8  C    0.182044
     9  O   -0.258718
    10  H    0.106223
    11  H    0.098736
    12  H    0.099587
    13  H    0.104624
    14  H    0.079575
    15  H    0.071697
    16  H    0.087422
    17  H    0.105817
    18  H    0.101873
    19  H    0.091380
 Sum of Mulliken charges =   0.00000
 Mulliken charges with hydrogens summed into heavy atoms:
               1
     1  C   -0.031837
     2  C   -0.030596
     3  C    0.037006
     4  C    0.058070
     5  C    0.108932
     6  C    0.120598
     7  O   -0.276879
     8  C    0.273424
     9  O   -0.258718
 Electronic spatial extent (au):  <R**2>=            938.1649
 Charge=              0.0000 electrons
 Dipole moment (field-independent basis, Debye):
    X=              1.0196    Y=              1.1385    Z=             -0.9050  Tot=              1.7761
 Quadrupole moment (field-independent basis, Debye-Ang):
   XX=            -54.5688   YY=            -50.1368   ZZ=            -54.7627
   XY=             -3.2231   XZ=             -0.6655   YZ=             -1.0179
 Traceless Quadrupole moment (field-independent basis, Debye-Ang):
   XX=             -1.4127   YY=              3.0193   ZZ=             -1.6066
   XY=             -3.2231   XZ=             -0.6655   YZ=             -1.0179
 Octapole moment (field-independent basis, Debye-Ang**2):
  XXX=             -6.4902  YYY=             -4.1727  ZZZ=             -1.8120  XYY=             -3.7867
  XXY=              6.3188  XXZ=              1.3117  XZZ=             -0.9195  YZZ=             -0.1245
  YYZ=              4.7783  XYZ=              1.7950
 Hexadecapole moment (field-independent basis, Debye-Ang**3):
 XXXX=           -722.1981 YYYY=           -301.3570 ZZZZ=           -195.3345 XXXY=            -10.4333
 XXXZ=             -9.2922 YYYX=              4.7666 YYYZ=             -0.1043 ZZZX=              3.8811
 ZZZY=              0.2109 XXYY=           -174.4269 XXZZ=           -150.1701 YYZZ=            -77.4398
 XXYZ=             -2.6946 YYXZ=             -3.7950 ZZXY=             -0.1804
 N-N= 4.965917639246D+02 E-N=-1.980149625098D+03  KE= 4.200882323729D+02
 Calling FoFJK, ICntrl=      2127 FMM=F ISym2X=0 I1Cent= 0 IOpClX= 0 NMat=1 NMatS=1 NMatT=0.
 ***** Axes restored to original set *****
 -------------------------------------------------------------------
 Center     Atomic                   Forces (Hartrees/Bohr)
 Number     Number              X              Y              Z
 -------------------------------------------------------------------
      1        6           0.000013764    0.000003154   -0.000020963
      2        6           0.000002781   -0.000015753    0.000008749
      3        6           0.000015289   -0.000001782   -0.000001458
      4        6          -0.000003481   -0.000043381    0.000052962
      5        6           0.000012825    0.000022167   -0.000000337
      6        6           0.000026178    0.000023142    0.000036113
      7        8           0.000028732    0.000028850    0.000058193
      8        6          -0.000011100   -0.000037597   -0.000138482
      9        8          -0.000089058    0.000032136    0.000051910
     10        1          -0.000002423   -0.000014795    0.000010268
     11        1           0.000019968   -0.000024361   -0.000012853
     12        1           0.000002492   -0.000020618   -0.000012550
     13        1          -0.000009255   -0.000010909    0.000001641
     14        1           0.000010405    0.000004098   -0.000006624
     15        1          -0.000014073    0.000011080   -0.000018867
     16        1           0.000009164    0.000007633    0.000010704
     17        1          -0.000014081    0.000020435   -0.000014012
     18        1           0.000006019    0.000008059   -0.000024738
     19        1          -0.000004145    0.000008440    0.000020346
 -------------------------------------------------------------------
 Cartesian Forces:  Max     0.000138482 RMS     0.000030181

 GradGradGradGradGradGradGradGradGradGradGradGradGradGradGradGradGradGrad
 Berny optimization.
 FormGI is forming the generalized inverse of G from B-inverse, IUseBI=4.
 Internal  Forces:  Max     0.000068866 RMS     0.000011101
 Search for a local minimum.
 Step number   1 out of a maximum of  114
 All quantities printed in internal units (Hartrees-Bohrs-Radians)
 Mixed Optimization -- En-DIIS/RFO-DIIS
 Second derivative matrix not updated -- first step.
 ITU=  0
     Eigenvalues ---    0.00335   0.01028   0.01688   0.02204   0.02811
     Eigenvalues ---    0.03078   0.03349   0.03762   0.04408   0.04804
     Eigenvalues ---    0.04891   0.04926   0.04942   0.05601   0.05734
     Eigenvalues ---    0.05738   0.05974   0.06297   0.06438   0.07012
     Eigenvalues ---    0.07970   0.08159   0.08867   0.09381   0.10150
     Eigenvalues ---    0.10580   0.10925   0.12106   0.14372   0.17032
     Eigenvalues ---    0.17624   0.23703   0.25090   0.25445   0.26984
     Eigenvalues ---    0.27439   0.28892   0.31614   0.34128   0.34187
     Eigenvalues ---    0.34385   0.34469   0.34515   0.34537   0.34539
     Eigenvalues ---    0.34694   0.34769   0.34843   0.34854   0.37991
     Eigenvalues ---    0.39191
 RFO step:  Lambda=-1.31971911D-07 EMin= 3.35107851D-03
 Linear search not attempted -- first point.
 Iteration  1 RMS(Cart)=  0.00030905 RMS(Int)=  0.00000005
 Iteration  2 RMS(Cart)=  0.00000006 RMS(Int)=  0.00000002
 Variable       Old X    -DE/DX   Delta X   Delta X   Delta X     New X
                                 (Linear)    (Quad)   (Total)
    R1        2.94398   0.00001   0.00000   0.00005   0.00005   2.94403
    R2        2.93529   0.00001   0.00000   0.00004   0.00004   2.93533
    R3        2.06469  -0.00001   0.00000  -0.00002  -0.00002   2.06468
    R4        2.06429   0.00001   0.00000   0.00002   0.00002   2.06431
    R5        2.93236   0.00000   0.00000   0.00002   0.00002   2.93238
    R6        2.06433   0.00000   0.00000   0.00000   0.00000   2.06432
    R7        2.06546   0.00000   0.00000   0.00001   0.00001   2.06547
    R8        2.97752  -0.00001   0.00000  -0.00008  -0.00008   2.97744
    R9        2.89738  -0.00002   0.00000  -0.00008  -0.00008   2.89730
   R10        2.05913   0.00000   0.00000  -0.00001  -0.00001   2.05912
   R11        2.90024  -0.00002   0.00000  -0.00007  -0.00007   2.90017
   R12        2.06174   0.00000   0.00000   0.00001   0.00001   2.06175
   R13        2.91430  -0.00001   0.00000  -0.00011  -0.00011   2.91418
   R14        2.72636   0.00003   0.00000   0.00011   0.00011   2.72647
   R15        2.05930   0.00001   0.00000   0.00002   0.00002   2.05932
   R16        2.71958   0.00000   0.00000   0.00004   0.00004   2.71962
   R17        2.07114  -0.00002   0.00000  -0.00006  -0.00006   2.07109
   R18        2.07015  -0.00001   0.00000  -0.00003  -0.00003   2.07013
   R19        2.69712   0.00007   0.00000   0.00022   0.00022   2.69734
   R20        2.67981  -0.00006   0.00000  -0.00016  -0.00016   2.67965
   R21        2.06052   0.00000   0.00000   0.00000   0.00000   2.06052
    A1        1.57782   0.00000   0.00000  -0.00004  -0.00004   1.57778
    A2        2.00345   0.00000   0.00000  -0.00005  -0.00005   2.00340
    A3        1.99409   0.00001   0.00000   0.00015   0.00015   1.99425
    A4        1.99491   0.00000   0.00000  -0.00008  -0.00008   1.99483
    A5        1.98708   0.00000   0.00000   0.00006   0.00006   1.98715
    A6        1.89426   0.00000   0.00000  -0.00004  -0.00004   1.89422
    A7        1.57514   0.00000   0.00000   0.00000   0.00000   1.57514
    A8        1.99229   0.00000   0.00000   0.00000   0.00000   1.99229
    A9        2.00609   0.00001   0.00000   0.00006   0.00006   2.00615
   A10        1.98531   0.00000   0.00000   0.00003   0.00003   1.98533
   A11        1.99982   0.00000   0.00000   0.00001   0.00001   1.99983
   A12        1.89302  -0.00001   0.00000  -0.00007  -0.00007   1.89294
   A13        1.56736   0.00001   0.00000   0.00001   0.00001   1.56737
   A14        2.02427  -0.00001   0.00000   0.00004   0.00005   2.02431
   A15        2.05046   0.00000   0.00000   0.00007   0.00007   2.05052
   A16        1.74062   0.00000   0.00000  -0.00002  -0.00002   1.74060
   A17        2.07516  -0.00001   0.00000  -0.00007  -0.00007   2.07510
   A18        1.95533   0.00000   0.00000  -0.00005  -0.00005   1.95529
   A19        1.56274   0.00000   0.00000   0.00004   0.00004   1.56278
   A20        2.02256   0.00000   0.00000  -0.00004  -0.00004   2.02253
   A21        2.03343  -0.00001   0.00000  -0.00007  -0.00007   2.03336
   A22        1.75506   0.00000   0.00000   0.00010   0.00010   1.75516
   A23        2.06463   0.00000   0.00000  -0.00020  -0.00020   2.06442
   A24        1.97328   0.00000   0.00000   0.00014   0.00014   1.97342
   A25        1.89080   0.00001   0.00000  -0.00010  -0.00010   1.89070
   A26        1.79143  -0.00001   0.00000   0.00006   0.00006   1.79149
   A27        2.04746   0.00000   0.00000  -0.00002  -0.00002   2.04744
   A28        1.74203   0.00000   0.00000  -0.00003  -0.00003   1.74200
   A29        2.03057  -0.00002   0.00000  -0.00005  -0.00005   2.03053
   A30        1.92179   0.00002   0.00000   0.00016   0.00016   1.92195
   A31        1.77794   0.00000   0.00000  -0.00010  -0.00010   1.77784
   A32        1.96063  -0.00001   0.00000  -0.00004  -0.00004   1.96059
   A33        1.97489  -0.00002   0.00000  -0.00012  -0.00012   1.97476
   A34        1.91264   0.00000   0.00000   0.00003   0.00003   1.91267
   A35        1.92543   0.00001   0.00000   0.00011   0.00011   1.92554
   A36        1.90845   0.00001   0.00000   0.00012   0.00012   1.90857
   A37        1.82239   0.00000   0.00000   0.00013   0.00013   1.82253
   A38        1.88629  -0.00001   0.00000   0.00002   0.00002   1.88631
   A39        1.81368   0.00001   0.00000   0.00001   0.00001   1.81369
   A40        2.06558   0.00001   0.00000   0.00012   0.00012   2.06570
   A41        1.82637  -0.00001   0.00000  -0.00019  -0.00019   1.82619
   A42        1.91949   0.00000   0.00000  -0.00003  -0.00003   1.91946
   A43        1.93548   0.00000   0.00000   0.00003   0.00003   1.93552
   A44        1.66504   0.00001   0.00000   0.00009   0.00009   1.66512
    D1       -0.01113   0.00000   0.00000   0.00034   0.00034  -0.01079
    D2        2.01897   0.00001   0.00000   0.00037   0.00037   2.01934
    D3       -2.06081   0.00000   0.00000   0.00032   0.00032  -2.06049
    D4        2.03376   0.00000   0.00000   0.00022   0.00022   2.03398
    D5       -2.21933   0.00000   0.00000   0.00025   0.00025  -2.21908
    D6       -0.01592   0.00000   0.00000   0.00020   0.00020  -0.01572
    D7       -2.04499   0.00000   0.00000   0.00026   0.00026  -2.04473
    D8       -0.01489   0.00000   0.00000   0.00029   0.00029  -0.01460
    D9        2.18851   0.00000   0.00000   0.00024   0.00024   2.18875
   D10        0.01096   0.00000   0.00000  -0.00034  -0.00034   0.01063
   D11        1.78287   0.00000   0.00000  -0.00021  -0.00021   1.78266
   D12       -2.11335   0.00000   0.00000  -0.00011  -0.00011  -2.11345
   D13       -2.04146   0.00000   0.00000  -0.00024  -0.00024  -2.04170
   D14       -0.26956   0.00000   0.00000  -0.00011  -0.00011  -0.26967
   D15        2.11741   0.00000   0.00000  -0.00001  -0.00001   2.11740
   D16        2.05104   0.00000   0.00000  -0.00017  -0.00017   2.05087
   D17       -2.46024   0.00001   0.00000  -0.00005  -0.00005  -2.46029
   D18       -0.07327   0.00001   0.00000   0.00006   0.00006  -0.07321
   D19        0.01098   0.00000   0.00000  -0.00034  -0.00034   0.01064
   D20       -1.74725  -0.00001   0.00000  -0.00033  -0.00033  -1.74758
   D21        2.15570  -0.00001   0.00000  -0.00039  -0.00039   2.15532
   D22       -2.02535   0.00000   0.00000  -0.00034  -0.00034  -2.02569
   D23        2.49961   0.00000   0.00000  -0.00033  -0.00033   2.49928
   D24        0.11938   0.00000   0.00000  -0.00039  -0.00039   0.11899
   D25        2.06618   0.00000   0.00000  -0.00027  -0.00027   2.06592
   D26        0.30796   0.00000   0.00000  -0.00025  -0.00025   0.30771
   D27       -2.07227   0.00000   0.00000  -0.00031  -0.00031  -2.07259
   D28       -0.01101   0.00000   0.00000   0.00034   0.00034  -0.01067
   D29       -2.04029   0.00000   0.00000   0.00036   0.00036  -2.03992
   D30        2.08633   0.00000   0.00000   0.00022   0.00022   2.08655
   D31        2.01973  -0.00001   0.00000   0.00039   0.00039   2.02012
   D32       -0.00955  -0.00001   0.00000   0.00041   0.00041  -0.00914
   D33       -2.16612  -0.00001   0.00000   0.00027   0.00027  -2.16585
   D34       -2.13478   0.00000   0.00000   0.00027   0.00027  -2.13450
   D35        2.11913   0.00000   0.00000   0.00030   0.00030   2.11943
   D36       -0.03744  -0.00001   0.00000   0.00016   0.00016  -0.03728
   D37        2.96526  -0.00001   0.00000  -0.00048  -0.00048   2.96478
   D38        1.03172   0.00001   0.00000  -0.00029  -0.00029   1.03143
   D39       -1.12288   0.00000   0.00000  -0.00042  -0.00042  -1.12329
   D40        1.31469  -0.00001   0.00000  -0.00050  -0.00050   1.31419
   D41       -0.61885   0.00000   0.00000  -0.00030  -0.00030  -0.61915
   D42       -2.77344  -0.00001   0.00000  -0.00043  -0.00043  -2.77388
   D43       -0.89751  -0.00001   0.00000  -0.00038  -0.00038  -0.89789
   D44       -2.83106   0.00001   0.00000  -0.00018  -0.00018  -2.83124
   D45        1.29754   0.00000   0.00000  -0.00031  -0.00031   1.29722
   D46       -2.86432  -0.00002   0.00000  -0.00054  -0.00054  -2.86486
   D47       -1.03227  -0.00002   0.00000  -0.00058  -0.00058  -1.03285
   D48        1.07651   0.00000   0.00000  -0.00035  -0.00035   1.07616
   D49       -1.21210  -0.00001   0.00000  -0.00046  -0.00046  -1.21256
   D50        0.61995  -0.00001   0.00000  -0.00050  -0.00050   0.61945
   D51        2.72873   0.00000   0.00000  -0.00027  -0.00027   2.72846
   D52        1.00643  -0.00001   0.00000  -0.00055  -0.00055   1.00588
   D53        2.83849  -0.00001   0.00000  -0.00060  -0.00060   2.83789
   D54       -1.33592   0.00000   0.00000  -0.00036  -0.00036  -1.33629
   D55        1.25375   0.00000   0.00000  -0.00011  -0.00011   1.25365
   D56       -2.98438   0.00000   0.00000  -0.00016  -0.00016  -2.98453
   D57       -0.81289   0.00000   0.00000  -0.00012  -0.00012  -0.81301
   D58       -0.61261   0.00001   0.00000  -0.00013  -0.00013  -0.61274
   D59        1.43244   0.00001   0.00000  -0.00018  -0.00018   1.43227
   D60       -2.67926   0.00001   0.00000  -0.00015  -0.00015  -2.67940
   D61       -2.67837   0.00000   0.00000  -0.00028  -0.00028  -2.67865
   D62       -0.63331  -0.00001   0.00000  -0.00033  -0.00033  -0.63364
   D63        1.53817  -0.00001   0.00000  -0.00030  -0.00030   1.53788
   D64       -1.01200   0.00001   0.00000   0.00032   0.00032  -1.01168
   D65        0.93345   0.00002   0.00000   0.00022   0.00022   0.93368
   D66        3.07812   0.00001   0.00000   0.00022   0.00022   3.07835
   D67        0.03405   0.00000   0.00000   0.00017   0.00017   0.03422
   D68       -2.04535   0.00001   0.00000   0.00026   0.00026  -2.04509
   D69        2.13568  -0.00001   0.00000   0.00002   0.00002   2.13570
   D70       -1.34722   0.00001   0.00000  -0.00006  -0.00006  -1.34728
   D71        0.57769   0.00001   0.00000  -0.00012  -0.00012   0.57757
   D72        2.65740   0.00000   0.00000  -0.00020  -0.00020   2.65719
   D73        1.01654  -0.00001   0.00000   0.00001   0.00001   1.01655
   D74       -0.96047   0.00000   0.00000   0.00005   0.00005  -0.96042
   D75       -3.02936   0.00001   0.00000   0.00018   0.00018  -3.02918
         Item               Value     Threshold  Converged?
 Maximum Force            0.000069     0.000450     YES
 RMS     Force            0.000011     0.000300     YES
 Maximum Displacement     0.001247     0.001800     YES
 RMS     Displacement     0.000309     0.001200     YES
 Predicted change in Energy=-6.598515D-08
 Optimization completed.
    -- Stationary point found.
                           ----------------------------
                           !   Optimized Parameters   !
                           ! (Angstroms and Degrees)  !
 --------------------------                            --------------------------
 ! Name  Definition              Value          Derivative Info.                !
 --------------------------------------------------------------------------------
 ! R1    R(1,2)                  1.5579         -DE/DX =    0.0                 !
 ! R2    R(1,4)                  1.5533         -DE/DX =    0.0                 !
 ! R3    R(1,10)                 1.0926         -DE/DX =    0.0                 !
 ! R4    R(1,11)                 1.0924         -DE/DX =    0.0                 !
 ! R5    R(2,3)                  1.5517         -DE/DX =    0.0                 !
 ! R6    R(2,12)                 1.0924         -DE/DX =    0.0                 !
 ! R7    R(2,13)                 1.093          -DE/DX =    0.0                 !
 ! R8    R(3,4)                  1.5756         -DE/DX =    0.0                 !
 ! R9    R(3,8)                  1.5332         -DE/DX =    0.0                 !
 ! R10   R(3,14)                 1.0896         -DE/DX =    0.0                 !
 ! R11   R(4,5)                  1.5347         -DE/DX =    0.0                 !
 ! R12   R(4,15)                 1.091          -DE/DX =    0.0                 !
 ! R13   R(5,6)                  1.5422         -DE/DX =    0.0                 !
 ! R14   R(5,9)                  1.4427         -DE/DX =    0.0                 !
 ! R15   R(5,16)                 1.0897         -DE/DX =    0.0                 !
 ! R16   R(6,7)                  1.4391         -DE/DX =    0.0                 !
 ! R17   R(6,17)                 1.096          -DE/DX =    0.0                 !
 ! R18   R(6,18)                 1.0955         -DE/DX =    0.0                 !
 ! R19   R(7,8)                  1.4273         -DE/DX =    0.0001              !
 ! R20   R(8,9)                  1.4181         -DE/DX =   -0.0001              !
 ! R21   R(8,19)                 1.0904         -DE/DX =    0.0                 !
 ! A1    A(2,1,4)               90.4024         -DE/DX =    0.0                 !
 ! A2    A(2,1,10)             114.7894         -DE/DX =    0.0                 !
 ! A3    A(2,1,11)             114.2532         -DE/DX =    0.0                 !
 ! A4    A(4,1,10)             114.2997         -DE/DX =    0.0                 !
 ! A5    A(4,1,11)             113.8516         -DE/DX =    0.0                 !
 ! A6    A(10,1,11)            108.5332         -DE/DX =    0.0                 !
 ! A7    A(1,2,3)               90.249          -DE/DX =    0.0                 !
 ! A8    A(1,2,12)             114.15           -DE/DX =    0.0                 !
 ! A9    A(1,2,13)             114.9402         -DE/DX =    0.0                 !
 ! A10   A(3,2,12)             113.7496         -DE/DX =    0.0                 !
 ! A11   A(3,2,13)             114.5813         -DE/DX =    0.0                 !
 ! A12   A(12,2,13)            108.4619         -DE/DX =    0.0                 !
 ! A13   A(2,3,4)               89.803          -DE/DX =    0.0                 !
 ! A14   A(2,3,8)              115.9821         -DE/DX =    0.0                 !
 ! A15   A(2,3,14)             117.4825         -DE/DX =    0.0                 !
 ! A16   A(4,3,8)               99.7301         -DE/DX =    0.0                 !
 ! A17   A(4,3,14)             118.8981         -DE/DX =    0.0                 !
 ! A18   A(8,3,14)             112.0324         -DE/DX =    0.0                 !
 ! A19   A(1,4,3)               89.5386         -DE/DX =    0.0                 !
 ! A20   A(1,4,5)              115.8844         -DE/DX =    0.0                 !
 ! A21   A(1,4,15)             116.507          -DE/DX =    0.0                 !
 ! A22   A(3,4,5)              100.5577         -DE/DX =    0.0                 !
 ! A23   A(3,4,15)             118.2943         -DE/DX =    0.0                 !
 ! A24   A(5,4,15)             113.0605         -DE/DX =    0.0                 !
 ! A25   A(4,5,6)              108.3351         -DE/DX =    0.0                 !
 ! A26   A(4,5,9)              102.6416         -DE/DX =    0.0                 !
 ! A27   A(4,5,16)             117.3111         -DE/DX =    0.0                 !
 ! A28   A(6,5,9)               99.8107         -DE/DX =    0.0                 !
 ! A29   A(6,5,16)             116.3431         -DE/DX =    0.0                 !
 ! A30   A(9,5,16)             110.1106         -DE/DX =    0.0                 !
 ! A31   A(5,6,7)              101.8685         -DE/DX =    0.0                 !
 ! A32   A(5,6,17)             112.3358         -DE/DX =    0.0                 !
 ! A33   A(5,6,18)             113.1527         -DE/DX =    0.0                 !
 ! A34   A(7,6,17)             109.5863         -DE/DX =    0.0                 !
 ! A35   A(7,6,18)             110.3188         -DE/DX =    0.0                 !
 ! A36   A(17,6,18)            109.3462         -DE/DX =    0.0                 !
 ! A37   A(6,7,8)              104.4155         -DE/DX =    0.0                 !
 ! A38   A(3,8,7)              108.0762         -DE/DX =    0.0                 !
 ! A39   A(3,8,9)              103.916          -DE/DX =    0.0                 !
 ! A40   A(3,8,19)             118.3491         -DE/DX =    0.0                 !
 ! A41   A(7,8,9)              104.6436         -DE/DX =    0.0                 !
 ! A42   A(7,8,19)             109.9787         -DE/DX =    0.0                 !
 ! A43   A(9,8,19)             110.8949         -DE/DX =    0.0                 !
 ! A44   A(5,9,8)               95.3997         -DE/DX =    0.0                 !
 ! D1    D(4,1,2,3)             -0.6379         -DE/DX =    0.0                 !
 ! D2    D(4,1,2,12)           115.6783         -DE/DX =    0.0                 !
 ! D3    D(4,1,2,13)          -118.076          -DE/DX =    0.0                 !
 ! D4    D(10,1,2,3)           116.5257         -DE/DX =    0.0                 !
 ! D5    D(10,1,2,12)         -127.1582         -DE/DX =    0.0                 !
 ! D6    D(10,1,2,13)           -0.9124         -DE/DX =    0.0                 !
 ! D7    D(11,1,2,3)          -117.1693         -DE/DX =    0.0                 !
 ! D8    D(11,1,2,12)           -0.8532         -DE/DX =    0.0                 !
 ! D9    D(11,1,2,13)          125.3926         -DE/DX =    0.0                 !
 ! D10   D(2,1,4,3)              0.6282         -DE/DX =    0.0                 !
 ! D11   D(2,1,4,5)            102.1509         -DE/DX =    0.0                 !
 ! D12   D(2,1,4,15)          -121.0859         -DE/DX =    0.0                 !
 ! D13   D(10,1,4,3)          -116.9671         -DE/DX =    0.0                 !
 ! D14   D(10,1,4,5)           -15.4444         -DE/DX =    0.0                 !
 ! D15   D(10,1,4,15)          121.3188         -DE/DX =    0.0                 !
 ! D16   D(11,1,4,3)           117.516          -DE/DX =    0.0                 !
 ! D17   D(11,1,4,5)          -140.9614         -DE/DX =    0.0                 !
 ! D18   D(11,1,4,15)           -4.1982         -DE/DX =    0.0                 !
 ! D19   D(1,2,3,4)              0.6288         -DE/DX =    0.0                 !
 ! D20   D(1,2,3,8)           -100.1101         -DE/DX =    0.0                 !
 ! D21   D(1,2,3,14)           123.5128         -DE/DX =    0.0                 !
 ! D22   D(12,2,3,4)          -116.0441         -DE/DX =    0.0                 !
 ! D23   D(12,2,3,8)           143.217          -DE/DX =    0.0                 !
 ! D24   D(12,2,3,14)            6.8398         -DE/DX =    0.0                 !
 ! D25   D(13,2,3,4)           118.3836         -DE/DX =    0.0                 !
 ! D26   D(13,2,3,8)            17.6447         -DE/DX =    0.0                 !
 ! D27   D(13,2,3,14)         -118.7324         -DE/DX =    0.0                 !
 ! D28   D(2,3,4,1)             -0.6307         -DE/DX =    0.0                 !
 ! D29   D(2,3,4,5)           -116.8998         -DE/DX =    0.0                 !
 ! D30   D(2,3,4,15)           119.5379         -DE/DX =    0.0                 !
 ! D31   D(8,3,4,1)            115.7221         -DE/DX =    0.0                 !
 ! D32   D(8,3,4,5)             -0.547          -DE/DX =    0.0                 !
 ! D33   D(8,3,4,15)          -124.1093         -DE/DX =    0.0                 !
 ! D34   D(14,3,4,1)          -122.3137         -DE/DX =    0.0                 !
 ! D35   D(14,3,4,5)           121.4172         -DE/DX =    0.0                 !
 ! D36   D(14,3,4,15)           -2.1451         -DE/DX =    0.0                 !
 ! D37   D(2,3,8,7)            169.8968         -DE/DX =    0.0                 !
 ! D38   D(2,3,8,9)             59.113          -DE/DX =    0.0                 !
 ! D39   D(2,3,8,19)           -64.3361         -DE/DX =    0.0                 !
 ! D40   D(4,3,8,7)             75.3263         -DE/DX =    0.0                 !
 ! D41   D(4,3,8,9)            -35.4575         -DE/DX =    0.0                 !
 ! D42   D(4,3,8,19)          -158.9066         -DE/DX =    0.0                 !
 ! D43   D(14,3,8,7)           -51.4238         -DE/DX =    0.0                 !
 ! D44   D(14,3,8,9)          -162.2075         -DE/DX =    0.0                 !
 ! D45   D(14,3,8,19)           74.3433         -DE/DX =    0.0                 !
 ! D46   D(1,4,5,6)           -164.1135         -DE/DX =    0.0                 !
 ! D47   D(1,4,5,9)            -59.1446         -DE/DX =    0.0                 !
 ! D48   D(1,4,5,16)            61.6794         -DE/DX =    0.0                 !
 ! D49   D(3,4,5,6)            -69.4482         -DE/DX =    0.0                 !
 ! D50   D(3,4,5,9)             35.5207         -DE/DX =    0.0                 !
 ! D51   D(3,4,5,16)           156.3446         -DE/DX =    0.0                 !
 ! D52   D(15,4,5,6)            57.6644         -DE/DX =    0.0                 !
 ! D53   D(15,4,5,9)           162.6333         -DE/DX =    0.0                 !
 ! D54   D(15,4,5,16)          -76.5427         -DE/DX =    0.0                 !
 ! D55   D(4,5,6,7)             71.8348         -DE/DX =    0.0                 !
 ! D56   D(4,5,6,17)          -170.9921         -DE/DX =    0.0                 !
 ! D57   D(4,5,6,18)           -46.5752         -DE/DX =    0.0                 !
 ! D58   D(9,5,6,7)            -35.1            -DE/DX =    0.0                 !
 ! D59   D(9,5,6,17)            82.073          -DE/DX =    0.0                 !
 ! D60   D(9,5,6,18)          -153.51           -DE/DX =    0.0                 !
 ! D61   D(16,5,6,7)          -153.4591         -DE/DX =    0.0                 !
 ! D62   D(16,5,6,17)          -36.2861         -DE/DX =    0.0                 !
 ! D63   D(16,5,6,18)           88.1309         -DE/DX =    0.0                 !
 ! D64   D(4,5,9,8)            -57.9836         -DE/DX =    0.0                 !
 ! D65   D(6,5,9,8)             53.483          -DE/DX =    0.0                 !
 ! D66   D(16,5,9,8)           176.3634         -DE/DX =    0.0                 !
 ! D67   D(5,6,7,8)              1.9511         -DE/DX =    0.0                 !
 ! D68   D(17,6,7,8)          -117.19           -DE/DX =    0.0                 !
 ! D69   D(18,6,7,8)           122.3654         -DE/DX =    0.0                 !
 ! D70   D(6,7,8,3)            -77.1903         -DE/DX =    0.0                 !
 ! D71   D(6,7,8,9)             33.0991         -DE/DX =    0.0                 !
 ! D72   D(6,7,8,19)           152.2576         -DE/DX =    0.0                 !
 ! D73   D(3,8,9,5)             58.2437         -DE/DX =    0.0                 !
 ! D74   D(7,8,9,5)            -55.0308         -DE/DX =    0.0                 !
 ! D75   D(19,8,9,5)          -173.5695         -DE/DX =    0.0                 !
 --------------------------------------------------------------------------------
 GradGradGradGradGradGradGradGradGradGradGradGradGradGradGradGradGradGrad

                          Input orientation:                          
 ---------------------------------------------------------------------
 Center     Atomic      Atomic             Coordinates (Angstroms)
 Number     Number       Type             X           Y           Z
 ---------------------------------------------------------------------
      1          6           0        1.440270    0.351356   -1.211699
      2          6           0       -0.110543    0.228691   -1.128424
      3          6           0       -0.064809    0.589020    0.380206
      4          6           0        1.502088    0.730170    0.293421
      5          6           0        1.938580   -0.388986    1.248611
      6          6           0        1.562205    0.025405    2.685601
      7          8           0        0.129248   -0.106394    2.665937
      8          6           0       -0.165176   -0.589632    1.355650
      9          8           0        0.943040   -1.407337    1.017700
     10          1           0        1.960278   -0.575924   -1.463676
     11          1           0        1.792750    1.139873   -1.880494
     12          1           0       -0.649867    0.956867   -1.738519
     13          1           0       -0.506521   -0.766460   -1.346393
     14          1           0       -0.653070    1.444536    0.710920
     15          1           0        1.948462    1.696076    0.534501
     16          1           0        2.937104   -0.803014    1.110575
     17          1           0        1.983115   -0.651313    3.438000
     18          1           0        1.846167    1.055993    2.925034
     19          1           0       -1.087229   -1.171434    1.371600
 ---------------------------------------------------------------------
                    Distance matrix (angstroms):
                    1          2          3          4          5
     1  C    0.000000
     2  C    1.557885   0.000000
     3  C    2.203614   1.551740   0.000000
     4  C    1.553289   2.207647   1.575634   0.000000
     5  C    2.617163   3.198551   2.392528   1.534739   0.000000
     6  C    3.912807   4.169676   2.877443   2.494561   1.542180
     7  O    4.118784   3.816669   2.397045   2.865897   2.315676
     8  C    3.170836   2.615963   1.533227   2.376969   2.116012
     9  O    2.882786   2.896976   2.325424   2.325092   1.442727
    10  H    1.092588   2.246798   2.976235   2.236785   2.718807
    11  H    1.092377   2.240176   2.977370   2.231198   3.485681
    12  H    2.238941   1.092395   2.228588   2.968347   4.175443
    13  H    2.248922   1.092993   2.239103   2.993894   3.585394
    14  H    3.045256   2.270639   1.089646   2.308535   3.219870
    15  H    2.261801   3.026225   2.302746   1.091028   2.203981
    16  H    2.994335   3.919909   3.388610   2.253368   1.089735
    17  H    4.787456   5.100004   3.883622   3.468179   2.205499
    18  H    4.215902   4.576426   3.216527   2.673937   2.215152
    19  H    3.921808   3.027273   2.264376   3.388677   3.127759
                    6          7          8          9         10
     6  C    0.000000
     7  O    1.439140   0.000000
     8  C    2.265146   1.427255   0.000000
     9  O    2.284296   2.251976   1.418095   0.000000
    10  H    4.211479   4.541677   3.530771   2.807711   0.000000
    11  H    4.705785   4.999045   4.159001   3.950925   1.773631
    12  H    5.033262   4.597476   3.492917   3.965294   3.039382
    13  H    4.600397   4.115663   2.729253   2.846205   2.476924
    14  H    3.289489   2.615243   2.188962   3.282508   3.954834
    15  H    2.750921   3.331885   3.219660   3.297806   3.025695
    16  H    2.248851   3.284583   3.119252   2.085695   2.762703
    17  H    1.096001   2.080827   2.992514   2.740654   4.902309
    18  H    1.095479   2.089518   3.035877   3.243695   4.683690
    19  H    3.190380   2.071096   1.090380   2.074340   4.204844
                   11         12         13         14         15
    11  H    0.000000
    12  H    2.453574   0.000000
    13  H    3.034142   1.773180   0.000000
    14  H    3.576350   2.497516   3.023659   0.000000
    15  H    2.483104   3.530490   3.953325   2.619612   0.000000
    16  H    3.745778   4.907227   4.230435   4.254475   2.748586
    17  H    5.615244   6.026209   5.394623   4.333477   3.733864
    18  H    4.806557   5.290439   5.205916   3.361466   2.476857
    19  H    4.920623   3.793915   2.808685   2.732817   4.258963
                   16         17         18         19
    16  H    0.000000
    17  H    2.519923   0.000000
    18  H    2.817501   1.787954   0.000000
    19  H    4.049583   3.737319   3.997425   0.000000
 Stoichiometry    C7H10O2
 Framework group  C1[X(C7H10O2)]
 Deg. of freedom    51
 Full point group                 C1      NOp   1
 Largest Abelian subgroup         C1      NOp   1
 Largest concise Abelian subgroup C1      NOp   1
                         Standard orientation:                         
 ---------------------------------------------------------------------
 Center     Atomic      Atomic             Coordinates (Angstroms)
 Number     Number       Type             X           Y           Z
 ---------------------------------------------------------------------
      1          6           0        1.999956    0.802261    0.063639
      2          6           0        2.024341   -0.754803    0.019338
      3          6           0        0.615152   -0.765137   -0.630259
      4          6           0        0.596424    0.810128   -0.601751
      5          6           0       -0.589824    1.060263    0.339350
      6          6           0       -1.883302    0.641647   -0.388658
      7          8           0       -1.769882   -0.793012   -0.392219
      8          6           0       -0.557560   -1.055350    0.313834
      9          8           0       -0.477481   -0.024279    1.284130
     10          1           0        2.023943    1.232415    1.067702
     11          1           0        2.776538    1.280482   -0.537619
     12          1           0        2.806343   -1.171544   -0.619508
     13          1           0        2.078454   -1.242866    0.995811
     14          1           0        0.506036   -1.275825   -1.586617
     15          1           0        0.509865    1.343521   -1.549559
     16          1           0       -0.618134    2.014129    0.865524
     17          1           0       -2.784612    0.937584    0.160231
     18          1           0       -1.942210    1.021122   -1.414622
     19          1           0       -0.608449   -2.034745    0.790409
 ---------------------------------------------------------------------
 Rotational constants (GHZ):      3.4970660      1.6803792      1.4942479
 1\1\GINC-ALCHEMY-MG\FOpt\RB3LYP\6-31G(2df,p)\C7H10O2\PUCK\27-Jan-2020\
 0\\# b3lyp 6-31G(2df,p) opt Freq\\titel\\0,1\C,1.4402703791,0.35135581
 17,-1.2116993351\C,-0.1105433095,0.2286909023,-1.1284242814\C,-0.06480
 92637,0.5890200401,0.380206491\C,1.5020883372,0.7301704092,0.293420525
 8\C,1.9385804969,-0.3889858176,1.2486108108\C,1.5622049356,0.025405116
 ,2.6856009352\O,0.129248012,-0.1063937474,2.6659374346\C,-0.1651761162
 ,-0.5896322471,1.3556503856\O,0.9430397938,-1.407336892,1.0176995903\H
 ,1.9602777684,-0.5759244606,-1.4636755596\H,1.792749885,1.1398734195,-
 1.8804935225\H,-0.6498670549,0.9568665389,-1.7385194743\H,-0.506520595
 1,-0.7664600459,-1.3463928255\H,-0.6530703123,1.444535556,0.7109202815
 \H,1.9484616303,1.6960755418,0.5345006033\H,2.9371037099,-0.8030142504
 ,1.1105754749\H,1.9831153332,-0.6513129461,3.4380001293\H,1.8461674667
 ,1.055992598,2.9250342774\H,-1.0872292863,-1.1714336264,1.3715997187\\
 Version=ES64L-G09RevD.01\State=1-A\HF=-423.1870262\RMSD=5.798e-09\RMSF
 =3.018e-05\Dipole=0.377032,0.473635,-0.349003\Quadrupole=2.4530349,-0.
 9012802,-1.5517547,0.6094054,2.3005748,-0.2476132\PG=C01 [X(C7H10O2)]\
 \@


 WHEN YOU REACH FOR THE STARS, YOU MAY NOT QUITE GET ONE,
 BUT YOU WON'T COME UP WITH A HANDFUL OF MUD, EITHER.

                                         -- LEO BURNETT (AD AGENCY HEAD)
 Job cpu time:       0 days  0 hours  7 minutes 27.6 seconds.
 File lengths (MBytes):  RWF=     52 Int=      0 D2E=      0 Chk=      7 Scr=      1
 Normal termination of Gaussian 09 at Mon Jan 27 12:19:07 2020.
 Link1:  Proceeding to internal job step number  2.
 ----------------------------------------------------------------------
 #N Geom=AllCheck Guess=TCheck SCRF=Check GenChk RB3LYP/6-31G(2df,p) Fr
 eq
 ----------------------------------------------------------------------
 1/10=4,29=7,30=1,38=1,40=1/1,3;
 2/12=2,40=1/2;
 3/5=1,6=6,7=104,11=2,14=-4,16=1,25=1,30=1,70=2,71=2,74=-5,116=1,140=1/1,2,3;
 4/5=101/1;
 5/5=2,98=1/2;
 8/6=4,10=90,11=11/1;
 11/6=1,8=1,9=11,15=111,16=1/1,2,10;
 10/6=1/2;
 6/7=2,8=2,9=2,10=2,18=1,28=1/1;
 7/8=1,10=1,25=1/1,2,3,16;
 1/10=4,30=1/3;
 99//99;
 Structure from the checkpoint file:  "/scratch/puck/g09_b6b4af11-9faa-45ab-a44c-243ac2bd5e6b/Gau-35499.chk"
 -----
 titel
 -----
 Charge =  0 Multiplicity = 1
 Redundant internal coordinates found in file.
 C,0,1.4402703791,0.3513558117,-1.2116993351
 C,0,-0.1105433095,0.2286909023,-1.1284242814
 C,0,-0.0648092637,0.5890200401,0.380206491
 C,0,1.5020883372,0.7301704092,0.2934205258
 C,0,1.9385804969,-0.3889858176,1.2486108108
 C,0,1.5622049356,0.025405116,2.6856009352
 O,0,0.129248012,-0.1063937474,2.6659374346
 C,0,-0.1651761162,-0.5896322471,1.3556503856
 O,0,0.9430397938,-1.407336892,1.0176995903
 H,0,1.9602777684,-0.5759244606,-1.4636755596
 H,0,1.792749885,1.1398734195,-1.8804935225
 H,0,-0.6498670549,0.9568665389,-1.7385194743
 H,0,-0.5065205951,-0.7664600459,-1.3463928255
 H,0,-0.6530703123,1.444535556,0.7109202815
 H,0,1.9484616303,1.6960755418,0.5345006033
 H,0,2.9371037099,-0.8030142504,1.1105754749
 H,0,1.9831153332,-0.6513129461,3.4380001293
 H,0,1.8461674667,1.055992598,2.9250342774
 H,0,-1.0872292863,-1.1714336264,1.3715997187
 Recover connectivity data from disk.

 GradGradGradGradGradGradGradGradGradGradGradGradGradGradGradGradGradGrad
 Berny optimization.
 Initialization pass.
                           ----------------------------
                           !    Initial Parameters    !
                           ! (Angstroms and Degrees)  !
 --------------------------                            --------------------------
 ! Name  Definition              Value          Derivative Info.                !
 --------------------------------------------------------------------------------
 ! R1    R(1,2)                  1.5579         calculate D2E/DX2 analytically  !
 ! R2    R(1,4)                  1.5533         calculate D2E/DX2 analytically  !
 ! R3    R(1,10)                 1.0926         calculate D2E/DX2 analytically  !
 ! R4    R(1,11)                 1.0924         calculate D2E/DX2 analytically  !
 ! R5    R(2,3)                  1.5517         calculate D2E/DX2 analytically  !
 ! R6    R(2,12)                 1.0924         calculate D2E/DX2 analytically  !
 ! R7    R(2,13)                 1.093          calculate D2E/DX2 analytically  !
 ! R8    R(3,4)                  1.5756         calculate D2E/DX2 analytically  !
 ! R9    R(3,8)                  1.5332         calculate D2E/DX2 analytically  !
 ! R10   R(3,14)                 1.0896         calculate D2E/DX2 analytically  !
 ! R11   R(4,5)                  1.5347         calculate D2E/DX2 analytically  !
 ! R12   R(4,15)                 1.091          calculate D2E/DX2 analytically  !
 ! R13   R(5,6)                  1.5422         calculate D2E/DX2 analytically  !
 ! R14   R(5,9)                  1.4427         calculate D2E/DX2 analytically  !
 ! R15   R(5,16)                 1.0897         calculate D2E/DX2 analytically  !
 ! R16   R(6,7)                  1.4391         calculate D2E/DX2 analytically  !
 ! R17   R(6,17)                 1.096          calculate D2E/DX2 analytically  !
 ! R18   R(6,18)                 1.0955         calculate D2E/DX2 analytically  !
 ! R19   R(7,8)                  1.4273         calculate D2E/DX2 analytically  !
 ! R20   R(8,9)                  1.4181         calculate D2E/DX2 analytically  !
 ! R21   R(8,19)                 1.0904         calculate D2E/DX2 analytically  !
 ! A1    A(2,1,4)               90.4024         calculate D2E/DX2 analytically  !
 ! A2    A(2,1,10)             114.7894         calculate D2E/DX2 analytically  !
 ! A3    A(2,1,11)             114.2532         calculate D2E/DX2 analytically  !
 ! A4    A(4,1,10)             114.2997         calculate D2E/DX2 analytically  !
 ! A5    A(4,1,11)             113.8516         calculate D2E/DX2 analytically  !
 ! A6    A(10,1,11)            108.5332         calculate D2E/DX2 analytically  !
 ! A7    A(1,2,3)               90.249          calculate D2E/DX2 analytically  !
 ! A8    A(1,2,12)             114.15           calculate D2E/DX2 analytically  !
 ! A9    A(1,2,13)             114.9402         calculate D2E/DX2 analytically  !
 ! A10   A(3,2,12)             113.7496         calculate D2E/DX2 analytically  !
 ! A11   A(3,2,13)             114.5813         calculate D2E/DX2 analytically  !
 ! A12   A(12,2,13)            108.4619         calculate D2E/DX2 analytically  !
 ! A13   A(2,3,4)               89.803          calculate D2E/DX2 analytically  !
 ! A14   A(2,3,8)              115.9821         calculate D2E/DX2 analytically  !
 ! A15   A(2,3,14)             117.4825         calculate D2E/DX2 analytically  !
 ! A16   A(4,3,8)               99.7301         calculate D2E/DX2 analytically  !
[...]
 42881,-0.00063786,-0.09059012,-0.02252837,-0.01303111,0.00528194,-0.01
 456029,-0.00210598,-0.07286682,0.00656382,0.11313060,0.58379588,-0.011
 46521,-0.02267892,-0.16125852,-0.02818026,-0.01875703,-0.03362406,0.01
 419485,0.00691433,-0.04276932,0.04528023,0.02671447,0.46411937,-0.0000
 0190,-0.00587756,0.00239775,-0.00185008,-0.00189907,-0.00051610,-0.025
 61747,0.02155536,-0.02053149,-0.08156680,0.02446629,-0.01387375,0.6773
 7913,-0.00461357,0.01009094,-0.00041138,0.00016404,-0.00100351,-0.0010
 7877,0.02344285,-0.00470782,0.00038120,0.02587998,-0.11179950,0.037234
 69,-0.11531320,0.40792465,-0.00992686,0.02193099,-0.02155200,-0.000568
 04,-0.00062267,-0.00136676,-0.00902600,-0.00346007,0.00184204,-0.01526
 836,0.03650508,-0.11244239,-0.03980891,-0.00064151,0.42315752,0.000638
 27,0.00225031,-0.00127125,0.00007839,-0.00191343,0.00160558,-0.0005060
 4,0.00275504,0.00389920,0.00478836,-0.00381088,-0.00799866,-0.06886490
 ,0.01717543,0.02411560,0.40968713,0.00150412,-0.00488971,0.00245134,-0
 .00085785,-0.00044165,0.00028307,0.00022651,0.00194352,0.00186908,-0.0
 0409567,0.00890191,0.02440424,0.01203576,-0.07203324,-0.00670561,0.017
 98444,0.61019883,-0.00096420,0.00279506,-0.00059765,0.00098161,-0.0000
 6254,-0.00030499,-0.00055807,-0.00130098,-0.00125683,0.00185629,0.0002
 9532,-0.03387342,0.00827156,-0.01042984,-0.14920257,0.09588707,-0.0166
 9645,0.52699419,0.00014106,-0.00035553,-0.00086602,0.00223344,0.001702
 19,0.00015394,0.00354875,-0.00381597,-0.00882761,-0.00016909,0.0025571
 6,-0.00135410,-0.04392952,0.01003188,0.01991034,-0.16851855,0.00464970
 ,0.01554809,0.35955729,0.00063108,-0.00026493,-0.00002832,-0.00030877,
 -0.00221811,0.00202676,0.00573094,0.00852451,0.01687822,0.00176695,0.0
 0116143,-0.00025936,-0.00236044,-0.00746305,-0.00555946,-0.01348366,-0
 .05920916,-0.00300580,0.00984513,0.11764457,-0.00170019,-0.00124742,0.
 00030236,-0.00007112,0.00900413,-0.00189305,-0.00894572,-0.00894325,-0
 .05399434,-0.00303196,-0.00120177,0.00403640,0.02620794,-0.00933415,-0
 .00610173,-0.00795755,-0.00616770,-0.08643545,0.00501027,0.07694053,0.
 33413863,-0.00178087,0.00144432,0.00042950,-0.00152385,0.00611326,-0.0
 0583162,-0.07458482,-0.01094208,0.00425714,-0.01513422,-0.02746424,0.0
 2154102,-0.09029964,-0.01228483,0.00365551,-0.02705043,-0.01457720,-0.
 04087685,-0.09740149,-0.00412366,0.00203411,0.68876308,-0.00069340,-0.
 00033347,-0.00109087,0.00205806,0.01431113,-0.00278309,-0.01610344,-0.
 12688215,0.03985863,-0.02764452,-0.01474501,0.00760327,-0.00616900,0.0
 2128762,0.00366172,-0.02888906,-0.01391387,-0.00605145,-0.00916806,-0.
 05741205,-0.01329141,0.15471893,0.46176022,0.00125445,0.00000177,-0.00
 180511,0.00289424,0.01634871,-0.02072074,0.00900340,0.04696530,-0.0944
 2016,0.01220479,0.00065579,-0.00280236,0.01311787,0.00743055,0.0093541
 4,-0.04504271,-0.01116343,-0.00420569,-0.02378516,-0.01685989,-0.15426
 591,0.01227633,-0.03270726,0.38776033,-0.00009464,0.00018690,-0.000892
 43,-0.00075716,0.00059514,0.00098465,-0.01804676,0.02847033,0.00351191
 ,-0.00871644,-0.02041277,0.00090756,-0.10284506,-0.05060310,-0.0157190
 8,-0.02032157,-0.02559833,-0.01201429,0.00107487,0.02580635,0.03380510
 ,-0.13070664,0.05320833,0.00506795,0.31774164,0.00003224,0.00026067,-0
 .00135108,0.00046833,-0.00086491,-0.00062090,0.02472499,-0.04185287,-0
 .00122364,-0.01656088,-0.04979986,-0.00069468,-0.01773465,-0.12722706,
 -0.01469383,-0.00448975,-0.02644284,-0.02571332,0.00165231,-0.01896728
 ,-0.03231708,0.02246241,-0.12266263,-0.00468231,-0.00789945,0.37148010
 ,0.00135665,-0.00019684,0.00027309,-0.00082629,0.00007302,0.00052392,-
 0.01338180,0.01406786,0.00858400,0.01225591,0.01965170,0.00664794,-0.0
 0562178,-0.01418817,-0.06994451,-0.01174698,-0.03908552,-0.01761895,0.
 02154960,-0.05113492,-0.03556725,0.00072442,-0.00713075,-0.07032259,-0
 .00962671,0.06409263,0.18182858,-0.10439357,0.10651738,0.02576044,-0.0
 1154104,0.02621902,0.00332280,-0.00151615,-0.00059786,0.00158267,0.001
 36165,-0.00698771,0.00062580,0.00184370,0.00052785,0.00074926,-0.00020
 925,-0.00020215,0.00005190,0.00037550,-0.00038940,0.00035112,-0.000964
 64,0.00147012,0.00009642,0.00065644,-0.00042025,-0.00070156,0.11112026
 ,0.10754296,-0.24315587,-0.05054519,-0.00328507,0.00493035,0.00180017,
 -0.00063316,-0.00019752,-0.00046117,0.00147635,-0.00506687,-0.00096873
 ,-0.00023389,-0.00041180,0.00148627,-0.00014612,-0.00016470,-0.0001122
 4,-0.00019698,0.00018435,0.00006184,0.00029513,-0.00039111,0.00052083,
 0.00010478,0.00061982,0.00065111,-0.11607673,0.25998518,0.02597884,-0.
 05009171,-0.05978599,-0.00082588,0.00388151,-0.00115026,0.00117458,0.0
 0023454,-0.00304674,0.01224648,-0.02542745,-0.00518027,-0.00025608,-0.
 00153869,0.00231404,-0.00005306,-0.00056643,0.00020491,-0.00037510,0.0
 0026499,0.00030723,0.00168866,-0.00114943,0.00011847,-0.00058268,0.001
 26936,0.00045716,-0.02971491,0.05545031,0.06326395,-0.07207857,-0.0610
 4161,0.05074806,-0.00845951,-0.02352042,0.01679763,-0.00273077,0.00070
 174,0.00017958,0.00077980,0.00656872,-0.00300741,-0.00007621,-0.000189
 16,-0.00183706,-0.00028663,0.00051187,-0.00023751,0.00044629,-0.000295
 62,0.00023870,-0.00046920,0.00069221,-0.00013240,0.00039737,-0.0003082
 0,-0.00019409,0.00553426,0.01102491,-0.00978018,0.07713786,-0.06061905
 ,-0.19104766,0.11888670,0.00126525,-0.00210654,-0.00005686,0.00051113,
 -0.00075222,-0.00036637,0.00254837,0.00744524,-0.00736337,0.00022943,-
 0.00104667,-0.00123855,-0.00024751,0.00020591,-0.00030072,-0.00009676,
 0.00017698,0.00035637,0.00018815,-0.00019172,-0.00024185,0.00011069,0.
 00042413,0.00102616,-0.00918925,-0.01888540,0.01725149,0.06582183,0.20
 235451,0.05021185,0.11882145,-0.14520059,-0.00048227,-0.00463750,0.002
 08758,0.00091377,-0.00144153,-0.00090263,0.00658795,0.02356020,-0.0153
 9516,0.00209730,-0.00305544,-0.00375399,-0.00080351,0.00146776,-0.0005
 4058,0.00021340,-0.00003587,0.00041575,-0.00034156,-0.00019357,0.00000
 685,-0.00011053,-0.00014078,0.00041054,-0.00260113,-0.00563369,0.00538
 017,-0.05515297,-0.12834333,0.15491220,-0.01337631,0.02145421,-0.01480
 685,-0.10871500,0.08801510,-0.07206366,0.00148185,-0.00507435,0.002502
 32,-0.00238728,-0.00113239,0.00016734,-0.00006846,-0.00058092,-0.00026
 238,-0.00031380,0.00017587,0.00004077,0.00056115,-0.00008701,0.0007526
 8,-0.00032603,0.00010227,0.00101319,0.00046922,0.00022426,0.00008468,-
 0.00440469,-0.00087661,-0.00140687,0.00278795,0.00023301,0.00073175,0.
 11688944,-0.00296006,0.00119260,-0.00235730,0.08758976,-0.17068633,0.1
 0065763,-0.00403070,0.00617211,-0.00621911,-0.00071048,-0.00102987,-0.
 00025419,-0.00012914,-0.00017099,0.00001467,0.00016537,0.00000837,0.00
 004172,0.00005697,0.00024932,-0.00051413,-0.00020876,-0.00129468,-0.00
 081270,-0.00002391,0.00048644,0.00095594,-0.00009402,0.00060916,-0.000
 16432,-0.00004043,0.00154813,-0.00001369,-0.09444150,0.18042982,0.0030
 1796,-0.00696293,0.00356629,-0.07151388,0.10068096,-0.12856216,-0.0119
 2285,0.02392499,-0.01523768,-0.00046284,-0.00122777,-0.00077480,0.0002
 2181,0.00000850,0.00027702,0.00089515,-0.00003186,0.00026888,-0.000457
 93,0.00081508,-0.00290290,-0.00178707,-0.00447517,-0.00162037,-0.00025
 945,0.00027098,0.00031361,0.00187833,-0.00017815,-0.00011375,-0.000879
 38,-0.00014712,0.00121337,0.07789480,-0.10859813,0.13712470,-0.0077258
 2,-0.02741744,-0.00307389,-0.07904517,-0.08481420,-0.01596398,-0.00072
 669,0.00514456,-0.00155961,-0.00200457,0.00014810,-0.00167071,-0.00064
 426,-0.00136367,-0.00034168,0.00000670,0.00029155,-0.00007608,-0.00008
 603,0.00008076,-0.00011623,0.00187711,-0.00056740,-0.00080685,0.000590
 54,0.00043830,0.00075696,0.00265978,0.00036122,0.00060343,-0.00433413,
 -0.00072639,-0.00128848,0.00630685,0.01474510,0.00345066,0.08377175,0.
 00145408,0.00098004,0.00107767,-0.08605067,-0.27074967,-0.04603663,-0.
 00060770,-0.00349814,-0.00129352,0.00027363,-0.00000461,-0.00063651,-0
 .00021026,-0.00057620,0.00042220,0.00006361,0.00009612,0.00010166,0.00
 017301,0.00009595,-0.00028715,0.00067987,-0.00070298,0.00137449,-0.000
 00025,0.00073109,0.00051260,-0.00010692,0.00111129,-0.00007103,-0.0000
 0747,0.00059066,-0.00051217,-0.00787414,-0.01880488,-0.00447632,0.0932
 7341,0.29005093,0.00079342,0.00694550,-0.00096956,-0.01658385,-0.04622
 001,-0.05708143,-0.00870081,-0.02767590,-0.00361194,-0.00139416,-0.000
 09400,-0.00299995,-0.00124506,-0.00102059,0.00034062,-0.00000653,-0.00
 006925,0.00025778,0.00051521,0.00036476,0.00085820,0.00025032,-0.00161
 036,0.00142115,0.00049041,0.00109099,0.00061703,-0.00086232,-0.0002563
 8,0.00114006,0.00186339,0.00012899,-0.00012838,0.00688117,0.01695134,0
 .00432277,0.01968267,0.05133180,0.05963510,-0.00182300,-0.00017068,0.0
 0120416,0.00262517,-0.00690996,-0.00015197,-0.12621174,0.11696584,0.04
 188314,-0.00703304,0.02233005,0.00484636,-0.00358010,-0.00011029,0.001
 57889,-0.00054463,0.00047299,0.00025802,0.00030979,-0.00050392,-0.0006
 5875,0.00280317,-0.00449046,-0.00178277,0.00112634,-0.00120481,0.00091
 660,-0.00010369,0.00014448,0.00071049,0.00002053,0.00024162,0.00069958
 ,0.00098778,0.00024679,0.00093856,-0.00024890,-0.00080790,-0.00153387,
 0.12961441,-0.00073067,0.00000376,0.00048560,0.00116972,-0.00344000,0.
 00171898,0.11650764,-0.21732235,-0.06360056,-0.00486357,0.00770432,0.0
 0182802,-0.00332149,-0.00217075,-0.00003354,0.00073087,0.00030428,-0.0
 0005277,-0.00161877,0.00247818,-0.00121316,0.01437345,-0.01537432,-0.0
 1148832,0.00429852,-0.00533979,0.00413358,-0.00001654,0.00016772,0.000
 23326,0.00005987,0.00003302,0.00019268,-0.00005965,0.00113604,0.000076
 98,0.00018865,-0.00003232,-0.00095256,-0.12702133,0.23086529,0.0012120
 3,0.00027648,-0.00279364,0.01276545,-0.02160662,-0.00450830,0.04489863
 ,-0.06811182,-0.07125444,0.00005918,0.00237171,-0.00177360,0.00012407,
 0.00171471,0.00007016,-0.00046272,-0.00010704,0.00003298,0.00060205,-0
 .00061471,0.00190527,-0.01100981,0.01260455,0.00559288,-0.00410389,0.0
 0531241,-0.00219947,0.00070045,0.00006188,-0.00014025,0.00088262,-0.00
 008850,-0.00022622,-0.00066330,0.00053948,0.00227842,0.00132373,-0.000
 68196,-0.00338903,-0.04708084,0.06851036,0.07582040,0.00037835,0.00505
 608,-0.00080251,-0.00190397,-0.00015805,-0.00124533,-0.00418703,-0.025
 14872,-0.00358538,-0.09010009,-0.09799802,-0.02195302,0.00536022,0.009
 86029,0.00367773,-0.00036069,-0.00081347,0.00033936,0.00063443,0.00020
 539,0.00048608,-0.00516273,-0.00018621,-0.00216533,0.00126448,0.003076
 24,-0.00191163,-0.00035113,0.00068833,0.00132265,0.00104057,-0.0002103
 5,-0.00083717,-0.00011362,-0.00023377,-0.00066694,-0.00025848,-0.00017
 652,-0.00070936,0.00245253,0.00120365,0.00032018,0.09112753,-0.0006376
 6,-0.00351464,0.00150243,0.00031673,-0.00006742,0.00004562,0.00235322,
 0.00401390,0.00048295,-0.09720019,-0.25966684,-0.05077054,-0.01120959,
 -0.01527046,-0.00798948,-0.00068262,-0.00015891,-0.00165244,0.00031532
 ,0.00088878,0.00079186,0.00317109,-0.00193271,-0.00139009,-0.00240462,
 -0.00496973,0.00415479,-0.00041597,0.00005389,-0.00079718,0.00009607,0
 .00120592,0.00004365,-0.00008394,-0.00000652,0.00005276,-0.00007256,0.
 00013139,0.00007883,-0.00076221,0.00032860,0.00008018,0.10626463,0.277
 55481,-0.00911806,-0.02479049,-0.00325963,-0.00117929,0.00002669,-0.00
 243393,-0.00014000,0.00478962,-0.00123806,-0.02422984,-0.05468569,-0.0
 6028746,0.00881568,0.01318604,0.00420508,0.00079663,0.00079130,0.00130
 649,-0.00022498,-0.00019365,-0.00039748,-0.00012861,0.00204011,0.00036
 304,0.00264252,0.00565455,-0.00237670,-0.00156107,-0.00111349,-0.00352
 829,0.00072124,0.00063705,0.00227207,-0.00082503,-0.00019490,-0.000046
 47,-0.00070508,-0.00002312,-0.00000835,-0.00049925,-0.00012499,0.00089
 178,0.02616204,0.05447650,0.06518011,0.00012713,0.00002707,0.00001887,
 0.00009796,-0.00001138,0.00006584,0.00047720,-0.00004744,0.00077318,-0
 .00181541,0.00195409,0.00134737,-0.27133868,0.09513331,0.03250535,-0.0
 0099261,0.00171483,-0.00084477,0.00091317,-0.00011896,-0.00077566,-0.0
 0244017,-0.00372146,-0.00129351,-0.02226162,0.00562023,0.00263006,-0.0
 0011899,-0.00017497,-0.00056567,0.00006323,-0.00010815,-0.00010544,0.0
 0009409,0.00000933,-0.00014131,-0.00000327,-0.00001040,0.00005394,-0.0
 0013385,0.00001880,-0.00011956,-0.00038219,0.00072037,-0.00043890,0.29
 863112,-0.00076025,0.00085249,-0.00052109,0.00016815,0.00038957,-0.000
 24417,0.00000860,-0.00372459,0.00206441,0.02129103,-0.00449835,-0.0048
 9230,0.10760874,-0.09245607,-0.01607351,0.00679523,-0.00134550,0.00282
 790,0.00034568,0.00027493,-0.00144925,-0.00384229,-0.00555718,-0.00113
 740,-0.02840724,0.00969985,0.00374167,-0.00023178,0.00046301,0.0006112
 1,-0.00010600,0.00003265,0.00001663,-0.00007966,0.00002287,0.00011306,
 0.00002453,0.00006905,0.00033732,0.00115912,0.00047915,0.00014280,-0.0
 0053894,-0.00014783,-0.00020310,-0.10167748,0.09398414,0.00023708,-0.0
 0002126,0.00181883,-0.00036743,-0.00035088,0.00054027,-0.00187850,0.00
 276703,-0.00121656,-0.01713522,0.00589176,0.00324552,0.03479732,-0.014
 75449,-0.05490059,0.02315013,-0.00826366,0.00302564,0.00631361,-0.0004
 3766,-0.00290213,-0.00127733,-0.00200150,-0.00385938,-0.00807522,0.003
 02828,0.00089089,0.00032867,-0.00067952,-0.00027212,0.00008046,-0.0000
 4962,0.00004943,0.00013571,0.00003088,-0.00002299,0.00001965,-0.000073
 08,-0.00017156,-0.00082308,-0.00020451,-0.00023262,0.00025743,0.000158
 26,0.00012578,-0.03458940,0.01464000,0.05348652,0.00041301,-0.00062067
 ,0.00042240,-0.00005131,0.00052036,-0.00000393,-0.00028731,-0.00090235
 ,-0.00135264,-0.00015179,0.00137708,0.00254635,0.00452795,-0.00907152,
 0.00696564,-0.07223544,0.05554919,-0.05783935,-0.03289808,0.01210498,-
 0.02778538,-0.00407032,0.00640775,0.00556449,0.00237155,-0.00065110,-0
 .00110857,0.00000787,0.00000597,-0.00005267,0.00013976,0.00005963,0.00
 018844,0.00006639,-0.00000323,-0.00020705,0.00005793,-0.00000262,0.000
 04403,0.00005389,-0.00015846,0.00008414,0.00000702,0.00026079,-0.00008
 991,0.00035778,-0.00040868,-0.00067045,0.09610053,-0.00003909,0.000604
 88,-0.00043982,0.00008169,-0.00009239,0.00004763,-0.00026501,-0.000223
 77,0.00004217,-0.00007198,-0.00057730,-0.00082672,-0.00407766,0.005824
 25,-0.00744131,0.05691263,-0.15825222,0.11149937,0.00021944,0.00984105
 ,-0.00484888,-0.00134059,-0.00068696,-0.00116930,0.00087766,0.00082305
 ,0.00061235,0.00001619,0.00003798,0.00014431,-0.00003932,-0.00002732,-
 0.00012685,0.00000762,0.00000568,0.00004015,0.00000312,0.00002085,0.00
 001530,-0.00007615,0.00002973,-0.00002364,0.00017143,0.00041231,-0.000
 22668,-0.00015503,0.00055891,0.00087889,-0.06143408,0.16054292,-0.0001
 2010,0.00185341,-0.00021516,0.00005855,-0.00004798,0.00011208,0.000209
 01,-0.00058315,0.00064066,0.00198365,-0.00372626,-0.00520668,-0.009034
 86,0.02165743,-0.01892619,-0.06175518,0.10869338,-0.17196303,-0.004471
 17,-0.00201079,0.00641898,0.00007141,0.00069194,-0.00071543,0.00040110
 ,-0.00101092,0.00275008,0.00003775,-0.00006743,0.00006798,-0.00014870,
 -0.00013215,-0.00059302,-0.00012152,0.00002302,-0.00000317,-0.00009657
 ,-0.00004503,-0.00003324,-0.00012601,-0.00004498,0.00004019,0.00015088
 ,0.00000955,0.00014199,0.00045806,-0.00012700,0.00096102,0.07021471,-0
 .11987070,0.18074121,-0.00007695,0.00021161,-0.00005377,0.00008613,0.0
 0024841,-0.00001794,0.00016518,-0.00040887,0.00005450,0.00045655,-0.00
 039107,-0.00066355,0.00436383,0.00857038,-0.00179932,-0.05620357,-0.04
 815895,-0.01061056,-0.02374498,-0.03064490,-0.01328306,-0.00470437,-0.
 00204384,0.00574534,0.00228113,0.00111027,0.00324274,0.00003598,0.0000
 0588,0.00001676,0.00001645,-0.00001311,-0.00003294,0.00001300,-0.00000
 986,-0.00008136,-0.00003022,-0.00000762,0.00006559,-0.00010544,-0.0000
 2028,-0.00005820,0.00026958,0.00005878,-0.00002827,-0.00041623,-0.0002
 8193,-0.00027163,0.00565132,0.00918431,0.00232956,0.07232266,0.0001136
 2,0.00032694,-0.00016574,0.00001383,0.00004954,0.00003129,-0.00033305,
 -0.00020839,-0.00005042,0.00007663,-0.00010388,0.00166709,-0.00126288,
 -0.00568586,0.00122683,-0.05310743,-0.28337284,-0.05125974,-0.00682414
 ,0.00579626,-0.00130344,0.00143732,-0.00081881,0.00184843,-0.00046180,
 0.00049979,-0.00165202,0.00002802,0.00003051,0.00016410,-0.00002070,0.
 00001409,-0.00007586,0.00003592,0.00003416,-0.00005213,0.00005542,-0.0
 0000116,0.00004157,-0.00005326,0.00008733,0.00002568,0.00010483,0.0009
 0084,-0.00024720,0.00005063,-0.00020313,-0.00078880,-0.00306244,-0.018
 82774,-0.00519615,0.06327897,0.30149557,0.00019207,0.00003074,0.000200
 90,-0.00007124,0.00008326,0.00007626,-0.00040676,0.00016096,-0.0000646
 9,-0.00039489,-0.00140609,0.00133615,-0.00663636,-0.02416995,-0.001984
 76,-0.01374117,-0.04688804,-0.06262665,0.00181222,-0.00108790,0.002863
 56,0.00144077,-0.00221548,-0.00140071,-0.00397406,-0.00327087,-0.00612
 431,-0.00002392,0.00005152,0.00012638,0.00000544,0.00004080,0.00002727
 ,0.00004347,0.00003201,-0.00003305,0.00008774,0.00004446,0.00008818,-0
 .00014118,0.00012961,-0.00015831,0.00026664,0.00077420,-0.00061294,0.0
 0068745,-0.00019405,-0.00104073,0.00369827,0.02177736,0.00581764,0.017
 32101,0.05598860,0.06357774,0.00012066,-0.00005552,0.00009530,-0.00009
 985,-0.00021187,0.00049347,0.00402293,0.00072334,-0.00129825,0.0004150
 6,0.00143994,-0.00129022,-0.00279173,0.00334425,0.00139937,0.00120926,
 -0.00081322,0.00078701,-0.00304800,-0.00385522,-0.00456036,-0.23682395
 ,-0.11898082,0.00677026,-0.02422366,-0.01054050,0.00160178,0.00000770,
 -0.00002647,-0.00012878,0.00007097,0.00000146,0.00011195,0.00004747,0.
 00007255,0.00008278,-0.00016311,-0.00005513,0.00039581,-0.00020923,-0.
 00074040,0.00052579,0.00028522,-0.00008764,0.00003019,-0.00085865,-0.0
 0106681,-0.00023182,-0.00006073,0.00002483,-0.00004058,-0.00038006,-0.
 00006947,-0.00016550,0.26247971,-0.00019324,0.00041479,-0.00021752,0.0
 0029396,0.00029240,-0.00036303,-0.02008482,-0.00702986,0.00000154,0.00
 087500,-0.00354169,0.00173624,0.00390326,-0.00310446,-0.00078821,0.001
 93752,-0.00143428,-0.00092273,-0.00947257,-0.00178173,-0.00503595,-0.1
 3010027,-0.13445932,0.00650667,0.02215278,0.01310204,-0.00028521,-0.00
 005000,0.00007998,0.00030118,0.00009172,0.00002628,0.00010791,0.000041
 90,0.00009860,0.00016612,0.00020695,0.00049259,0.00061267,0.00055010,0
 .00006213,-0.00040595,-0.00116681,0.00024462,0.00020146,0.00077660,0.0
 0110603,0.00022987,0.00002939,-0.00001391,-0.00006621,-0.00068820,-0.0
 0001321,0.00011886,0.13089673,0.13545902,0.00035107,-0.00021774,0.0005
 4826,-0.00023198,-0.00004115,0.00165457,0.01433680,0.00803375,0.002367
 74,0.00099092,0.00264784,-0.00099738,0.00147308,-0.00099015,-0.0013851
 2,0.00048996,-0.00421516,-0.00346505,-0.03126667,-0.01606202,-0.006786
 13,0.01288364,0.00824013,-0.04847840,0.00754715,0.00500021,0.00085695,
 -0.00002071,-0.00006792,-0.00016267,-0.00014742,0.00000089,-0.00003464
 ,-0.00009829,-0.00011823,-0.00004773,-0.00022568,-0.00072837,-0.000287
 46,-0.00023807,0.00040632,0.00004380,0.00089368,-0.00005184,-0.0002970
 3,0.00033409,0.00034686,0.00047476,-0.00061851,-0.00008362,-0.00003593
 ,-0.00187489,-0.00020208,-0.00006792,-0.00457818,-0.00189772,0.0560993
 9\\-0.00001374,-0.00000313,0.00002089,-0.00000283,0.00001578,-0.000008
 77,-0.00001537,0.00000184,0.00000143,0.00000354,0.00004343,-0.00005296
 ,-0.00001282,-0.00002226,0.00000041,-0.00002622,-0.00002313,-0.0000360
 9,-0.00002872,-0.00002884,-0.00005821,0.00001113,0.00003755,0.00013859
 ,0.00008909,-0.00003214,-0.00005194,0.00000244,0.00001477,-0.00001027,
 -0.00001997,0.00002436,0.00001286,-0.00000249,0.00002061,0.00001255,0.
 00000925,0.00001088,-0.00000164,-0.00001040,-0.00000410,0.00000662,0.0
 0001408,-0.00001107,0.00001887,-0.00000917,-0.00000762,-0.00001071,0.0
 0001408,-0.00002042,0.00001400,-0.00000602,-0.00000807,0.00002474,0.00
 000413,-0.00000843,-0.00002036\\\@


 WORK FAITHFULLY FOR EIGHT HOURS A DAY AND DON'T WORRY.
 IN TIME YOU MAY BECOME BOSS AND WORK TWELVE HOURS A DAY
 AND HAVE ALL THE WORRY.
 Job cpu time:       0 days  0 hours 47 minutes 54.1 seconds.
 File lengths (MBytes):  RWF=    152 Int=      0 D2E=      0 Chk=      8 Scr=      1
 Normal termination of Gaussian 09 at Mon Jan 27 13:06:59 2020.
