 Entering Gaussian System, Link 0=/home/puck/opt/gaussian_09/g09
 Input=dsC7O2H10nsd_5400.com
 Output=dsC7O2H10nsd_5400.log
 Initial command:
 /home/puck/opt/gaussian_09/l1.exe "/scratch/puck/g09_28f6a489-c864-4101-824a-89569d389d78/Gau-106556.inp" -scrdir="/scratch/puck/g09_28f6a489-c864-4101-824a-89569d389d78/"
 Entering Link 1 = /home/puck/opt/gaussian_09/l1.exe PID=    106568.
  
 Copyright (c) 1988,1990,1992,1993,1995,1998,2003,2009,2013,
            Gaussian, Inc.  All Rights Reserved.
  
 This is part of the Gaussian(R) 09 program.  It is based on
 the Gaussian(R) 03 system (copyright 2003, Gaussian, Inc.),
 the Gaussian(R) 98 system (copyright 1998, Gaussian, Inc.),
 the Gaussian(R) 94 system (copyright 1995, Gaussian, Inc.),
 the Gaussian 92(TM) system (copyright 1992, Gaussian, Inc.),
 the Gaussian 90(TM) system (copyright 1990, Gaussian, Inc.),
 the Gaussian 88(TM) system (copyright 1988, Gaussian, Inc.),
 the Gaussian 86(TM) system (copyright 1986, Carnegie Mellon
 University), and the Gaussian 82(TM) system (copyright 1983,
 Carnegie Mellon University). Gaussian is a federally registered
 trademark of Gaussian, Inc.
  
 This software contains proprietary and confidential information,
 including trade secrets, belonging to Gaussian, Inc.
  
 This software is provided under written license and may be
 used, copied, transmitted, or stored only in accord with that
 written license.
  
 The following legend is applicable only to US Government
 contracts under FAR:
  
                    RESTRICTED RIGHTS LEGEND
  
 Use, reproduction and disclosure by the US Government is
 subject to restrictions as set forth in subparagraphs (a)
 and (c) of the Commercial Computer Software - Restricted
 Rights clause in FAR 52.227-19.
  
 Gaussian, Inc.
 340 Quinnipiac St., Bldg. 40, Wallingford CT 06492
  
  
 ---------------------------------------------------------------
 Warning -- This program may not be used in any manner that
 competes with the business of Gaussian, Inc. or will provide
 assistance to any competitor of Gaussian, Inc.  The licensee
 of this program is prohibited from giving any competitor of
 Gaussian, Inc. access to this program.  By using this program,
 the user acknowledges that Gaussian, Inc. is engaged in the
 business of creating and licensing software in the field of
 computational chemistry and represents and warrants to the
 licensee that it is not a competitor of Gaussian, Inc. and that
 it will not use this program in any manner prohibited above.
 ---------------------------------------------------------------
  

 Cite this work as:
 Gaussian 09, Revision D.01,
 M. J. Frisch, G. W. Trucks, H. B. Schlegel, G. E. Scuseria, 
 M. A. Robb, J. R. Cheeseman, G. Scalmani, V. Barone, B. Mennucci, 
 G. A. Petersson, H. Nakatsuji, M. Caricato, X. Li, H. P. Hratchian, 
 A. F. Izmaylov, J. Bloino, G. Zheng, J. L. Sonnenberg, M. Hada, 
 M. Ehara, K. Toyota, R. Fukuda, J. Hasegawa, M. Ishida, T. Nakajima, 
 Y. Honda, O. Kitao, H. Nakai, T. Vreven, J. A. Montgomery, Jr., 
 J. E. Peralta, F. Ogliaro, M. Bearpark, J. J. Heyd, E. Brothers, 
 K. N. Kudin, V. N. Staroverov, T. Keith, R. Kobayashi, J. Normand, 
 K. Raghavachari, A. Rendell, J. C. Burant, S. S. Iyengar, J. Tomasi, 
 M. Cossi, N. Rega, J. M. Millam, M. Klene, J. E. Knox, J. B. Cross, 
 V. Bakken, C. Adamo, J. Jaramillo, R. Gomperts, R. E. Stratmann, 
 O. Yazyev, A. J. Austin, R. Cammi, C. Pomelli, J. W. Ochterski, 
 R. L. Martin, K. Morokuma, V. G. Zakrzewski, G. A. Voth, 
 P. Salvador, J. J. Dannenberg, S. Dapprich, A. D. Daniels, 
 O. Farkas, J. B. Foresman, J. V. Ortiz, J. Cioslowski, 
 and D. J. Fox, Gaussian, Inc., Wallingford CT, 2013.
 
 ******************************************
 Gaussian 09:  ES64L-G09RevD.01 24-Apr-2013
                28-Jan-2020 
 ******************************************
 -----------------------------
 # b3lyp 6-31G(2df,p) opt Freq
 -----------------------------
 1/14=-1,18=20,19=15,26=3,38=1/1,3;
 2/9=110,12=2,17=6,18=5,40=1/2;
 3/5=1,6=6,7=104,11=2,16=1,25=1,30=1,71=1,74=-5/1,2,3;
 4//1;
 5/5=2,38=5/2;
 6/7=2,8=2,9=2,10=2,28=1/1;
 7//1,2,3,16;
 1/14=-1,18=20,19=15,26=3/3(2);
 2/9=110/2;
 99//99;
 2/9=110/2;
 3/5=1,6=6,7=104,11=2,16=1,25=1,30=1,71=1,74=-5/1,2,3;
 4/5=5,16=3,69=1/1;
 5/5=2,38=5/2;
 7//1,2,3,16;
 1/14=-1,18=20,19=15,26=3/3(-5);
 2/9=110/2;
 6/7=2,8=2,9=2,10=2,19=2,28=1/1;
 99/9=1/99;
 -----
 titel
 -----
 Symbolic Z-matrix:
 Charge =  0 Multiplicity = 1
 C                     2.77847   1.50707  -0.08369 
 C                     2.00021   0.19457   0.04613 
 C                     1.9543   -0.59033  -1.26855 
 C                     1.02396  -0.04627  -2.3763 
 O                     0.93731   1.00785  -2.93666 
 C                     0.21874  -1.36188  -2.45248 
 C                     1.10217  -1.87858  -1.30626 
 C                     1.44729  -3.2424   -0.91516 
 O                     0.54973  -2.44313  -0.12846 
 H                     2.76324   2.06409   0.85789 
 H                     3.82606   1.32053  -0.34533 
 H                     2.34819   2.13995  -0.86482 
 H                     2.44671  -0.44556   0.81595 
 H                     0.97575   0.395     0.38043 
 H                     2.97107  -0.74399  -1.65389 
 H                    -0.84219  -1.25983  -2.20448 
 H                     0.30958  -1.88598  -3.40883 
 H                     0.98935  -4.0873   -1.428 
 H                     2.41333  -3.44658  -0.45457 
 

 GradGradGradGradGradGradGradGradGradGradGradGradGradGradGradGradGradGrad
 Berny optimization.
 Initialization pass.
                           ----------------------------
                           !    Initial Parameters    !
                           ! (Angstroms and Degrees)  !
 --------------------------                            --------------------------
 ! Name  Definition              Value          Derivative Info.                !
 --------------------------------------------------------------------------------
 ! R1    R(1,2)                  1.5314         estimate D2E/DX2                !
 ! R2    R(1,10)                 1.0941         estimate D2E/DX2                !
 ! R3    R(1,11)                 1.0958         estimate D2E/DX2                !
 ! R4    R(1,12)                 1.0936         estimate D2E/DX2                !
 ! R5    R(2,3)                  1.5318         estimate D2E/DX2                !
 ! R6    R(2,13)                 1.0962         estimate D2E/DX2                !
 ! R7    R(2,14)                 1.0961         estimate D2E/DX2                !
 ! R8    R(3,4)                  1.5455         estimate D2E/DX2                !
 ! R9    R(3,7)                  1.545          estimate D2E/DX2                !
 ! R10   R(3,15)                 1.0981         estimate D2E/DX2                !
 ! R11   R(4,5)                  1.197          estimate D2E/DX2                !
 ! R12   R(4,6)                  1.5443         estimate D2E/DX2                !
 ! R13   R(6,7)                  1.5366         estimate D2E/DX2                !
 ! R14   R(6,16)                 1.0943         estimate D2E/DX2                !
 ! R15   R(6,17)                 1.0943         estimate D2E/DX2                !
 ! R16   R(7,8)                  1.4602         estimate D2E/DX2                !
 ! R17   R(7,9)                  1.4181         estimate D2E/DX2                !
 ! R18   R(8,9)                  1.4364         estimate D2E/DX2                !
 ! R19   R(8,18)                 1.0893         estimate D2E/DX2                !
 ! R20   R(8,19)                 1.0895         estimate D2E/DX2                !
 ! A1    A(2,1,10)             110.8735         estimate D2E/DX2                !
 ! A2    A(2,1,11)             111.1126         estimate D2E/DX2                !
 ! A3    A(2,1,12)             110.8919         estimate D2E/DX2                !
 ! A4    A(10,1,11)            107.7863         estimate D2E/DX2                !
 ! A5    A(10,1,12)            108.3372         estimate D2E/DX2                !
 ! A6    A(11,1,12)            107.7058         estimate D2E/DX2                !
 ! A7    A(1,2,3)              112.4342         estimate D2E/DX2                !
 ! A8    A(1,2,13)             110.6709         estimate D2E/DX2                !
 ! A9    A(1,2,14)             110.128          estimate D2E/DX2                !
 ! A10   A(3,2,13)             108.4024         estimate D2E/DX2                !
 ! A11   A(3,2,14)             109.1132         estimate D2E/DX2                !
 ! A12   A(13,2,14)            105.8593         estimate D2E/DX2                !
 ! A13   A(2,3,4)              116.9237         estimate D2E/DX2                !
 ! A14   A(2,3,7)              117.6911         estimate D2E/DX2                !
 ! A15   A(2,3,15)             110.1882         estimate D2E/DX2                !
 ! A16   A(4,3,7)               86.7909         estimate D2E/DX2                !
 ! A17   A(4,3,15)             110.7997         estimate D2E/DX2                !
 ! A18   A(7,3,15)             112.6701         estimate D2E/DX2                !
 ! A19   A(3,4,5)              133.5624         estimate D2E/DX2                !
 ! A20   A(3,4,6)               92.8278         estimate D2E/DX2                !
 ! A21   A(5,4,6)              133.5823         estimate D2E/DX2                !
 ! A22   A(4,6,7)               87.1281         estimate D2E/DX2                !
 ! A23   A(4,6,16)             114.5114         estimate D2E/DX2                !
 ! A24   A(4,6,17)             114.0677         estimate D2E/DX2                !
 ! A25   A(7,6,16)             114.8147         estimate D2E/DX2                !
 ! A26   A(7,6,17)             116.3031         estimate D2E/DX2                !
 ! A27   A(16,6,17)            108.8568         estimate D2E/DX2                !
 ! A28   A(3,7,6)               93.1483         estimate D2E/DX2                !
 ! A29   A(3,7,8)              129.9324         estimate D2E/DX2                !
 ! A30   A(3,7,9)              121.7696         estimate D2E/DX2                !
 ! A31   A(6,7,8)              130.5227         estimate D2E/DX2                !
 ! A32   A(6,7,9)              121.9661         estimate D2E/DX2                !
 ! A33   A(7,8,18)             119.9335         estimate D2E/DX2                !
 ! A34   A(7,8,19)             119.8573         estimate D2E/DX2                !
 ! A35   A(9,8,18)             115.2609         estimate D2E/DX2                !
 ! A36   A(9,8,19)             115.2634         estimate D2E/DX2                !
 ! A37   A(18,8,19)            115.2405         estimate D2E/DX2                !
 ! D1    D(10,1,2,3)           177.8633         estimate D2E/DX2                !
 ! D2    D(10,1,2,13)          -60.7503         estimate D2E/DX2                !
 ! D3    D(10,1,2,14)           55.952          estimate D2E/DX2                !
 ! D4    D(11,1,2,3)           -62.2896         estimate D2E/DX2                !
 ! D5    D(11,1,2,13)           59.0968         estimate D2E/DX2                !
 ! D6    D(11,1,2,14)          175.7991         estimate D2E/DX2                !
 ! D7    D(12,1,2,3)            57.4684         estimate D2E/DX2                !
 ! D8    D(12,1,2,13)          178.8548         estimate D2E/DX2                !
 ! D9    D(12,1,2,14)          -64.4429         estimate D2E/DX2                !
 ! D10   D(1,2,3,4)            -73.8419         estimate D2E/DX2                !
 ! D11   D(1,2,3,7)           -175.1229         estimate D2E/DX2                !
 ! D12   D(1,2,3,15)            53.8252         estimate D2E/DX2                !
 ! D13   D(13,2,3,4)           163.4849         estimate D2E/DX2                !
 ! D14   D(13,2,3,7)            62.2039         estimate D2E/DX2                !
 ! D15   D(13,2,3,15)          -68.848          estimate D2E/DX2                !
 ! D16   D(14,2,3,4)            48.6439         estimate D2E/DX2                !
 ! D17   D(14,2,3,7)           -52.6371         estimate D2E/DX2                !
 ! D18   D(14,2,3,15)          176.311          estimate D2E/DX2                !
 ! D19   D(2,3,4,5)             56.2079         estimate D2E/DX2                !
 ! D20   D(2,3,4,6)           -122.0161         estimate D2E/DX2                !
 ! D21   D(7,3,4,5)            175.7815         estimate D2E/DX2                !
 ! D22   D(7,3,4,6)             -2.4425         estimate D2E/DX2                !
 ! D23   D(15,3,4,5)           -71.1616         estimate D2E/DX2                !
 ! D24   D(15,3,4,6)           110.6143         estimate D2E/DX2                !
 ! D25   D(2,3,7,6)            121.3208         estimate D2E/DX2                !
 ! D26   D(2,3,7,8)            -85.2127         estimate D2E/DX2                !
 ! D27   D(2,3,7,9)             -9.8057         estimate D2E/DX2                !
 ! D28   D(4,3,7,6)              2.4555         estimate D2E/DX2                !
 ! D29   D(4,3,7,8)            155.922          estimate D2E/DX2                !
 ! D30   D(4,3,7,9)           -128.671          estimate D2E/DX2                !
 ! D31   D(15,3,7,6)          -108.7687         estimate D2E/DX2                !
 ! D32   D(15,3,7,8)            44.6978         estimate D2E/DX2                !
 ! D33   D(15,3,7,9)           120.1048         estimate D2E/DX2                !
 ! D34   D(3,4,6,7)              2.4551         estimate D2E/DX2                !
 ! D35   D(3,4,6,16)           118.4927         estimate D2E/DX2                !
 ! D36   D(3,4,6,17)          -115.1589         estimate D2E/DX2                !
 ! D37   D(5,4,6,7)           -175.7683         estimate D2E/DX2                !
 ! D38   D(5,4,6,16)           -59.7307         estimate D2E/DX2                !
 ! D39   D(5,4,6,17)            66.6176         estimate D2E/DX2                !
 ! D40   D(4,6,7,3)             -2.4566         estimate D2E/DX2                !
 ! D41   D(4,6,7,8)           -155.6725         estimate D2E/DX2                !
 ! D42   D(4,6,7,9)            128.5296         estimate D2E/DX2                !
 ! D43   D(16,6,7,3)          -118.2073         estimate D2E/DX2                !
 ! D44   D(16,6,7,8)            88.5768         estimate D2E/DX2                !
 ! D45   D(16,6,7,9)            12.7789         estimate D2E/DX2                !
 ! D46   D(17,6,7,3)           113.0549         estimate D2E/DX2                !
 ! D47   D(17,6,7,8)           -40.161          estimate D2E/DX2                !
 ! D48   D(17,6,7,9)          -115.9589         estimate D2E/DX2                !
 ! D49   D(3,7,8,18)          -149.0307         estimate D2E/DX2                !
 ! D50   D(3,7,8,19)             4.8522         estimate D2E/DX2                !
 ! D51   D(6,7,8,18)            -4.9601         estimate D2E/DX2                !
 ! D52   D(6,7,8,19)           148.9227         estimate D2E/DX2                !
 --------------------------------------------------------------------------------
 Trust Radius=3.00D-01 FncErr=1.00D-07 GrdErr=1.00D-06
 Number of steps in this run=    114 maximum allowed number of steps=    114.
 GradGradGradGradGradGradGradGradGradGradGradGradGradGradGradGradGradGrad

                          Input orientation:                          
 ---------------------------------------------------------------------
 Center     Atomic      Atomic             Coordinates (Angstroms)
 Number     Number       Type             X           Y           Z
 ---------------------------------------------------------------------
      1          6           0        2.778471    1.507066   -0.083687
      2          6           0        2.000211    0.194567    0.046131
      3          6           0        1.954303   -0.590332   -1.268551
      4          6           0        1.023961   -0.046274   -2.376300
      5          8           0        0.937308    1.007852   -2.936658
      6          6           0        0.218741   -1.361882   -2.452482
      7          6           0        1.102166   -1.878580   -1.306264
      8          6           0        1.447290   -3.242399   -0.915165
      9          8           0        0.549727   -2.443133   -0.128457
     10          1           0        2.763238    2.064087    0.857893
     11          1           0        3.826059    1.320533   -0.345331
     12          1           0        2.348193    2.139949   -0.864822
     13          1           0        2.446709   -0.445558    0.815946
     14          1           0        0.975753    0.394996    0.380435
     15          1           0        2.971067   -0.743993   -1.653892
     16          1           0       -0.842188   -1.259831   -2.204480
     17          1           0        0.309584   -1.885975   -3.408828
     18          1           0        0.989351   -4.087302   -1.428003
     19          1           0        2.413331   -3.446581   -0.454572
 ---------------------------------------------------------------------
                    Distance matrix (angstroms):
                    1          2          3          4          5
     1  C    0.000000
     2  C    1.531404   0.000000
     3  C    2.546024   1.531850   0.000000
     4  C    3.278299   2.622831   1.545524   0.000000
     5  O    3.431988   3.269286   2.524094   1.196951   0.000000
     6  C    4.516002   3.440819   2.238114   1.544346   2.523172
     7  C    3.970805   2.633134   1.545038   2.123308   3.319164
     8  C    5.002081   3.611446   2.723123   3.539681   4.734041
     9  O    4.535789   3.015269   2.589501   3.320034   4.466039
    10  H    1.094111   2.176298   3.496010   4.235412   4.341460
    11  H    1.095761   2.180541   2.829702   3.720853   3.893280
    12  H    1.093550   2.176107   2.787935   2.969466   2.750408
    13  H    2.175351   1.096237   2.146754   3.517681   4.297992
    14  H    2.168387   1.096105   2.155826   2.792244   3.373451
    15  H    2.751346   2.171067   1.098139   2.190870   2.975000
    16  H    5.026197   3.906374   3.023996   2.232656   2.974067
    17  H    5.353942   4.373056   2.994090   2.227319   2.998536
    18  H    6.025371   4.639968   3.631164   4.150948   5.314070
    19  H    4.980914   3.698558   3.005233   4.145537   5.308613
                    6          7          8          9         10
     6  C    0.000000
     7  C    1.536630   0.000000
     8  C    2.721952   1.460162   0.000000
     9  O    2.584521   1.418146   1.436438   0.000000
    10  H    5.400955   4.794513   5.747542   5.117377   0.000000
    11  H    4.964693   4.310140   5.177219   4.994654   1.769240
    12  H    4.395230   4.230370   5.457456   4.978088   1.773631
    13  H    4.060310   2.892252   3.437717   2.912172   2.529876
    14  H    3.418348   2.833739   3.889931   2.914695   2.491774
    15  H    2.931695   2.213803   3.018219   3.328200   3.773271
    16  H    1.094299   2.229384   3.291598   2.765411   5.781493
    17  H    1.094314   2.247002   3.058205   3.336004   6.310968
    18  H    3.011862   2.214950   1.089299   2.141350   6.797910
    19  H    3.626823   2.214309   1.089528   2.141560   5.675603
                   11         12         13         14         15
    11  H    0.000000
    12  H    1.767881   0.000000
    13  H    2.523935   3.085375   0.000000
    14  H    3.083439   2.545412   1.749261   0.000000
    15  H    2.589519   3.054133   2.542462   3.068723   0.000000
    16  H    5.648649   4.850950   4.539037   3.567232   3.887178
    17  H    5.659709   5.180344   4.948820   4.472709   3.386358
    18  H    6.201916   6.398615   4.519015   4.833386   3.893063
    19  H    4.973239   5.601952   3.259060   4.185879   3.008890
                   16         17         18         19
    16  H    0.000000
    17  H    1.780194   0.000000
    18  H    3.457173   3.038353   0.000000
    19  H    4.294468   3.948274   1.840057   0.000000
 Stoichiometry    C7H10O2
 Framework group  C1[X(C7H10O2)]
 Deg. of freedom    51
 Full point group                 C1      NOp   1
 Largest Abelian subgroup         C1      NOp   1
 Largest concise Abelian subgroup C1      NOp   1
                         Standard orientation:                         
 ---------------------------------------------------------------------
 Center     Atomic      Atomic             Coordinates (Angstroms)
 Number     Number       Type             X           Y           Z
 ---------------------------------------------------------------------
      1          6           0       -2.608449   -1.219723    0.062604
      2          6           0       -1.123544   -1.225625   -0.311854
      3          6           0       -0.317836   -0.188031    0.476052
      4          6           0       -0.503086    1.293149    0.075511
      5          8           0       -1.456316    2.012351   -0.006891
      6          6           0        1.000515    1.479884   -0.223353
      7          6           0        1.173157   -0.009651    0.112372
      8          6           0        2.345175   -0.748710    0.573065
      9          8           0        1.840430   -0.904089   -0.762765
     10          1           0       -3.165545   -1.942607   -0.540853
     11          1           0       -2.750752   -1.483330    1.116621
     12          1           0       -3.046382   -0.230128   -0.094779
     13          1           0       -0.683425   -2.213678   -0.133579
     14          1           0       -1.004252   -1.033672   -1.384407
     15          1           0       -0.477286   -0.323340    1.554095
     16          1           0        1.227650    1.746312   -1.260135
     17          1           0        1.503177    2.188383    0.442143
     18          1           0        3.308668   -0.246448    0.650445
     19          1           0        2.219632   -1.615359    1.221317
 ---------------------------------------------------------------------
 Rotational constants (GHZ):      2.3406240      1.3987623      0.9680024
 Standard basis: 6-31G(2df,p) (6D, 7F)
 There are   329 symmetry adapted cartesian basis functions of A   symmetry.
 There are   302 symmetry adapted basis functions of A   symmetry.
   302 basis functions,   466 primitive gaussians,   329 cartesian basis functions
    34 alpha electrons       34 beta electrons
       nuclear repulsion energy       451.7803921715 Hartrees.
 NAtoms=   19 NActive=   19 NUniq=   19 SFac= 1.00D+00 NAtFMM=   60 NAOKFM=F Big=F
 Integral buffers will be    131072 words long.
 Raffenetti 2 integral format.
 Two-electron integral symmetry is turned on.
 One-electron integrals computed using PRISM.
 NBasis=   302 RedAO= T EigKep=  3.68D-04  NBF=   302
 NBsUse=   302 1.00D-06 EigRej= -1.00D+00 NBFU=   302
 ExpMin= 1.61D-01 ExpMax= 5.48D+03 ExpMxC= 8.25D+02 IAcc=1 IRadAn=         1 AccDes= 0.00D+00
 Harris functional with IExCor=  402 and IRadAn=       1 diagonalized for initial guess.
 HarFok:  IExCor=  402 AccDes= 0.00D+00 IRadAn=         1 IDoV= 1 UseB2=F ITyADJ=14
 ICtDFT=  3500011 ScaDFX=  1.000000  1.000000  1.000000  1.000000
 FoFCou: FMM=F IPFlag=           0 FMFlag=      100000 FMFlg1=           0
         NFxFlg=           0 DoJE=T BraDBF=F KetDBF=T FulRan=T
         wScrn=  0.000000 ICntrl=     500 IOpCl=  0 I1Cent=   200000004 NGrid=           0
         NMat0=    1 NMatS0=      1 NMatT0=    0 NMatD0=    1 NMtDS0=    0 NMtDT0=    0
 Petite list used in FoFCou.
 Requested convergence on RMS density matrix=1.00D-08 within 128 cycles.
 Requested convergence on MAX density matrix=1.00D-06.
 Requested convergence on             energy=1.00D-06.
 No special actions if energy rises.
 Integral accuracy reduced to 1.0D-05 until final iterations.
 Initial convergence to 1.0D-05 achieved.  Increase integral accuracy.
 SCF Done:  E(RB3LYP) =  -423.171416061     A.U. after   14 cycles
            NFock= 14  Conv=0.62D-08     -V/T= 2.0075

 **********************************************************************

            Population analysis using the SCF density.

 **********************************************************************

 Orbital symmetries:
       Occupied  (A) (A) (A) (A) (A) (A) (A) (A) (A) (A) (A) (A)
                 (A) (A) (A) (A) (A) (A) (A) (A) (A) (A) (A) (A)
                 (A) (A) (A) (A) (A) (A) (A) (A) (A) (A)
       Virtual   (A) (A) (A) (A) (A) (A) (A) (A) (A) (A) (A) (A)
                 (A) (A) (A) (A) (A) (A) (A) (A) (A) (A) (A) (A)
                 (A) (A) (A) (A) (A) (A) (A) (A) (A) (A) (A) (A)
                 (A) (A) (A) (A) (A) (A) (A) (A) (A) (A) (A) (A)
                 (A) (A) (A) (A) (A) (A) (A) (A) (A) (A) (A) (A)
                 (A) (A) (A) (A) (A) (A) (A) (A) (A) (A) (A) (A)
                 (A) (A) (A) (A) (A) (A) (A) (A) (A) (A) (A) (A)
                 (A) (A) (A) (A) (A) (A) (A) (A) (A) (A) (A) (A)
                 (A) (A) (A) (A) (A) (A) (A) (A) (A) (A) (A) (A)
                 (A) (A) (A) (A) (A) (A) (A) (A) (A) (A) (A) (A)
                 (A) (A) (A) (A) (A) (A) (A) (A) (A) (A) (A) (A)
                 (A) (A) (A) (A) (A) (A) (A) (A) (A) (A) (A) (A)
                 (A) (A) (A) (A) (A) (A) (A) (A) (A) (A) (A) (A)
                 (A) (A) (A) (A) (A) (A) (A) (A) (A) (A) (A) (A)
                 (A) (A) (A) (A) (A) (A) (A) (A) (A) (A) (A) (A)
                 (A) (A) (A) (A) (A) (A) (A) (A) (A) (A) (A) (A)
                 (A) (A) (A) (A) (A) (A) (A) (A) (A) (A) (A) (A)
                 (A) (A) (A) (A) (A) (A) (A) (A) (A) (A) (A) (A)
                 (A) (A) (A) (A) (A) (A) (A) (A) (A) (A) (A) (A)
                 (A) (A) (A) (A) (A) (A) (A) (A) (A) (A) (A) (A)
                 (A) (A) (A) (A) (A) (A) (A) (A) (A) (A) (A) (A)
                 (A) (A) (A) (A) (A) (A) (A) (A) (A) (A) (A) (A)
                 (A) (A) (A) (A)
 The electronic state is 1-A.
 Alpha  occ. eigenvalues --  -19.16030 -19.14354 -10.27520 -10.25282 -10.24225
 Alpha  occ. eigenvalues --  -10.19976 -10.19861 -10.19210 -10.17443  -1.08127
 Alpha  occ. eigenvalues --   -1.05133  -0.84808  -0.77087  -0.68449  -0.67418
 Alpha  occ. eigenvalues --   -0.60828  -0.58507  -0.52802  -0.50061  -0.49122
 Alpha  occ. eigenvalues --   -0.47235  -0.45170  -0.43184  -0.41476  -0.40996
 Alpha  occ. eigenvalues --   -0.39558  -0.38228  -0.36753  -0.34926  -0.34551
 Alpha  occ. eigenvalues --   -0.33649  -0.30433  -0.27256  -0.24285
 Alpha virt. eigenvalues --   -0.02949   0.08804   0.09217   0.10277   0.11458
 Alpha virt. eigenvalues --    0.11973   0.13342   0.14247   0.14735   0.16092
 Alpha virt. eigenvalues --    0.17316   0.18069   0.19131   0.19824   0.23315
 Alpha virt. eigenvalues --    0.24045   0.24799   0.26642   0.28504   0.29912
 Alpha virt. eigenvalues --    0.32886   0.40725   0.43577   0.45182   0.47354
 Alpha virt. eigenvalues --    0.47500   0.49052   0.50645   0.51593   0.53442
 Alpha virt. eigenvalues --    0.54012   0.56057   0.57087   0.58269   0.59915
 Alpha virt. eigenvalues --    0.61201   0.62846   0.65110   0.67929   0.68967
 Alpha virt. eigenvalues --    0.70386   0.71764   0.72940   0.73532   0.74674
 Alpha virt. eigenvalues --    0.74946   0.76060   0.76563   0.78117   0.78745
 Alpha virt. eigenvalues --    0.78910   0.80470   0.81619   0.82729   0.86722
 Alpha virt. eigenvalues --    0.87723   0.88805   0.92203   0.95051   0.95273
 Alpha virt. eigenvalues --    0.97343   0.99810   1.02846   1.04645   1.05271
 Alpha virt. eigenvalues --    1.07754   1.10757   1.15896   1.17042   1.18865
 Alpha virt. eigenvalues --    1.21812   1.23310   1.26672   1.27754   1.29883
 Alpha virt. eigenvalues --    1.31151   1.32836   1.34185   1.35150   1.38064
 Alpha virt. eigenvalues --    1.40141   1.41923   1.45864   1.46546   1.48011
 Alpha virt. eigenvalues --    1.48948   1.50997   1.52804   1.55913   1.56834
 Alpha virt. eigenvalues --    1.58826   1.60304   1.61830   1.64229   1.67689
 Alpha virt. eigenvalues --    1.70695   1.71786   1.73015   1.74126   1.77441
 Alpha virt. eigenvalues --    1.79060   1.83926   1.85245   1.87912   1.90307
 Alpha virt. eigenvalues --    1.91449   1.94855   1.96681   1.98834   2.07242
 Alpha virt. eigenvalues --    2.09971   2.11435   2.16433   2.22410   2.23709
 Alpha virt. eigenvalues --    2.27823   2.28587   2.32884   2.36118   2.36425
 Alpha virt. eigenvalues --    2.42144   2.46287   2.49602   2.50142   2.51260
 Alpha virt. eigenvalues --    2.55103   2.59414   2.63551   2.64870   2.73614
 Alpha virt. eigenvalues --    2.74241   2.75687   2.79043   2.80335   2.81955
 Alpha virt. eigenvalues --    2.84006   2.85324   2.86692   2.88121   2.89926
 Alpha virt. eigenvalues --    2.90640   2.93030   2.94801   2.97189   3.00481
 Alpha virt. eigenvalues --    3.03910   3.05525   3.07835   3.10277   3.12621
 Alpha virt. eigenvalues --    3.15187   3.17901   3.20786   3.22619   3.23747
 Alpha virt. eigenvalues --    3.24932   3.26249   3.28433   3.32238   3.32959
 Alpha virt. eigenvalues --    3.36297   3.36987   3.39361   3.43577   3.45453
 Alpha virt. eigenvalues --    3.50508   3.54977   3.57509   3.59181   3.61274
 Alpha virt. eigenvalues --    3.64053   3.66972   3.68493   3.69881   3.75634
 Alpha virt. eigenvalues --    3.77944   3.80913   3.83682   3.86746   3.90505
 Alpha virt. eigenvalues --    3.94019   3.96312   3.99469   4.02341   4.06053
 Alpha virt. eigenvalues --    4.11092   4.12017   4.14428   4.18621   4.22913
 Alpha virt. eigenvalues --    4.25764   4.29349   4.31302   4.34231   4.37457
 Alpha virt. eigenvalues --    4.38809   4.41446   4.42532   4.43205   4.43879
 Alpha virt. eigenvalues --    4.46520   4.50565   4.51422   4.54649   4.56203
 Alpha virt. eigenvalues --    4.57485   4.61447   4.62230   4.63716   4.67252
 Alpha virt. eigenvalues --    4.67882   4.68696   4.70116   4.71663   4.73812
 Alpha virt. eigenvalues --    4.75063   4.76100   4.77417   4.78655   4.79966
 Alpha virt. eigenvalues --    4.83677   4.84425   4.86592   4.87597   4.90618
 Alpha virt. eigenvalues --    4.91876   4.94681   4.98294   5.02302   5.06432
 Alpha virt. eigenvalues --    5.09094   5.11289   5.13968   5.17721   5.21587
 Alpha virt. eigenvalues --    5.27071   5.35869   5.36817   5.39775   5.44222
 Alpha virt. eigenvalues --    5.46217   5.47808   5.57618   5.59759   5.61227
 Alpha virt. eigenvalues --    5.65387   5.69384   5.82697   5.87575   5.89504
 Alpha virt. eigenvalues --    6.01909   6.05201   6.20072   6.25109   6.41517
 Alpha virt. eigenvalues --    6.53169   6.83369   6.91668   7.20014  10.71502
 Alpha virt. eigenvalues --   11.08175  11.43185  11.81660  12.11967  12.42533
 Alpha virt. eigenvalues --   12.81483  13.24804  13.35464
          Condensed to atoms (all electrons):
               1          2          3          4          5          6
     1  C    4.976773   0.392930  -0.027151  -0.001757  -0.002563   0.000028
     2  C    0.392930   4.793317   0.381063  -0.009088  -0.001535   0.006314
     3  C   -0.027151   0.381063   5.216397   0.334598  -0.060630  -0.266170
     4  C   -0.001757  -0.009088   0.334598   4.264686   0.796607   0.310971
     5  O   -0.002563  -0.001535  -0.060630   0.796607   7.607717  -0.050323
     6  C    0.000028   0.006314  -0.266170   0.310971  -0.050323   5.469272
     7  C    0.001816  -0.020075   0.403784  -0.059319  -0.001536   0.343527
     8  C   -0.000064   0.004140  -0.021471  -0.000959  -0.000136  -0.032142
     9  O    0.000345   0.002716  -0.031982  -0.000426  -0.000005  -0.021844
    10  H    0.374074  -0.024277   0.002658   0.000104   0.000048   0.000012
    11  H    0.375699  -0.028960  -0.003956  -0.000383   0.000085   0.000018
    12  H    0.376292  -0.024233  -0.008282   0.003735   0.008394   0.000327
    13  H   -0.035191   0.371728  -0.029874   0.002532  -0.000041  -0.000548
    14  H   -0.035835   0.372342  -0.029239  -0.009020   0.000509   0.003680
    15  H   -0.003937  -0.037126   0.341739  -0.029988   0.000340   0.017941
    16  H    0.000006  -0.000308   0.006295  -0.004621  -0.000794   0.328519
    17  H    0.000001  -0.000093   0.007459  -0.005055  -0.000036   0.334432
    18  H    0.000003   0.000036   0.000786   0.000097   0.000001  -0.004264
    19  H   -0.000059  -0.000098  -0.002518  -0.000049   0.000000   0.002436
               7          8          9         10         11         12
     1  C    0.001816  -0.000064   0.000345   0.374074   0.375699   0.376292
     2  C   -0.020075   0.004140   0.002716  -0.024277  -0.028960  -0.024233
     3  C    0.403784  -0.021471  -0.031982   0.002658  -0.003956  -0.008282
     4  C   -0.059319  -0.000959  -0.000426   0.000104  -0.000383   0.003735
     5  O   -0.001536  -0.000136  -0.000005   0.000048   0.000085   0.008394
     6  C    0.343527  -0.032142  -0.021844   0.000012   0.000018   0.000327
     7  C    4.419837   0.270733   0.286360  -0.000098   0.000145   0.000082
     8  C    0.270733   5.066738   0.265588   0.000002  -0.000005   0.000000
     9  O    0.286360   0.265588   7.795007   0.000001  -0.000001  -0.000001
    10  H   -0.000098   0.000002   0.000001   0.598215  -0.031979  -0.028551
    11  H    0.000145  -0.000005  -0.000001  -0.031979   0.601966  -0.030829
    12  H    0.000082   0.000000  -0.000001  -0.028551  -0.030829   0.555432
    13  H   -0.003197   0.000946   0.003213  -0.002216  -0.004426   0.004572
    14  H   -0.005195  -0.000449   0.001700  -0.002234   0.005255  -0.002739
    15  H   -0.033004  -0.008389   0.002037   0.000004   0.005151   0.000112
    16  H   -0.008789   0.005156  -0.000703  -0.000001   0.000000  -0.000004
    17  H   -0.010689  -0.005650   0.002206   0.000000   0.000000  -0.000001
    18  H   -0.004959   0.362965  -0.021187   0.000000   0.000000   0.000000
    19  H    0.001461   0.355550  -0.024101   0.000000   0.000000   0.000000
              13         14         15         16         17         18
     1  C   -0.035191  -0.035835  -0.003937   0.000006   0.000001   0.000003
     2  C    0.371728   0.372342  -0.037126  -0.000308  -0.000093   0.000036
     3  C   -0.029874  -0.029239   0.341739   0.006295   0.007459   0.000786
     4  C    0.002532  -0.009020  -0.029988  -0.004621  -0.005055   0.000097
     5  O   -0.000041   0.000509   0.000340  -0.000794  -0.000036   0.000001
     6  C   -0.000548   0.003680   0.017941   0.328519   0.334432  -0.004264
     7  C   -0.003197  -0.005195  -0.033004  -0.008789  -0.010689  -0.004959
     8  C    0.000946  -0.000449  -0.008389   0.005156  -0.005650   0.362965
     9  O    0.003213   0.001700   0.002037  -0.000703   0.002206  -0.021187
    10  H   -0.002216  -0.002234   0.000004  -0.000001   0.000000   0.000000
    11  H   -0.004426   0.005255   0.005151   0.000000   0.000000   0.000000
    12  H    0.004572  -0.002739   0.000112  -0.000004  -0.000001   0.000000
    13  H    0.625765  -0.039119  -0.003931   0.000031   0.000005   0.000008
    14  H   -0.039119   0.624845   0.006503   0.000020  -0.000024  -0.000001
    15  H   -0.003931   0.006503   0.639625  -0.000279  -0.000996   0.000029
    16  H    0.000031   0.000020  -0.000279   0.555860  -0.028774  -0.000069
    17  H    0.000005  -0.000024  -0.000996  -0.028774   0.568671   0.001165
    18  H    0.000008  -0.000001   0.000029  -0.000069   0.001165   0.600414
    19  H    0.000253   0.000030   0.001406  -0.000060   0.000090  -0.054637
              19
     1  C   -0.000059
     2  C   -0.000098
     3  C   -0.002518
     4  C   -0.000049
     5  O    0.000000
     6  C    0.002436
     7  C    0.001461
     8  C    0.355550
     9  O   -0.024101
    10  H    0.000000
    11  H    0.000000
    12  H    0.000000
    13  H    0.000253
    14  H    0.000030
    15  H    0.001406
    16  H   -0.000060
    17  H    0.000090
    18  H   -0.054637
    19  H    0.602069
 Mulliken charges:
               1
     1  C   -0.391410
     2  C   -0.178793
     3  C   -0.213504
     4  C    0.407335
     5  O   -0.296100
     6  C   -0.442187
     7  C    0.419115
     8  C   -0.262552
     9  O   -0.258924
    10  H    0.114238
    11  H    0.112221
    12  H    0.145693
    13  H    0.109491
    14  H    0.108973
    15  H    0.102762
    16  H    0.148513
    17  H    0.137289
    18  H    0.119613
    19  H    0.118227
 Sum of Mulliken charges =   0.00000
 Mulliken charges with hydrogens summed into heavy atoms:
               1
     1  C   -0.019258
     2  C    0.039671
     3  C   -0.110743
     4  C    0.407335
     5  O   -0.296100
     6  C   -0.156384
     7  C    0.419115
     8  C   -0.024712
     9  O   -0.258924
 Electronic spatial extent (au):  <R**2>=           1245.9512
 Charge=              0.0000 electrons
 Dipole moment (field-independent basis, Debye):
    X=              1.6519    Y=             -0.9324    Z=              1.5438  Tot=              2.4457
 Quadrupole moment (field-independent basis, Debye-Ang):
   XX=            -54.5360   YY=            -56.6230   ZZ=            -52.1915
   XY=              6.6102   XZ=              3.3707   YZ=             -1.9124
 Traceless Quadrupole moment (field-independent basis, Debye-Ang):
   XX=             -0.0858   YY=             -2.1728   ZZ=              2.2586
   XY=              6.6102   XZ=              3.3707   YZ=             -1.9124
 Octapole moment (field-independent basis, Debye-Ang**2):
  XXX=             14.8198  YYY=             -6.6652  ZZZ=             -2.2007  XYY=             11.5297
  XXY=             -3.5957  XXZ=              5.5768  XZZ=             -1.4472  YZZ=              3.0874
  YYZ=              1.9743  XYZ=             -4.3694
 Hexadecapole moment (field-independent basis, Debye-Ang**3):
 XXXX=           -919.0844 YYYY=           -550.4970 ZZZZ=           -127.8247 XXXY=             -4.0903
 XXXZ=             15.8951 YYYX=              8.3021 YYYZ=              2.5024 ZZZX=             -5.3323
 ZZZY=             -1.6284 XXYY=           -255.3172 XXZZ=           -179.5938 YYZZ=           -106.1663
 XXYZ=             -4.6070 YYXZ=              4.0039 ZZXY=             -2.7219
 N-N= 4.517803921715D+02 E-N=-1.889983416873D+03  KE= 4.200200429345D+02
 Calling FoFJK, ICntrl=      2127 FMM=F ISym2X=0 I1Cent= 0 IOpClX= 0 NMat=1 NMatS=1 NMatT=0.
 ***** Axes restored to original set *****
 -------------------------------------------------------------------
 Center     Atomic                   Forces (Hartrees/Bohr)
 Number     Number              X              Y              Z
 -------------------------------------------------------------------
      1        6          -0.000003739   -0.000015240    0.000005375
      2        6           0.000018105    0.000006702   -0.000000692
      3        6          -0.000029667   -0.000016853   -0.000025680
      4        6           0.000026818    0.000047975    0.000003927
      5        8          -0.000012112   -0.000024513    0.000016147
      6        6          -0.000040336   -0.000008163    0.000010738
      7        6          -0.000003723   -0.000018647    0.000008571
      8        6           0.000018944   -0.000014017   -0.000007922
      9        8           0.000007897    0.000022837   -0.000001407
     10        1           0.000004577    0.000007592   -0.000002710
     11        1           0.000001322    0.000005074   -0.000006210
     12        1          -0.000008015    0.000003483    0.000000718
     13        1          -0.000004236   -0.000003228   -0.000001761
     14        1           0.000002878    0.000001694    0.000004390
     15        1           0.000001343    0.000008435    0.000002476
     16        1          -0.000002815   -0.000003044   -0.000000027
     17        1           0.000005610   -0.000000946    0.000007779
     18        1           0.000007665   -0.000000036   -0.000003976
     19        1           0.000009484    0.000000898   -0.000009735
 -------------------------------------------------------------------
 Cartesian Forces:  Max     0.000047975 RMS     0.000013704

 GradGradGradGradGradGradGradGradGradGradGradGradGradGradGradGradGradGrad
 Berny optimization.
 FormGI is forming the generalized inverse of G from B-inverse, IUseBI=4.
 Internal  Forces:  Max     0.000028030 RMS     0.000005981
 Search for a local minimum.
 Step number   1 out of a maximum of  114
 All quantities printed in internal units (Hartrees-Bohrs-Radians)
 Mixed Optimization -- En-DIIS/RFO-DIIS
 Second derivative matrix not updated -- first step.
 ITU=  0
     Eigenvalues ---    0.00232   0.00253   0.00345   0.00351   0.02028
     Eigenvalues ---    0.02898   0.03151   0.03508   0.03617   0.04480
     Eigenvalues ---    0.04797   0.04881   0.05518   0.05522   0.05783
     Eigenvalues ---    0.06139   0.07384   0.07584   0.08326   0.09005
     Eigenvalues ---    0.12194   0.12653   0.15715   0.16000   0.16000
     Eigenvalues ---    0.16000   0.16000   0.16000   0.17982   0.21872
     Eigenvalues ---    0.23372   0.24955   0.26024   0.28088   0.28132
     Eigenvalues ---    0.28555   0.29253   0.29294   0.33889   0.34102
     Eigenvalues ---    0.34117   0.34155   0.34319   0.34321   0.34342
     Eigenvalues ---    0.34406   0.34867   0.34894   0.37107   0.41791
     Eigenvalues ---    1.06370
 RFO step:  Lambda=-4.11003841D-08 EMin= 2.31610254D-03
 Linear search not attempted -- first point.
 Iteration  1 RMS(Cart)=  0.00041280 RMS(Int)=  0.00000009
 Iteration  2 RMS(Cart)=  0.00000012 RMS(Int)=  0.00000000
 Variable       Old X    -DE/DX   Delta X   Delta X   Delta X     New X
                                 (Linear)    (Quad)   (Total)
    R1        2.89393   0.00000   0.00000  -0.00001  -0.00001   2.89392
    R2        2.06757   0.00000   0.00000   0.00001   0.00001   2.06758
    R3        2.07069   0.00000   0.00000   0.00001   0.00001   2.07069
    R4        2.06651   0.00000   0.00000   0.00001   0.00001   2.06652
    R5        2.89478   0.00001   0.00000   0.00002   0.00002   2.89480
    R6        2.07159   0.00000   0.00000  -0.00001  -0.00001   2.07158
    R7        2.07134   0.00000   0.00000   0.00000   0.00000   2.07134
    R8        2.92062  -0.00001   0.00000  -0.00006  -0.00006   2.92055
    R9        2.91970  -0.00001   0.00000  -0.00003  -0.00003   2.91966
   R10        2.07518   0.00000   0.00000   0.00000   0.00000   2.07518
   R11        2.26191  -0.00003   0.00000  -0.00003  -0.00003   2.26188
   R12        2.91839   0.00002   0.00000   0.00009   0.00009   2.91849
   R13        2.90381   0.00000   0.00000   0.00002   0.00002   2.90383
   R14        2.06792   0.00000   0.00000  -0.00001  -0.00001   2.06792
   R15        2.06795   0.00000   0.00000  -0.00001  -0.00001   2.06795
   R16        2.75931   0.00001   0.00000   0.00000   0.00000   2.75931
   R17        2.67991  -0.00002   0.00000  -0.00005  -0.00005   2.67985
   R18        2.71447   0.00001   0.00000   0.00006   0.00006   2.71453
   R19        2.05848   0.00000   0.00000   0.00000   0.00000   2.05847
   R20        2.05891   0.00000   0.00000   0.00000   0.00000   2.05891
    A1        1.93511   0.00001   0.00000   0.00008   0.00008   1.93519
    A2        1.93928   0.00000   0.00000   0.00002   0.00002   1.93930
    A3        1.93543   0.00000   0.00000  -0.00004  -0.00004   1.93539
    A4        1.88123  -0.00001   0.00000  -0.00001  -0.00001   1.88122
    A5        1.89084  -0.00001   0.00000  -0.00004  -0.00004   1.89080
    A6        1.87982   0.00000   0.00000  -0.00001  -0.00001   1.87981
    A7        1.96235  -0.00001   0.00000  -0.00002  -0.00002   1.96233
    A8        1.93157   0.00001   0.00000   0.00006   0.00006   1.93163
    A9        1.92210   0.00000   0.00000  -0.00003  -0.00003   1.92207
   A10        1.89198   0.00000   0.00000   0.00001   0.00001   1.89199
   A11        1.90439   0.00000   0.00000   0.00001   0.00001   1.90440
   A12        1.84759   0.00000   0.00000  -0.00003  -0.00003   1.84756
   A13        2.04070   0.00000   0.00000  -0.00002  -0.00002   2.04068
   A14        2.05410   0.00000   0.00000   0.00004   0.00004   2.05414
   A15        1.92315   0.00000   0.00000  -0.00009  -0.00009   1.92306
   A16        1.51479   0.00001   0.00000   0.00006   0.00006   1.51485
   A17        1.93382   0.00000   0.00000   0.00005   0.00005   1.93386
   A18        1.96646   0.00000   0.00000   0.00000   0.00000   1.96646
   A19        2.33110   0.00001   0.00000   0.00003   0.00003   2.33113
   A20        1.62015   0.00000   0.00000  -0.00002  -0.00002   1.62013
   A21        2.33145   0.00000   0.00000  -0.00001  -0.00001   2.33144
   A22        1.52067  -0.00001   0.00000  -0.00001  -0.00001   1.52066
   A23        1.99860   0.00000   0.00000   0.00006   0.00006   1.99866
   A24        1.99086   0.00000   0.00000  -0.00006  -0.00006   1.99080
   A25        2.00390   0.00001   0.00000   0.00011   0.00011   2.00401
   A26        2.02987  -0.00001   0.00000  -0.00013  -0.00013   2.02974
   A27        1.89991   0.00000   0.00000   0.00003   0.00003   1.89993
   A28        1.62575   0.00000   0.00000  -0.00001  -0.00001   1.62574
   A29        2.26775  -0.00001   0.00000  -0.00004  -0.00004   2.26771
   A30        2.12528  -0.00001   0.00000  -0.00005  -0.00005   2.12523
   A31        2.27805   0.00001   0.00000   0.00003   0.00003   2.27808
   A32        2.12871   0.00000   0.00000   0.00005   0.00005   2.12876
   A33        2.09324   0.00000   0.00000  -0.00001  -0.00001   2.09322
   A34        2.09190   0.00000   0.00000  -0.00003  -0.00003   2.09188
   A35        2.01168   0.00001   0.00000   0.00005   0.00005   2.01173
   A36        2.01173   0.00000   0.00000   0.00004   0.00004   2.01176
   A37        2.01133   0.00000   0.00000   0.00000   0.00000   2.01133
    D1        3.10430   0.00000   0.00000   0.00005   0.00005   3.10435
    D2       -1.06029   0.00000   0.00000   0.00009   0.00009  -1.06021
    D3        0.97655   0.00000   0.00000   0.00006   0.00006   0.97661
    D4       -1.08716   0.00000   0.00000   0.00010   0.00010  -1.08706
    D5        1.03143   0.00000   0.00000   0.00014   0.00014   1.03158
    D6        3.06827   0.00000   0.00000   0.00012   0.00012   3.06839
    D7        1.00301   0.00000   0.00000   0.00008   0.00008   1.00309
    D8        3.12161   0.00000   0.00000   0.00012   0.00012   3.12172
    D9       -1.12474   0.00000   0.00000   0.00010   0.00010  -1.12464
   D10       -1.28879   0.00000   0.00000  -0.00065  -0.00065  -1.28943
   D11       -3.05647   0.00000   0.00000  -0.00073  -0.00073  -3.05720
   D12        0.93943   0.00000   0.00000  -0.00068  -0.00068   0.93874
   D13        2.85335   0.00000   0.00000  -0.00071  -0.00071   2.85264
   D14        1.08566  -0.00001   0.00000  -0.00080  -0.00080   1.08486
   D15       -1.20162   0.00000   0.00000  -0.00075  -0.00075  -1.20237
   D16        0.84900   0.00000   0.00000  -0.00069  -0.00069   0.84831
   D17       -0.91869  -0.00001   0.00000  -0.00077  -0.00077  -0.91946
   D18        3.07721   0.00000   0.00000  -0.00072  -0.00072   3.07649
   D19        0.98101   0.00000   0.00000  -0.00020  -0.00020   0.98081
   D20       -2.12958   0.00000   0.00000   0.00007   0.00007  -2.12952
   D21        3.06797   0.00000   0.00000  -0.00013  -0.00013   3.06784
   D22       -0.04263   0.00000   0.00000   0.00014   0.00014  -0.04249
   D23       -1.24200   0.00000   0.00000  -0.00010  -0.00010  -1.24211
   D24        1.93058   0.00000   0.00000   0.00017   0.00017   1.93075
   D25        2.11745   0.00000   0.00000  -0.00013  -0.00013   2.11732
   D26       -1.48724   0.00000   0.00000  -0.00016  -0.00016  -1.48740
   D27       -0.17114   0.00000   0.00000  -0.00016  -0.00016  -0.17130
   D28        0.04286   0.00000   0.00000  -0.00014  -0.00014   0.04271
   D29        2.72135   0.00000   0.00000  -0.00018  -0.00018   2.72118
   D30       -2.24573   0.00000   0.00000  -0.00018  -0.00018  -2.24591
   D31       -1.89837  -0.00001   0.00000  -0.00022  -0.00022  -1.89859
   D32        0.78012  -0.00001   0.00000  -0.00025  -0.00025   0.77987
   D33        2.09622   0.00000   0.00000  -0.00025  -0.00025   2.09597
   D34        0.04285   0.00000   0.00000  -0.00015  -0.00015   0.04271
   D35        2.06809   0.00000   0.00000  -0.00002  -0.00002   2.06807
   D36       -2.00990   0.00001   0.00000   0.00002   0.00002  -2.00989
   D37       -3.06774   0.00000   0.00000   0.00012   0.00012  -3.06761
   D38       -1.04250   0.00000   0.00000   0.00025   0.00025  -1.04225
   D39        1.16270   0.00001   0.00000   0.00028   0.00028   1.16298
   D40       -0.04288   0.00000   0.00000   0.00015   0.00015  -0.04273
   D41       -2.71700   0.00001   0.00000   0.00021   0.00021  -2.71679
   D42        2.24326  -0.00001   0.00000   0.00011   0.00011   2.24337
   D43       -2.06311   0.00000   0.00000   0.00007   0.00007  -2.06304
   D44        1.54596   0.00001   0.00000   0.00013   0.00013   1.54609
   D45        0.22303  -0.00001   0.00000   0.00003   0.00003   0.22307
   D46        1.97318   0.00000   0.00000   0.00005   0.00005   1.97323
   D47       -0.70094   0.00000   0.00000   0.00011   0.00011  -0.70083
   D48       -2.02386  -0.00001   0.00000   0.00001   0.00001  -2.02386
   D49       -2.60108   0.00000   0.00000   0.00003   0.00003  -2.60105
   D50        0.08469   0.00000   0.00000  -0.00007  -0.00007   0.08462
   D51       -0.08657   0.00000   0.00000  -0.00004  -0.00004  -0.08661
   D52        2.59919   0.00000   0.00000  -0.00013  -0.00013   2.59906
         Item               Value     Threshold  Converged?
 Maximum Force            0.000028     0.000450     YES
 RMS     Force            0.000006     0.000300     YES
 Maximum Displacement     0.001916     0.001800     NO 
 RMS     Displacement     0.000413     0.001200     YES
 Predicted change in Energy=-2.055019D-08
 GradGradGradGradGradGradGradGradGradGradGradGradGradGradGradGradGradGrad

                          Input orientation:                          
 ---------------------------------------------------------------------
 Center     Atomic      Atomic             Coordinates (Angstroms)
 Number     Number       Type             X           Y           Z
 ---------------------------------------------------------------------
      1          6           0        2.778799    1.506876   -0.083591
      2          6           0        1.999860    0.194773    0.046077
      3          6           0        1.954071   -0.590225   -1.268565
      4          6           0        1.023749   -0.046297   -2.376347
      5          8           0        0.936905    1.007827   -2.936650
      6          6           0        0.218551   -1.361983   -2.452395
      7          6           0        1.102154   -1.878598   -1.306260
      8          6           0        1.447607   -3.242363   -0.915262
      9          8           0        0.549978   -2.443253   -0.128414
     10          1           0        2.763576    2.064043    0.857907
     11          1           0        3.826375    1.319836   -0.344932
     12          1           0        2.349033    2.139893   -0.864907
     13          1           0        2.445695   -0.445512    0.816137
     14          1           0        0.975374    0.395764    0.379967
     15          1           0        2.970898   -0.743755   -1.653793
     16          1           0       -0.842384   -1.260008   -2.204399
     17          1           0        0.309467   -1.886132   -3.408699
     18          1           0        0.989794   -4.087327   -1.428110
     19          1           0        2.413776   -3.446350   -0.454849
 ---------------------------------------------------------------------
                    Distance matrix (angstroms):
                    1          2          3          4          5
     1  C    0.000000
     2  C    1.531396   0.000000
     3  C    2.546011   1.531862   0.000000
     4  C    3.278608   2.622793   1.545489   0.000000
     5  O    3.432429   3.269187   2.524065   1.196937   0.000000
     6  C    4.516243   3.440772   2.238100   1.544396   2.523199
     7  C    3.970829   2.633165   1.545020   2.123337   3.319175
     8  C    5.001902   3.611518   2.723080   3.539670   4.734019
     9  O    4.535766   3.015259   2.589427   3.320100   4.466078
    10  H    1.094114   2.176350   3.496043   4.235673   4.341772
    11  H    1.095764   2.180553   2.829656   3.721247   3.894020
    12  H    1.093555   2.176075   2.787916   2.969891   2.750963
    13  H    2.175383   1.096234   2.146769   3.517564   4.297913
    14  H    2.168363   1.096107   2.155848   2.791957   3.372840
    15  H    2.750959   2.171015   1.098139   2.190872   2.975044
    16  H    5.026573   3.906325   3.023996   2.232736   2.974077
    17  H    5.354105   4.372993   2.994039   2.227318   2.998584
    18  H    6.025228   4.640026   3.631116   4.150932   5.314046
    19  H    4.980514   3.698652   3.005148   4.145442   5.308500
                    6          7          8          9         10
     6  C    0.000000
     7  C    1.536643   0.000000
     8  C    2.721981   1.460162   0.000000
     9  O    2.584545   1.418117   1.436469   0.000000
    10  H    5.401195   4.794617   5.747508   5.117476   0.000000
    11  H    4.964871   4.309931   5.176627   4.994246   1.769239
    12  H    4.395703   4.230575   5.457452   4.978378   1.773609
    13  H    4.059974   2.891955   3.437484   2.911510   2.529953
    14  H    3.418293   2.834106   3.890577   2.915378   2.491836
    15  H    2.931788   2.213786   3.018093   3.328051   3.772976
    16  H    1.094296   2.229470   3.291757   2.765584   5.781866
    17  H    1.094311   2.246922   3.058096   3.335941   6.311138
    18  H    3.011889   2.214940   1.089298   2.141408   6.797906
    19  H    3.626815   2.214294   1.089529   2.141613   5.675395
                   11         12         13         14         15
    11  H    0.000000
    12  H    1.767882   0.000000
    13  H    2.524047   3.085381   0.000000
    14  H    3.083438   2.545317   1.749238   0.000000
    15  H    2.589086   3.053601   2.542703   3.068680   0.000000
    16  H    5.648939   4.851670   4.538557   3.567180   3.887261
    17  H    5.659818   5.180693   4.948545   4.472636   3.386434
    18  H    6.201361   6.398671   4.518750   4.833990   3.892965
    19  H    4.972327   5.601646   3.259056   4.186616   3.008632
                   16         17         18         19
    16  H    0.000000
    17  H    1.780205   0.000000
    18  H    3.457345   3.038229   0.000000
    19  H    4.294600   3.948117   1.840058   0.000000
 Stoichiometry    C7H10O2
 Framework group  C1[X(C7H10O2)]
 Deg. of freedom    51
 Full point group                 C1      NOp   1
 Largest Abelian subgroup         C1      NOp   1
 Largest concise Abelian subgroup C1      NOp   1
                         Standard orientation:                         
 ---------------------------------------------------------------------
 Center     Atomic      Atomic             Coordinates (Angstroms)
 Number     Number       Type             X           Y           Z
 ---------------------------------------------------------------------
      1          6           0       -2.608460   -1.219872    0.062881
      2          6           0       -1.123731   -1.225300   -0.312250
      3          6           0       -0.317878   -0.187955    0.475859
      4          6           0       -0.502952    1.293283    0.075584
      5          8           0       -1.456089    2.012580   -0.006868
      6          6           0        1.000708    1.479837   -0.223352
      7          6           0        1.173156   -0.009741    0.112343
      8          6           0        2.345008   -0.748964    0.573197
      9          8           0        1.840356   -0.904268   -0.762712
     10          1           0       -3.165760   -1.942557   -0.540632
     11          1           0       -2.750254   -1.483959    1.116850
     12          1           0       -3.046631   -0.230277   -0.093872
     13          1           0       -0.683303   -2.213352   -0.134754
     14          1           0       -1.004988   -1.032741   -1.384758
     15          1           0       -0.477432   -0.323497    1.553857
     16          1           0        1.227882    1.746381   -1.260092
     17          1           0        1.503464    2.188146    0.442268
     18          1           0        3.308548   -0.246819    0.650724
     19          1           0        2.219230   -1.615553    1.221484
 ---------------------------------------------------------------------
 Rotational constants (GHZ):      2.3403802      1.3988055      0.9679931
 Standard basis: 6-31G(2df,p) (6D, 7F)
 There are   329 symmetry adapted cartesian basis functions of A   symmetry.
 There are   302 symmetry adapted basis functions of A   symmetry.
   302 basis functions,   466 primitive gaussians,   329 cartesian basis functions
    34 alpha electrons       34 beta electrons
       nuclear repulsion energy       451.7786690585 Hartrees.
 NAtoms=   19 NActive=   19 NUniq=   19 SFac= 1.00D+00 NAtFMM=   60 NAOKFM=F Big=F
 Integral buffers will be    131072 words long.
 Raffenetti 2 integral format.
 Two-electron integral symmetry is turned on.
 One-electron integrals computed using PRISM.
 NBasis=   302 RedAO= T EigKep=  3.68D-04  NBF=   302
 NBsUse=   302 1.00D-06 EigRej= -1.00D+00 NBFU=   302
 Initial guess from the checkpoint file:  "/scratch/puck/g09_28f6a489-c864-4101-824a-89569d389d78/Gau-106568.chk"
 B after Tr=     0.000000    0.000000    0.000000
         Rot=    1.000000   -0.000025   -0.000003    0.000038 Ang=  -0.01 deg.
 Requested convergence on RMS density matrix=1.00D-08 within 128 cycles.
 Requested convergence on MAX density matrix=1.00D-06.
 Requested convergence on             energy=1.00D-06.
 No special actions if energy rises.
 SCF Done:  E(RB3LYP) =  -423.171416048     A.U. after    6 cycles
            NFock=  6  Conv=0.39D-08     -V/T= 2.0075
 Calling FoFJK, ICntrl=      2127 FMM=F ISym2X=0 I1Cent= 0 IOpClX= 0 NMat=1 NMatS=1 NMatT=0.
 ***** Axes restored to original set *****
 -------------------------------------------------------------------
 Center     Atomic                   Forces (Hartrees/Bohr)
 Number     Number              X              Y              Z
 -------------------------------------------------------------------
      1        6          -0.000003886   -0.000007555   -0.000000576
      2        6           0.000009150    0.000005485    0.000002017
      3        6           0.000007225   -0.000014975   -0.000027312
      4        6          -0.000011906    0.000024526    0.000029462
      5        8          -0.000003724   -0.000008342    0.000001619
      6        6          -0.000013101   -0.000008701   -0.000003155
      7        6          -0.000017344    0.000004878    0.000010922
      8        6           0.000015807   -0.000001627   -0.000009935
      9        8           0.000011302   -0.000002085    0.000001074
     10        1           0.000001852    0.000001669   -0.000001848
     11        1          -0.000000666    0.000003230   -0.000005208
     12        1          -0.000006847    0.000003491   -0.000000066
     13        1           0.000001370   -0.000004487   -0.000004119
     14        1           0.000001550    0.000000827    0.000004770
     15        1           0.000002478    0.000006057    0.000000607
     16        1          -0.000000532   -0.000002381    0.000003927
     17        1          -0.000001159   -0.000001305    0.000002320
     18        1           0.000003032    0.000000020    0.000000896
     19        1           0.000005401    0.000001274   -0.000005395
 -------------------------------------------------------------------
 Cartesian Forces:  Max     0.000029462 RMS     0.000008796

 GradGradGradGradGradGradGradGradGradGradGradGradGradGradGradGradGradGrad
 Berny optimization.
 Using GEDIIS/GDIIS optimizer.
 FormGI is forming the generalized inverse of G from B-inverse, IUseBI=4.
 Internal  Forces:  Max     0.000010646 RMS     0.000003028
 Search for a local minimum.
 Step number   2 out of a maximum of  114
 All quantities printed in internal units (Hartrees-Bohrs-Radians)
 Mixed Optimization -- En-DIIS/RFO-DIIS
 Swapping is turned off.
 Update second derivatives using D2CorX and points    1    2
 DE=  1.27D-08 DEPred=-2.06D-08 R=-6.19D-01
 Trust test=-6.19D-01 RLast= 2.38D-03 DXMaxT set to 1.50D-01
 ITU= -1  0
     Eigenvalues ---    0.00169   0.00241   0.00350   0.00512   0.01971
     Eigenvalues ---    0.02772   0.03092   0.03477   0.03583   0.04601
     Eigenvalues ---    0.04808   0.04884   0.05474   0.05524   0.05772
     Eigenvalues ---    0.06287   0.07380   0.07689   0.08324   0.08777
     Eigenvalues ---    0.11986   0.12561   0.15780   0.15914   0.16000
     Eigenvalues ---    0.16000   0.16000   0.16034   0.17730   0.21698
     Eigenvalues ---    0.23280   0.24768   0.25132   0.27920   0.28200
     Eigenvalues ---    0.28493   0.29211   0.29368   0.33899   0.34091
     Eigenvalues ---    0.34118   0.34155   0.34303   0.34336   0.34374
     Eigenvalues ---    0.34410   0.34876   0.34894   0.37142   0.41735
     Eigenvalues ---    1.05694
 En-DIIS/RFO-DIIS IScMMF=        0 using points:     2    1
 RFO step:  Lambda=-4.80445665D-09.
 DidBck=F Rises=F RFO-DIIS coefs:    1.16577   -0.16577
 Iteration  1 RMS(Cart)=  0.00069223 RMS(Int)=  0.00000023
 Iteration  2 RMS(Cart)=  0.00000030 RMS(Int)=  0.00000007
 Variable       Old X    -DE/DX   Delta X   Delta X   Delta X     New X
                                 (Linear)    (Quad)   (Total)
    R1        2.89392  -0.00001   0.00000  -0.00004  -0.00004   2.89388
    R2        2.06758   0.00000   0.00000   0.00001   0.00001   2.06758
    R3        2.07069   0.00000   0.00000   0.00001   0.00001   2.07071
    R4        2.06652   0.00000   0.00000   0.00002   0.00002   2.06654
    R5        2.89480   0.00000   0.00000   0.00004   0.00004   2.89484
    R6        2.07158   0.00000   0.00000  -0.00001  -0.00001   2.07157
    R7        2.07134   0.00000   0.00000   0.00001   0.00001   2.07136
    R8        2.92055  -0.00001  -0.00001  -0.00012  -0.00013   2.92042
    R9        2.91966   0.00000  -0.00001  -0.00005  -0.00006   2.91960
   R10        2.07518   0.00000   0.00000   0.00001   0.00001   2.07519
   R11        2.26188  -0.00001   0.00000  -0.00004  -0.00005   2.26184
   R12        2.91849   0.00001   0.00002   0.00016   0.00018   2.91866
   R13        2.90383   0.00000   0.00000   0.00004   0.00005   2.90388
   R14        2.06792   0.00000   0.00000  -0.00002  -0.00002   2.06790
   R15        2.06795   0.00000   0.00000   0.00000   0.00000   2.06794
   R16        2.75931   0.00000   0.00000   0.00000   0.00000   2.75931
   R17        2.67985   0.00000  -0.00001  -0.00008  -0.00009   2.67976
   R18        2.71453   0.00000   0.00001   0.00009   0.00010   2.71463
   R19        2.05847   0.00000   0.00000  -0.00001  -0.00001   2.05847
   R20        2.05891   0.00000   0.00000   0.00000   0.00000   2.05891
    A1        1.93519   0.00000   0.00001   0.00012   0.00013   1.93532
    A2        1.93930   0.00000   0.00000   0.00003   0.00004   1.93934
    A3        1.93539   0.00000  -0.00001  -0.00006  -0.00007   1.93532
    A4        1.88122   0.00000   0.00000  -0.00001  -0.00001   1.88120
    A5        1.89080   0.00000  -0.00001  -0.00008  -0.00009   1.89071
    A6        1.87981   0.00000   0.00000  -0.00001  -0.00001   1.87981
    A7        1.96233  -0.00001   0.00000  -0.00005  -0.00006   1.96227
    A8        1.93163   0.00001   0.00001   0.00014   0.00015   1.93178
    A9        1.92207   0.00000   0.00000  -0.00007  -0.00007   1.92200
   A10        1.89199   0.00000   0.00000   0.00000   0.00000   1.89199
   A11        1.90440   0.00000   0.00000   0.00003   0.00003   1.90443
   A12        1.84756   0.00000  -0.00001  -0.00005  -0.00005   1.84751
   A13        2.04068  -0.00001   0.00000  -0.00011  -0.00011   2.04057
   A14        2.05414   0.00000   0.00001   0.00005   0.00006   2.05420
   A15        1.92306   0.00000  -0.00001  -0.00014  -0.00015   1.92291
   A16        1.51485   0.00000   0.00001   0.00006   0.00007   1.51491
   A17        1.93386   0.00000   0.00001   0.00015   0.00016   1.93403
   A18        1.96646   0.00000   0.00000   0.00004   0.00004   1.96650
   A19        2.33113   0.00000   0.00000   0.00007   0.00007   2.33120
   A20        1.62013   0.00000   0.00000  -0.00003  -0.00003   1.62009
   A21        2.33144   0.00000   0.00000   0.00001   0.00001   2.33144
   A22        1.52066  -0.00001   0.00000  -0.00007  -0.00007   1.52059
   A23        1.99866   0.00000   0.00001   0.00006   0.00007   1.99873
   A24        1.99080   0.00000  -0.00001  -0.00006  -0.00007   1.99072
   A25        2.00401   0.00000   0.00002   0.00021   0.00023   2.00424
   A26        2.02974   0.00000  -0.00002  -0.00022  -0.00024   2.02950
   A27        1.89993   0.00000   0.00000   0.00005   0.00006   1.89999
   A28        1.62574   0.00000   0.00000  -0.00001  -0.00001   1.62572
   A29        2.26771  -0.00001  -0.00001  -0.00014  -0.00015   2.26756
   A30        2.12523   0.00000  -0.00001   0.00000  -0.00001   2.12522
   A31        2.27808   0.00000   0.00000   0.00001   0.00002   2.27809
   A32        2.12876   0.00000   0.00001   0.00019   0.00020   2.12896
   A33        2.09322   0.00000   0.00000   0.00001   0.00001   2.09323
   A34        2.09188   0.00000   0.00000  -0.00002  -0.00003   2.09185
   A35        2.01173   0.00000   0.00001   0.00002   0.00003   2.01176
   A36        2.01176   0.00000   0.00001   0.00002   0.00003   2.01179
   A37        2.01133   0.00000   0.00000   0.00001   0.00001   2.01133
    D1        3.10435   0.00000   0.00001   0.00007   0.00008   3.10442
    D2       -1.06021   0.00000   0.00001   0.00013   0.00014  -1.06006
    D3        0.97661   0.00000   0.00001   0.00011   0.00012   0.97674
    D4       -1.08706   0.00000   0.00002   0.00016   0.00017  -1.08688
    D5        1.03158   0.00000   0.00002   0.00022   0.00024   1.03182
    D6        3.06839   0.00000   0.00002   0.00020   0.00022   3.06861
    D7        1.00309   0.00000   0.00001   0.00013   0.00014   1.00323
    D8        3.12172   0.00000   0.00002   0.00019   0.00021   3.12193
    D9       -1.12464   0.00000   0.00002   0.00018   0.00019  -1.12445
   D10       -1.28943   0.00000  -0.00011  -0.00100  -0.00110  -1.29053
   D11       -3.05720   0.00000  -0.00012  -0.00104  -0.00116  -3.05836
   D12        0.93874   0.00000  -0.00011  -0.00100  -0.00111   0.93763
   D13        2.85264   0.00000  -0.00012  -0.00114  -0.00126   2.85138
   D14        1.08486   0.00000  -0.00013  -0.00118  -0.00131   1.08355
   D15       -1.20237   0.00000  -0.00012  -0.00114  -0.00127  -1.20364
   D16        0.84831   0.00000  -0.00011  -0.00110  -0.00121   0.84710
   D17       -0.91946   0.00000  -0.00013  -0.00114  -0.00127  -0.92073
   D18        3.07649   0.00000  -0.00012  -0.00110  -0.00122   3.07526
   D19        0.98081   0.00000  -0.00003   0.00098   0.00095   0.98176
   D20       -2.12952   0.00000   0.00001  -0.00060  -0.00059  -2.13010
   D21        3.06784   0.00000  -0.00002   0.00105   0.00103   3.06887
   D22       -0.04249   0.00000   0.00002  -0.00053  -0.00051  -0.04299
   D23       -1.24211   0.00001  -0.00002   0.00113   0.00112  -1.24099
   D24        1.93075   0.00000   0.00003  -0.00045  -0.00042   1.93033
   D25        2.11732   0.00000  -0.00002   0.00045   0.00043   2.11775
   D26       -1.48740   0.00000  -0.00003   0.00021   0.00018  -1.48722
   D27       -0.17130   0.00000  -0.00003   0.00022   0.00019  -0.17111
   D28        0.04271   0.00000  -0.00002   0.00053   0.00051   0.04322
   D29        2.72118   0.00000  -0.00003   0.00029   0.00026   2.72143
   D30       -2.24591   0.00000  -0.00003   0.00030   0.00027  -2.24564
   D31       -1.89859   0.00000  -0.00004   0.00034   0.00030  -1.89829
   D32        0.77987   0.00000  -0.00004   0.00009   0.00005   0.77992
   D33        2.09597  -0.00001  -0.00004   0.00010   0.00006   2.09603
   D34        0.04271   0.00000  -0.00002   0.00053   0.00051   0.04321
   D35        2.06807   0.00000   0.00000   0.00074   0.00074   2.06881
   D36       -2.00989   0.00001   0.00000   0.00082   0.00082  -2.00907
   D37       -3.06761   0.00000   0.00002  -0.00105  -0.00103  -3.06865
   D38       -1.04225   0.00000   0.00004  -0.00084  -0.00080  -1.04305
   D39        1.16298   0.00000   0.00005  -0.00077  -0.00072   1.16226
   D40       -0.04273   0.00000   0.00002  -0.00053  -0.00051  -0.04324
   D41       -2.71679   0.00000   0.00003  -0.00022  -0.00018  -2.71697
   D42        2.24337   0.00000   0.00002  -0.00043  -0.00041   2.24296
   D43       -2.06304   0.00000   0.00001  -0.00060  -0.00059  -2.06363
   D44        1.54609   0.00000   0.00002  -0.00029  -0.00026   1.54583
   D45        0.22307   0.00000   0.00001  -0.00050  -0.00049   0.22257
   D46        1.97323   0.00000   0.00001  -0.00067  -0.00067   1.97256
   D47       -0.70083   0.00000   0.00002  -0.00036  -0.00034  -0.70117
   D48       -2.02386   0.00000   0.00000  -0.00057  -0.00057  -2.02443
   D49       -2.60105   0.00000   0.00000   0.00008   0.00009  -2.60096
   D50        0.08462   0.00000  -0.00001   0.00007   0.00006   0.08468
   D51       -0.08661   0.00000  -0.00001  -0.00028  -0.00029  -0.08690
   D52        2.59906   0.00000  -0.00002  -0.00030  -0.00032   2.59874
         Item               Value     Threshold  Converged?
 Maximum Force            0.000011     0.000450     YES
 RMS     Force            0.000003     0.000300     YES
 Maximum Displacement     0.002320     0.001800     NO 
 RMS     Displacement     0.000692     0.001200     YES
 Predicted change in Energy=-2.985109D-08
 GradGradGradGradGradGradGradGradGradGradGradGradGradGradGradGradGradGrad

                          Input orientation:                          
 ---------------------------------------------------------------------
 Center     Atomic      Atomic             Coordinates (Angstroms)
 Number     Number       Type             X           Y           Z
 ---------------------------------------------------------------------
      1          6           0        2.779442    1.506494   -0.083417
      2          6           0        1.999487    0.195005    0.046076
      3          6           0        1.953510   -0.589949   -1.268609
      4          6           0        1.022779   -0.046049   -2.375963
      5          8           0        0.936045    1.007822   -2.936706
      6          6           0        0.218322   -1.362269   -2.452525
      7          6           0        1.101948   -1.878521   -1.306210
      8          6           0        1.448000   -3.242129   -0.915195
      9          8           0        0.550064   -2.443284   -0.128336
     10          1           0        2.764528    2.063773    0.858025
     11          1           0        3.826919    1.318700   -0.344637
     12          1           0        2.350224    2.139827   -0.864795
     13          1           0        2.444467   -0.445676    0.816294
     14          1           0        0.975057    0.396865    0.379636
     15          1           0        2.970331   -0.743160   -1.653988
     16          1           0       -0.842794   -1.260996   -2.205064
     17          1           0        0.310125   -1.886269   -3.408824
     18          1           0        0.990523   -4.087302   -1.427990
     19          1           0        2.414300   -3.445672   -0.454859
 ---------------------------------------------------------------------
                    Distance matrix (angstroms):
                    1          2          3          4          5
     1  C    0.000000
     2  C    1.531373   0.000000
     3  C    2.545961   1.531883   0.000000
     4  C    3.279028   2.622659   1.545419   0.000000
     5  O    3.433372   3.269338   2.524015   1.196912   0.000000
     6  C    4.516836   3.441026   2.238082   1.544489   2.523269
     7  C    3.970835   2.633203   1.544988   2.123345   3.319189
     8  C    5.001402   3.611381   2.722958   3.539715   4.733993
     9  O    4.535735   3.015264   2.589350   3.319943   4.466100
    10  H    1.094118   2.176429   3.496078   4.236002   4.342621
    11  H    1.095770   2.180564   2.829546   3.721832   3.895205
    12  H    1.093567   2.176014   2.787853   2.970487   2.752118
    13  H    2.175467   1.096227   2.146783   3.517301   4.298023
    14  H    2.168294   1.096114   2.155895   2.791375   3.372375
    15  H    2.750287   2.170924   1.098142   2.190930   2.974832
    16  H    5.028019   3.907189   3.024329   2.232860   2.974408
    17  H    5.354129   4.372868   2.993606   2.227350   2.998405
    18  H    6.024837   4.639939   3.631009   4.151075   5.314083
    19  H    4.979483   3.698315   3.004941   4.145408   5.308334
                    6          7          8          9         10
     6  C    0.000000
     7  C    1.536668   0.000000
     8  C    2.722015   1.460162   0.000000
     9  O    2.584666   1.418069   1.436520   0.000000
    10  H    5.401913   4.794764   5.747186   5.117648   0.000000
    11  H    4.965155   4.309561   5.175515   4.993706   1.769239
    12  H    4.396654   4.230858   5.457289   4.978740   1.773567
    13  H    4.059685   2.891440   3.436736   2.910589   2.530121
    14  H    3.418821   2.834706   3.891342   2.916351   2.491915
    15  H    2.931640   2.213786   3.017971   3.328022   3.772458
    16  H    1.094286   2.229641   3.291867   2.765982   5.783543
    17  H    1.094308   2.246782   3.057990   3.336081   6.311333
    18  H    3.011938   2.214941   1.089294   2.141471   6.797696
    19  H    3.626783   2.214278   1.089529   2.141676   5.674531
                   11         12         13         14         15
    11  H    0.000000
    12  H    1.767892   0.000000
    13  H    2.524274   3.085412   0.000000
    14  H    3.083419   2.545115   1.749203   0.000000
    15  H    2.588322   3.052700   2.543093   3.068616   0.000000
    16  H    5.649977   4.853584   4.538660   3.568439   3.887385
    17  H    5.659409   5.181075   4.947964   4.472948   3.385682
    18  H    6.200295   6.398681   4.517987   4.834822   3.892814
    19  H    4.970602   5.600889   3.258331   4.187230   3.008430
                   16         17         18         19
    16  H    0.000000
    17  H    1.780232   0.000000
    18  H    3.457297   3.038288   0.000000
    19  H    4.294728   3.947809   1.840058   0.000000
 Stoichiometry    C7H10O2
 Framework group  C1[X(C7H10O2)]
 Deg. of freedom    51
 Full point group                 C1      NOp   1
 Largest Abelian subgroup         C1      NOp   1
 Largest concise Abelian subgroup C1      NOp   1
                         Standard orientation:                         
 ---------------------------------------------------------------------
 Center     Atomic      Atomic             Coordinates (Angstroms)
 Number     Number       Type             X           Y           Z
 ---------------------------------------------------------------------
      1          6           0       -2.608509   -1.220065    0.063358
      2          6           0       -1.124045   -1.224902   -0.312737
      3          6           0       -0.318008   -0.187741    0.475468
      4          6           0       -0.502738    1.293422    0.075030
      5          8           0       -1.455554    2.013169   -0.006854
      6          6           0        1.001234    1.479866   -0.222883
      7          6           0        1.173118   -0.009924    0.112271
      8          6           0        2.344535   -0.749682    0.573371
      9          8           0        1.840181   -0.904499   -0.762761
     10          1           0       -3.166126   -1.942584   -0.540069
     11          1           0       -2.749577   -1.484595    1.117320
     12          1           0       -3.047010   -0.230498   -0.092728
     13          1           0       -0.683119   -2.212894   -0.136190
     14          1           0       -1.006128   -1.031668   -1.385221
     15          1           0       -0.477856   -0.323341    1.553419
     16          1           0        1.229167    1.747064   -1.259277
     17          1           0        1.503686    2.187568    0.443609
     18          1           0        3.308240   -0.247928    0.651315
     19          1           0        2.218187   -1.616327    1.221473
 ---------------------------------------------------------------------
 Rotational constants (GHZ):      2.3397781      1.3989546      0.9679623
 Standard basis: 6-31G(2df,p) (6D, 7F)
 There are   329 symmetry adapted cartesian basis functions of A   symmetry.
 There are   302 symmetry adapted basis functions of A   symmetry.
   302 basis functions,   466 primitive gaussians,   329 cartesian basis functions
    34 alpha electrons       34 beta electrons
       nuclear repulsion energy       451.7748578647 Hartrees.
 NAtoms=   19 NActive=   19 NUniq=   19 SFac= 1.00D+00 NAtFMM=   60 NAOKFM=F Big=F
 Integral buffers will be    131072 words long.
 Raffenetti 2 integral format.
 Two-electron integral symmetry is turned on.
 One-electron integrals computed using PRISM.
 NBasis=   302 RedAO= T EigKep=  3.68D-04  NBF=   302
 NBsUse=   302 1.00D-06 EigRej= -1.00D+00 NBFU=   302
 Initial guess from the checkpoint file:  "/scratch/puck/g09_28f6a489-c864-4101-824a-89569d389d78/Gau-106568.chk"
 B after Tr=     0.000000    0.000000    0.000000
         Rot=    1.000000   -0.000049    0.000010    0.000089 Ang=  -0.01 deg.
 Requested convergence on RMS density matrix=1.00D-08 within 128 cycles.
 Requested convergence on MAX density matrix=1.00D-06.
 Requested convergence on             energy=1.00D-06.
 No special actions if energy rises.
 SCF Done:  E(RB3LYP) =  -423.171415902     A.U. after    7 cycles
            NFock=  7  Conv=0.38D-08     -V/T= 2.0075
 Calling FoFJK, ICntrl=      2127 FMM=F ISym2X=0 I1Cent= 0 IOpClX= 0 NMat=1 NMatS=1 NMatT=0.
 ***** Axes restored to original set *****
 -------------------------------------------------------------------
 Center     Atomic                   Forces (Hartrees/Bohr)
 Number     Number              X              Y              Z
 -------------------------------------------------------------------
      1        6          -0.000000602    0.000008657   -0.000008599
      2        6          -0.000002323   -0.000009188    0.000015585
      3        6          -0.000015549    0.000030646    0.000056064
      4        6           0.000085763   -0.000096871   -0.000126491
      5        8          -0.000042615    0.000044456    0.000037560
      6        6          -0.000033718    0.000037362    0.000061579
      7        6           0.000005205   -0.000000731   -0.000018723
      8        6           0.000005740    0.000012502   -0.000006854
      9        8           0.000010737   -0.000023257    0.000001782
     10        1          -0.000001922   -0.000007566    0.000000305
     11        1          -0.000003894    0.000001742   -0.000004133
     12        1          -0.000002432    0.000001760   -0.000000798
     13        1           0.000013992    0.000000315   -0.000001341
     14        1           0.000001728   -0.000005625    0.000003950
     15        1          -0.000011399    0.000007563   -0.000019545
     16        1          -0.000005860   -0.000019479    0.000010574
     17        1          -0.000001661    0.000016306   -0.000005836
     18        1          -0.000002417   -0.000000142    0.000005073
     19        1           0.000001228    0.000001550   -0.000000152
 -------------------------------------------------------------------
 Cartesian Forces:  Max     0.000126491 RMS     0.000030243

 GradGradGradGradGradGradGradGradGradGradGradGradGradGradGradGradGradGrad
 Berny optimization.
 Using GEDIIS/GDIIS optimizer.
 FormGI is forming the generalized inverse of G from B-inverse, IUseBI=4.
 Internal  Forces:  Max     0.000025601 RMS     0.000009188
 Search for a local minimum.
 Step number   3 out of a maximum of  114
 All quantities printed in internal units (Hartrees-Bohrs-Radians)
 Mixed Optimization -- En-DIIS/RFO-DIIS
 Swapping is turned off.
 Update second derivatives using D2CorX and points    1    2    3
[...]
 6742,-0.00746233,-0.09335230,0.03669853,-0.04579967,0.05681269,-0.0000
 9833,-0.00192876,0.00116151,0.00151514,-0.00588627,-0.00092371,0.01359
 468,-0.01042739,0.02539746,0.03692182,-0.65194363,0.30500840,-0.042594
 71,0.70466152,0.00008287,-0.00079368,-0.00053481,0.00095589,0.00074770
 ,0.00442272,-0.00981256,0.02597448,-0.00186492,-0.04603318,0.30503090,
 -0.24283429,0.05036813,-0.35197088,0.22958414,0.00037657,-0.00027456,-
 0.00058409,-0.00689777,0.00370930,-0.00194952,-0.02470894,-0.03431114,
 -0.05183292,-0.10410560,-0.01790959,-0.00836038,0.01883737,-0.00810055
 ,0.00631671,0.55788622,0.00026209,-0.00013539,-0.00007449,0.00086941,-
 0.00136385,0.00139177,-0.03074968,0.00037797,-0.00028730,-0.04089928,-
 0.10670911,-0.02924262,-0.01120089,-0.03436732,0.01507116,0.00324148,0
 .37081829,-0.00009246,0.00034899,0.00027847,0.00162133,-0.00085723,0.0
 0077535,-0.05463021,-0.00366761,0.00314939,0.00836705,-0.00388231,-0.0
 7757594,0.00486814,0.01540885,0.01577783,0.00967380,0.08716554,0.50640
 902,0.00031119,0.00090327,0.00220595,-0.00131072,0.00004461,-0.0083224
 8,-0.09975769,-0.04732395,0.00378716,0.01550030,0.00805183,0.00143062,
 -0.00440293,-0.00157877,-0.00394959,-0.11828691,0.02807605,-0.04548009
 ,0.35900943,0.00063322,0.00041652,-0.00160361,-0.00759472,-0.01770592,
 -0.00341689,-0.03503565,-0.12565813,-0.01390215,0.00412125,-0.07147313
 ,0.05127872,-0.00168497,-0.00183219,-0.00092320,0.02435280,-0.06928637
 ,0.00813140,0.00269019,0.62229057,0.00139398,-0.00211574,-0.00616846,-
 0.01380446,-0.02210938,0.00788001,-0.00461907,-0.02014726,-0.06996581,
 0.00443224,0.05028763,-0.01733374,-0.00419254,-0.00236261,-0.00064521,
 -0.04683993,0.02048616,-0.12008734,0.05649551,-0.15988310,0.42767416,0
 .00019407,0.00000539,-0.00080802,-0.00069639,-0.00235764,0.00171757,0.
 01102738,-0.01474698,-0.00231980,-0.00416676,-0.00243915,-0.00200866,0
 .00191836,0.00020920,0.00137147,-0.00929812,0.01275642,0.01021256,-0.0
 4537641,0.06403271,-0.06109666,0.53693225,-0.00024485,-0.00004413,-0.0
 0044479,0.00004237,-0.00110363,0.00132993,0.01245045,-0.01244116,-0.00
 031284,-0.00068965,-0.00599691,0.00023699,0.00051558,0.00104050,0.0005
 8884,-0.00316316,-0.00243054,0.00077793,0.03458332,-0.27136810,0.09025
 400,-0.04445548,0.62894387,-0.00011973,-0.00012236,-0.00110770,-0.0009
 2824,-0.00274814,0.00166559,0.00636156,-0.00093172,-0.00793523,-0.0031
 7287,0.00287573,-0.00306104,0.00126587,0.00087008,0.00037548,-0.005366
 01,0.01838672,0.00182474,-0.04143595,0.04544035,-0.02878243,0.16962534
 ,0.06941870,0.33925795,0.00024816,-0.00008187,0.00012780,0.00059394,0.
 00254677,0.00097041,-0.00986757,0.00096597,0.01737719,-0.00430469,0.00
 041274,-0.00376061,0.00173017,0.00028623,0.00136076,0.01960461,0.00138
 183,-0.01214710,-0.08248148,-0.04968651,0.06351443,-0.12478221,0.06924
 599,0.05077413,0.20282018,0.00014346,0.00041747,0.00095578,0.00130805,
 0.00413813,0.00006999,-0.01562553,-0.00443624,0.02683470,-0.00233151,-
 0.00250037,0.00034871,0.00134416,-0.00202445,0.00119441,-0.00342227,-0
 .00372818,0.01443259,-0.02660918,-0.05871476,0.03730424,0.04396167,-0.
 07922275,-0.05049718,-0.03516936,0.16954135,-0.00020844,0.00043303,0.0
 0168959,-0.00057003,-0.00075974,-0.00331152,0.00617471,0.00851291,0.00
 296737,-0.00179949,-0.00393322,-0.00186812,0.00068097,0.00355099,-0.00
 009906,0.01438534,0.00315197,-0.02450744,0.04898545,0.07223057,-0.1793
 5524,0.06776055,-0.08822165,-0.09919518,-0.14162544,0.00109607,0.29605
 272,-0.04691991,0.00366081,0.00523922,-0.00070226,-0.00854761,-0.01578
 485,-0.00167456,-0.00327971,0.00076412,0.00020394,0.00020544,0.0005448
 4,-0.00008318,-0.00004461,-0.00033330,-0.00023064,0.00003996,0.0002280
 0,0.00076477,-0.00042802,-0.00100890,-0.00021305,-0.00009080,-0.000214
 47,0.00000476,0.00014082,0.00023735,0.04767320,0.00315665,-0.11191867,
 -0.11338792,0.00121114,-0.01450754,-0.02513878,-0.00378524,-0.00508615
 ,0.00173361,0.00027729,-0.00102974,0.00097192,0.00013481,0.00097786,-0
 .00028098,-0.00041745,-0.00014190,0.00002506,0.00071915,0.00008772,-0.
 00176138,-0.00029098,-0.00002344,-0.00031235,-0.00004446,0.00008975,0.
 00043625,-0.00061672,0.12260412,0.00450285,-0.11463456,-0.24548262,0.0
 0005562,0.00306496,0.00396537,0.00034193,0.00073292,0.00128582,0.00023
 321,0.00087129,-0.00011409,-0.00040125,-0.00062926,-0.00020316,-0.0000
 4686,-0.00010519,-0.00009206,0.00027553,0.00041998,0.00016195,-0.00003
 992,0.00002435,0.00003265,-0.00010115,-0.00017157,0.00006999,-0.005661
 21,0.12564405,0.26428369,-0.28232205,0.04620707,0.05797525,-0.01677860
 ,0.00291428,0.00420836,0.00047043,0.00101662,0.00033816,-0.00004670,0.
 00024998,0.00002078,0.00011122,-0.00026306,-0.00022853,-0.00011058,0.0
 0013101,0.00024007,0.00023291,-0.00028663,0.00008207,-0.00016314,-0.00
 003197,0.00000273,0.00022504,0.00001976,-0.00027163,0.00019528,0.00021
 128,-0.00021646,0.30901293,0.04750395,-0.05629580,-0.01192081,-0.02987
 701,0.00476340,0.00680587,-0.00030228,0.00183560,0.00113259,-0.0000125
 5,-0.00037430,0.00008424,0.00001561,0.00027841,0.00017372,0.00001772,0
 .00012598,0.00005848,0.00007560,-0.00004124,0.00048846,-0.00009689,-0.
 00006170,0.00000736,0.00017811,-0.00006463,-0.00031809,0.01543521,-0.0
 0360464,-0.00246029,-0.04798670,0.06079502,0.05792834,-0.01162341,-0.0
 6193845,0.00334755,-0.00037281,-0.00211457,-0.00101827,0.00035856,0.00
 062151,-0.00025536,0.00026540,-0.00018275,0.00016483,-0.00031537,-0.00
 004486,-0.00001275,-0.00001762,0.00004602,-0.00007527,-0.00006711,-0.0
 0004580,0.00007282,-0.00003284,0.00001463,0.00003175,0.00007051,-0.000
 02196,0.02747057,-0.00482800,-0.00614991,-0.06533844,0.01216356,0.0623
 1467,-0.09129623,0.06279856,-0.07702322,0.00764543,-0.01106688,0.01397
 784,0.00056179,0.00072663,0.00001253,0.00049962,-0.00108421,0.00016469
 ,-0.00102136,0.00065022,-0.00034866,-0.00000019,0.00001865,-0.00005919
 ,-0.00006090,0.00011214,0.00028669,-0.00001431,0.00006030,0.00006491,-
 0.00006369,-0.00010184,-0.00020804,-0.00018558,-0.00147491,0.00191389,
 -0.01203135,0.01721966,-0.02284764,0.09652736,0.06114623,-0.13269035,0
 .10697534,0.01181871,-0.01836490,0.02074525,0.00055191,0.00115238,0.00
 085476,-0.00008511,-0.00313900,0.00036963,0.00038259,0.00215440,0.0001
 9287,0.00004644,0.00015465,-0.00009256,-0.00022706,0.00007503,0.000407
 96,0.00001097,0.00010388,0.00010179,0.00001198,-0.00001160,-0.00051989
 ,-0.00751713,0.01038427,-0.01202842,0.00227208,-0.00374272,0.00385734,
 -0.06468800,0.14700623,-0.07630064,0.10950296,-0.18479364,-0.00031179,
 0.00107630,-0.00138432,0.00041796,-0.00017326,0.00044368,-0.00012978,-
 0.00072399,0.00075503,-0.00026035,0.00022448,-0.00106187,-0.00000903,0
 .00018085,-0.00001837,0.00010666,-0.00000615,0.00006180,0.00002751,-0.
 00001963,-0.00000925,0.00000170,0.00007517,-0.00006195,-0.01138787,0.0
 1616910,-0.01874839,0.00372217,-0.00599971,0.00642448,0.08359637,-0.12
 024096,0.19723926,0.00717663,-0.01200744,0.01347093,-0.09316029,0.0645
 7460,-0.07443110,-0.00034000,-0.00104209,-0.00079359,0.00113979,0.0004
 7694,0.00044388,-0.00000277,-0.00034977,0.00002075,-0.00032246,0.00010
 217,0.00035528,0.00045919,0.00070986,-0.00086301,0.00038102,-0.0003845
 8,-0.00039404,0.00003842,0.00038826,0.00125921,0.00044982,0.00093171,-
 0.00021537,0.00099845,0.00070512,0.00024704,-0.00121116,-0.00374244,0.
 00032847,0.09761179,0.01167977,-0.01822415,0.02037396,0.06414755,-0.13
 218504,0.10362288,-0.00776701,0.00985054,-0.01598544,0.00224334,-0.003
 19934,-0.00156206,-0.00067002,0.00161810,-0.00039760,-0.00118183,0.000
 11849,0.00060235,-0.00068954,0.00074730,0.00044102,0.00015676,0.000083
 30,-0.00018021,-0.00004027,-0.00034602,0.00026437,0.00058638,0.0007622
 3,-0.00052426,-0.00013815,0.00145675,-0.00028178,-0.00403387,-0.004433
 28,-0.00031218,-0.06737111,0.14752619,-0.00023475,0.00150971,-0.001024
 64,-0.07470434,0.10457535,-0.17022387,-0.01374713,0.01425812,-0.027529
 09,0.00461458,-0.00529943,-0.00053964,-0.00094006,0.00178310,-0.000535
 15,-0.00205993,0.00035969,0.00039720,0.00019357,0.00119827,-0.00024770
 ,-0.00011683,-0.00023133,-0.00031567,0.00005500,-0.00039468,0.00159485
 ,0.00035305,0.00012753,0.00057334,0.00012605,0.00000811,-0.00005528,0.
 00029225,-0.00001445,0.00124588,0.08181016,-0.11200488,0.18826695,-0.0
 1604667,0.00231027,0.00427157,-0.27257676,0.04706296,0.06925113,0.0028
 2770,0.00002556,0.00034777,0.00013462,0.00077226,-0.00072596,0.0002764
 5,-0.00056597,0.00052146,0.00018051,0.00032055,0.00054045,-0.00019654,
 -0.00011375,0.00088846,-0.00029503,-0.00009737,0.00013866,0.00059321,-
 0.00046626,-0.00079981,0.00042825,0.00001615,-0.00054863,-0.00013846,-
 0.00350132,0.00011590,0.00081492,-0.00002287,0.00010949,-0.01378852,0.
 00296832,0.00380314,0.29639335,-0.02894880,0.00463044,0.00827926,0.046
 71970,-0.05663624,-0.01369108,0.01438852,-0.00457783,-0.00641036,0.000
 67418,0.00031792,0.00140481,-0.00020960,0.00036355,-0.00064814,0.00007
 720,-0.00026320,-0.00033495,0.00142305,0.00079945,-0.00083504,0.000333
 70,0.00006785,-0.00005844,-0.00088979,-0.00010388,0.00115969,0.0006892
 8,0.00127777,-0.00032388,-0.00352101,-0.00493391,0.00080332,0.00074898
 ,0.00124062,0.00012146,0.01766341,-0.00419688,-0.00537175,-0.04814194,
 0.06300255,0.00212754,-0.00021088,-0.00076024,0.06876431,-0.01356023,-
 0.06975133,0.02562832,-0.00716178,-0.01247920,0.00225612,-0.00094887,0
 .00171693,-0.00057931,0.00101777,-0.00027637,0.00041575,-0.00040235,-0
 .00041307,0.00099014,0.00093959,-0.00019850,-0.00009756,0.00027043,0.0
 0003072,-0.00076686,-0.00047031,0.00081236,-0.00036985,0.00021597,0.00
 035092,0.00012754,0.00018845,0.00090578,0.00029121,-0.00033137,-0.0001
 8472,-0.02126178,0.00468865,0.00678690,-0.07704850,0.01898877,0.078190
 14,0.00099051,-0.00033751,-0.00054912,0.00093510,-0.00042528,0.0000547
 7,-0.26675306,0.03558010,0.08434909,-0.01492137,0.00115680,0.00713791,
 0.00121309,0.00013968,-0.00136604,0.00074729,-0.00248364,-0.00472973,-
 0.01014336,0.00278798,0.00392479,0.00110918,0.00058767,-0.00000029,-0.
 00080566,-0.00072993,-0.00093961,0.00029599,0.00005620,-0.00007773,0.0
 0023100,0.00051633,0.00018537,-0.00014391,0.00005778,0.00006634,0.0005
 7352,0.00009251,0.00050690,0.00109180,-0.00058925,-0.00020752,0.286641
 53,0.00149863,0.00094169,0.00030473,0.01540462,-0.00373910,-0.00763352
 ,0.03549392,-0.04974042,-0.00926218,0.01338478,-0.00354409,-0.01098730
 ,-0.00168147,-0.00003431,0.00331488,-0.00014227,-0.00056962,-0.0004948
 9,-0.02404274,0.00574557,0.01052507,0.00147592,0.00326864,0.00027632,-
 0.00410867,-0.00408890,0.00074964,-0.00014663,0.00021990,0.00017196,-0
 .00072616,-0.00008240,-0.00000302,0.00006931,-0.00004594,0.00005410,-0
 .00063372,0.00070270,0.00040177,-0.00057063,-0.00112198,-0.00329387,-0
 .03544478,0.05164414,0.00053990,0.00174116,0.00144378,0.02890429,-0.00
 821657,-0.01211400,0.07478186,-0.00652550,-0.06675673,-0.01969164,0.00
 360811,0.01123047,0.00190544,-0.00023764,-0.00211681,0.00260203,-0.003
 40520,-0.00572711,0.00166179,-0.00248175,-0.00226718,0.00019539,-0.000
 31640,0.00013394,0.00049290,0.00177115,0.00000917,-0.00009776,0.000471
 14,0.00006859,-0.00080229,-0.00041254,0.00022530,-0.00008804,-0.000180
 88,0.00009086,-0.00004573,0.00111025,0.00148102,-0.00075679,-0.0032175
 1,-0.00472632,-0.08846815,0.01648413,0.07854329,0.00010090,-0.00011926
 ,-0.00025760,-0.00113771,0.00053307,0.00035178,0.00021548,-0.00317264,
 -0.00374248,-0.01129216,0.00262284,0.00056059,0.00143391,-0.00023470,0
 .00003135,-0.29639354,0.02809684,0.06403674,-0.01193707,0.00132115,0.0
 0463985,-0.00149169,-0.00110553,0.00025139,0.00288840,-0.00062589,0.00
 022180,-0.00005694,-0.00009284,0.00000470,0.00001517,0.00002328,0.0000
 0773,-0.00001853,0.00000547,0.00001614,0.00005004,-0.00017276,-0.00022
 835,0.00008596,-0.00008512,-0.00010630,-0.00022378,0.00004065,0.000378
 78,0.31893743,0.00006072,-0.00000887,0.00018882,-0.00122117,0.00185162
 ,-0.00110876,0.00165263,-0.00491348,-0.00489783,-0.02686701,0.01126162
 ,0.00902101,0.00357712,-0.00212706,-0.00137858,0.01997292,-0.04415065,
 0.00065674,0.01410683,-0.00410895,-0.00615689,0.00274551,0.00078866,0.
 00087617,-0.00321196,0.00168854,-0.00122230,-0.00001703,0.00001602,-0.
 00002504,-0.00001464,-0.00000098,-0.00001187,0.,0.00005239,0.00002562,
 -0.00004976,-0.00041653,-0.00066466,-0.00002471,-0.00000799,0.00002180
 ,0.00030910,-0.00037593,0.00085842,-0.02706400,0.04121164,0.00008848,-
 0.00009854,-0.00041043,-0.00104483,-0.00067476,0.00038888,0.00077649,-
 0.00143751,-0.00360070,-0.00015948,-0.00340668,-0.00392475,-0.00034829
 ,0.00140388,0.00115011,0.06103406,-0.00245592,-0.05559787,-0.02292733,
 0.00283055,0.00670107,-0.00295904,-0.00060984,-0.00062727,0.00358514,-
 0.00180907,0.00312389,-0.00007079,-0.00012583,0.00001806,-0.00000101,0
 .00001964,-0.00000285,-0.00000338,-0.00001461,0.00000417,-0.00002144,0
 .00002788,-0.00000355,-0.00001061,-0.00003925,-0.00002084,0.00004763,0
 .00030147,0.00027638,-0.06560354,0.00741021,0.05851138,0.00003578,0.00
 001544,0.00001718,0.00021202,-0.00041890,0.00008547,-0.00671093,0.0014
 4758,0.00235911,0.00051656,-0.00497135,-0.01279345,0.00033640,0.000471
 34,0.00093293,-0.03910835,0.01097895,0.01765727,0.00100863,-0.00884045
 ,-0.01155265,0.00150641,-0.00041933,0.00142347,-0.00050614,-0.00012909
 ,-0.00187732,0.00004164,-0.00002093,-0.00002207,0.00005282,0.00003199,
 -0.00000140,-0.00000675,-0.00001345,0.00001064,0.00010188,0.00013141,0
 .00016174,0.00008150,-0.00007439,-0.00013164,-0.00105277,-0.00051917,-
 0.00121536,-0.00141966,0.01631529,0.02722286,0.04483569,-0.00000404,0.
 00007382,-0.00000103,0.00022944,-0.00049988,0.00034290,-0.00411305,0.0
 0027464,0.00232738,0.00982401,-0.00877628,-0.02585611,-0.00247135,-0.0
 0017188,0.00392286,0.01629475,-0.10921138,-0.11650910,-0.00530300,0.00
 883273,0.01244385,-0.00147224,0.00125517,-0.00119531,0.00165424,-0.001
 48239,0.00400265,0.00001023,0.00001325,-0.00000976,0.00000288,0.000002
 11,0.00000552,0.00001773,0.00004488,0.00002548,0.00001882,0.00007957,0
 .00003147,0.00009343,-0.00009670,0.00000336,-0.00062174,0.00127648,-0.
 00134107,-0.00019681,-0.00006897,-0.00198757,-0.01410286,0.10877633,0.
 00002659,-0.00000084,-0.00003282,-0.00028238,-0.00008599,-0.00030910,-
 0.00122076,-0.00016003,-0.00052056,-0.00406680,0.00129981,0.00353594,0
 .00095827,0.00020946,-0.00097293,0.02293195,-0.11082685,-0.24694058,0.
 00569351,-0.01105820,-0.01367553,0.00124828,-0.00053302,0.00159683,-0.
 00243088,0.00089685,-0.00256554,0.00001068,-0.00005391,-0.00001346,0.0
 0001088,0.00000556,0.00000357,-0.00000801,-0.00003714,0.00000182,0.000
 03872,0.00003344,0.00003728,-0.00000763,0.00006542,0.00000337,-0.00029
 793,-0.00089025,0.00020071,-0.00019615,-0.00400646,-0.00553748,-0.0222
 6191,0.12417619,0.26519173,0.00004110,-0.00004155,-0.00001011,0.000003
 32,0.00023411,-0.00000179,0.00078097,-0.00022825,0.00016502,-0.0004290
 8,-0.00027375,-0.00023880,0.00017136,0.00000868,0.00018541,0.00092795,
 0.00025895,0.00006380,-0.00507575,0.00301681,0.00114477,-0.11032456,-0
 .09980168,-0.06505269,0.01146891,0.02375004,0.01168048,-0.00000479,-0.
 00000380,-0.00000420,0.00002601,0.00003676,-0.00001149,0.00000641,0.00
 000168,-0.00000042,-0.00008063,0.00002521,0.00005413,0.00008914,-0.000
 14247,-0.00002866,0.00021071,0.00019690,-0.00013934,-0.00001193,0.0000
 0464,0.00014220,0.00013678,-0.00008508,-0.00002607,0.10932569,0.000022
 58,0.00001962,-0.00029998,-0.00029659,-0.00070112,0.00060971,0.0020976
 8,-0.00000920,-0.00103984,-0.00115482,-0.00023411,-0.00067738,0.000422
 43,0.00000906,0.00034818,-0.00013284,0.00187364,0.00017672,-0.00839163
 ,-0.01528467,-0.01488412,-0.09462329,-0.20540716,-0.09716657,0.0054262
 2,-0.01152489,-0.00320624,-0.00007141,-0.00011056,-0.00001320,-0.00003
 955,-0.00003070,0.00001549,0.00000408,-0.00000337,0.00001481,0.0000322
 6,0.00004941,0.00001798,-0.00001498,0.00011389,0.00003687,-0.00008574,
 -0.00009452,0.00009235,0.00007901,-0.00000622,-0.00003156,0.00024919,-
 0.00033462,0.00075784,0.09330102,0.22571137,-0.00001375,0.00010092,0.0
 0037193,0.00029092,0.00064668,-0.00070485,-0.00286541,0.00157488,0.001
 25778,0.00104699,0.00028986,0.00057904,-0.00042960,-0.00004545,-0.0003
 0787,0.00036620,-0.00130156,0.00011509,0.01417109,0.01398272,0.0073852
 1,-0.06443764,-0.09187992,-0.10105452,-0.00440511,-0.02405159,-0.01006
 603,0.00007231,0.00009235,-0.00000368,-0.00001059,-0.00001944,-0.00000
 439,-0.00002539,-0.00005264,-0.00000035,0.00012459,-0.00000769,0.00010
 494,-0.00009225,0.00008494,0.00004040,0.00000664,-0.00029595,0.0000598
 9,-0.00004608,-0.00011323,0.00004625,-0.00010264,-0.00018234,-0.000276
 98,0.06269554,0.11073688,0.10525804,-0.00000926,-0.00002712,0.00006391
 ,0.00007213,0.00020706,-0.00012654,0.00008145,0.00016899,0.00016415,0.
 00012090,-0.00004157,0.00010108,-0.00007444,0.00003349,-0.00007587,0.0
 0090259,-0.00120086,-0.00072569,0.00174335,-0.00010739,0.00717443,-0.2
 5624701,0.03299872,-0.11322379,-0.01740435,0.01415465,-0.00308605,0.00
 001326,0.00003298,0.00000713,0.00001962,0.00001741,-0.00001128,-0.0000
 0158,-0.00000979,-0.00000355,-0.00007471,0.00003331,0.00006081,0.00004
 456,-0.00011566,-0.00000297,0.00000419,0.00045150,-0.00015728,0.000255
 71,-0.00027447,0.00025288,-0.00006152,0.00022464,-0.00012033,-0.007261
 59,0.00317637,-0.00634582,0.27787670,-0.00007535,0.00002574,-0.0000965
 6,0.00010521,0.00003559,0.00021159,-0.00063356,0.00159309,0.00009545,0
 .00077795,0.00082649,0.00052992,-0.00032169,-0.00036012,-0.00016695,0.
 00134303,-0.00111150,-0.00194600,0.02349197,-0.00352144,0.00761712,0.0
 3479441,-0.05745235,0.01495907,0.01112282,-0.00762617,0.00259300,-0.00
 000845,-0.00001024,-0.00000407,-0.00001706,-0.00002424,0.00001414,0.00
 002344,0.00006246,0.00000553,-0.00002223,0.00000665,-0.00028991,-0.000
 04970,0.00012456,0.00000801,-0.00056628,-0.00036190,0.00019833,0.00014
 724,-0.00068485,0.00069750,-0.00013128,0.00001311,0.00020811,-0.020258
 21,0.00596415,-0.00955943,-0.04972227,0.06250098,-0.00008714,0.0000282
 4,-0.00003311,0.00024618,0.00011453,0.00022828,0.00084791,-0.00081327,
 0.00092955,-0.00113425,-0.00079955,-0.00075244,0.00047416,0.00044894,0
 .00018705,-0.00066443,0.00192523,0.00218667,-0.01380629,-0.00310999,-0
 .01109125,-0.11834735,0.01970108,-0.10284423,0.02694596,-0.00765576,0.
 01473210,0.00000887,0.00000217,-0.00000301,0.00001488,-0.00000516,0.00
 000486,0.00001119,0.00000797,-0.00000413,-0.00007296,0.00009129,-0.000
 01379,0.00000217,0.00002272,-0.00002695,0.00035667,0.00027690,-0.00005
 524,-0.00032036,0.00052685,-0.00049446,0.00008777,-0.00019937,0.000273
 73,-0.01061778,0.00451204,-0.00279991,0.11605478,-0.01507485,0.0995762
 7\\0.00000061,-0.00000863,0.00000860,0.00000231,0.00000922,-0.00001554
 ,0.00001564,-0.00003055,-0.00005608,-0.00008580,0.00009660,0.00012656,
 0.00004260,-0.00004425,-0.00003766,0.00003369,-0.00003730,-0.00006161,
 -0.00000529,0.00000066,0.00001868,-0.00000580,-0.00001256,0.00000691,-
 0.00001070,0.00002323,-0.00000179,0.00000192,0.00000756,-0.00000031,0.
 00000391,-0.00000175,0.00000413,0.00000243,-0.00000176,0.00000079,-0.0
 0001398,-0.00000033,0.00000135,-0.00000174,0.00000562,-0.00000395,0.00
 001142,-0.00000757,0.00001954,0.00000590,0.00001947,-0.00001058,0.0000
 0167,-0.00001629,0.00000586,0.00000244,0.00000017,-0.00000507,-0.00000
 121,-0.00000154,0.00000015\\\@


 THE VALUE OF PHILOSOPHY IS, IN FACT, TO BE SOUGHT LARGELY IN ITS
 VERY UNCERTAINTY.  THE MAN WHO HAS NO TINCTURE OF PHILOSOPHY GOES
 THROUGH LIFE IMPRISONED IN THE PREJUDICES DERIVED FROM COMMON SENSE,
 FROM THE HABITUAL BELIEFS OF HIS AGE OR HIS NATION, AND FROM
 CONVICTIONS WHICH HAVE GROWN UP IN HIS MIND WITHOUT THE CO-OPERATION
 OR CONSENT OF HIS DELIBERATE REASON.  TO SUCH A MAN THE WORLD TENDS
 TO BE DEFINITE, FINITE, OBVIOUS; COMMON OBJECTS ROUSE NO QUESTIONS,
 AND UNFAMILIAR POSSIBILITIES ARE CONTEMPTUOUSLY REJECTED.

                             -- BERTRAND RUSSELL
 Job cpu time:       0 days  0 hours 40 minutes 17.3 seconds.
 File lengths (MBytes):  RWF=    152 Int=      0 D2E=      0 Chk=      8 Scr=      1
 Normal termination of Gaussian 09 at Tue Jan 28 13:28:48 2020.
