 Entering Gaussian System, Link 0=/home/puck/opt/gaussian_09/g09
 Input=dsC7O2H10nsd_4354.com
 Output=dsC7O2H10nsd_4354.log
 Initial command:
 /home/puck/opt/gaussian_09/l1.exe "/scratch/puck/g09_acbf649e-7d08-4881-9c2b-81d2ee0554b4/Gau-116358.inp" -scrdir="/scratch/puck/g09_acbf649e-7d08-4881-9c2b-81d2ee0554b4/"
 Entering Link 1 = /home/puck/opt/gaussian_09/l1.exe PID=    116363.
  
 Copyright (c) 1988,1990,1992,1993,1995,1998,2003,2009,2013,
            Gaussian, Inc.  All Rights Reserved.
  
 This is part of the Gaussian(R) 09 program.  It is based on
 the Gaussian(R) 03 system (copyright 2003, Gaussian, Inc.),
 the Gaussian(R) 98 system (copyright 1998, Gaussian, Inc.),
 the Gaussian(R) 94 system (copyright 1995, Gaussian, Inc.),
 the Gaussian 92(TM) system (copyright 1992, Gaussian, Inc.),
 the Gaussian 90(TM) system (copyright 1990, Gaussian, Inc.),
 the Gaussian 88(TM) system (copyright 1988, Gaussian, Inc.),
 the Gaussian 86(TM) system (copyright 1986, Carnegie Mellon
 University), and the Gaussian 82(TM) system (copyright 1983,
 Carnegie Mellon University). Gaussian is a federally registered
 trademark of Gaussian, Inc.
  
 This software contains proprietary and confidential information,
 including trade secrets, belonging to Gaussian, Inc.
  
 This software is provided under written license and may be
 used, copied, transmitted, or stored only in accord with that
 written license.
  
 The following legend is applicable only to US Government
 contracts under FAR:
  
                    RESTRICTED RIGHTS LEGEND
  
 Use, reproduction and disclosure by the US Government is
 subject to restrictions as set forth in subparagraphs (a)
 and (c) of the Commercial Computer Software - Restricted
 Rights clause in FAR 52.227-19.
  
 Gaussian, Inc.
 340 Quinnipiac St., Bldg. 40, Wallingford CT 06492
  
  
 ---------------------------------------------------------------
 Warning -- This program may not be used in any manner that
 competes with the business of Gaussian, Inc. or will provide
 assistance to any competitor of Gaussian, Inc.  The licensee
 of this program is prohibited from giving any competitor of
 Gaussian, Inc. access to this program.  By using this program,
 the user acknowledges that Gaussian, Inc. is engaged in the
 business of creating and licensing software in the field of
 computational chemistry and represents and warrants to the
 licensee that it is not a competitor of Gaussian, Inc. and that
 it will not use this program in any manner prohibited above.
 ---------------------------------------------------------------
  

 Cite this work as:
 Gaussian 09, Revision D.01,
 M. J. Frisch, G. W. Trucks, H. B. Schlegel, G. E. Scuseria, 
 M. A. Robb, J. R. Cheeseman, G. Scalmani, V. Barone, B. Mennucci, 
 G. A. Petersson, H. Nakatsuji, M. Caricato, X. Li, H. P. Hratchian, 
 A. F. Izmaylov, J. Bloino, G. Zheng, J. L. Sonnenberg, M. Hada, 
 M. Ehara, K. Toyota, R. Fukuda, J. Hasegawa, M. Ishida, T. Nakajima, 
 Y. Honda, O. Kitao, H. Nakai, T. Vreven, J. A. Montgomery, Jr., 
 J. E. Peralta, F. Ogliaro, M. Bearpark, J. J. Heyd, E. Brothers, 
 K. N. Kudin, V. N. Staroverov, T. Keith, R. Kobayashi, J. Normand, 
 K. Raghavachari, A. Rendell, J. C. Burant, S. S. Iyengar, J. Tomasi, 
 M. Cossi, N. Rega, J. M. Millam, M. Klene, J. E. Knox, J. B. Cross, 
 V. Bakken, C. Adamo, J. Jaramillo, R. Gomperts, R. E. Stratmann, 
 O. Yazyev, A. J. Austin, R. Cammi, C. Pomelli, J. W. Ochterski, 
 R. L. Martin, K. Morokuma, V. G. Zakrzewski, G. A. Voth, 
 P. Salvador, J. J. Dannenberg, S. Dapprich, A. D. Daniels, 
 O. Farkas, J. B. Foresman, J. V. Ortiz, J. Cioslowski, 
 and D. J. Fox, Gaussian, Inc., Wallingford CT, 2013.
 
 ******************************************
 Gaussian 09:  ES64L-G09RevD.01 24-Apr-2013
                28-Jan-2020 
 ******************************************
 -----------------------------
 # b3lyp 6-31G(2df,p) opt Freq
 -----------------------------
 1/14=-1,18=20,19=15,26=3,38=1/1,3;
 2/9=110,12=2,17=6,18=5,40=1/2;
 3/5=1,6=6,7=104,11=2,16=1,25=1,30=1,71=1,74=-5/1,2,3;
 4//1;
 5/5=2,38=5/2;
 6/7=2,8=2,9=2,10=2,28=1/1;
 7//1,2,3,16;
 1/14=-1,18=20,19=15,26=3/3(2);
 2/9=110/2;
 99//99;
 2/9=110/2;
 3/5=1,6=6,7=104,11=2,16=1,25=1,30=1,71=1,74=-5/1,2,3;
 4/5=5,16=3,69=1/1;
 5/5=2,38=5/2;
 7//1,2,3,16;
 1/14=-1,18=20,19=15,26=3/3(-5);
 2/9=110/2;
 6/7=2,8=2,9=2,10=2,19=2,28=1/1;
 99/9=1/99;
 -----
 titel
 -----
 Symbolic Z-matrix:
 Charge =  0 Multiplicity = 1
 C                    -3.43532  -1.56543   0.64732 
 C                    -2.10622  -0.84237   0.85143 
 C                    -2.1875    0.69722   0.72464 
 C                    -0.73714   1.14851   0.50539 
 C                    -0.09429   0.0097   -0.28371 
 O                     0.93314   0.04669  -0.90767 
 C                    -1.00792  -1.23326  -0.14843 
 C                    -0.2005   -2.4699    0.18989 
 O                    -0.43831  -3.19466   1.12207 
 H                    -4.18208  -1.22365   1.37151 
 H                    -3.83593  -1.37962  -0.35657 
 H                    -3.31359  -2.64477   0.77349 
 H                    -1.72999  -1.09014   1.85212 
 H                    -2.79738   0.96325  -0.14811 
 H                    -2.65439   1.15926   1.59817 
 H                    -0.60886   2.10223  -0.01118 
 H                    -0.19887   1.22269   1.46043 
 H                    -1.41834  -1.39778  -1.1582 
 H                     0.65589  -2.65397  -0.49126 
 

 GradGradGradGradGradGradGradGradGradGradGradGradGradGradGradGradGradGrad
 Berny optimization.
 Initialization pass.
                           ----------------------------
                           !    Initial Parameters    !
                           ! (Angstroms and Degrees)  !
 --------------------------                            --------------------------
 ! Name  Definition              Value          Derivative Info.                !
 --------------------------------------------------------------------------------
 ! R1    R(1,2)                  1.5268         estimate D2E/DX2                !
 ! R2    R(1,10)                 1.095          estimate D2E/DX2                !
 ! R3    R(1,11)                 1.0967         estimate D2E/DX2                !
 ! R4    R(1,12)                 1.0935         estimate D2E/DX2                !
 ! R5    R(2,3)                  1.5469         estimate D2E/DX2                !
 ! R6    R(2,7)                  1.5358         estimate D2E/DX2                !
 ! R7    R(2,13)                 1.0974         estimate D2E/DX2                !
 ! R8    R(3,4)                  1.5347         estimate D2E/DX2                !
 ! R9    R(3,14)                 1.0974         estimate D2E/DX2                !
 ! R10   R(3,15)                 1.0929         estimate D2E/DX2                !
 ! R11   R(4,5)                  1.5274         estimate D2E/DX2                !
 ! R12   R(4,16)                 1.0922         estimate D2E/DX2                !
 ! R13   R(4,17)                 1.0988         estimate D2E/DX2                !
 ! R14   R(5,6)                  1.2026         estimate D2E/DX2                !
 ! R15   R(5,7)                  1.5485         estimate D2E/DX2                !
 ! R16   R(7,8)                  1.5151         estimate D2E/DX2                !
 ! R17   R(7,18)                 1.1023         estimate D2E/DX2                !
 ! R18   R(8,9)                  1.2045         estimate D2E/DX2                !
 ! R19   R(8,19)                 1.1096         estimate D2E/DX2                !
 ! A1    A(2,1,10)             110.9443         estimate D2E/DX2                !
 ! A2    A(2,1,11)             111.1078         estimate D2E/DX2                !
 ! A3    A(2,1,12)             110.8015         estimate D2E/DX2                !
 ! A4    A(10,1,11)            107.6625         estimate D2E/DX2                !
 ! A5    A(10,1,12)            107.9208         estimate D2E/DX2                !
 ! A6    A(11,1,12)            108.2711         estimate D2E/DX2                !
 ! A7    A(1,2,3)              114.4969         estimate D2E/DX2                !
 ! A8    A(1,2,7)              114.5171         estimate D2E/DX2                !
 ! A9    A(1,2,13)             108.2661         estimate D2E/DX2                !
 ! A10   A(3,2,7)              103.7403         estimate D2E/DX2                !
 ! A11   A(3,2,13)             108.5095         estimate D2E/DX2                !
 ! A12   A(7,2,13)             106.9181         estimate D2E/DX2                !
 ! A13   A(2,3,4)              104.7566         estimate D2E/DX2                !
 ! A14   A(2,3,14)             109.611          estimate D2E/DX2                !
 ! A15   A(2,3,15)             112.1895         estimate D2E/DX2                !
 ! A16   A(4,3,14)             109.8948         estimate D2E/DX2                !
 ! A17   A(4,3,15)             113.1777         estimate D2E/DX2                !
 ! A18   A(14,3,15)            107.2013         estimate D2E/DX2                !
 ! A19   A(3,4,5)              104.615          estimate D2E/DX2                !
 ! A20   A(3,4,16)             115.8071         estimate D2E/DX2                !
 ! A21   A(3,4,17)             111.0166         estimate D2E/DX2                !
 ! A22   A(5,4,16)             110.9339         estimate D2E/DX2                !
 ! A23   A(5,4,17)             107.0498         estimate D2E/DX2                !
 ! A24   A(16,4,17)            107.1335         estimate D2E/DX2                !
 ! A25   A(4,5,6)              127.207          estimate D2E/DX2                !
 ! A26   A(4,5,7)              107.7592         estimate D2E/DX2                !
 ! A27   A(6,5,7)              125.0337         estimate D2E/DX2                !
 ! A28   A(2,7,5)              105.932          estimate D2E/DX2                !
 ! A29   A(2,7,8)              116.3243         estimate D2E/DX2                !
 ! A30   A(2,7,18)             111.5975         estimate D2E/DX2                !
 ! A31   A(5,7,8)              111.1142         estimate D2E/DX2                !
 ! A32   A(5,7,18)             105.0366         estimate D2E/DX2                !
 ! A33   A(8,7,18)             106.328          estimate D2E/DX2                !
 ! A34   A(7,8,9)              123.9666         estimate D2E/DX2                !
 ! A35   A(7,8,19)             114.1804         estimate D2E/DX2                !
 ! A36   A(9,8,19)             121.8462         estimate D2E/DX2                !
 ! D1    D(10,1,2,3)           -58.7806         estimate D2E/DX2                !
 ! D2    D(10,1,2,7)          -178.4309         estimate D2E/DX2                !
 ! D3    D(10,1,2,13)           62.4025         estimate D2E/DX2                !
 ! D4    D(11,1,2,3)            60.9545         estimate D2E/DX2                !
 ! D5    D(11,1,2,7)           -58.6958         estimate D2E/DX2                !
 ! D6    D(11,1,2,13)         -177.8625         estimate D2E/DX2                !
 ! D7    D(12,1,2,3)          -178.6383         estimate D2E/DX2                !
 ! D8    D(12,1,2,7)            61.7114         estimate D2E/DX2                !
 ! D9    D(12,1,2,13)          -57.4552         estimate D2E/DX2                !
 ! D10   D(1,2,3,4)           -162.074          estimate D2E/DX2                !
 ! D11   D(1,2,3,14)           -44.207          estimate D2E/DX2                !
 ! D12   D(1,2,3,15)            74.7647         estimate D2E/DX2                !
 ! D13   D(7,2,3,4)            -36.5625         estimate D2E/DX2                !
 ! D14   D(7,2,3,14)            81.3045         estimate D2E/DX2                !
 ! D15   D(7,2,3,15)          -159.7238         estimate D2E/DX2                !
 ! D16   D(13,2,3,4)            76.8769         estimate D2E/DX2                !
 ! D17   D(13,2,3,14)         -165.256          estimate D2E/DX2                !
 ! D18   D(13,2,3,15)          -46.2844         estimate D2E/DX2                !
 ! D19   D(1,2,7,5)            151.4035         estimate D2E/DX2                !
 ! D20   D(1,2,7,8)            -84.5964         estimate D2E/DX2                !
 ! D21   D(1,2,7,18)            37.6264         estimate D2E/DX2                !
 ! D22   D(3,2,7,5)             25.9048         estimate D2E/DX2                !
 ! D23   D(3,2,7,8)            149.905          estimate D2E/DX2                !
 ! D24   D(3,2,7,18)           -87.8722         estimate D2E/DX2                !
 ! D25   D(13,2,7,5)           -88.6758         estimate D2E/DX2                !
 ! D26   D(13,2,7,8)            35.3244         estimate D2E/DX2                !
 ! D27   D(13,2,7,18)          157.5472         estimate D2E/DX2                !
 ! D28   D(2,3,4,5)             32.8495         estimate D2E/DX2                !
 ! D29   D(2,3,4,16)           155.2775         estimate D2E/DX2                !
 ! D30   D(2,3,4,17)           -82.2875         estimate D2E/DX2                !
 ! D31   D(14,3,4,5)           -84.824          estimate D2E/DX2                !
 ! D32   D(14,3,4,16)           37.604          estimate D2E/DX2                !
 ! D33   D(14,3,4,17)          160.039          estimate D2E/DX2                !
 ! D34   D(15,3,4,5)           155.3709         estimate D2E/DX2                !
 ! D35   D(15,3,4,16)          -82.2011         estimate D2E/DX2                !
 ! D36   D(15,3,4,17)           40.2339         estimate D2E/DX2                !
 ! D37   D(3,4,5,6)            163.2451         estimate D2E/DX2                !
 ! D38   D(3,4,5,7)            -16.6172         estimate D2E/DX2                !
 ! D39   D(16,4,5,6)            37.6928         estimate D2E/DX2                !
 ! D40   D(16,4,5,7)          -142.1695         estimate D2E/DX2                !
 ! D41   D(17,4,5,6)           -78.8737         estimate D2E/DX2                !
 ! D42   D(17,4,5,7)           101.264          estimate D2E/DX2                !
 ! D43   D(4,5,7,2)             -5.9522         estimate D2E/DX2                !
 ! D44   D(4,5,7,8)           -133.1513         estimate D2E/DX2                !
 ! D45   D(4,5,7,18)           112.2798         estimate D2E/DX2                !
 ! D46   D(6,5,7,2)            174.1817         estimate D2E/DX2                !
 ! D47   D(6,5,7,8)             46.9826         estimate D2E/DX2                !
 ! D48   D(6,5,7,18)           -67.5862         estimate D2E/DX2                !
 ! D49   D(2,7,8,9)              5.73           estimate D2E/DX2                !
 ! D50   D(2,7,8,19)          -173.3362         estimate D2E/DX2                !
 ! D51   D(5,7,8,9)            127.0185         estimate D2E/DX2                !
 ! D52   D(5,7,8,19)           -52.0476         estimate D2E/DX2                !
 ! D53   D(18,7,8,9)          -119.2207         estimate D2E/DX2                !
 ! D54   D(18,7,8,19)           61.7131         estimate D2E/DX2                !
 --------------------------------------------------------------------------------
 Trust Radius=3.00D-01 FncErr=1.00D-07 GrdErr=1.00D-06
 Number of steps in this run=    114 maximum allowed number of steps=    114.
 GradGradGradGradGradGradGradGradGradGradGradGradGradGradGradGradGradGrad

                          Input orientation:                          
 ---------------------------------------------------------------------
 Center     Atomic      Atomic             Coordinates (Angstroms)
 Number     Number       Type             X           Y           Z
 ---------------------------------------------------------------------
      1          6           0       -3.435321   -1.565428    0.647316
      2          6           0       -2.106220   -0.842368    0.851429
      3          6           0       -2.187500    0.697224    0.724636
      4          6           0       -0.737143    1.148509    0.505387
      5          6           0       -0.094292    0.009702   -0.283713
      6          8           0        0.933141    0.046688   -0.907667
      7          6           0       -1.007918   -1.233263   -0.148428
      8          6           0       -0.200501   -2.469900    0.189891
      9          8           0       -0.438312   -3.194662    1.122074
     10          1           0       -4.182081   -1.223652    1.371515
     11          1           0       -3.835925   -1.379622   -0.356567
     12          1           0       -3.313594   -2.644769    0.773493
     13          1           0       -1.729987   -1.090143    1.852117
     14          1           0       -2.797376    0.963250   -0.148105
     15          1           0       -2.654386    1.159256    1.598167
     16          1           0       -0.608862    2.102233   -0.011178
     17          1           0       -0.198868    1.222687    1.460430
     18          1           0       -1.418342   -1.397785   -1.158202
     19          1           0        0.655890   -2.653970   -0.491257
 ---------------------------------------------------------------------
                    Distance matrix (angstroms):
                    1          2          3          4          5
     1  C    0.000000
     2  C    1.526757   0.000000
     3  C    2.585078   1.546941   0.000000
     4  C    3.829590   2.440842   1.534687   0.000000
     5  C    3.809242   2.462200   2.423010   1.527356   0.000000
     6  O    4.909211   3.622508   3.581342   2.449608   1.202624
     7  C    2.576010   1.535832   2.424961   2.484679   1.548540
     8  C    3.389891   2.591960   3.776876   3.671567   2.526659
     9  O    3.444105   2.896283   4.285370   4.396901   3.516040
    10  H    1.094955   2.173721   2.843690   4.271407   4.579406
    11  H    1.096718   2.177103   2.863493   4.091071   3.991910
    12  H    1.093487   2.170823   3.526952   4.593357   4.304394
    13  H    2.141402   1.097415   2.162224   2.794813   2.906359
    14  H    2.726515   2.176470   1.097450   2.169317   2.869549
    15  H    2.989629   2.205584   1.092938   2.206831   3.378910
    16  H    4.676989   3.414213   2.237760   1.092193   2.172037
    17  H    4.348490   2.876339   2.184528   1.098795   2.127041
    18  H    2.712232   2.195514   2.919888   3.116917   2.121051
    19  H    4.383979   3.565664   4.560018   4.170454   2.775067
                    6          7          8          9         10
     6  O    0.000000
     7  C    2.445901   0.000000
     8  C    2.970353   1.515141   0.000000
     9  O    4.062891   2.405351   1.204492   0.000000
    10  H    5.742294   3.519322   4.336167   4.238267   0.000000
    11  H    5.008200   2.839430   3.834531   4.126079   1.769298
    12  H    5.301415   2.856296   3.172147   2.948073   1.769597
    13  H    4.000130   2.131677   2.646894   2.574954   2.502313
    14  H    3.915837   2.833166   4.317930   4.946390   3.001532
    15  H    4.515237   3.389041   4.601692   4.908590   2.839626
    16  H    2.721531   3.362085   4.594735   5.419451   5.073583
    17  H    2.876161   3.045435   3.905057   4.436755   4.675304
    18  H    2.771054   1.102342   2.109483   3.064128   3.750739
    19  H    2.746602   2.214542   1.109617   2.022983   5.377889
                   11         12         13         14         15
    11  H    0.000000
    12  H    1.774954   0.000000
    13  H    3.065462   2.467408   0.000000
    14  H    2.571203   3.759471   3.058861   0.000000
    15  H    3.415102   3.947816   2.445159   1.763046   0.000000
    16  H    4.759889   5.519539   3.862649   2.470956   2.768279
    17  H    4.827181   5.013044   2.801236   3.067074   2.460196
    18  H    2.547088   2.979664   3.042003   2.914878   3.957756
    19  H    4.671028   4.166110   3.691796   5.012692   5.464825
                   16         17         18         19
    16  H    0.000000
    17  H    1.762762   0.000000
    18  H    3.771080   3.900157   0.000000
    19  H    4.944850   4.423591   2.515006   0.000000
 Stoichiometry    C7H10O2
 Framework group  C1[X(C7H10O2)]
 Deg. of freedom    51
 Full point group                 C1      NOp   1
 Largest Abelian subgroup         C1      NOp   1
 Largest concise Abelian subgroup C1      NOp   1
                         Standard orientation:                         
 ---------------------------------------------------------------------
 Center     Atomic      Atomic             Coordinates (Angstroms)
 Number     Number       Type             X           Y           Z
 ---------------------------------------------------------------------
      1          6           0       -1.976775    1.402501   -0.500599
      2          6           0       -0.728609    0.856977    0.188946
      3          6           0        0.466267    1.838879    0.223108
      4          6           0        1.687653    0.958123    0.519330
      5          6           0        1.374971   -0.374748   -0.157799
      6          8           0        2.150068   -1.255222   -0.422932
      7          6           0       -0.143743   -0.406933   -0.458544
      8          6           0       -0.756717   -1.725367   -0.032341
      9          8           0       -1.716822   -1.819201    0.688904
     10          1           0       -2.327384    2.316271   -0.009658
     11          1           0       -1.773526    1.645827   -1.550490
     12          1           0       -2.788854    0.670888   -0.469257
     13          1           0       -0.993010    0.593952    1.221046
     14          1           0        0.579169    2.315951   -0.758753
     15          1           0        0.323706    2.637169    0.955857
     16          1           0        2.649729    1.350579    0.182767
     17          1           0        1.778086    0.759039    1.596149
     18          1           0       -0.218422   -0.371412   -1.557780
     19          1           0       -0.233755   -2.619465   -0.430271
 ---------------------------------------------------------------------
 Rotational constants (GHZ):      1.9238470      1.6799500      1.0086748
 Standard basis: 6-31G(2df,p) (6D, 7F)
 There are   329 symmetry adapted cartesian basis functions of A   symmetry.
 There are   302 symmetry adapted basis functions of A   symmetry.
   302 basis functions,   466 primitive gaussians,   329 cartesian basis functions
    34 alpha electrons       34 beta electrons
       nuclear repulsion energy       451.4977277019 Hartrees.
 NAtoms=   19 NActive=   19 NUniq=   19 SFac= 1.00D+00 NAtFMM=   60 NAOKFM=F Big=F
 Integral buffers will be    131072 words long.
 Raffenetti 2 integral format.
 Two-electron integral symmetry is turned on.
 One-electron integrals computed using PRISM.
 NBasis=   302 RedAO= T EigKep=  4.73D-04  NBF=   302
 NBsUse=   302 1.00D-06 EigRej= -1.00D+00 NBFU=   302
 ExpMin= 1.61D-01 ExpMax= 5.48D+03 ExpMxC= 8.25D+02 IAcc=1 IRadAn=         1 AccDes= 0.00D+00
 Harris functional with IExCor=  402 and IRadAn=       1 diagonalized for initial guess.
 HarFok:  IExCor=  402 AccDes= 0.00D+00 IRadAn=         1 IDoV= 1 UseB2=F ITyADJ=14
 ICtDFT=  3500011 ScaDFX=  1.000000  1.000000  1.000000  1.000000
 FoFCou: FMM=F IPFlag=           0 FMFlag=      100000 FMFlg1=           0
         NFxFlg=           0 DoJE=T BraDBF=F KetDBF=T FulRan=T
         wScrn=  0.000000 ICntrl=     500 IOpCl=  0 I1Cent=   200000004 NGrid=           0
         NMat0=    1 NMatS0=      1 NMatT0=    0 NMatD0=    1 NMtDS0=    0 NMtDT0=    0
 Petite list used in FoFCou.
 Requested convergence on RMS density matrix=1.00D-08 within 128 cycles.
 Requested convergence on MAX density matrix=1.00D-06.
 Requested convergence on             energy=1.00D-06.
 No special actions if energy rises.
 Integral accuracy reduced to 1.0D-05 until final iterations.
 Initial convergence to 1.0D-05 achieved.  Increase integral accuracy.
 SCF Done:  E(RB3LYP) =  -423.236169073     A.U. after   14 cycles
            NFock= 14  Conv=0.60D-08     -V/T= 2.0075

 **********************************************************************

            Population analysis using the SCF density.

 **********************************************************************

 Orbital symmetries:
       Occupied  (A) (A) (A) (A) (A) (A) (A) (A) (A) (A) (A) (A)
                 (A) (A) (A) (A) (A) (A) (A) (A) (A) (A) (A) (A)
                 (A) (A) (A) (A) (A) (A) (A) (A) (A) (A)
       Virtual   (A) (A) (A) (A) (A) (A) (A) (A) (A) (A) (A) (A)
                 (A) (A) (A) (A) (A) (A) (A) (A) (A) (A) (A) (A)
                 (A) (A) (A) (A) (A) (A) (A) (A) (A) (A) (A) (A)
                 (A) (A) (A) (A) (A) (A) (A) (A) (A) (A) (A) (A)
                 (A) (A) (A) (A) (A) (A) (A) (A) (A) (A) (A) (A)
                 (A) (A) (A) (A) (A) (A) (A) (A) (A) (A) (A) (A)
                 (A) (A) (A) (A) (A) (A) (A) (A) (A) (A) (A) (A)
                 (A) (A) (A) (A) (A) (A) (A) (A) (A) (A) (A) (A)
                 (A) (A) (A) (A) (A) (A) (A) (A) (A) (A) (A) (A)
                 (A) (A) (A) (A) (A) (A) (A) (A) (A) (A) (A) (A)
                 (A) (A) (A) (A) (A) (A) (A) (A) (A) (A) (A) (A)
                 (A) (A) (A) (A) (A) (A) (A) (A) (A) (A) (A) (A)
                 (A) (A) (A) (A) (A) (A) (A) (A) (A) (A) (A) (A)
                 (A) (A) (A) (A) (A) (A) (A) (A) (A) (A) (A) (A)
                 (A) (A) (A) (A) (A) (A) (A) (A) (A) (A) (A) (A)
                 (A) (A) (A) (A) (A) (A) (A) (A) (A) (A) (A) (A)
                 (A) (A) (A) (A) (A) (A) (A) (A) (A) (A) (A) (A)
                 (A) (A) (A) (A) (A) (A) (A) (A) (A) (A) (A) (A)
                 (A) (A) (A) (A) (A) (A) (A) (A) (A) (A) (A) (A)
                 (A) (A) (A) (A) (A) (A) (A) (A) (A) (A) (A) (A)
                 (A) (A) (A) (A) (A) (A) (A) (A) (A) (A) (A) (A)
                 (A) (A) (A) (A) (A) (A) (A) (A) (A) (A) (A) (A)
                 (A) (A) (A) (A)
 The electronic state is 1-A.
 Alpha  occ. eigenvalues --  -19.14880 -19.14358 -10.28281 -10.27919 -10.20714
 Alpha  occ. eigenvalues --  -10.20152 -10.20120 -10.19742 -10.18231  -1.05753
 Alpha  occ. eigenvalues --   -1.05286  -0.85663  -0.76027  -0.74110  -0.65824
 Alpha  occ. eigenvalues --   -0.61677  -0.57291  -0.53741  -0.49973  -0.47587
 Alpha  occ. eigenvalues --   -0.47026  -0.44617  -0.43367  -0.42655  -0.42136
 Alpha  occ. eigenvalues --   -0.39625  -0.38957  -0.37311  -0.36649  -0.34881
 Alpha  occ. eigenvalues --   -0.33866  -0.33577  -0.26687  -0.24651
 Alpha virt. eigenvalues --   -0.03502  -0.02007   0.07718   0.10541   0.11117
 Alpha virt. eigenvalues --    0.13103   0.14044   0.14827   0.15797   0.16139
 Alpha virt. eigenvalues --    0.17448   0.18058   0.19242   0.19547   0.22415
 Alpha virt. eigenvalues --    0.23133   0.26492   0.28650   0.29994   0.30925
 Alpha virt. eigenvalues --    0.32462   0.43631   0.44179   0.45967   0.46985
 Alpha virt. eigenvalues --    0.48219   0.50228   0.52215   0.52991   0.54071
 Alpha virt. eigenvalues --    0.54378   0.56762   0.59055   0.59800   0.60417
 Alpha virt. eigenvalues --    0.61851   0.62638   0.64331   0.67814   0.69052
 Alpha virt. eigenvalues --    0.70241   0.70590   0.71627   0.72454   0.73239
 Alpha virt. eigenvalues --    0.74483   0.75177   0.76715   0.77935   0.79396
 Alpha virt. eigenvalues --    0.81583   0.81964   0.82545   0.83877   0.85871
 Alpha virt. eigenvalues --    0.87848   0.88419   0.91700   0.94505   0.95266
 Alpha virt. eigenvalues --    0.96752   0.99075   1.00854   1.02343   1.02715
 Alpha virt. eigenvalues --    1.04249   1.09037   1.12649   1.13240   1.14591
 Alpha virt. eigenvalues --    1.15738   1.19686   1.23815   1.27030   1.28388
 Alpha virt. eigenvalues --    1.30612   1.33415   1.33789   1.36157   1.37981
 Alpha virt. eigenvalues --    1.38037   1.39779   1.42084   1.44731   1.45443
 Alpha virt. eigenvalues --    1.49396   1.52542   1.53235   1.54508   1.56513
 Alpha virt. eigenvalues --    1.58308   1.59974   1.61407   1.63428   1.66684
 Alpha virt. eigenvalues --    1.68265   1.69637   1.71122   1.74894   1.75829
 Alpha virt. eigenvalues --    1.80259   1.81578   1.86391   1.88722   1.89846
 Alpha virt. eigenvalues --    1.92820   1.94056   1.94963   1.96441   2.01113
 Alpha virt. eigenvalues --    2.09951   2.13447   2.15526   2.17636   2.25023
 Alpha virt. eigenvalues --    2.26201   2.29160   2.29282   2.34500   2.38966
 Alpha virt. eigenvalues --    2.40460   2.41586   2.48165   2.51028   2.53757
 Alpha virt. eigenvalues --    2.61108   2.63707   2.65645   2.67467   2.71613
 Alpha virt. eigenvalues --    2.73908   2.76020   2.79011   2.80754   2.83400
 Alpha virt. eigenvalues --    2.84833   2.85655   2.88524   2.90895   2.91400
 Alpha virt. eigenvalues --    2.92824   2.94407   2.96705   2.99649   3.00698
 Alpha virt. eigenvalues --    3.04057   3.05356   3.07055   3.10992   3.12631
 Alpha virt. eigenvalues --    3.13664   3.16558   3.18788   3.21101   3.25468
 Alpha virt. eigenvalues --    3.27214   3.28586   3.30980   3.32686   3.37360
 Alpha virt. eigenvalues --    3.38471   3.40510   3.44031   3.47383   3.49946
 Alpha virt. eigenvalues --    3.55708   3.55873   3.59490   3.63826   3.64419
 Alpha virt. eigenvalues --    3.65638   3.68176   3.71676   3.71972   3.75545
 Alpha virt. eigenvalues --    3.78605   3.85242   3.85805   3.87704   3.92025
 Alpha virt. eigenvalues --    3.93509   3.97854   4.01736   4.03903   4.08694
 Alpha virt. eigenvalues --    4.09387   4.13242   4.15547   4.18071   4.21154
 Alpha virt. eigenvalues --    4.23113   4.26219   4.30229   4.31225   4.35571
 Alpha virt. eigenvalues --    4.36906   4.39784   4.43464   4.46251   4.47589
 Alpha virt. eigenvalues --    4.47771   4.52385   4.52696   4.54721   4.57821
 Alpha virt. eigenvalues --    4.59587   4.60542   4.62650   4.63824   4.64801
 Alpha virt. eigenvalues --    4.67841   4.69376   4.72129   4.72648   4.72945
 Alpha virt. eigenvalues --    4.75947   4.77386   4.79884   4.81264   4.81617
 Alpha virt. eigenvalues --    4.83361   4.85580   4.87294   4.88377   4.93740
 Alpha virt. eigenvalues --    4.97317   4.99144   5.01621   5.04738   5.06482
 Alpha virt. eigenvalues --    5.08283   5.09084   5.09534   5.13813   5.19484
 Alpha virt. eigenvalues --    5.23924   5.26081   5.29506   5.35819   5.37786
 Alpha virt. eigenvalues --    5.44168   5.47320   5.51749   5.52350   5.56756
 Alpha virt. eigenvalues --    5.60265   5.67856   5.69286   5.70792   6.00056
 Alpha virt. eigenvalues --    6.02013   6.09235   6.23247   6.34305   6.39793
 Alpha virt. eigenvalues --    6.53255   6.75545   6.81595   7.07368  10.71266
 Alpha virt. eigenvalues --   11.16063  11.46169  11.85395  12.25030  12.48702
 Alpha virt. eigenvalues --   12.79991  13.03701  13.24018
          Condensed to atoms (all electrons):
               1          2          3          4          5          6
     1  C    5.018533   0.395294  -0.034503   0.001808   0.002569  -0.000048
     2  C    0.395294   4.703087   0.378333  -0.022912  -0.024456   0.002728
     3  C   -0.034503   0.378333   4.973104   0.340694  -0.031049   0.001638
     4  C    0.001808  -0.022912   0.340694   5.200773   0.349203  -0.059279
     5  C    0.002569  -0.024456  -0.031049   0.349203   4.270995   0.799693
     6  O   -0.000048   0.002728   0.001638  -0.059279   0.799693   7.641170
     7  C   -0.020616   0.325875  -0.023241  -0.153245   0.304274  -0.075806
     8  C    0.000853  -0.008222   0.002737   0.001266  -0.005564  -0.003642
     9  O   -0.001605   0.001734   0.000610  -0.000132  -0.000506   0.000049
    10  H    0.371323  -0.021756  -0.002446   0.000163  -0.000080   0.000000
    11  H    0.370615  -0.025815  -0.006960   0.000205   0.000089   0.000000
    12  H    0.370342  -0.018371   0.004280  -0.000206   0.000060  -0.000001
    13  H   -0.042453   0.364218  -0.042448   0.002217  -0.001103   0.000030
    14  H   -0.006420  -0.024529   0.358599  -0.028860  -0.001828   0.000124
    15  H    0.001163  -0.023070   0.365647  -0.019780   0.002422  -0.000048
    16  H   -0.000135   0.002073  -0.021472   0.356313  -0.016161  -0.000567
    17  H    0.000021   0.000292  -0.027663   0.349971  -0.015156  -0.000272
    18  H   -0.009230  -0.039651   0.000496   0.005435  -0.017823  -0.001703
    19  H   -0.000191   0.006570  -0.000103   0.000061   0.000647   0.007997
               7          8          9         10         11         12
     1  C   -0.020616   0.000853  -0.001605   0.371323   0.370615   0.370342
     2  C    0.325875  -0.008222   0.001734  -0.021756  -0.025815  -0.018371
     3  C   -0.023241   0.002737   0.000610  -0.002446  -0.006960   0.004280
     4  C   -0.153245   0.001266  -0.000132   0.000163   0.000205  -0.000206
     5  C    0.304274  -0.005564  -0.000506  -0.000080   0.000089   0.000060
     6  O   -0.075806  -0.003642   0.000049   0.000000   0.000000  -0.000001
     7  C    5.515938   0.246428  -0.076830   0.002678  -0.007424  -0.005107
     8  C    0.246428   4.511486   0.762889   0.000015   0.000133   0.001782
     9  O   -0.076830   0.762889   7.592300   0.000025   0.000017   0.004701
    10  H    0.002678   0.000015   0.000025   0.594965  -0.031959  -0.029679
    11  H   -0.007424   0.000133   0.000017  -0.031959   0.605404  -0.031689
    12  H   -0.005107   0.001782   0.004701  -0.029679  -0.031689   0.570119
    13  H   -0.049786  -0.002105   0.009522  -0.002262   0.005932  -0.002757
    14  H   -0.003187   0.000020  -0.000005  -0.000004   0.005677  -0.000054
    15  H    0.003813  -0.000065   0.000004   0.002158  -0.000270  -0.000123
    16  H    0.006097  -0.000009   0.000000  -0.000002   0.000001   0.000003
    17  H    0.002466  -0.000054   0.000007  -0.000004   0.000006   0.000005
    18  H    0.327799  -0.017106   0.000773  -0.000041   0.005872   0.000003
    19  H   -0.118618   0.365140  -0.050674   0.000005   0.000009   0.000103
              13         14         15         16         17         18
     1  C   -0.042453  -0.006420   0.001163  -0.000135   0.000021  -0.009230
     2  C    0.364218  -0.024529  -0.023070   0.002073   0.000292  -0.039651
     3  C   -0.042448   0.358599   0.365647  -0.021472  -0.027663   0.000496
     4  C    0.002217  -0.028860  -0.019780   0.356313   0.349971   0.005435
     5  C   -0.001103  -0.001828   0.002422  -0.016161  -0.015156  -0.017823
     6  O    0.000030   0.000124  -0.000048  -0.000567  -0.000272  -0.001703
     7  C   -0.049786  -0.003187   0.003813   0.006097   0.002466   0.327799
     8  C   -0.002105   0.000020  -0.000065  -0.000009  -0.000054  -0.017106
     9  O    0.009522  -0.000005   0.000004   0.000000   0.000007   0.000773
    10  H   -0.002262  -0.000004   0.002158  -0.000002  -0.000004  -0.000041
    11  H    0.005932   0.005677  -0.000270   0.000001   0.000006   0.005872
    12  H   -0.002757  -0.000054  -0.000123   0.000003   0.000005   0.000003
    13  H    0.654760   0.006025  -0.006699  -0.000142   0.002628   0.006598
    14  H    0.006025   0.629170  -0.040856  -0.005524   0.005172   0.001997
    15  H   -0.006699  -0.040856   0.612210   0.001993  -0.007035  -0.000124
    16  H   -0.000142  -0.005524   0.001993   0.574982  -0.029458  -0.000337
    17  H    0.002628   0.005172  -0.007035  -0.029458   0.580751   0.000081
    18  H    0.006598   0.001997  -0.000124  -0.000337   0.000081   0.611457
    19  H    0.000716   0.000004   0.000006  -0.000007   0.000020   0.001187
              19
     1  C   -0.000191
     2  C    0.006570
     3  C   -0.000103
     4  C    0.000061
     5  C    0.000647
     6  O    0.007997
     7  C   -0.118618
     8  C    0.365140
     9  O   -0.050674
    10  H    0.000005
    11  H    0.000009
    12  H    0.000103
    13  H    0.000716
    14  H    0.000004
    15  H    0.000006
    16  H   -0.000007
    17  H    0.000020
    18  H    0.001187
    19  H    0.678556
 Mulliken charges:
               1
     1  C   -0.417321
     2  C    0.028579
     3  C   -0.236253
     4  C   -0.323696
     5  C    0.383775
     6  O   -0.312065
     7  C   -0.201508
     8  C    0.144019
     9  O   -0.242878
    10  H    0.116901
    11  H    0.110157
    12  H    0.136587
    13  H    0.097108
    14  H    0.104478
    15  H    0.108654
    16  H    0.132350
    17  H    0.138222
    18  H    0.124317
    19  H    0.108573
 Sum of Mulliken charges =   0.00000
 Mulliken charges with hydrogens summed into heavy atoms:
               1
     1  C   -0.053676
     2  C    0.125687
     3  C   -0.023122
     4  C   -0.053124
     5  C    0.383775
     6  O   -0.312065
     7  C   -0.077191
     8  C    0.252593
     9  O   -0.242878
 Electronic spatial extent (au):  <R**2>=           1200.1556
 Charge=              0.0000 electrons
 Dipole moment (field-independent basis, Debye):
    X=              0.1172    Y=              2.7338    Z=             -0.6350  Tot=              2.8090
 Quadrupole moment (field-independent basis, Debye-Ang):
   XX=            -61.3099   YY=            -55.4412   ZZ=            -51.7529
   XY=              1.3184   XZ=              3.9620   YZ=              1.9530
 Traceless Quadrupole moment (field-independent basis, Debye-Ang):
   XX=             -5.1419   YY=              0.7268   ZZ=              4.4151
   XY=              1.3184   XZ=              3.9620   YZ=              1.9530
 Octapole moment (field-independent basis, Debye-Ang**2):
  XXX=             -2.4160  YYY=             -6.3314  ZZZ=              0.6685  XYY=              1.7981
  XXY=             16.1632  XXZ=              0.3257  XZZ=              2.8312  YZZ=             -1.6262
  YYZ=             -2.1258  XYZ=             -7.2355
 Hexadecapole moment (field-independent basis, Debye-Ang**3):
 XXXX=           -756.6789 YYYY=           -655.0381 ZZZZ=           -136.8680 XXXY=             19.0170
 XXXZ=              5.1495 YYYX=             -4.9608 YYYZ=              9.2229 ZZZX=             -4.9293
 ZZZY=             -0.9804 XXYY=           -256.1808 XXZZ=           -146.8044 YYZZ=           -133.6667
 XXYZ=              3.5099 YYXZ=              6.7144 ZZXY=             -0.2600
 N-N= 4.514977277019D+02 E-N=-1.889407717993D+03  KE= 4.200736440157D+02
 Calling FoFJK, ICntrl=      2127 FMM=F ISym2X=0 I1Cent= 0 IOpClX= 0 NMat=1 NMatS=1 NMatT=0.
 ***** Axes restored to original set *****
 -------------------------------------------------------------------
 Center     Atomic                   Forces (Hartrees/Bohr)
 Number     Number              X              Y              Z
 -------------------------------------------------------------------
      1        6           0.000009445    0.000009193    0.000003310
      2        6          -0.000017353   -0.000002822   -0.000005099
      3        6           0.000010166   -0.000003776    0.000005695
      4        6          -0.000003476    0.000003850    0.000010643
      5        6           0.000007108   -0.000027434    0.000000908
      6        8           0.000004930    0.000004976    0.000000440
      7        6          -0.000004826    0.000010717   -0.000022820
      8        6           0.000018699    0.000001102    0.000012647
      9        8           0.000000000    0.000002316    0.000001316
     10        1          -0.000002704   -0.000000164    0.000000384
     11        1           0.000000434   -0.000002325   -0.000000379
     12        1          -0.000004225   -0.000001819    0.000000025
     13        1          -0.000000897    0.000004893    0.000000053
     14        1          -0.000003563   -0.000000153   -0.000004270
     15        1          -0.000008144    0.000001303   -0.000003354
     16        1           0.000000891   -0.000001995   -0.000003908
     17        1           0.000000935    0.000004801   -0.000005198
     18        1          -0.000002168    0.000003177    0.000006797
     19        1          -0.000005251   -0.000005843    0.000002811
 -------------------------------------------------------------------
 Cartesian Forces:  Max     0.000027434 RMS     0.000007506

 GradGradGradGradGradGradGradGradGradGradGradGradGradGradGradGradGradGrad
 Berny optimization.
 FormGI is forming the generalized inverse of G from B-inverse, IUseBI=4.
 Internal  Forces:  Max     0.000010554 RMS     0.000003374
 Search for a local minimum.
 Step number   1 out of a maximum of  114
 All quantities printed in internal units (Hartrees-Bohrs-Radians)
 Mixed Optimization -- En-DIIS/RFO-DIIS
 Second derivative matrix not updated -- first step.
 ITU=  0
     Eigenvalues ---    0.00316   0.00338   0.00412   0.00443   0.00566
     Eigenvalues ---    0.00566   0.02350   0.02893   0.03948   0.04146
     Eigenvalues ---    0.04345   0.04813   0.05221   0.05523   0.05547
     Eigenvalues ---    0.05579   0.06031   0.06639   0.07005   0.07474
     Eigenvalues ---    0.08516   0.10422   0.12235   0.15501   0.16000
     Eigenvalues ---    0.16000   0.16000   0.16000   0.18748   0.21480
     Eigenvalues ---    0.22000   0.25000   0.26413   0.26607   0.27683
     Eigenvalues ---    0.28494   0.29312   0.29725   0.30839   0.32641
     Eigenvalues ---    0.33424   0.33816   0.33966   0.33970   0.34048
     Eigenvalues ---    0.34246   0.34413   0.34475   0.34560   1.02598
     Eigenvalues ---    1.03515
 RFO step:  Lambda=-2.00394099D-08 EMin= 3.15575963D-03
 Linear search not attempted -- first point.
 Iteration  1 RMS(Cart)=  0.00015400 RMS(Int)=  0.00000004
 Iteration  2 RMS(Cart)=  0.00000004 RMS(Int)=  0.00000001
 Variable       Old X    -DE/DX   Delta X   Delta X   Delta X     New X
                                 (Linear)    (Quad)   (Total)
    R1        2.88515  -0.00001   0.00000  -0.00002  -0.00002   2.88513
    R2        2.06916   0.00000   0.00000   0.00001   0.00001   2.06917
    R3        2.07250   0.00000   0.00000   0.00000   0.00000   2.07249
    R4        2.06639   0.00000   0.00000   0.00001   0.00001   2.06640
    R5        2.92329  -0.00001   0.00000  -0.00002  -0.00002   2.92327
    R6        2.90230   0.00001   0.00000   0.00003   0.00003   2.90233
    R7        2.07381   0.00000   0.00000   0.00000   0.00000   2.07381
    R8        2.90014   0.00000   0.00000   0.00001   0.00001   2.90015
    R9        2.07388   0.00000   0.00000   0.00001   0.00001   2.07389
   R10        2.06535   0.00000   0.00000   0.00001   0.00001   2.06536
   R11        2.88629   0.00001   0.00000   0.00004   0.00004   2.88633
   R12        2.06395   0.00000   0.00000   0.00000   0.00000   2.06395
   R13        2.07642   0.00000   0.00000  -0.00001  -0.00001   2.07641
   R14        2.27263   0.00000   0.00000   0.00000   0.00000   2.27263
   R15        2.92632  -0.00001   0.00000  -0.00003  -0.00003   2.92629
   R16        2.86320   0.00001   0.00000   0.00003   0.00003   2.86323
   R17        2.08312   0.00000   0.00000  -0.00001  -0.00001   2.08311
   R18        2.27616   0.00000   0.00000   0.00000   0.00000   2.27616
   R19        2.09687   0.00000   0.00000  -0.00001  -0.00001   2.09686
    A1        1.93634   0.00000   0.00000   0.00001   0.00001   1.93635
    A2        1.93920   0.00000   0.00000   0.00000   0.00000   1.93920
    A3        1.93385   0.00001   0.00000   0.00003   0.00003   1.93388
    A4        1.87906   0.00000   0.00000   0.00000   0.00000   1.87906
    A5        1.88357   0.00000   0.00000  -0.00002  -0.00002   1.88355
    A6        1.88969   0.00000   0.00000  -0.00002  -0.00002   1.88967
    A7        1.99835   0.00000   0.00000   0.00000   0.00000   1.99835
    A8        1.99870   0.00000   0.00000   0.00005   0.00005   1.99875
    A9        1.88960   0.00000   0.00000   0.00000   0.00000   1.88960
   A10        1.81061   0.00000   0.00000  -0.00001  -0.00001   1.81059
   A11        1.89385   0.00000   0.00000  -0.00003  -0.00003   1.89382
   A12        1.86607   0.00000   0.00000   0.00000   0.00000   1.86607
   A13        1.82835   0.00000   0.00000   0.00001   0.00001   1.82836
   A14        1.91307   0.00000   0.00000  -0.00004  -0.00004   1.91304
   A15        1.95808   0.00000   0.00000   0.00001   0.00001   1.95808
   A16        1.91803   0.00000   0.00000   0.00000   0.00000   1.91802
   A17        1.97532   0.00000   0.00000   0.00006   0.00006   1.97538
   A18        1.87102   0.00000   0.00000  -0.00004  -0.00004   1.87098
   A19        1.82588   0.00000   0.00000   0.00002   0.00002   1.82590
   A20        2.02122   0.00000   0.00000  -0.00002  -0.00002   2.02120
   A21        1.93761   0.00000   0.00000   0.00004   0.00004   1.93765
   A22        1.93616   0.00000   0.00000  -0.00004  -0.00004   1.93612
   A23        1.86837   0.00000   0.00000   0.00001   0.00001   1.86838
   A24        1.86983   0.00000   0.00000  -0.00002  -0.00002   1.86981
   A25        2.22018  -0.00001   0.00000  -0.00003  -0.00003   2.22015
   A26        1.88075   0.00000   0.00000   0.00000   0.00000   1.88075
   A27        2.18225   0.00001   0.00000   0.00003   0.00003   2.18228
   A28        1.84886   0.00000   0.00000  -0.00001  -0.00001   1.84885
   A29        2.03024   0.00000   0.00000  -0.00002  -0.00002   2.03023
   A30        1.94774  -0.00001   0.00000  -0.00002  -0.00002   1.94772
   A31        1.93931  -0.00001   0.00000  -0.00008  -0.00008   1.93922
   A32        1.83323   0.00000   0.00000   0.00006   0.00006   1.83329
   A33        1.85577   0.00001   0.00000   0.00008   0.00008   1.85585
   A34        2.16363   0.00000   0.00000   0.00000   0.00000   2.16362
   A35        1.99282   0.00000   0.00000   0.00002   0.00002   1.99285
   A36        2.12662   0.00000   0.00000  -0.00001  -0.00001   2.12661
    D1       -1.02591   0.00000   0.00000   0.00000   0.00000  -1.02592
    D2       -3.11421   0.00000   0.00000  -0.00002  -0.00002  -3.11422
    D3        1.08913   0.00000   0.00000  -0.00005  -0.00005   1.08908
    D4        1.06386   0.00000   0.00000   0.00000   0.00000   1.06386
    D5       -1.02444   0.00000   0.00000  -0.00001  -0.00001  -1.02445
    D6       -3.10429   0.00000   0.00000  -0.00004  -0.00004  -3.10433
    D7       -3.11783   0.00000   0.00000   0.00000   0.00000  -3.11783
    D8        1.07707   0.00000   0.00000  -0.00002  -0.00002   1.07705
    D9       -1.00278   0.00000   0.00000  -0.00005  -0.00005  -1.00283
   D10       -2.82873   0.00000   0.00000  -0.00008  -0.00008  -2.82881
   D11       -0.77156   0.00000   0.00000  -0.00010  -0.00010  -0.77165
   D12        1.30489   0.00000   0.00000  -0.00016  -0.00016   1.30473
   D13       -0.63814   0.00000   0.00000  -0.00003  -0.00003  -0.63817
   D14        1.41903   0.00000   0.00000  -0.00005  -0.00005   1.41898
   D15       -2.78771   0.00000   0.00000  -0.00012  -0.00012  -2.78782
   D16        1.34176   0.00000   0.00000  -0.00005  -0.00005   1.34170
   D17       -2.88426   0.00000   0.00000  -0.00007  -0.00007  -2.88433
   D18       -0.80781   0.00000   0.00000  -0.00014  -0.00014  -0.80795
   D19        2.64249   0.00000   0.00000   0.00018   0.00018   2.64267
   D20       -1.47649   0.00000   0.00000   0.00006   0.00006  -1.47643
   D21        0.65670   0.00000   0.00000   0.00013   0.00013   0.65684
   D22        0.45212   0.00000   0.00000   0.00017   0.00017   0.45229
   D23        2.61634  -0.00001   0.00000   0.00004   0.00004   2.61638
   D24       -1.53366   0.00000   0.00000   0.00012   0.00012  -1.53354
   D25       -1.54768   0.00000   0.00000   0.00021   0.00021  -1.54747
   D26        0.61653   0.00000   0.00000   0.00008   0.00008   0.61661
   D27        2.74972   0.00000   0.00000   0.00016   0.00016   2.74988
   D28        0.57333   0.00000   0.00000  -0.00011  -0.00011   0.57322
   D29        2.71010   0.00000   0.00000  -0.00016  -0.00016   2.70995
   D30       -1.43619   0.00000   0.00000  -0.00016  -0.00016  -1.43635
   D31       -1.48046   0.00000   0.00000  -0.00007  -0.00007  -1.48053
   D32        0.65631   0.00000   0.00000  -0.00012  -0.00012   0.65620
   D33        2.79321   0.00000   0.00000  -0.00012  -0.00012   2.79309
   D34        2.71173   0.00000   0.00000  -0.00006  -0.00006   2.71167
   D35       -1.43468   0.00000   0.00000  -0.00011  -0.00011  -1.43479
   D36        0.70221   0.00000   0.00000  -0.00011  -0.00011   0.70211
   D37        2.84916   0.00000   0.00000  -0.00005  -0.00005   2.84912
   D38       -0.29002   0.00000   0.00000   0.00022   0.00022  -0.28981
   D39        0.65786   0.00000   0.00000  -0.00002  -0.00002   0.65785
   D40       -2.48133   0.00000   0.00000   0.00025   0.00025  -2.48107
   D41       -1.37661   0.00000   0.00000   0.00002   0.00002  -1.37659
   D42        1.76739   0.00000   0.00000   0.00029   0.00029   1.76768
   D43       -0.10389   0.00000   0.00000  -0.00024  -0.00024  -0.10413
   D44       -2.32393   0.00000   0.00000  -0.00016  -0.00016  -2.32409
   D45        1.95965   0.00000   0.00000  -0.00024  -0.00024   1.95941
   D46        3.04004   0.00000   0.00000   0.00002   0.00002   3.04007
   D47        0.82000   0.00000   0.00000   0.00010   0.00010   0.82010
   D48       -1.17960   0.00000   0.00000   0.00002   0.00002  -1.17958
   D49        0.10001   0.00000   0.00000   0.00002   0.00002   0.10002
   D50       -3.02529   0.00000   0.00000  -0.00069  -0.00069  -3.02597
   D51        2.21689   0.00000   0.00000  -0.00007  -0.00007   2.21682
   D52       -0.90840   0.00000   0.00000  -0.00078  -0.00078  -0.90918
   D53       -2.08079   0.00000   0.00000   0.00000   0.00000  -2.08080
   D54        1.07710   0.00000   0.00000  -0.00071  -0.00071   1.07639
         Item               Value     Threshold  Converged?
 Maximum Force            0.000011     0.000450     YES
 RMS     Force            0.000003     0.000300     YES
 Maximum Displacement     0.000709     0.001800     YES
 RMS     Displacement     0.000154     0.001200     YES
 Predicted change in Energy=-1.001972D-08
 Optimization completed.
    -- Stationary point found.
                           ----------------------------
                           !   Optimized Parameters   !
                           ! (Angstroms and Degrees)  !
 --------------------------                            --------------------------
 ! Name  Definition              Value          Derivative Info.                !
 --------------------------------------------------------------------------------
 ! R1    R(1,2)                  1.5268         -DE/DX =    0.0                 !
 ! R2    R(1,10)                 1.095          -DE/DX =    0.0                 !
 ! R3    R(1,11)                 1.0967         -DE/DX =    0.0                 !
 ! R4    R(1,12)                 1.0935         -DE/DX =    0.0                 !
 ! R5    R(2,3)                  1.5469         -DE/DX =    0.0                 !
 ! R6    R(2,7)                  1.5358         -DE/DX =    0.0                 !
 ! R7    R(2,13)                 1.0974         -DE/DX =    0.0                 !
 ! R8    R(3,4)                  1.5347         -DE/DX =    0.0                 !
 ! R9    R(3,14)                 1.0974         -DE/DX =    0.0                 !
 ! R10   R(3,15)                 1.0929         -DE/DX =    0.0                 !
 ! R11   R(4,5)                  1.5274         -DE/DX =    0.0                 !
 ! R12   R(4,16)                 1.0922         -DE/DX =    0.0                 !
 ! R13   R(4,17)                 1.0988         -DE/DX =    0.0                 !
 ! R14   R(5,6)                  1.2026         -DE/DX =    0.0                 !
 ! R15   R(5,7)                  1.5485         -DE/DX =    0.0                 !
 ! R16   R(7,8)                  1.5151         -DE/DX =    0.0                 !
 ! R17   R(7,18)                 1.1023         -DE/DX =    0.0                 !
 ! R18   R(8,9)                  1.2045         -DE/DX =    0.0                 !
 ! R19   R(8,19)                 1.1096         -DE/DX =    0.0                 !
 ! A1    A(2,1,10)             110.9443         -DE/DX =    0.0                 !
 ! A2    A(2,1,11)             111.1078         -DE/DX =    0.0                 !
 ! A3    A(2,1,12)             110.8015         -DE/DX =    0.0                 !
 ! A4    A(10,1,11)            107.6625         -DE/DX =    0.0                 !
 ! A5    A(10,1,12)            107.9208         -DE/DX =    0.0                 !
 ! A6    A(11,1,12)            108.2711         -DE/DX =    0.0                 !
 ! A7    A(1,2,3)              114.4969         -DE/DX =    0.0                 !
 ! A8    A(1,2,7)              114.5171         -DE/DX =    0.0                 !
 ! A9    A(1,2,13)             108.2661         -DE/DX =    0.0                 !
 ! A10   A(3,2,7)              103.7403         -DE/DX =    0.0                 !
 ! A11   A(3,2,13)             108.5095         -DE/DX =    0.0                 !
 ! A12   A(7,2,13)             106.9181         -DE/DX =    0.0                 !
 ! A13   A(2,3,4)              104.7566         -DE/DX =    0.0                 !
 ! A14   A(2,3,14)             109.611          -DE/DX =    0.0                 !
 ! A15   A(2,3,15)             112.1895         -DE/DX =    0.0                 !
 ! A16   A(4,3,14)             109.8948         -DE/DX =    0.0                 !
 ! A17   A(4,3,15)             113.1777         -DE/DX =    0.0                 !
 ! A18   A(14,3,15)            107.2013         -DE/DX =    0.0                 !
 ! A19   A(3,4,5)              104.615          -DE/DX =    0.0                 !
 ! A20   A(3,4,16)             115.8071         -DE/DX =    0.0                 !
 ! A21   A(3,4,17)             111.0166         -DE/DX =    0.0                 !
 ! A22   A(5,4,16)             110.9339         -DE/DX =    0.0                 !
 ! A23   A(5,4,17)             107.0498         -DE/DX =    0.0                 !
 ! A24   A(16,4,17)            107.1335         -DE/DX =    0.0                 !
 ! A25   A(4,5,6)              127.207          -DE/DX =    0.0                 !
 ! A26   A(4,5,7)              107.7592         -DE/DX =    0.0                 !
 ! A27   A(6,5,7)              125.0337         -DE/DX =    0.0                 !
 ! A28   A(2,7,5)              105.932          -DE/DX =    0.0                 !
 ! A29   A(2,7,8)              116.3243         -DE/DX =    0.0                 !
 ! A30   A(2,7,18)             111.5975         -DE/DX =    0.0                 !
 ! A31   A(5,7,8)              111.1142         -DE/DX =    0.0                 !
 ! A32   A(5,7,18)             105.0366         -DE/DX =    0.0                 !
 ! A33   A(8,7,18)             106.328          -DE/DX =    0.0                 !
 ! A34   A(7,8,9)              123.9666         -DE/DX =    0.0                 !
 ! A35   A(7,8,19)             114.1804         -DE/DX =    0.0                 !
 ! A36   A(9,8,19)             121.8462         -DE/DX =    0.0                 !
 ! D1    D(10,1,2,3)           -58.7806         -DE/DX =    0.0                 !
 ! D2    D(10,1,2,7)          -178.4309         -DE/DX =    0.0                 !
 ! D3    D(10,1,2,13)           62.4025         -DE/DX =    0.0                 !
 ! D4    D(11,1,2,3)            60.9545         -DE/DX =    0.0                 !
 ! D5    D(11,1,2,7)           -58.6958         -DE/DX =    0.0                 !
 ! D6    D(11,1,2,13)         -177.8625         -DE/DX =    0.0                 !
 ! D7    D(12,1,2,3)          -178.6383         -DE/DX =    0.0                 !
 ! D8    D(12,1,2,7)            61.7114         -DE/DX =    0.0                 !
 ! D9    D(12,1,2,13)          -57.4552         -DE/DX =    0.0                 !
 ! D10   D(1,2,3,4)           -162.074          -DE/DX =    0.0                 !
 ! D11   D(1,2,3,14)           -44.207          -DE/DX =    0.0                 !
 ! D12   D(1,2,3,15)            74.7647         -DE/DX =    0.0                 !
 ! D13   D(7,2,3,4)            -36.5625         -DE/DX =    0.0                 !
 ! D14   D(7,2,3,14)            81.3045         -DE/DX =    0.0                 !
 ! D15   D(7,2,3,15)          -159.7238         -DE/DX =    0.0                 !
 ! D16   D(13,2,3,4)            76.8769         -DE/DX =    0.0                 !
 ! D17   D(13,2,3,14)         -165.256          -DE/DX =    0.0                 !
 ! D18   D(13,2,3,15)          -46.2844         -DE/DX =    0.0                 !
 ! D19   D(1,2,7,5)            151.4035         -DE/DX =    0.0                 !
 ! D20   D(1,2,7,8)            -84.5964         -DE/DX =    0.0                 !
 ! D21   D(1,2,7,18)            37.6264         -DE/DX =    0.0                 !
 ! D22   D(3,2,7,5)             25.9048         -DE/DX =    0.0                 !
 ! D23   D(3,2,7,8)            149.905          -DE/DX =    0.0                 !
 ! D24   D(3,2,7,18)           -87.8722         -DE/DX =    0.0                 !
 ! D25   D(13,2,7,5)           -88.6758         -DE/DX =    0.0                 !
 ! D26   D(13,2,7,8)            35.3244         -DE/DX =    0.0                 !
 ! D27   D(13,2,7,18)          157.5472         -DE/DX =    0.0                 !
 ! D28   D(2,3,4,5)             32.8495         -DE/DX =    0.0                 !
 ! D29   D(2,3,4,16)           155.2775         -DE/DX =    0.0                 !
 ! D30   D(2,3,4,17)           -82.2875         -DE/DX =    0.0                 !
 ! D31   D(14,3,4,5)           -84.824          -DE/DX =    0.0                 !
 ! D32   D(14,3,4,16)           37.604          -DE/DX =    0.0                 !
 ! D33   D(14,3,4,17)          160.039          -DE/DX =    0.0                 !
 ! D34   D(15,3,4,5)           155.3709         -DE/DX =    0.0                 !
 ! D35   D(15,3,4,16)          -82.2011         -DE/DX =    0.0                 !
 ! D36   D(15,3,4,17)           40.2339         -DE/DX =    0.0                 !
 ! D37   D(3,4,5,6)            163.2451         -DE/DX =    0.0                 !
 ! D38   D(3,4,5,7)            -16.6172         -DE/DX =    0.0                 !
 ! D39   D(16,4,5,6)            37.6928         -DE/DX =    0.0                 !
 ! D40   D(16,4,5,7)          -142.1695         -DE/DX =    0.0                 !
 ! D41   D(17,4,5,6)           -78.8737         -DE/DX =    0.0                 !
 ! D42   D(17,4,5,7)           101.264          -DE/DX =    0.0                 !
 ! D43   D(4,5,7,2)             -5.9522         -DE/DX =    0.0                 !
 ! D44   D(4,5,7,8)           -133.1513         -DE/DX =    0.0                 !
 ! D45   D(4,5,7,18)           112.2798         -DE/DX =    0.0                 !
 ! D46   D(6,5,7,2)            174.1817         -DE/DX =    0.0                 !
 ! D47   D(6,5,7,8)             46.9826         -DE/DX =    0.0                 !
 ! D48   D(6,5,7,18)           -67.5862         -DE/DX =    0.0                 !
 ! D49   D(2,7,8,9)              5.73           -DE/DX =    0.0                 !
 ! D50   D(2,7,8,19)          -173.3362         -DE/DX =    0.0                 !
 ! D51   D(5,7,8,9)            127.0185         -DE/DX =    0.0                 !
 ! D52   D(5,7,8,19)           -52.0476         -DE/DX =    0.0                 !
 ! D53   D(18,7,8,9)          -119.2207         -DE/DX =    0.0                 !
 ! D54   D(18,7,8,19)           61.7131         -DE/DX =    0.0                 !
 --------------------------------------------------------------------------------
 GradGradGradGradGradGradGradGradGradGradGradGradGradGradGradGradGradGrad

                          Input orientation:                          
 ---------------------------------------------------------------------
 Center     Atomic      Atomic             Coordinates (Angstroms)
 Number     Number       Type             X           Y           Z
 ---------------------------------------------------------------------
      1          6           0       -3.435321   -1.565428    0.647316
      2          6           0       -2.106220   -0.842368    0.851429
      3          6           0       -2.187500    0.697224    0.724636
      4          6           0       -0.737143    1.148509    0.505387
      5          6           0       -0.094292    0.009702   -0.283713
      6          8           0        0.933141    0.046688   -0.907667
      7          6           0       -1.007918   -1.233263   -0.148428
      8          6           0       -0.200501   -2.469900    0.189891
      9          8           0       -0.438312   -3.194662    1.122074
     10          1           0       -4.182081   -1.223652    1.371515
     11          1           0       -3.835925   -1.379622   -0.356567
     12          1           0       -3.313594   -2.644769    0.773493
     13          1           0       -1.729987   -1.090143    1.852117
     14          1           0       -2.797376    0.963250   -0.148105
     15          1           0       -2.654386    1.159256    1.598167
     16          1           0       -0.608862    2.102233   -0.011178
     17          1           0       -0.198868    1.222687    1.460430
     18          1           0       -1.418342   -1.397785   -1.158202
     19          1           0        0.655890   -2.653970   -0.491257
 ---------------------------------------------------------------------
                    Distance matrix (angstroms):
                    1          2          3          4          5
     1  C    0.000000
     2  C    1.526757   0.000000
     3  C    2.585078   1.546941   0.000000
     4  C    3.829590   2.440842   1.534687   0.000000
     5  C    3.809242   2.462200   2.423010   1.527356   0.000000
     6  O    4.909211   3.622508   3.581342   2.449608   1.202624
     7  C    2.576010   1.535832   2.424961   2.484679   1.548540
     8  C    3.389891   2.591960   3.776876   3.671567   2.526659
     9  O    3.444105   2.896283   4.285370   4.396901   3.516040
    10  H    1.094955   2.173721   2.843690   4.271407   4.579406
    11  H    1.096718   2.177103   2.863493   4.091071   3.991910
    12  H    1.093487   2.170823   3.526952   4.593357   4.304394
    13  H    2.141402   1.097415   2.162224   2.794813   2.906359
    14  H    2.726515   2.176470   1.097450   2.169317   2.869549
    15  H    2.989629   2.205584   1.092938   2.206831   3.378910
    16  H    4.676989   3.414213   2.237760   1.092193   2.172037
    17  H    4.348490   2.876339   2.184528   1.098795   2.127041
    18  H    2.712232   2.195514   2.919888   3.116917   2.121051
    19  H    4.383979   3.565664   4.560018   4.170454   2.775067
                    6          7          8          9         10
     6  O    0.000000
     7  C    2.445901   0.000000
     8  C    2.970353   1.515141   0.000000
     9  O    4.062891   2.405351   1.204492   0.000000
    10  H    5.742294   3.519322   4.336167   4.238267   0.000000
    11  H    5.008200   2.839430   3.834531   4.126079   1.769298
    12  H    5.301415   2.856296   3.172147   2.948073   1.769597
    13  H    4.000130   2.131677   2.646894   2.574954   2.502313
    14  H    3.915837   2.833166   4.317930   4.946390   3.001532
    15  H    4.515237   3.389041   4.601692   4.908590   2.839626
    16  H    2.721531   3.362085   4.594735   5.419451   5.073583
    17  H    2.876161   3.045435   3.905057   4.436755   4.675304
    18  H    2.771054   1.102342   2.109483   3.064128   3.750739
    19  H    2.746602   2.214542   1.109617   2.022983   5.377889
                   11         12         13         14         15
    11  H    0.000000
    12  H    1.774954   0.000000
    13  H    3.065462   2.467408   0.000000
    14  H    2.571203   3.759471   3.058861   0.000000
    15  H    3.415102   3.947816   2.445159   1.763046   0.000000
    16  H    4.759889   5.519539   3.862649   2.470956   2.768279
    17  H    4.827181   5.013044   2.801236   3.067074   2.460196
    18  H    2.547088   2.979664   3.042003   2.914878   3.957756
    19  H    4.671028   4.166110   3.691796   5.012692   5.464825
                   16         17         18         19
    16  H    0.000000
    17  H    1.762762   0.000000
    18  H    3.771080   3.900157   0.000000
    19  H    4.944850   4.423591   2.515006   0.000000
 Stoichiometry    C7H10O2
 Framework group  C1[X(C7H10O2)]
 Deg. of freedom    51
 Full point group                 C1      NOp   1
 Largest Abelian subgroup         C1      NOp   1
 Largest concise Abelian subgroup C1      NOp   1
                         Standard orientation:                         
 ---------------------------------------------------------------------
 Center     Atomic      Atomic             Coordinates (Angstroms)
 Number     Number       Type             X           Y           Z
 ---------------------------------------------------------------------
      1          6           0       -1.976775    1.402501   -0.500599
      2          6           0       -0.728609    0.856977    0.188946
      3          6           0        0.466267    1.838879    0.223108
      4          6           0        1.687653    0.958123    0.519330
      5          6           0        1.374971   -0.374748   -0.157799
      6          8           0        2.150068   -1.255222   -0.422932
      7          6           0       -0.143743   -0.406933   -0.458544
      8          6           0       -0.756717   -1.725367   -0.032341
      9          8           0       -1.716822   -1.819201    0.688904
     10          1           0       -2.327384    2.316271   -0.009658
     11          1           0       -1.773526    1.645827   -1.550490
     12          1           0       -2.788854    0.670888   -0.469257
     13          1           0       -0.993010    0.593952    1.221046
     14          1           0        0.579169    2.315951   -0.758753
     15          1           0        0.323706    2.637169    0.955857
     16          1           0        2.649729    1.350579    0.182767
     17          1           0        1.778086    0.759039    1.596149
     18          1           0       -0.218422   -0.371412   -1.557780
     19          1           0       -0.233755   -2.619465   -0.430271
 ---------------------------------------------------------------------
 Rotational constants (GHZ):      1.9238470      1.6799500      1.0086748
 1\1\GINC-ALCHEMY-S\FOpt\RB3LYP\6-31G(2df,p)\C7H10O2\PUCK\28-Jan-2020\0
 \\# b3lyp 6-31G(2df,p) opt Freq\\titel\\0,1\C,-3.4353206296,-1.5654283
 809,0.6473163403\C,-2.1062203066,-0.8423678469,0.8514294463\C,-2.18750
 00934,0.6972239889,0.7246358347\C,-0.7371429711,1.1485086664,0.5053872
 562\C,-0.0942915453,0.0097018266,-0.2837127425\O,0.9331412628,0.046688
 4887,-0.9076672413\C,-1.0079183141,-1.2332629572,-0.1484280798\C,-0.20
 05011788,-2.4698996892,0.1898905247\O,-0.4383119416,-3.1946622264,1.12
 20735132\H,-4.1820811857,-1.2236519675,1.3715146228\H,-3.8359250011,-1
 .3796216622,-0.3565669871\H,-3.3135936652,-2.6447687846,0.7734932396\H
 ,-1.7299865218,-1.0901432538,1.8521167361\H,-2.7973762473,0.9632497304
 ,-0.1481052531\H,-2.6543864538,1.1592563705,1.5981666892\H,-0.60886226
 41,2.1022332243,-0.0111784767\H,-0.1988677968,1.2226868317,1.460430197
 4\H,-1.4183418334,-1.3977846358,-1.1582018204\H,0.6558897869,-2.653970
 083,-0.4912567896\\Version=ES64L-G09RevD.01\State=1-A\HF=-423.2361691\
 RMSD=6.043e-09\RMSF=7.506e-06\Dipole=-0.8808424,0.6650291,-0.0567151\Q
 uadrupole=-1.0632573,-0.4127869,1.4760442,-1.0053915,2.1062078,4.17130
 62\PG=C01 [X(C7H10O2)]\\@


 I think that all right-thinking people in this
 country are sick and tired of being told that
 ordinary, decent people are fed up in this country
 with being sick and tired.  I'm certainly not!
 But I'm sick and tired of being told that I am!
                               -- Monty Python
 Job cpu time:       0 days  0 hours  6 minutes 15.8 seconds.
 File lengths (MBytes):  RWF=     52 Int=      0 D2E=      0 Chk=      7 Scr=      1
 Normal termination of Gaussian 09 at Tue Jan 28 03:54:32 2020.
 Link1:  Proceeding to internal job step number  2.
 ----------------------------------------------------------------------
 #N Geom=AllCheck Guess=TCheck SCRF=Check GenChk RB3LYP/6-31G(2df,p) Fr
 eq
 ----------------------------------------------------------------------
 1/10=4,29=7,30=1,38=1,40=1/1,3;
 2/12=2,40=1/2;
 3/5=1,6=6,7=104,11=2,14=-4,16=1,25=1,30=1,70=2,71=2,74=-5,116=1,140=1/1,2,3;
 4/5=101/1;
 5/5=2,98=1/2;
 8/6=4,10=90,11=11/1;
 11/6=1,8=1,9=11,15=111,16=1/1,2,10;
 10/6=1/2;
 6/7=2,8=2,9=2,10=2,18=1,28=1/1;
 7/8=1,10=1,25=1/1,2,3,16;
 1/10=4,30=1/3;
 99//99;
 Structure from the checkpoint file:  "/scratch/puck/g09_acbf649e-7d08-4881-9c2b-81d2ee0554b4/Gau-116363.chk"
 -----
 titel
 -----
 Charge =  0 Multiplicity = 1
 Redundant internal coordinates found in file.
 C,0,-3.4353206296,-1.5654283809,0.6473163403
 C,0,-2.1062203066,-0.8423678469,0.8514294463
 C,0,-2.1875000934,0.6972239889,0.7246358347
 C,0,-0.7371429711,1.1485086664,0.5053872562
 C,0,-0.0942915453,0.0097018266,-0.2837127425
 O,0,0.9331412628,0.0466884887,-0.9076672413
 C,0,-1.0079183141,-1.2332629572,-0.1484280798
 C,0,-0.2005011788,-2.4698996892,0.1898905247
 O,0,-0.4383119416,-3.1946622264,1.1220735132
 H,0,-4.1820811857,-1.2236519675,1.3715146228
 H,0,-3.8359250011,-1.3796216622,-0.3565669871
 H,0,-3.3135936652,-2.6447687846,0.7734932396
 H,0,-1.7299865218,-1.0901432538,1.8521167361
 H,0,-2.7973762473,0.9632497304,-0.1481052531
 H,0,-2.6543864538,1.1592563705,1.5981666892
 H,0,-0.6088622641,2.1022332243,-0.0111784767
 H,0,-0.1988677968,1.2226868317,1.4604301974
 H,0,-1.4183418334,-1.3977846358,-1.1582018204
 H,0,0.6558897869,-2.653970083,-0.4912567896
 Recover connectivity data from disk.

 GradGradGradGradGradGradGradGradGradGradGradGradGradGradGradGradGradGrad
 Berny optimization.
 Initialization pass.
                           ----------------------------
                           !    Initial Parameters    !
                           ! (Angstroms and Degrees)  !
 --------------------------                            --------------------------
 ! Name  Definition              Value          Derivative Info.                !
 --------------------------------------------------------------------------------
 ! R1    R(1,2)                  1.5268         calculate D2E/DX2 analytically  !
 ! R2    R(1,10)                 1.095          calculate D2E/DX2 analytically  !
 ! R3    R(1,11)                 1.0967         calculate D2E/DX2 analytically  !
 ! R4    R(1,12)                 1.0935         calculate D2E/DX2 analytically  !
 ! R5    R(2,3)                  1.5469         calculate D2E/DX2 analytically  !
 ! R6    R(2,7)                  1.5358         calculate D2E/DX2 analytically  !
 ! R7    R(2,13)                 1.0974         calculate D2E/DX2 analytically  !
 ! R8    R(3,4)                  1.5347         calculate D2E/DX2 analytically  !
 ! R9    R(3,14)                 1.0974         calculate D2E/DX2 analytically  !
 ! R10   R(3,15)                 1.0929         calculate D2E/DX2 analytically  !
 ! R11   R(4,5)                  1.5274         calculate D2E/DX2 analytically  !
 ! R12   R(4,16)                 1.0922         calculate D2E/DX2 analytically  !
 ! R13   R(4,17)                 1.0988         calculate D2E/DX2 analytically  !
 ! R14   R(5,6)                  1.2026         calculate D2E/DX2 analytically  !
 ! R15   R(5,7)                  1.5485         calculate D2E/DX2 analytically  !
 ! R16   R(7,8)                  1.5151         calculate D2E/DX2 analytically  !
 ! R17   R(7,18)                 1.1023         calculate D2E/DX2 analytically  !
 ! R18   R(8,9)                  1.2045         calculate D2E/DX2 analytically  !
 ! R19   R(8,19)                 1.1096         calculate D2E/DX2 analytically  !
 ! A1    A(2,1,10)             110.9443         calculate D2E/DX2 analytically  !
 ! A2    A(2,1,11)             111.1078         calculate D2E/DX2 analytically  !
 ! A3    A(2,1,12)             110.8015         calculate D2E/DX2 analytically  !
 ! A4    A(10,1,11)            107.6625         calculate D2E/DX2 analytically  !
 ! A5    A(10,1,12)            107.9208         calculate D2E/DX2 analytically  !
 ! A6    A(11,1,12)            108.2711         calculate D2E/DX2 analytically  !
 ! A7    A(1,2,3)              114.4969         calculate D2E/DX2 analytically  !
 ! A8    A(1,2,7)              114.5171         calculate D2E/DX2 analytically  !
 ! A9    A(1,2,13)             108.2661         calculate D2E/DX2 analytically  !
 ! A10   A(3,2,7)              103.7403         calculate D2E/DX2 analytically  !
 ! A11   A(3,2,13)             108.5095         calculate D2E/DX2 analytically  !
 ! A12   A(7,2,13)             106.9181         calculate D2E/DX2 analytically  !
 ! A13   A(2,3,4)              104.7566         calculate D2E/DX2 analytically  !
 ! A14   A(2,3,14)             109.611          calculate D2E/DX2 analytically  !
 ! A15   A(2,3,15)             112.1895         calculate D2E/DX2 analytically  !
 ! A16   A(4,3,14)             109.8948         calculate D2E/DX2 analytically  !
 ! A17   A(4,3,15)             113.1777         calculate D2E/DX2 analytically  !
 ! A18   A(14,3,15)            107.2013         calculate D2E/DX2 analytically  !
 ! A19   A(3,4,5)              104.615          calculate D2E/DX2 analytically  !
 ! A20   A(3,4,16)             115.8071         calculate D2E/DX2 analytically  !
 ! A21   A(3,4,17)             111.0166         calculate D2E/DX2 analytically  !
 ! A22   A(5,4,16)             110.9339         calculate D2E/DX2 analytically  !
 ! A23   A(5,4,17)             107.0498         calculate D2E/DX2 analytically  !
 ! A24   A(16,4,17)            107.1335         calculate D2E/DX2 analytically  !
 ! A25   A(4,5,6)              127.207          calculate D2E/DX2 analytically  !
 ! A26   A(4,5,7)              107.7592         calculate D2E/DX2 analytically  !
 ! A27   A(6,5,7)              125.0337         calculate D2E/DX2 analytically  !
 ! A28   A(2,7,5)              105.932          calculate D2E/DX2 analytically  !
 ! A29   A(2,7,8)              116.3243         calculate D2E/DX2 analytically  !
 ! A30   A(2,7,18)             111.5975         calculate D2E/DX2 analytically  !
 ! A31   A(5,7,8)              111.1142         calculate D2E/DX2 analytically  !
 ! A32   A(5,7,18)             105.0366         calculate D2E/DX2 analytically  !
 ! A33   A(8,7,18)             106.328          calculate D2E/DX2 analytically  !
 ! A34   A(7,8,9)              123.9666         calculate D2E/DX2 analytically  !
 ! A35   A(7,8,19)             114.1804         calculate D2E/DX2 analytically  !
 ! A36   A(9,8,19)             121.8462         calculate D2E/DX2 analytically  !
 ! D1    D(10,1,2,3)           -58.7806         calculate D2E/DX2 analytically  !
 ! D2    D(10,1,2,7)          -178.4309         calculate D2E/DX2 analytically  !
 ! D3    D(10,1,2,13)           62.4025         calculate D2E/DX2 analytically  !
 ! D4    D(11,1,2,3)            60.9545         calculate D2E/DX2 analytically  !
 ! D5    D(11,1,2,7)           -58.6958         calculate D2E/DX2 analytically  !
 ! D6    D(11,1,2,13)         -177.8625         calculate D2E/DX2 analytically  !
 ! D7    D(12,1,2,3)          -178.6383         calculate D2E/DX2 analytically  !
 ! D8    D(12,1,2,7)            61.7114         calculate D2E/DX2 analytically  !
 ! D9    D(12,1,2,13)          -57.4552         calculate D2E/DX2 analytically  !
 ! D10   D(1,2,3,4)           -162.074          calculate D2E/DX2 analytically  !
 ! D11   D(1,2,3,14)           -44.207          calculate D2E/DX2 analytically  !
 ! D12   D(1,2,3,15)            74.7647         calculate D2E/DX2 analytically  !
 ! D13   D(7,2,3,4)            -36.5625         calculate D2E/DX2 analytically  !
 ! D14   D(7,2,3,14)            81.3045         calculate D2E/DX2 analytically  !
 ! D15   D(7,2,3,15)          -159.7238         calculate D2E/DX2 analytically  !
 ! D16   D(13,2,3,4)            76.8769         calculate D2E/DX2 analytically  !
 ! D17   D(13,2,3,14)         -165.256          calculate D2E/DX2 analytically  !
 ! D18   D(13,2,3,15)          -46.2844         calculate D2E/DX2 analytically  !
 ! D19   D(1,2,7,5)            151.4035         calculate D2E/DX2 analytically  !
 ! D20   D(1,2,7,8)            -84.5964         calculate D2E/DX2 analytically  !
 ! D21   D(1,2,7,18)            37.6264         calculate D2E/DX2 analytically  !
 ! D22   D(3,2,7,5)             25.9048         calculate D2E/DX2 analytically  !
 ! D23   D(3,2,7,8)            149.905          calculate D2E/DX2 analytically  !
 ! D24   D(3,2,7,18)           -87.8722         calculate D2E/DX2 analytically  !
 ! D25   D(13,2,7,5)           -88.6758         calculate D2E/DX2 analytically  !
 ! D26   D(13,2,7,8)            35.3244         calculate D2E/DX2 analytically  !
 ! D27   D(13,2,7,18)          157.5472         calculate D2E/DX2 analytically  !
 ! D28   D(2,3,4,5)             32.8495         calculate D2E/DX2 analytically  !
 ! D29   D(2,3,4,16)           155.2775         calculate D2E/DX2 analytically  !
 ! D30   D(2,3,4,17)           -82.2875         calculate D2E/DX2 analytically  !
 ! D31   D(14,3,4,5)           -84.824          calculate D2E/DX2 analytically  !
 ! D32   D(14,3,4,16)           37.604          calculate D2E/DX2 analytically  !
 ! D33   D(14,3,4,17)          160.039          calculate D2E/DX2 analytically  !
 ! D34   D(15,3,4,5)           155.3709         calculate D2E/DX2 analytically  !
 ! D35   D(15,3,4,16)          -82.2011         calculate D2E/DX2 analytically  !
 ! D36   D(15,3,4,17)           40.2339         calculate D2E/DX2 analytically  !
 ! D37   D(3,4,5,6)            163.2451         calculate D2E/DX2 analytically  !
 ! D38   D(3,4,5,7)            -16.6172         calculate D2E/DX2 analytically  !
 ! D39   D(16,4,5,6)            37.6928         calculate D2E/DX2 analytically  !
 ! D40   D(16,4,5,7)          -142.1695         calculate D2E/DX2 analytically  !
 ! D41   D(17,4,5,6)           -78.8737         calculate D2E/DX2 analytically  !
 ! D42   D(17,4,5,7)           101.264          calculate D2E/DX2 analytically  !
 ! D43   D(4,5,7,2)             -5.9522         calculate D2E/DX2 analytically  !
 ! D44   D(4,5,7,8)           -133.1513         calculate D2E/DX2 analytically  !
 ! D45   D(4,5,7,18)           112.2798         calculate D2E/DX2 analytically  !
 ! D46   D(6,5,7,2)            174.1817         calculate D2E/DX2 analytically  !
 ! D47   D(6,5,7,8)             46.9826         calculate D2E/DX2 analytically  !
 ! D48   D(6,5,7,18)           -67.5862         calculate D2E/DX2 analytically  !
 ! D49   D(2,7,8,9)              5.73           calculate D2E/DX2 analytically  !
 ! D50   D(2,7,8,19)          -173.3362         calculate D2E/DX2 analytically  !
 ! D51   D(5,7,8,9)            127.0185         calculate D2E/DX2 analytically  !
 ! D52   D(5,7,8,19)           -52.0476         calculate D2E/DX2 analytically  !
 ! D53   D(18,7,8,9)          -119.2207         calculate D2E/DX2 analytically  !
 ! D54   D(18,7,8,19)           61.7131         calculate D2E/DX2 analytically  !
 --------------------------------------------------------------------------------
 Trust Radius=3.00D-01 FncErr=1.00D-07 GrdErr=1.00D-07
 Number of steps in this run=      2 maximum allowed number of steps=      2.
 GradGradGradGradGradGradGradGradGradGradGradGradGradGradGradGradGradGrad

                          Input orientation:                          
 ---------------------------------------------------------------------
 Center     Atomic      Atomic             Coordinates (Angstroms)
 Number     Number       Type             X           Y           Z
 ---------------------------------------------------------------------
      1          6           0       -3.435321   -1.565428    0.647316
      2          6           0       -2.106220   -0.842368    0.851429
      3          6           0       -2.187500    0.697224    0.724636
      4          6           0       -0.737143    1.148509    0.505387
      5          6           0       -0.094292    0.009702   -0.283713
      6          8           0        0.933141    0.046688   -0.907667
      7          6           0       -1.007918   -1.233263   -0.148428
      8          6           0       -0.200501   -2.469900    0.189891
      9          8           0       -0.438312   -3.194662    1.122074
[...]
 ,-0.00384669,-0.01458714,-0.00021917,-0.16775617,-0.02564299,0.0108430
 7,0.44277403,0.00176352,-0.00596209,0.00081615,-0.03207694,-0.02103335
 ,0.00157137,-0.02606016,-0.08545511,0.00460965,0.05001003,0.55322732,-
 0.00085209,0.00086857,-0.00010425,0.00746316,0.00541502,0.00033100,0.0
 0789168,0.00717730,-0.07741971,0.03397529,-0.05959871,0.50176731,-0.00
 204003,0.00097771,0.00337723,-0.02756597,-0.00745492,0.01112348,-0.030
 36457,0.01556157,0.02483311,-0.07956726,0.01063801,0.00333305,0.793138
 31,0.00360030,-0.00408570,-0.00292765,-0.00744258,0.01268746,0.0074683
 9,0.00809319,0.01020294,0.00101251,0.02436636,-0.13967407,-0.02747882,
 0.01939083,0.40637983,0.00135657,-0.00191418,-0.00288206,0.01801133,0.
 01475440,-0.00413492,0.01393794,0.00386720,-0.00554288,0.00549195,-0.0
 2306528,-0.09385895,-0.33919240,0.04170774,0.45470461,-0.00034025,0.00
 114692,0.00172078,0.00096881,-0.00745559,-0.00339834,0.00233726,0.0031
 1469,0.00170966,-0.01804302,0.01167635,0.02875401,-0.58751801,-0.01651
 432,0.31789010,0.64395899,-0.00145692,0.00188902,0.00195687,-0.0018162
 9,-0.00783710,-0.00212773,0.00096957,-0.00538188,-0.00459422,0.0258486
 5,0.01442158,-0.01635507,-0.02452644,-0.10153095,0.00482628,0.03094424
 ,0.07929587,0.00006427,-0.00006684,-0.00055766,-0.00036784,-0.00021383
 ,0.00258444,-0.00068548,-0.00649392,-0.00241648,0.03444738,-0.00763074
 ,-0.00598847,0.31566514,0.00198146,-0.26185757,-0.37417729,-0.00287121
 ,0.25712585,-0.02491302,0.00758344,0.01971933,-0.11477320,0.01528056,0
 .03580757,-0.00522915,0.01418526,0.00856900,0.00680757,0.00026398,0.00
 969925,-0.08127421,-0.02717952,-0.00274831,-0.03140952,-0.03041719,0.0
 1711653,0.43799922,-0.01091913,0.00610048,0.01149202,0.01583488,-0.083
 20215,-0.01230178,0.01868944,-0.02119346,-0.02414183,-0.01498418,-0.02
 750432,-0.00896072,0.01573747,-0.11658926,-0.01610423,-0.03031232,0.01
 066823,0.01441800,-0.04138592,0.42795592,-0.00014943,0.00391345,0.0025
 7969,0.03992526,-0.01258188,-0.12273879,-0.00001891,-0.00905187,0.0000
 2195,0.00479474,-0.01701249,0.01636335,-0.00594488,-0.00605497,-0.0719
 0489,0.02548858,0.01571593,0.00714747,-0.00239468,0.03374998,0.5141658
 4,-0.00016768,0.00073666,-0.00003313,-0.01497088,0.02361538,-0.0041176
 6,-0.00370779,-0.00003886,0.00327469,-0.00497297,-0.00394791,-0.002629
 64,0.03670377,-0.00694062,-0.00024226,-0.01359933,0.00195989,0.0048721
 5,-0.13029432,0.03613773,0.00515313,0.44825242,-0.00025208,0.00231756,
 0.00132106,0.00814099,-0.00704971,-0.00871542,0.00040586,-0.00055994,0
 .00200499,0.00105830,0.00121037,-0.00062330,-0.01156923,-0.04324993,0.
 01418258,0.01225953,0.00253767,-0.00688499,0.04983857,-0.11445052,0.00
 061801,-0.02672523,0.56005842,-0.00018714,-0.00189883,-0.00116435,0.00
 873717,-0.02032333,0.01224983,0.00225119,-0.00184851,-0.00549153,-0.00
 060543,-0.00219857,-0.00028130,0.00629776,0.00907979,-0.00614590,-0.00
 104569,-0.00033512,0.00186372,0.00385553,-0.00675330,-0.07792279,-0.22
 128270,-0.30006942,0.71795447,-0.00035708,-0.00109995,0.00001894,0.000
 58501,-0.00216477,0.00096077,0.00032582,-0.00035522,-0.00169863,0.0012
 6533,0.00056445,0.00039607,-0.00855530,0.00271642,-0.00051482,0.003656
 92,-0.00137286,-0.00114050,0.02411963,0.01562877,-0.01085445,-0.120831
 81,-0.06997464,0.12472022,0.09386953,-0.00041461,-0.00131718,-0.000190
 06,-0.00428743,0.00129199,0.00216187,-0.00037019,0.00038472,0.00041222
 ,-0.00145020,-0.00089457,-0.00140664,0.01252266,0.00726256,0.00010003,
 -0.00582451,-0.00105746,0.00185426,0.00301866,-0.03680235,0.04616576,-
 0.07378681,-0.33060871,0.32523173,0.07254310,0.35368442,-0.00038703,0.
 00067625,0.00104189,0.00103485,-0.00125505,-0.00470070,0.00098651,0.00
 034025,0.00174275,0.00187982,0.00178056,0.00085912,-0.01273404,-0.0069
 9226,0.00101100,0.00404505,0.00111324,-0.00117144,-0.00063930,0.043434
 96,-0.01203534,0.12911816,0.32428479,-0.50194717,-0.14272462,-0.387544
 62,0.53609081,-0.16396291,0.05631241,0.11665845,-0.02028588,0.00985622
 ,0.02020567,0.00125908,0.00091149,0.00021061,-0.00009377,-0.00000617,-
 0.00033640,-0.00027399,0.00239650,0.00103765,-0.00094695,-0.00110546,0
 .00021294,-0.00371091,-0.00407669,-0.00255682,0.00018762,-0.00091411,0
 .00065971,-0.00010213,0.00032763,-0.00046134,0.18105699,0.05740640,-0.
 07380425,-0.05664509,-0.01134618,0.00478397,0.01214190,0.00028352,0.00
 111163,0.00071565,0.00014735,0.00008392,-0.00016606,-0.00090954,0.0007
 1416,0.00074152,-0.00003102,-0.00043648,-0.00009093,-0.00284734,-0.000
 92822,-0.00088290,-0.00047183,-0.00074551,0.00070541,0.00046505,0.0003
 9670,-0.00022736,-0.06018762,0.07637512,0.11774765,-0.05600707,-0.1637
 6016,-0.00439794,0.00222780,0.00333037,-0.00000040,0.00009228,0.000244
 27,0.00003887,0.00029229,-0.00006353,-0.00040153,-0.00029336,0.0005218
 5,0.00003209,0.00002259,-0.00009481,-0.00058720,-0.00073742,0.00064655
 ,0.00008481,0.00035066,-0.00015812,-0.00012114,-0.00013351,0.00009750,
 -0.12917926,0.06216311,0.17484992,-0.07840778,0.01612669,-0.08200197,-
 0.01315466,0.00497612,-0.02796160,0.00070672,0.00169267,-0.00003159,0.
 00004903,0.00015161,0.00017422,0.00030272,-0.00022461,-0.00002123,0.00
 002796,0.00010836,-0.00004167,0.00208661,0.00010262,-0.00166263,0.0000
 4324,0.00061384,-0.00036690,-0.00024136,-0.00015126,0.00046639,0.00831
 076,-0.00479884,0.02012861,0.08683563,0.01635539,-0.05571500,0.0427021
 7,-0.00629388,0.00146658,-0.01542604,-0.00015982,0.00167924,-0.0015480
 3,-0.00008378,-0.00001382,0.00014052,0.00019230,0.00016365,-0.00010891
 ,0.00002186,-0.00003470,-0.00004630,0.00073850,0.00008983,-0.00011819,
 0.00002789,-0.00034822,0.00041185,0.00043727,0.00026875,-0.00018674,-0
 .00425280,0.00117366,-0.01012878,-0.01539117,0.05624286,-0.08283405,0.
 04197710,-0.26340733,-0.00181125,0.00076045,-0.00540616,0.00022768,0.0
 0044090,0.00007297,0.00013228,-0.00011389,0.00039863,0.00007315,0.0001
 3182,0.00021395,-0.00016726,-0.00010125,0.00002290,0.00080503,-0.00019
 252,0.00123767,0.00010386,0.00014546,-0.00016921,-0.00011796,-0.000112
 71,0.00017901,-0.00796096,0.00454350,-0.01918502,0.09337464,-0.0460585
 5,0.28671811,-0.05026303,0.03469478,-0.00371910,0.00377188,-0.03092557
 ,0.00364318,-0.00538635,-0.00113284,-0.00102916,0.00035754,-0.00158994
 ,0.00046287,-0.00010884,-0.00114619,-0.00035210,0.00012982,0.00041780,
 0.00004754,0.00159496,0.00102683,-0.00010422,-0.00064724,-0.00155019,0
 .00156118,0.00079459,0.00114012,-0.00080836,-0.00272709,0.02126409,-0.
 00377925,-0.00218405,0.01061268,-0.00034305,0.05445085,0.03202551,-0.3
 0542542,0.03065063,0.00210225,-0.01494510,0.00167297,-0.00343167,0.000
 70384,-0.00027737,0.00049645,-0.00072802,0.00008875,-0.00017653,-0.000
 91573,-0.00019556,-0.00002646,0.00028908,0.00010920,0.00042366,0.00102
 348,-0.00022581,-0.00038139,-0.00084198,0.00106106,0.00108349,0.000525
 42,-0.00048826,0.00107694,-0.00901077,0.00144727,0.00066658,-0.0038906
 5,0.00007586,-0.03332096,0.33236893,-0.00361254,0.03153699,-0.05154932
 ,0.00079532,-0.00525963,-0.00071157,-0.00137330,-0.00001246,0.00030559
 ,0.00016398,-0.00039509,0.00053552,-0.00004555,-0.00004294,-0.00016860
 ,-0.00004224,0.00001657,0.00006150,-0.00019535,0.00040571,0.00012052,0
 .00024769,-0.00021267,0.00044203,0.00016046,0.00004811,-0.00044375,0.0
 0214305,-0.02254203,0.00262986,-0.00332491,0.02998287,-0.00290944,0.00
 446132,-0.03353742,0.05126283,-0.01280884,0.00469022,-0.02815472,-0.07
 682823,0.01716272,-0.07718192,-0.00181626,0.00200272,-0.00302612,0.000
 32383,-0.00001642,0.00031035,0.00070644,0.00079480,0.00020082,-0.00042
 942,-0.00027887,-0.00011414,0.00609440,-0.00382575,0.02226025,0.001160
 51,-0.00013021,0.00097197,-0.00065961,0.00043878,-0.00052442,0.0008909
 3,0.00082269,0.00039889,-0.00497263,-0.00297538,-0.00080305,0.00126536
 ,0.00014721,0.00042884,0.08905911,-0.00695160,0.00294063,-0.01522115,0
 .01873969,-0.05831439,0.05296624,0.01228508,-0.01130204,0.03038876,0.0
 0073168,0.00109745,-0.00018796,-0.00012003,-0.00033939,-0.00018669,0.0
 0014061,0.00020099,0.00007653,-0.00314775,0.00214272,-0.00910277,-0.00
 021739,0.00048363,-0.00121150,0.00015782,-0.00044123,0.00058824,0.0005
 5892,0.00036390,0.00046188,-0.00342501,-0.00105790,-0.00084802,0.00061
 153,0.00048754,-0.00032383,-0.01989175,0.06849700,-0.00249585,0.000672
 18,-0.00443400,-0.07703633,0.05085959,-0.25707415,-0.00073569,0.000299
 92,-0.00113926,0.00006083,0.00009513,-0.00009010,-0.00024708,-0.001155
 93,-0.00113127,0.00063744,0.00053897,0.00016287,-0.00351693,0.00195623
 ,-0.02295470,-0.00105655,0.00348006,-0.00205556,-0.00138667,-0.0003367
 2,0.00295290,-0.00031738,-0.00008021,0.00065492,-0.00055389,-0.0005088
 7,0.00140050,-0.00000437,-0.00030835,0.00022474,0.08231338,-0.05601966
 ,0.28252469,0.00065756,-0.00053634,0.00083374,-0.00051274,-0.00024434,
 -0.00050638,-0.12306020,0.03444423,-0.10923199,-0.01858892,0.00631610,
 -0.02418752,-0.00011654,-0.00156162,-0.00191085,-0.00029653,0.00035772
 ,0.00097535,-0.00001118,0.00022936,-0.00032659,0.00004152,0.00022799,0
 .00013688,0.00000973,-0.00011114,0.00003594,0.00007866,0.00006954,0.00
 010115,0.00055620,0.00035988,-0.00000729,-0.00006027,0.00000702,0.0001
 7028,0.00041873,-0.00045441,0.00027558,0.13666884,0.00133583,0.0024969
 1,0.00092150,0.01737441,-0.01040035,0.02851316,0.03512672,-0.06075670,
 0.04622276,-0.00798097,0.00196212,-0.00936888,0.00001569,-0.00090675,-
 0.00039883,0.00005843,0.00028452,0.00017911,-0.00107547,0.00135543,0.0
 0065785,-0.00012163,-0.00075305,0.00049637,0.00043294,-0.00003002,-0.0
 0072849,-0.00024795,-0.00005123,0.00001026,-0.00070751,-0.00016458,-0.
 00091383,0.00015913,0.00034238,-0.00035748,0.00076020,-0.00619268,-0.0
 0018327,-0.03514771,0.06868892,-0.00006974,-0.00077067,0.00069944,-0.0
 0147238,0.00200142,-0.00402336,-0.10984220,0.04573393,-0.21229362,0.00
 354547,-0.00136320,0.00455930,-0.00011076,-0.00008846,0.00020617,-0.00
 024710,0.00010920,0.00005754,0.00021442,0.00012334,0.00043691,-0.00001
 602,0.00007860,0.00008810,0.00003800,-0.00005256,0.00005910,0.00001504
 ,0.00008267,-0.00017879,0.00061353,0.00055891,0.00035343,0.00018788,-0
 .00009590,0.00027014,0.00003051,0.00094071,0.00148265,0.12137262,-0.05
 375988,0.22716797,0.00039308,0.00008987,-0.00047625,-0.00124374,0.0009
 5221,-0.00047663,-0.09229431,0.04476580,0.08734465,-0.01181627,0.01388
 698,0.02236173,-0.00513313,-0.00425523,0.00006609,-0.00128139,0.002187
 15,0.00186804,0.00049903,0.00057361,0.00012286,0.00032938,-0.00039257,
 0.00042652,-0.00001582,0.00016834,-0.00030237,0.00010623,0.00006112,0.
 00018725,0.00009148,-0.00002118,0.00005475,-0.00004745,0.00005101,0.00
 015030,0.00016511,0.00016223,0.00010035,0.00772921,-0.00767424,-0.0146
 4621,0.10116379,0.00094890,0.00051873,-0.00019927,0.01391880,-0.012613
 62,-0.02612988,0.04596575,-0.09135649,-0.08885049,-0.00579656,0.005997
 49,0.01022526,-0.00168513,-0.00361954,-0.00087795,-0.00046380,0.001445
 42,0.00093207,0.00030303,-0.00584679,0.00201306,0.00097288,0.00081371,
 -0.00205957,-0.00031841,-0.00017415,0.00043863,-0.00077097,0.00000800,
 0.00023663,-0.00002837,-0.00004193,0.00008794,-0.00028116,0.00006181,0
 .00042629,-0.00007837,0.00197842,0.00029863,-0.00344821,0.00339383,0.0
 0662810,-0.05074631,0.09977938,-0.00014545,-0.00026931,-0.00021142,-0.
 00250894,0.00328672,0.00371158,0.09023027,-0.09048927,-0.22262147,-0.0
 0031084,-0.00053042,-0.00140407,-0.00057661,0.00138948,0.00087675,-0.0
 0005700,-0.00024806,0.00002773,-0.00007373,0.00071010,0.00108918,-0.00
 016124,0.00060447,-0.00006744,-0.00003259,-0.00029528,0.00022381,-0.00
 022925,-0.00031514,0.00005048,0.00009206,0.00007033,0.00007942,-0.0001
 5717,-0.00006140,0.00013585,-0.00010775,-0.00037059,0.00113467,0.01069
 499,-0.01086058,-0.02113814,-0.09680852,0.09703993,0.23691091,0.000844
 45,-0.00186947,0.00028817,-0.00633005,-0.00044817,0.00060748,0.0010806
 4,-0.02633798,0.01306994,-0.05085821,-0.02286861,0.01523796,0.00133668
 ,0.01022101,-0.01095477,0.00016613,-0.00148618,0.00134662,-0.00027374,
 0.00111992,0.00254888,0.00018653,-0.00051621,0.00033843,0.00007172,0.0
 0016875,-0.00037860,0.00013513,0.00007970,0.00001264,-0.00002876,0.000
 03717,-0.00011731,-0.00065675,-0.00037441,-0.00018361,0.00006774,-0.00
 003765,0.00019999,0.00188826,0.00062802,-0.00055816,-0.00062715,-0.000
 05265,0.00046941,0.05121349,0.00033329,-0.00015798,0.00022188,-0.00026
 975,-0.00039368,-0.00081630,0.00095041,-0.00263301,0.00084418,-0.02338
 001,-0.24995046,0.11553689,-0.00353186,-0.02118211,0.01241410,-0.00096
 774,0.00402074,-0.00091887,-0.00020078,-0.00258776,-0.00221770,-0.0008
 3793,0.00037510,-0.00044541,0.00021984,-0.00022116,0.00034630,-0.00004
 946,0.00001283,0.00001961,-0.00001388,-0.00002238,-0.00003414,-0.00012
 930,-0.00002373,-0.00003119,0.00004725,0.00003326,0.00011670,-0.000187
 37,0.00047484,-0.00031080,-0.00028789,-0.00018436,-0.00008925,0.028334
 89,0.27047844,-0.00022355,0.00021155,0.00028751,0.00133047,-0.00117538
 ,-0.00004370,-0.00108259,0.00208951,-0.00242279,0.01618337,0.11572330,
 -0.10441653,-0.00101443,-0.01757031,0.00844007,-0.00179818,0.00208616,
 0.00015680,-0.00040233,-0.00279041,-0.00224819,-0.00054997,0.00027058,
 -0.00056397,0.00010093,-0.00012711,0.00044964,-0.00006952,-0.00002762,
 -0.00000462,0.00008554,0.00005639,0.00000837,0.00008069,0.00006205,0.0
 0004377,-0.00005806,-0.00043141,0.00019721,-0.00006365,-0.00063459,0.0
 0092270,0.00032443,0.00022374,-0.00019636,-0.01474833,-0.12309632,0.11
 275981,-0.00000700,-0.00034257,0.00021710,0.00046879,0.00124857,-0.000
 25039,-0.01805544,-0.00159485,-0.02848738,-0.09698476,-0.00740132,-0.1
 0395677,0.00683185,-0.00169094,0.01444716,-0.00228522,0.00133746,-0.00
 146559,-0.00089380,0.00128155,-0.00149047,0.00073997,-0.00014973,0.000
 03274,-0.00013144,0.00031632,-0.00031367,0.00001520,0.00002934,-0.0000
 4074,0.00018564,0.00013673,0.00019466,-0.00004238,-0.00012518,0.000105
 96,0.00018386,-0.00064803,0.00038104,-0.00544786,-0.00312029,0.0013191
 6,0.00209311,0.00100188,-0.00001056,0.00132271,0.00012434,0.00214995,0
 .11241706,-0.00010840,-0.00005319,0.00014239,-0.00019525,0.00042418,-0
 .00067165,-0.00286763,-0.00078788,-0.00581895,-0.01136920,-0.04393675,
 -0.01994353,-0.01153056,-0.00126399,-0.02294548,0.00122955,-0.00012747
 ,0.00210549,0.00256148,-0.00379648,0.00331253,-0.00147436,0.00020897,-
 0.00077873,0.00031824,-0.00063452,0.00089529,-0.00002783,-0.00000493,-
 0.00001293,0.00006838,-0.00002182,0.00006165,0.00003131,0.00000067,0.0
 0003817,-0.00020927,-0.00026321,0.00040472,-0.00053947,0.00041022,0.00
 000038,0.00039145,0.00041018,0.00025672,0.01300853,0.00271174,0.025684
 45,0.01015253,0.04548419,0.00012529,-0.00012900,0.00018410,-0.00008020
 ,-0.00012058,-0.00004043,0.00353222,0.00119936,0.00618780,-0.10995783,
 -0.01289105,-0.24129726,-0.00729457,-0.00074225,-0.01871295,0.00146744
 ,-0.00131038,0.00274930,0.00133567,-0.00224439,0.00094772,-0.00083036,
 0.00020862,-0.00050880,0.00016599,-0.00035778,0.00051196,0.00000605,0.
 00001440,-0.00000445,0.00003980,0.00007517,-0.00007671,-0.00003071,-0.
 00000229,-0.00004241,-0.00000368,-0.00016411,0.00008189,0.00153458,0.0
 0063473,0.00107893,-0.00040912,-0.00040066,0.00125291,-0.00704047,-0.0
 0145744,-0.01336706,0.11710534,0.01720458,0.26114273,0.00249617,-0.000
 27926,0.00097291,0.00782072,0.00283840,0.02269183,0.00016112,-0.000671
 28,-0.00025073,0.00059774,-0.00146729,0.00159356,-0.01206351,-0.004492
 39,-0.01768792,0.00238452,-0.00077996,0.00265689,-0.07962287,-0.010372
 74,-0.09074947,-0.00576788,-0.00381833,-0.01748058,0.00000653,0.002483
 65,0.00089495,0.00019293,0.00004582,-0.00022199,-0.00013550,0.00026430
 ,-0.00075551,-0.00011655,-0.00016402,-0.00005889,-0.00303403,0.0018774
 0,0.00336642,0.00004363,0.00013001,-0.00029646,-0.00005233,0.00005995,
 -0.00027826,0.00035139,-0.00027115,-0.00024009,-0.00039599,0.00043720,
 0.00027822,0.08626607,-0.00047049,0.00011603,0.00052570,-0.00225577,-0
 .00066702,-0.00604761,-0.00013078,0.00026473,-0.00054416,0.00170748,-0
 .00314871,0.00439972,-0.01631673,-0.00693019,-0.02434705,0.00332447,0.
 00041467,0.00204241,-0.01124037,-0.03593003,-0.03820261,0.01209609,0.0
 0273781,0.02965076,-0.00010024,-0.00458623,-0.00281230,-0.00006440,-0.
 00017184,0.00000580,0.00023796,0.00021403,0.00013055,0.00006667,-0.000
 06594,0.00020411,0.00071988,-0.00034514,-0.00001273,0.00025843,-0.0001
 9204,0.00014649,0.00017467,-0.00000126,0.00017583,0.00045359,-0.000738
 52,-0.00060666,-0.00045436,0.00119887,0.00049159,0.01378088,0.04834242
 ,-0.00186007,-0.00019911,0.00145556,-0.00632253,-0.00135060,-0.0202084
 2,-0.00025444,0.00066747,0.00017853,-0.00050270,-0.00015119,-0.0003746
 8,0.00165718,-0.00060161,0.00084034,0.00019791,0.00081538,0.00028161,-
 0.08605807,-0.03704077,-0.24539004,-0.00374465,0.00085780,-0.01140501,
 -0.00127827,0.00046793,0.00197609,-0.00010576,-0.00005926,0.00044028,0
 .00100171,0.00020621,0.00044115,0.00019187,0.00020690,-0.00012226,0.00
 309996,-0.00172369,-0.00199291,0.00014543,-0.00042099,0.00026726,0.000
 09748,-0.00021660,0.00020905,-0.00016458,-0.00004254,0.00002008,0.0000
 9161,-0.00001589,-0.00012175,0.09393731,0.03764520,0.27254799,0.000227
 07,0.00019767,0.00008831,0.00114228,0.00277495,-0.00235636,-0.00060563
 ,0.00012000,0.00106121,0.00004563,0.00016373,0.00030923,-0.00443842,-0
 .00013141,0.00118504,0.00251923,-0.00089065,-0.00128035,-0.00679550,0.
 00951455,0.01595887,-0.19268506,0.04344745,0.09097914,0.00618971,-0.00
 673187,0.02081208,-0.00012990,-0.00008223,-0.00000252,-0.00007126,-0.0
 0000594,-0.00004836,-0.00012501,-0.00007952,0.00000919,0.00021299,-0.0
 0037133,0.00001574,0.00000189,0.00005440,-0.00007761,-0.00005883,0.000
 49875,-0.00002881,0.00010978,0.00011710,-0.00000468,-0.00001431,0.0001
 2330,0.00005631,0.00086784,-0.00178695,-0.00012939,0.19360749,0.000146
 54,-0.00039580,-0.00043672,0.00154257,-0.00309272,0.00370145,0.0010497
 5,0.00020357,-0.00120150,-0.00002444,0.00030101,0.00023767,0.00278473,
 0.00287700,-0.00244971,-0.00232087,0.00093825,0.00151911,0.02329722,-0
 .00050476,-0.01069536,0.03939745,-0.07213568,-0.02871466,-0.01918130,0
 .01295302,0.02633657,0.00026333,0.00012935,-0.00001711,-0.00000417,0.0
 0001240,0.00001968,0.00005119,0.00004417,0.00005591,-0.00018045,0.0000
 3045,-0.00011639,-0.00003964,0.00003823,0.00003772,-0.00008702,-0.0005
 6883,-0.00000428,-0.00006023,-0.00001180,0.00005208,-0.00010145,0.0000
 4122,-0.00000850,0.00039879,-0.00051166,0.00095537,-0.04693200,0.05965
 260,0.00030633,0.00010598,-0.00016061,0.00026717,0.00236598,0.00020441
 ,-0.00017888,0.00021535,0.00042930,0.00004450,0.00006217,0.00048463,0.
 00120175,0.00117737,-0.00047475,-0.00100996,0.00074184,-0.00015531,-0.
 00050644,0.00497704,0.01043789,0.09180970,-0.03190188,-0.12471701,0.03
 330827,0.01411510,-0.02689718,0.00006752,-0.00007155,-0.00001651,-0.00
 001010,-0.00007401,0.00002776,-0.00030904,-0.00018234,-0.00008501,-0.0
 0004113,0.00036903,0.00005491,-0.00004228,-0.00000893,-0.00001574,0.00
 001465,0.00018414,-0.00006345,0.00002631,-0.00003969,-0.00002277,-0.00
 002914,0.00008078,0.00003446,0.00162782,-0.00284503,0.00095713,-0.1265
 4706,0.01072866,0.13997785\\-0.00000953,-0.00000920,-0.00000334,0.0000
 1734,0.00000287,0.00000517,-0.00001022,0.00000384,-0.00000569,0.000003
 48,-0.00000383,-0.00001062,-0.00000708,0.00002749,-0.00000091,-0.00000
 487,-0.00000499,-0.00000048,0.00000481,-0.00001074,0.00002276,-0.00001
 857,-0.00000115,-0.00001273,-0.00000004,-0.00000238,-0.00000122,0.0000
 0270,0.00000017,-0.00000037,-0.00000043,0.00000233,0.00000037,0.000004
 24,0.00000178,-0.00000002,0.00000091,-0.00000491,-0.00000003,0.0000035
 6,0.00000015,0.00000426,0.00000815,-0.00000131,0.00000335,-0.00000089,
 0.00000199,0.00000390,-0.00000093,-0.00000480,0.00000522,0.00000215,-0
 .00000318,-0.00000681,0.00000522,0.00000587,-0.00000281\\\@


 MODELS ARE TO BE USED, NOT BELIEVED.

    -- PARAPHRASED BY H. THIEL IN "PRINCIPLES OF ECONOMETRICS"
 Job cpu time:       0 days  0 hours 40 minutes 22.2 seconds.
 File lengths (MBytes):  RWF=    152 Int=      0 D2E=      0 Chk=      8 Scr=      1
 Normal termination of Gaussian 09 at Tue Jan 28 04:34:53 2020.
