 Entering Gaussian System, Link 0=/home/puck/opt/gaussian_09/g09
 Input=dsC7O2H10nsd_3628.com
 Output=dsC7O2H10nsd_3628.log
 Initial command:
 /home/puck/opt/gaussian_09/l1.exe "/scratch/puck/g09_91782695-606f-4af9-8b82-14085a2649a6/Gau-71761.inp" -scrdir="/scratch/puck/g09_91782695-606f-4af9-8b82-14085a2649a6/"
 Entering Link 1 = /home/puck/opt/gaussian_09/l1.exe PID=     71763.
  
 Copyright (c) 1988,1990,1992,1993,1995,1998,2003,2009,2013,
            Gaussian, Inc.  All Rights Reserved.
  
 This is part of the Gaussian(R) 09 program.  It is based on
 the Gaussian(R) 03 system (copyright 2003, Gaussian, Inc.),
 the Gaussian(R) 98 system (copyright 1998, Gaussian, Inc.),
 the Gaussian(R) 94 system (copyright 1995, Gaussian, Inc.),
 the Gaussian 92(TM) system (copyright 1992, Gaussian, Inc.),
 the Gaussian 90(TM) system (copyright 1990, Gaussian, Inc.),
 the Gaussian 88(TM) system (copyright 1988, Gaussian, Inc.),
 the Gaussian 86(TM) system (copyright 1986, Carnegie Mellon
 University), and the Gaussian 82(TM) system (copyright 1983,
 Carnegie Mellon University). Gaussian is a federally registered
 trademark of Gaussian, Inc.
  
 This software contains proprietary and confidential information,
 including trade secrets, belonging to Gaussian, Inc.
  
 This software is provided under written license and may be
 used, copied, transmitted, or stored only in accord with that
 written license.
  
 The following legend is applicable only to US Government
 contracts under FAR:
  
                    RESTRICTED RIGHTS LEGEND
  
 Use, reproduction and disclosure by the US Government is
 subject to restrictions as set forth in subparagraphs (a)
 and (c) of the Commercial Computer Software - Restricted
 Rights clause in FAR 52.227-19.
  
 Gaussian, Inc.
 340 Quinnipiac St., Bldg. 40, Wallingford CT 06492
  
  
 ---------------------------------------------------------------
 Warning -- This program may not be used in any manner that
 competes with the business of Gaussian, Inc. or will provide
 assistance to any competitor of Gaussian, Inc.  The licensee
 of this program is prohibited from giving any competitor of
 Gaussian, Inc. access to this program.  By using this program,
 the user acknowledges that Gaussian, Inc. is engaged in the
 business of creating and licensing software in the field of
 computational chemistry and represents and warrants to the
 licensee that it is not a competitor of Gaussian, Inc. and that
 it will not use this program in any manner prohibited above.
 ---------------------------------------------------------------
  

 Cite this work as:
 Gaussian 09, Revision D.01,
 M. J. Frisch, G. W. Trucks, H. B. Schlegel, G. E. Scuseria, 
 M. A. Robb, J. R. Cheeseman, G. Scalmani, V. Barone, B. Mennucci, 
 G. A. Petersson, H. Nakatsuji, M. Caricato, X. Li, H. P. Hratchian, 
 A. F. Izmaylov, J. Bloino, G. Zheng, J. L. Sonnenberg, M. Hada, 
 M. Ehara, K. Toyota, R. Fukuda, J. Hasegawa, M. Ishida, T. Nakajima, 
 Y. Honda, O. Kitao, H. Nakai, T. Vreven, J. A. Montgomery, Jr., 
 J. E. Peralta, F. Ogliaro, M. Bearpark, J. J. Heyd, E. Brothers, 
 K. N. Kudin, V. N. Staroverov, T. Keith, R. Kobayashi, J. Normand, 
 K. Raghavachari, A. Rendell, J. C. Burant, S. S. Iyengar, J. Tomasi, 
 M. Cossi, N. Rega, J. M. Millam, M. Klene, J. E. Knox, J. B. Cross, 
 V. Bakken, C. Adamo, J. Jaramillo, R. Gomperts, R. E. Stratmann, 
 O. Yazyev, A. J. Austin, R. Cammi, C. Pomelli, J. W. Ochterski, 
 R. L. Martin, K. Morokuma, V. G. Zakrzewski, G. A. Voth, 
 P. Salvador, J. J. Dannenberg, S. Dapprich, A. D. Daniels, 
 O. Farkas, J. B. Foresman, J. V. Ortiz, J. Cioslowski, 
 and D. J. Fox, Gaussian, Inc., Wallingford CT, 2013.
 
 ******************************************
 Gaussian 09:  ES64L-G09RevD.01 24-Apr-2013
                28-Jan-2020 
 ******************************************
 -----------------------------
 # b3lyp 6-31G(2df,p) opt Freq
 -----------------------------
 1/14=-1,18=20,19=15,26=3,38=1/1,3;
 2/9=110,12=2,17=6,18=5,40=1/2;
 3/5=1,6=6,7=104,11=2,16=1,25=1,30=1,71=1,74=-5/1,2,3;
 4//1;
 5/5=2,38=5/2;
 6/7=2,8=2,9=2,10=2,28=1/1;
 7//1,2,3,16;
 1/14=-1,18=20,19=15,26=3/3(2);
 2/9=110/2;
 99//99;
 2/9=110/2;
 3/5=1,6=6,7=104,11=2,16=1,25=1,30=1,71=1,74=-5/1,2,3;
 4/5=5,16=3,69=1/1;
 5/5=2,38=5/2;
 7//1,2,3,16;
 1/14=-1,18=20,19=15,26=3/3(-5);
 2/9=110/2;
 6/7=2,8=2,9=2,10=2,19=2,28=1/1;
 99/9=1/99;
 -----
 titel
 -----
 Symbolic Z-matrix:
 Charge =  0 Multiplicity = 1
 C                     1.50625   0.94231   0.20278 
 C                     1.07014  -0.51783   0.09639 
 O                     1.57855  -1.30703   1.19264 
 C                     2.77274  -1.97318   0.79231 
 C                     4.01179  -1.20318   1.24886 
 O                     5.08177  -1.24445   0.69908 
 C                     2.69905  -2.12877  -0.71164 
 C                     1.40866  -2.69222  -1.24356 
 C                     1.59345  -1.19953  -1.15753 
 H                     1.22136   1.35272   1.1751 
 H                     2.59073   1.04302   0.08636 
 H                     1.02684   1.54214  -0.5783 
 H                    -0.0217   -0.57978   0.17983 
 H                     2.79063  -2.93522   1.32864 
 H                     3.83859  -0.59752   2.167 
 H                     3.62901  -2.23496  -1.25403 
 H                     1.43218  -3.14203  -2.22978 
 H                     0.72606  -3.16581  -0.54405 
 H                     1.67879  -0.61344  -2.06477 
 

 GradGradGradGradGradGradGradGradGradGradGradGradGradGradGradGradGradGrad
 Berny optimization.
 Initialization pass.
                           ----------------------------
                           !    Initial Parameters    !
                           ! (Angstroms and Degrees)  !
 --------------------------                            --------------------------
 ! Name  Definition              Value          Derivative Info.                !
 --------------------------------------------------------------------------------
 ! R1    R(1,2)                  1.5276         estimate D2E/DX2                !
 ! R2    R(1,10)                 1.0932         estimate D2E/DX2                !
 ! R3    R(1,11)                 1.0953         estimate D2E/DX2                !
 ! R4    R(1,12)                 1.0953         estimate D2E/DX2                !
 ! R5    R(2,3)                  1.4433         estimate D2E/DX2                !
 ! R6    R(2,9)                  1.5202         estimate D2E/DX2                !
 ! R7    R(2,13)                 1.0968         estimate D2E/DX2                !
 ! R8    R(3,4)                  1.4248         estimate D2E/DX2                !
 ! R9    R(4,5)                  1.5286         estimate D2E/DX2                !
 ! R10   R(4,7)                  1.5138         estimate D2E/DX2                !
 ! R11   R(4,14)                 1.1016         estimate D2E/DX2                !
 ! R12   R(5,6)                  1.2037         estimate D2E/DX2                !
 ! R13   R(5,15)                 1.1135         estimate D2E/DX2                !
 ! R14   R(7,8)                  1.5052         estimate D2E/DX2                !
 ! R15   R(7,9)                  1.5115         estimate D2E/DX2                !
 ! R16   R(7,16)                 1.0818         estimate D2E/DX2                !
 ! R17   R(8,9)                  1.5065         estimate D2E/DX2                !
 ! R18   R(8,17)                 1.0842         estimate D2E/DX2                !
 ! R19   R(8,18)                 1.0861         estimate D2E/DX2                !
 ! R20   R(9,19)                 1.0835         estimate D2E/DX2                !
 ! A1    A(2,1,10)             110.2675         estimate D2E/DX2                !
 ! A2    A(2,1,11)             111.2931         estimate D2E/DX2                !
 ! A3    A(2,1,12)             110.4158         estimate D2E/DX2                !
 ! A4    A(10,1,11)            108.5447         estimate D2E/DX2                !
 ! A5    A(10,1,12)            108.3374         estimate D2E/DX2                !
 ! A6    A(11,1,12)            107.8906         estimate D2E/DX2                !
 ! A7    A(1,2,3)              111.6663         estimate D2E/DX2                !
 ! A8    A(1,2,9)              112.8186         estimate D2E/DX2                !
 ! A9    A(1,2,13)             109.4448         estimate D2E/DX2                !
 ! A10   A(3,2,9)              105.0728         estimate D2E/DX2                !
 ! A11   A(3,2,13)             105.1885         estimate D2E/DX2                !
 ! A12   A(9,2,13)             112.3413         estimate D2E/DX2                !
 ! A13   A(2,3,4)              109.7233         estimate D2E/DX2                !
 ! A14   A(3,4,5)              111.0975         estimate D2E/DX2                !
 ! A15   A(3,4,7)              106.6425         estimate D2E/DX2                !
 ! A16   A(3,4,14)             106.5659         estimate D2E/DX2                !
 ! A17   A(5,4,7)              112.8284         estimate D2E/DX2                !
 ! A18   A(5,4,14)             106.3405         estimate D2E/DX2                !
 ! A19   A(7,4,14)             113.2494         estimate D2E/DX2                !
 ! A20   A(4,5,6)              124.5319         estimate D2E/DX2                !
 ! A21   A(4,5,15)             113.2154         estimate D2E/DX2                !
 ! A22   A(6,5,15)             122.2461         estimate D2E/DX2                !
 ! A23   A(4,7,8)              115.5512         estimate D2E/DX2                !
 ! A24   A(4,7,9)              105.3968         estimate D2E/DX2                !
 ! A25   A(4,7,16)             117.7988         estimate D2E/DX2                !
 ! A26   A(8,7,16)             121.5369         estimate D2E/DX2                !
 ! A27   A(9,7,16)             122.7669         estimate D2E/DX2                !
 ! A28   A(7,8,17)             117.2688         estimate D2E/DX2                !
 ! A29   A(7,8,18)             118.3229         estimate D2E/DX2                !
 ! A30   A(9,8,17)             117.4091         estimate D2E/DX2                !
 ! A31   A(9,8,18)             118.188          estimate D2E/DX2                !
 ! A32   A(17,8,18)            114.7455         estimate D2E/DX2                !
 ! A33   A(2,9,7)              106.5086         estimate D2E/DX2                !
 ! A34   A(2,9,8)              116.6921         estimate D2E/DX2                !
 ! A35   A(2,9,19)             118.3742         estimate D2E/DX2                !
 ! A36   A(7,9,19)             121.4649         estimate D2E/DX2                !
 ! A37   A(8,9,19)             119.8562         estimate D2E/DX2                !
 ! D1    D(10,1,2,3)           -54.4902         estimate D2E/DX2                !
 ! D2    D(10,1,2,9)          -172.5712         estimate D2E/DX2                !
 ! D3    D(10,1,2,13)           61.5636         estimate D2E/DX2                !
 ! D4    D(11,1,2,3)            66.0269         estimate D2E/DX2                !
 ! D5    D(11,1,2,9)           -52.0541         estimate D2E/DX2                !
 ! D6    D(11,1,2,13)         -177.9193         estimate D2E/DX2                !
 ! D7    D(12,1,2,3)          -174.1797         estimate D2E/DX2                !
 ! D8    D(12,1,2,9)            67.7393         estimate D2E/DX2                !
 ! D9    D(12,1,2,13)          -58.1259         estimate D2E/DX2                !
 ! D10   D(1,2,3,4)            -96.7336         estimate D2E/DX2                !
 ! D11   D(9,2,3,4)             25.8923         estimate D2E/DX2                !
 ! D12   D(13,2,3,4)           144.6449         estimate D2E/DX2                !
 ! D13   D(1,2,9,7)            106.3018         estimate D2E/DX2                !
 ! D14   D(1,2,9,8)            170.346          estimate D2E/DX2                !
 ! D15   D(1,2,9,19)           -34.852          estimate D2E/DX2                !
 ! D16   D(3,2,9,7)            -15.5774         estimate D2E/DX2                !
 ! D17   D(3,2,9,8)             48.4668         estimate D2E/DX2                !
 ! D18   D(3,2,9,19)          -156.7312         estimate D2E/DX2                !
 ! D19   D(13,2,9,7)          -129.4078         estimate D2E/DX2                !
 ! D20   D(13,2,9,8)           -65.3636         estimate D2E/DX2                !
 ! D21   D(13,2,9,19)           89.4384         estimate D2E/DX2                !
 ! D22   D(2,3,4,5)             97.5548         estimate D2E/DX2                !
 ! D23   D(2,3,4,7)            -25.7681         estimate D2E/DX2                !
 ! D24   D(2,3,4,14)          -147.0167         estimate D2E/DX2                !
 ! D25   D(3,4,5,6)           -153.0899         estimate D2E/DX2                !
 ! D26   D(3,4,5,15)            27.8303         estimate D2E/DX2                !
 ! D27   D(7,4,5,6)            -33.3891         estimate D2E/DX2                !
 ! D28   D(7,4,5,15)           147.5312         estimate D2E/DX2                !
 ! D29   D(14,4,5,6)            91.342          estimate D2E/DX2                !
 ! D30   D(14,4,5,15)          -87.7377         estimate D2E/DX2                !
 ! D31   D(3,4,7,8)            -48.942          estimate D2E/DX2                !
 ! D32   D(3,4,7,9)             14.6633         estimate D2E/DX2                !
 ! D33   D(3,4,7,16)           155.9053         estimate D2E/DX2                !
 ! D34   D(5,4,7,8)           -171.1809         estimate D2E/DX2                !
 ! D35   D(5,4,7,9)           -107.5755         estimate D2E/DX2                !
 ! D36   D(5,4,7,16)            33.6664         estimate D2E/DX2                !
 ! D37   D(14,4,7,8)            67.9497         estimate D2E/DX2                !
 ! D38   D(14,4,7,9)           131.5551         estimate D2E/DX2                !
 ! D39   D(14,4,7,16)          -87.203          estimate D2E/DX2                !
 ! D40   D(4,7,8,17)          -158.8053         estimate D2E/DX2                !
 ! D41   D(4,7,8,18)           -14.4376         estimate D2E/DX2                !
 ! D42   D(16,7,8,17)           -4.6619         estimate D2E/DX2                !
 ! D43   D(16,7,8,18)          139.7059         estimate D2E/DX2                !
 ! D44   D(4,7,9,2)              0.7465         estimate D2E/DX2                !
 ! D45   D(4,7,9,19)           140.4295         estimate D2E/DX2                !
 ! D46   D(16,7,9,2)          -138.0621         estimate D2E/DX2                !
 ! D47   D(16,7,9,19)            1.6209         estimate D2E/DX2                !
 ! D48   D(17,8,9,2)           158.3216         estimate D2E/DX2                !
 ! D49   D(17,8,9,19)            3.9114         estimate D2E/DX2                !
 ! D50   D(18,8,9,2)            13.9441         estimate D2E/DX2                !
 ! D51   D(18,8,9,19)         -140.466          estimate D2E/DX2                !
 --------------------------------------------------------------------------------
 Trust Radius=3.00D-01 FncErr=1.00D-07 GrdErr=1.00D-06
 Number of steps in this run=    114 maximum allowed number of steps=    114.
 GradGradGradGradGradGradGradGradGradGradGradGradGradGradGradGradGradGrad

                          Input orientation:                          
 ---------------------------------------------------------------------
 Center     Atomic      Atomic             Coordinates (Angstroms)
 Number     Number       Type             X           Y           Z
 ---------------------------------------------------------------------
      1          6           0        1.506252    0.942306    0.202782
      2          6           0        1.070142   -0.517828    0.096388
      3          8           0        1.578546   -1.307033    1.192637
      4          6           0        2.772740   -1.973176    0.792310
      5          6           0        4.011790   -1.203177    1.248856
      6          8           0        5.081768   -1.244450    0.699082
      7          6           0        2.699048   -2.128774   -0.711636
      8          6           0        1.408660   -2.692222   -1.243558
      9          6           0        1.593453   -1.199535   -1.157532
     10          1           0        1.221358    1.352718    1.175105
     11          1           0        2.590727    1.043017    0.086363
     12          1           0        1.026845    1.542137   -0.578299
     13          1           0       -0.021697   -0.579779    0.179830
     14          1           0        2.790626   -2.935217    1.328640
     15          1           0        3.838587   -0.597525    2.167001
     16          1           0        3.629015   -2.234957   -1.254033
     17          1           0        1.432181   -3.142034   -2.229777
     18          1           0        0.726065   -3.165814   -0.544048
     19          1           0        1.678787   -0.613438   -2.064768
 ---------------------------------------------------------------------
                    Distance matrix (angstroms):
                    1          2          3          4          5
     1  C    0.000000
     2  C    1.527581   0.000000
     3  O    2.458570   1.443289   0.000000
     4  C    3.232890   2.345461   1.424819   0.000000
     5  C    3.460504   3.232828   2.436108   1.528586   0.000000
     6  O    4.220489   4.121209   3.538372   2.423085   1.203665
     7  C    3.419131   2.429277   2.357338   1.513769   2.534472
     8  C    3.912956   2.576439   2.807607   2.553919   3.899445
     9  C    2.538807   1.520162   2.352673   2.406475   3.411608
    10  H    1.093167   2.164587   2.683685   3.689836   3.784778
    11  H    1.095346   2.179109   2.787667   3.103049   2.901068
    12  H    1.095315   2.168071   3.399759   4.157421   4.448049
    13  H    2.156826   1.096773   2.028658   3.182070   4.219058
    14  H    4.237023   3.212831   2.034360   1.101587   2.120747
    15  H    3.415995   3.458045   2.561361   2.217706   1.113464
    16  H    4.089429   3.364521   3.324404   2.233664   2.734144
    17  H    4.754437   3.525418   3.886074   3.506613   4.744938
    18  H    4.247717   2.745975   2.682884   2.719764   4.226398
    19  H    2.755338   2.247261   3.331938   3.347912   4.095217
                    6          7          8          9         10
     6  O    0.000000
     7  C    2.906803   0.000000
     8  C    4.400184   1.505163   0.000000
     9  C    3.951882   1.511506   1.506541   0.000000
    10  H    4.677033   4.226600   4.716625   3.477591   0.000000
    11  H    3.437035   3.272430   4.137388   2.751521   1.776639
    12  H    5.083224   4.036042   4.303272   2.858901   1.774300
    13  H    5.172694   3.255235   2.921365   2.186628   2.504057
    14  H    2.916225   2.195783   2.930031   3.259888   4.568650
    15  H    2.029482   3.453957   4.682330   4.056545   3.411333
    16  H    2.627975   1.081807   2.266975   2.285810   4.956706
    17  H    5.049606   2.221801   1.084210   2.224640   5.642736
    18  H    4.920280   2.235218   1.086067   2.234945   4.859828
    19  H    4.429144   2.273355   2.251377   1.083452   3.817301
                   11         12         13         14         15
    11  H    0.000000
    12  H    1.771052   0.000000
    13  H    3.076843   2.485302   0.000000
    14  H    4.172477   5.176296   3.844089   0.000000
    15  H    2.928751   4.474451   4.341768   2.695529   0.000000
    16  H    3.690503   4.636199   4.257144   2.804186   3.798496
    17  H    4.921523   4.983286   3.805933   3.814509   5.621118
    18  H    4.646358   4.717673   2.787602   2.796882   4.861449
    19  H    2.864060   2.698355   2.816203   4.259351   4.751090
                   16         17         18         19
    16  H    0.000000
    17  H    2.569230   0.000000
    18  H    3.130127   1.827799   0.000000
    19  H    2.662706   2.545947   3.120079   0.000000
 Stoichiometry    C7H10O2
 Framework group  C1[X(C7H10O2)]
 Deg. of freedom    51
 Full point group                 C1      NOp   1
 Largest Abelian subgroup         C1      NOp   1
 Largest concise Abelian subgroup C1      NOp   1
                         Standard orientation:                         
 ---------------------------------------------------------------------
 Center     Atomic      Atomic             Coordinates (Angstroms)
 Number     Number       Type             X           Y           Z
 ---------------------------------------------------------------------
      1          6           0       -1.003857    2.027556   -0.554588
      2          6           0       -1.280895    0.735272    0.211412
      3          8           0       -0.277542    0.487454    1.218861
      4          6           0        0.705543   -0.408595    0.708224
      5          6           0        1.928968    0.350948    0.195484
      6          8           0        2.668813   -0.048904   -0.665653
      7          6           0        0.027921   -1.226953   -0.370021
      8          6           0       -1.296030   -1.833300    0.010786
      9          6           0       -1.257739   -0.495374   -0.680701
     10          1           0       -0.899770    2.864861    0.140467
     11          1           0       -0.085529    1.949980   -1.146565
     12          1           0       -1.828548    2.249479   -1.240408
     13          1           0       -2.223907    0.832735    0.762902
     14          1           0        1.051628   -1.014205    1.560841
     15          1           0        2.089661    1.324156    0.712058
     16          1           0        0.651720   -1.666121   -1.137036
     17          1           0       -1.637308   -2.684475   -0.567610
     18          1           0       -1.567281   -1.859857    1.062099
     19          1           0       -1.624301   -0.402282   -1.696002
 ---------------------------------------------------------------------
 Rotational constants (GHZ):      2.3013160      1.5784716      1.2077492
 Standard basis: 6-31G(2df,p) (6D, 7F)
 There are   329 symmetry adapted cartesian basis functions of A   symmetry.
 There are   302 symmetry adapted basis functions of A   symmetry.
   302 basis functions,   466 primitive gaussians,   329 cartesian basis functions
    34 alpha electrons       34 beta electrons
       nuclear repulsion energy       467.7829404136 Hartrees.
 NAtoms=   19 NActive=   19 NUniq=   19 SFac= 1.00D+00 NAtFMM=   60 NAOKFM=F Big=F
 Integral buffers will be    131072 words long.
 Raffenetti 2 integral format.
 Two-electron integral symmetry is turned on.
 One-electron integrals computed using PRISM.
 NBasis=   302 RedAO= T EigKep=  4.66D-04  NBF=   302
 NBsUse=   302 1.00D-06 EigRej= -1.00D+00 NBFU=   302
 ExpMin= 1.61D-01 ExpMax= 5.48D+03 ExpMxC= 8.25D+02 IAcc=1 IRadAn=         1 AccDes= 0.00D+00
 Harris functional with IExCor=  402 and IRadAn=       1 diagonalized for initial guess.
 HarFok:  IExCor=  402 AccDes= 0.00D+00 IRadAn=         1 IDoV= 1 UseB2=F ITyADJ=14
 ICtDFT=  3500011 ScaDFX=  1.000000  1.000000  1.000000  1.000000
 FoFCou: FMM=F IPFlag=           0 FMFlag=      100000 FMFlg1=           0
         NFxFlg=           0 DoJE=T BraDBF=F KetDBF=T FulRan=T
         wScrn=  0.000000 ICntrl=     500 IOpCl=  0 I1Cent=   200000004 NGrid=           0
         NMat0=    1 NMatS0=      1 NMatT0=    0 NMatD0=    1 NMtDS0=    0 NMtDT0=    0
 Petite list used in FoFCou.
 Requested convergence on RMS density matrix=1.00D-08 within 128 cycles.
 Requested convergence on MAX density matrix=1.00D-06.
 Requested convergence on             energy=1.00D-06.
 No special actions if energy rises.
 Integral accuracy reduced to 1.0D-05 until final iterations.
 Initial convergence to 1.0D-05 achieved.  Increase integral accuracy.
 SCF Done:  E(RB3LYP) =  -423.190103673     A.U. after   14 cycles
            NFock= 14  Conv=0.62D-08     -V/T= 2.0075

 **********************************************************************

            Population analysis using the SCF density.

 **********************************************************************

 Orbital symmetries:
       Occupied  (A) (A) (A) (A) (A) (A) (A) (A) (A) (A) (A) (A)
                 (A) (A) (A) (A) (A) (A) (A) (A) (A) (A) (A) (A)
                 (A) (A) (A) (A) (A) (A) (A) (A) (A) (A)
       Virtual   (A) (A) (A) (A) (A) (A) (A) (A) (A) (A) (A) (A)
                 (A) (A) (A) (A) (A) (A) (A) (A) (A) (A) (A) (A)
                 (A) (A) (A) (A) (A) (A) (A) (A) (A) (A) (A) (A)
                 (A) (A) (A) (A) (A) (A) (A) (A) (A) (A) (A) (A)
                 (A) (A) (A) (A) (A) (A) (A) (A) (A) (A) (A) (A)
                 (A) (A) (A) (A) (A) (A) (A) (A) (A) (A) (A) (A)
                 (A) (A) (A) (A) (A) (A) (A) (A) (A) (A) (A) (A)
                 (A) (A) (A) (A) (A) (A) (A) (A) (A) (A) (A) (A)
                 (A) (A) (A) (A) (A) (A) (A) (A) (A) (A) (A) (A)
                 (A) (A) (A) (A) (A) (A) (A) (A) (A) (A) (A) (A)
                 (A) (A) (A) (A) (A) (A) (A) (A) (A) (A) (A) (A)
                 (A) (A) (A) (A) (A) (A) (A) (A) (A) (A) (A) (A)
                 (A) (A) (A) (A) (A) (A) (A) (A) (A) (A) (A) (A)
                 (A) (A) (A) (A) (A) (A) (A) (A) (A) (A) (A) (A)
                 (A) (A) (A) (A) (A) (A) (A) (A) (A) (A) (A) (A)
                 (A) (A) (A) (A) (A) (A) (A) (A) (A) (A) (A) (A)
                 (A) (A) (A) (A) (A) (A) (A) (A) (A) (A) (A) (A)
                 (A) (A) (A) (A) (A) (A) (A) (A) (A) (A) (A) (A)
                 (A) (A) (A) (A) (A) (A) (A) (A) (A) (A) (A) (A)
                 (A) (A) (A) (A) (A) (A) (A) (A) (A) (A) (A) (A)
                 (A) (A) (A) (A) (A) (A) (A) (A) (A) (A) (A) (A)
                 (A) (A) (A) (A) (A) (A) (A) (A) (A) (A) (A) (A)
                 (A) (A) (A) (A)
 The electronic state is 1-A.
 Alpha  occ. eigenvalues --  -19.14774 -19.14659 -10.27155 -10.24399 -10.24076
 Alpha  occ. eigenvalues --  -10.19945 -10.19848 -10.19271 -10.18101  -1.05613
 Alpha  occ. eigenvalues --   -1.04176  -0.86608  -0.78009  -0.71877  -0.63581
 Alpha  occ. eigenvalues --   -0.61430  -0.57942  -0.56446  -0.51967  -0.49261
 Alpha  occ. eigenvalues --   -0.46741  -0.45035  -0.43832  -0.42383  -0.40903
 Alpha  occ. eigenvalues --   -0.39671  -0.38804  -0.38049  -0.34956  -0.32175
 Alpha  occ. eigenvalues --   -0.30484  -0.29641  -0.28143  -0.23983
 Alpha virt. eigenvalues --   -0.02902   0.08834   0.10465   0.11076   0.12018
 Alpha virt. eigenvalues --    0.13299   0.13588   0.14731   0.15815   0.16601
 Alpha virt. eigenvalues --    0.16790   0.17879   0.19244   0.20122   0.22857
 Alpha virt. eigenvalues --    0.23562   0.26404   0.27933   0.28672   0.29191
 Alpha virt. eigenvalues --    0.33842   0.41548   0.43015   0.45403   0.47696
 Alpha virt. eigenvalues --    0.48244   0.49128   0.50899   0.52480   0.52700
 Alpha virt. eigenvalues --    0.55089   0.56051   0.56661   0.57896   0.58592
 Alpha virt. eigenvalues --    0.60129   0.61623   0.62697   0.63201   0.66623
 Alpha virt. eigenvalues --    0.69528   0.70549   0.72544   0.73225   0.74431
 Alpha virt. eigenvalues --    0.75310   0.76164   0.76458   0.77257   0.80256
 Alpha virt. eigenvalues --    0.81271   0.82480   0.82830   0.86645   0.87661
 Alpha virt. eigenvalues --    0.89431   0.93449   0.94580   0.95908   0.97953
 Alpha virt. eigenvalues --    0.98204   1.02672   1.03896   1.05975   1.08264
 Alpha virt. eigenvalues --    1.10863   1.13788   1.14429   1.16916   1.19289
 Alpha virt. eigenvalues --    1.21694   1.22661   1.24586   1.29272   1.30484
 Alpha virt. eigenvalues --    1.32288   1.34698   1.36582   1.39195   1.40942
 Alpha virt. eigenvalues --    1.41378   1.42703   1.43468   1.46774   1.47850
 Alpha virt. eigenvalues --    1.51492   1.51885   1.53730   1.54847   1.56349
 Alpha virt. eigenvalues --    1.58549   1.61133   1.64508   1.65075   1.67967
 Alpha virt. eigenvalues --    1.69316   1.69896   1.72726   1.74810   1.75980
 Alpha virt. eigenvalues --    1.78378   1.81148   1.85535   1.86163   1.90264
 Alpha virt. eigenvalues --    1.93486   1.94271   1.96830   2.04229   2.05595
 Alpha virt. eigenvalues --    2.08548   2.10009   2.18082   2.25432   2.28047
 Alpha virt. eigenvalues --    2.29631   2.30602   2.35341   2.37778   2.40332
 Alpha virt. eigenvalues --    2.44892   2.47369   2.49955   2.55398   2.56187
 Alpha virt. eigenvalues --    2.62573   2.65376   2.66509   2.71819   2.74878
 Alpha virt. eigenvalues --    2.75568   2.77510   2.80640   2.83932   2.85104
 Alpha virt. eigenvalues --    2.85660   2.88783   2.89112   2.91965   2.93143
 Alpha virt. eigenvalues --    2.95361   2.97640   2.98306   3.01905   3.04405
 Alpha virt. eigenvalues --    3.06072   3.06766   3.11079   3.12565   3.15159
 Alpha virt. eigenvalues --    3.15804   3.19783   3.19825   3.20861   3.26365
 Alpha virt. eigenvalues --    3.27411   3.29442   3.30683   3.31187   3.34285
 Alpha virt. eigenvalues --    3.34578   3.37202   3.41953   3.44724   3.47417
 Alpha virt. eigenvalues --    3.50873   3.54256   3.55268   3.58020   3.58765
 Alpha virt. eigenvalues --    3.61508   3.66837   3.68166   3.71195   3.74929
 Alpha virt. eigenvalues --    3.77369   3.82419   3.87725   3.91350   3.92735
 Alpha virt. eigenvalues --    3.99544   4.01487   4.04666   4.11061   4.13111
 Alpha virt. eigenvalues --    4.14298   4.19219   4.21236   4.23005   4.25999
 Alpha virt. eigenvalues --    4.29585   4.30827   4.33336   4.34490   4.35928
 Alpha virt. eigenvalues --    4.38851   4.39290   4.40823   4.45942   4.46939
 Alpha virt. eigenvalues --    4.48799   4.51660   4.54069   4.55024   4.55731
 Alpha virt. eigenvalues --    4.59261   4.61712   4.62868   4.65729   4.66931
 Alpha virt. eigenvalues --    4.67367   4.68321   4.70081   4.72452   4.75388
 Alpha virt. eigenvalues --    4.77803   4.79367   4.80941   4.83702   4.83978
 Alpha virt. eigenvalues --    4.84687   4.86560   4.90135   4.91582   4.94850
 Alpha virt. eigenvalues --    4.96058   5.00288   5.03411   5.07996   5.08637
 Alpha virt. eigenvalues --    5.12049   5.17500   5.20752   5.25453   5.30373
 Alpha virt. eigenvalues --    5.32021   5.34814   5.42893   5.46132   5.50418
 Alpha virt. eigenvalues --    5.53077   5.54691   5.55445   5.59472   5.66924
 Alpha virt. eigenvalues --    5.73002   5.79831   5.84318   5.89557   5.99550
 Alpha virt. eigenvalues --    6.03271   6.06242   6.18274   6.25019   6.28155
 Alpha virt. eigenvalues --    6.33695   6.67216   6.79560   7.13540  10.63792
 Alpha virt. eigenvalues --   11.02743  11.49592  11.90160  12.19972  12.25344
 Alpha virt. eigenvalues --   12.54040  12.95441  13.54283
          Condensed to atoms (all electrons):
               1          2          3          4          5          6
     1  C    5.071079   0.386267  -0.038325   0.006452  -0.000303  -0.000342
     2  C    0.386267   4.617817   0.364974  -0.106650   0.001878  -0.000149
     3  O   -0.038325   0.364974   7.760547   0.329511  -0.022814   0.001149
     4  C    0.006452  -0.106650   0.329511   5.159128   0.253614  -0.068385
     5  C   -0.000303   0.001878  -0.022814   0.253614   4.593035   0.739076
     6  O   -0.000342  -0.000149   0.001149  -0.068385   0.739076   7.609442
     7  C   -0.004296  -0.022805  -0.045769   0.291279  -0.010298   0.001584
     8  C    0.005061   0.001058   0.006826   0.006384   0.003272   0.000223
     9  C   -0.041787   0.373774  -0.049537  -0.037145  -0.001942   0.000592
    10  H    0.367126  -0.017256   0.000567  -0.000146   0.000034   0.000009
    11  H    0.368669  -0.020181  -0.002012  -0.001390   0.004063   0.000274
    12  H    0.353291  -0.017216   0.002752  -0.000509  -0.000044   0.000004
    13  H   -0.063332   0.367826  -0.026290   0.003297  -0.000067   0.000002
    14  H   -0.000356   0.004535  -0.021552   0.337531  -0.039583   0.000932
    15  H    0.000119  -0.000247   0.013776  -0.121414   0.343750  -0.049925
    16  H    0.000123   0.004978   0.002520  -0.050302  -0.000206   0.011539
    17  H   -0.000099   0.001578   0.000090   0.001047  -0.000060   0.000000
    18  H    0.000318  -0.004640   0.003337  -0.004297   0.000297  -0.000005
    19  H   -0.003663  -0.041618   0.002409   0.004889   0.000277  -0.000007
               7          8          9         10         11         12
     1  C   -0.004296   0.005061  -0.041787   0.367126   0.368669   0.353291
     2  C   -0.022805   0.001058   0.373774  -0.017256  -0.020181  -0.017216
     3  O   -0.045769   0.006826  -0.049537   0.000567  -0.002012   0.002752
     4  C    0.291279   0.006384  -0.037145  -0.000146  -0.001390  -0.000509
     5  C   -0.010298   0.003272  -0.001942   0.000034   0.004063  -0.000044
     6  O    0.001584   0.000223   0.000592   0.000009   0.000274   0.000004
     7  C    4.878449   0.282198   0.363657  -0.000002   0.002495   0.000315
     8  C    0.282198   5.068191   0.297130  -0.000172  -0.000016  -0.000130
     9  C    0.363657   0.297130   4.847365   0.004162  -0.005808   0.000173
    10  H   -0.000002  -0.000172   0.004162   0.581101  -0.031301  -0.028325
    11  H    0.002495  -0.000016  -0.005808  -0.031301   0.581093  -0.028021
    12  H    0.000315  -0.000130   0.000173  -0.028325  -0.028021   0.597852
    13  H    0.005127  -0.007317  -0.037150  -0.002104   0.005660   0.000194
    14  H   -0.025020  -0.007148   0.004718   0.000004   0.000050   0.000009
    15  H    0.009652  -0.000184   0.000362   0.000284   0.000593   0.000043
    16  H    0.382830  -0.037170  -0.027482  -0.000003  -0.000093   0.000003
    17  H   -0.015783   0.372957  -0.014581   0.000002   0.000001  -0.000002
    18  H   -0.018725   0.373328  -0.021537  -0.000004   0.000014  -0.000008
    19  H   -0.030908  -0.036439   0.382759  -0.000022   0.000633   0.001591
              13         14         15         16         17         18
     1  C   -0.063332  -0.000356   0.000119   0.000123  -0.000099   0.000318
     2  C    0.367826   0.004535  -0.000247   0.004978   0.001578  -0.004640
     3  O   -0.026290  -0.021552   0.013776   0.002520   0.000090   0.003337
     4  C    0.003297   0.337531  -0.121414  -0.050302   0.001047  -0.004297
     5  C   -0.000067  -0.039583   0.343750  -0.000206  -0.000060   0.000297
     6  O    0.000002   0.000932  -0.049925   0.011539   0.000000  -0.000005
     7  C    0.005127  -0.025020   0.009652   0.382830  -0.015783  -0.018725
     8  C   -0.007317  -0.007148  -0.000184  -0.037170   0.372957   0.373328
     9  C   -0.037150   0.004718   0.000362  -0.027482  -0.014581  -0.021537
    10  H   -0.002104   0.000004   0.000284  -0.000003   0.000002  -0.000004
    11  H    0.005660   0.000050   0.000593  -0.000093   0.000001   0.000014
    12  H    0.000194   0.000009   0.000043   0.000003  -0.000002  -0.000008
    13  H    0.662185  -0.000005   0.000059  -0.000110   0.000080   0.001930
    14  H   -0.000005   0.625846   0.004576   0.003349   0.000082   0.001666
    15  H    0.000059   0.004576   0.707824   0.000698   0.000002  -0.000006
    16  H   -0.000110   0.003349   0.000698   0.601997  -0.004615   0.002224
    17  H    0.000080   0.000082   0.000002  -0.004615   0.585371  -0.036810
    18  H    0.001930   0.001666  -0.000006   0.002224  -0.036810   0.577716
    19  H    0.003124  -0.000117  -0.000006  -0.004893  -0.005622   0.002506
              19
     1  C   -0.003663
     2  C   -0.041618
     3  O    0.002409
     4  C    0.004889
     5  C    0.000277
     6  O   -0.000007
     7  C   -0.030908
     8  C   -0.036439
     9  C    0.382759
    10  H   -0.000022
    11  H    0.000633
    12  H    0.001591
    13  H    0.003124
    14  H   -0.000117
    15  H   -0.000006
    16  H   -0.004893
    17  H   -0.005622
    18  H    0.002506
    19  H    0.630829
 Mulliken charges:
               1
     1  C   -0.406001
     2  C    0.106076
     3  O   -0.282161
     4  C   -0.002895
     5  C    0.136023
     6  O   -0.246011
     7  C   -0.043980
     8  C   -0.328051
     9  C   -0.037723
    10  H    0.126049
    11  H    0.125277
    12  H    0.118028
    13  H    0.086891
    14  H    0.110483
    15  H    0.090045
    16  H    0.114614
    17  H    0.116362
    18  H    0.122695
    19  H    0.094279
 Sum of Mulliken charges =   0.00000
 Mulliken charges with hydrogens summed into heavy atoms:
               1
     1  C   -0.036647
     2  C    0.192968
     3  O   -0.282161
     4  C    0.107588
     5  C    0.226068
     6  O   -0.246011
     7  C    0.070634
     8  C   -0.088994
     9  C    0.056556
 Electronic spatial extent (au):  <R**2>=           1099.4697
 Charge=              0.0000 electrons
 Dipole moment (field-independent basis, Debye):
    X=             -1.9919    Y=             -0.1008    Z=              0.0597  Tot=              1.9954
 Quadrupole moment (field-independent basis, Debye-Ang):
   XX=            -57.8461   YY=            -51.0382   ZZ=            -54.1269
   XY=              0.4073   XZ=              5.0406   YZ=             -0.6712
 Traceless Quadrupole moment (field-independent basis, Debye-Ang):
   XX=             -3.5090   YY=              3.2989   ZZ=              0.2101
   XY=              0.4073   XZ=              5.0406   YZ=             -0.6712
 Octapole moment (field-independent basis, Debye-Ang**2):
  XXX=            -13.7180  YYY=              1.8435  ZZZ=             -1.2845  XYY=              1.3953
  XXY=              4.1330  XXZ=             12.2124  XZZ=              1.1291  YZZ=             -3.4208
  YYZ=             -0.3966  XYZ=             -0.3287
 Hexadecapole moment (field-independent basis, Debye-Ang**3):
 XXXX=           -755.2844 YYYY=           -512.9084 ZZZZ=           -210.4630 XXXY=             -3.5427
 XXXZ=             21.1098 YYYX=              3.7504 YYYZ=             12.3189 ZZZX=             -1.4299
 ZZZY=             -0.9944 XXYY=           -192.8667 XXZZ=           -146.9726 YYZZ=           -117.1776
 XXYZ=              0.7010 YYXZ=             -1.1348 ZZXY=             -0.2730
 N-N= 4.677829404136D+02 E-N=-1.922027999330D+03  KE= 4.200385456423D+02
 Calling FoFJK, ICntrl=      2127 FMM=F ISym2X=0 I1Cent= 0 IOpClX= 0 NMat=1 NMatS=1 NMatT=0.
 ***** Axes restored to original set *****
 -------------------------------------------------------------------
 Center     Atomic                   Forces (Hartrees/Bohr)
 Number     Number              X              Y              Z
 -------------------------------------------------------------------
      1        6           0.000000916   -0.000009345   -0.000013932
      2        6          -0.000019538   -0.000008052   -0.000007805
      3        8           0.000015458   -0.000007347   -0.000006004
      4        6          -0.000032834    0.000004738   -0.000003796
      5        6           0.000030686    0.000018701   -0.000002966
      6        8          -0.000012035   -0.000002313    0.000012689
      7        6           0.000056464   -0.000007738    0.000054579
      8        6          -0.000046817   -0.000074707   -0.000030465
      9        6           0.000000082    0.000061920   -0.000003936
     10        1           0.000005281    0.000005261   -0.000005807
     11        1           0.000004029    0.000000787   -0.000004868
     12        1           0.000006870    0.000007044   -0.000010015
     13        1          -0.000001605    0.000006380    0.000005569
     14        1          -0.000009501   -0.000002435    0.000003647
     15        1           0.000003818   -0.000001749   -0.000003643
     16        1          -0.000012118   -0.000009290   -0.000008943
     17        1          -0.000001653    0.000009749    0.000005312
     18        1           0.000007003    0.000018984    0.000020268
     19        1           0.000005494   -0.000010588    0.000000116
 -------------------------------------------------------------------
 Cartesian Forces:  Max     0.000074707 RMS     0.000020760

 GradGradGradGradGradGradGradGradGradGradGradGradGradGradGradGradGradGrad
 Berny optimization.
 FormGI is forming the generalized inverse of G from B-inverse, IUseBI=4.
 Internal  Forces:  Max     0.000031339 RMS     0.000007305
 Search for a local minimum.
 Step number   1 out of a maximum of  114
 All quantities printed in internal units (Hartrees-Bohrs-Radians)
 Mixed Optimization -- En-DIIS/RFO-DIIS
 Second derivative matrix not updated -- first step.
 ITU=  0
     Eigenvalues ---    0.00388   0.00389   0.00401   0.00975   0.01117
     Eigenvalues ---    0.01879   0.02062   0.02949   0.03087   0.04188
     Eigenvalues ---    0.04860   0.05048   0.05256   0.05557   0.05660
     Eigenvalues ---    0.06493   0.07717   0.08226   0.09429   0.10433
     Eigenvalues ---    0.11605   0.13074   0.14149   0.16000   0.16000
     Eigenvalues ---    0.16000   0.16000   0.16182   0.19032   0.19954
     Eigenvalues ---    0.21990   0.22000   0.22734   0.27902   0.29554
     Eigenvalues ---    0.29648   0.30401   0.31274   0.32236   0.33507
     Eigenvalues ---    0.34041   0.34202   0.34206   0.34449   0.35271
     Eigenvalues ---    0.35490   0.35580   0.35777   0.37119   0.39518
     Eigenvalues ---    1.03003
 RFO step:  Lambda=-4.16668315D-08 EMin= 3.87804769D-03
 Linear search not attempted -- first point.
 Iteration  1 RMS(Cart)=  0.00014810 RMS(Int)=  0.00000004
 Iteration  2 RMS(Cart)=  0.00000003 RMS(Int)=  0.00000002
 Variable       Old X    -DE/DX   Delta X   Delta X   Delta X     New X
                                 (Linear)    (Quad)   (Total)
    R1        2.88671   0.00000   0.00000  -0.00001  -0.00001   2.88670
    R2        2.06579   0.00000   0.00000   0.00000   0.00000   2.06579
    R3        2.06990   0.00000   0.00000   0.00000   0.00000   2.06990
    R4        2.06985   0.00000   0.00000   0.00001   0.00001   2.06986
    R5        2.72742   0.00000   0.00000   0.00002   0.00002   2.72744
    R6        2.87269  -0.00001   0.00000  -0.00002  -0.00002   2.87267
    R7        2.07260   0.00000   0.00000   0.00001   0.00001   2.07261
    R8        2.69252  -0.00001   0.00000  -0.00003  -0.00003   2.69249
    R9        2.88861   0.00003   0.00000   0.00009   0.00009   2.88870
   R10        2.86061  -0.00001   0.00000  -0.00003  -0.00003   2.86057
   R11        2.08170   0.00000   0.00000   0.00001   0.00001   2.08171
   R12        2.27460  -0.00002   0.00000  -0.00002  -0.00002   2.27458
   R13        2.10414  -0.00001   0.00000  -0.00002  -0.00002   2.10413
   R14        2.84435   0.00003   0.00000   0.00012   0.00012   2.84446
   R15        2.85633   0.00003   0.00000   0.00007   0.00007   2.85640
   R16        2.04432   0.00000   0.00000  -0.00001  -0.00001   2.04431
   R17        2.84695   0.00003   0.00000   0.00008   0.00008   2.84703
   R18        2.04886  -0.00001   0.00000  -0.00002  -0.00002   2.04884
   R19        2.05237  -0.00001   0.00000  -0.00001  -0.00001   2.05235
   R20        2.04743   0.00000   0.00000  -0.00001  -0.00001   2.04742
    A1        1.92453   0.00000   0.00000  -0.00001  -0.00001   1.92452
    A2        1.94243   0.00000   0.00000   0.00000   0.00000   1.94243
    A3        1.92712   0.00001   0.00000   0.00006   0.00006   1.92718
    A4        1.89446   0.00000   0.00000  -0.00003  -0.00003   1.89444
    A5        1.89084   0.00000   0.00000   0.00000   0.00000   1.89084
    A6        1.88305   0.00000   0.00000  -0.00002  -0.00002   1.88303
    A7        1.94894   0.00000   0.00000  -0.00001  -0.00001   1.94893
    A8        1.96906  -0.00001   0.00000  -0.00006  -0.00006   1.96900
    A9        1.91017   0.00000   0.00000   0.00001   0.00001   1.91018
   A10        1.83387   0.00000   0.00000  -0.00003  -0.00003   1.83383
   A11        1.83589   0.00000   0.00000   0.00000   0.00000   1.83588
   A12        1.96073   0.00001   0.00000   0.00010   0.00010   1.96082
   A13        1.91503   0.00001   0.00000   0.00005   0.00005   1.91509
   A14        1.93902   0.00000   0.00000   0.00003   0.00003   1.93905
   A15        1.86126   0.00000   0.00000   0.00000   0.00000   1.86127
   A16        1.85993   0.00000   0.00000  -0.00004  -0.00004   1.85988
   A17        1.96923   0.00000   0.00000   0.00002   0.00002   1.96924
   A18        1.85599   0.00000   0.00000   0.00004   0.00004   1.85603
   A19        1.97657   0.00000   0.00000  -0.00005  -0.00005   1.97653
   A20        2.17349   0.00000   0.00000   0.00002   0.00002   2.17351
   A21        1.97598   0.00000   0.00000   0.00000   0.00000   1.97598
   A22        2.13360   0.00000   0.00000  -0.00003  -0.00003   2.13357
   A23        2.01675   0.00000   0.00000   0.00001   0.00001   2.01676
   A24        1.83952   0.00000   0.00000  -0.00003  -0.00003   1.83949
   A25        2.05598   0.00001   0.00000   0.00009   0.00009   2.05607
   A26        2.12122  -0.00001   0.00000  -0.00008  -0.00008   2.12113
   A27        2.14269   0.00000   0.00000  -0.00004  -0.00004   2.14265
   A28        2.04673   0.00000   0.00000   0.00006   0.00006   2.04679
   A29        2.06513  -0.00001   0.00000  -0.00011  -0.00011   2.06501
   A30        2.04918  -0.00001   0.00000  -0.00007  -0.00007   2.04910
   A31        2.06277  -0.00001   0.00000  -0.00010  -0.00010   2.06267
   A32        2.00269   0.00001   0.00000   0.00014   0.00014   2.00282
   A33        1.85893   0.00000   0.00000   0.00004   0.00004   1.85897
   A34        2.03666  -0.00001   0.00000  -0.00011  -0.00011   2.03655
   A35        2.06602   0.00001   0.00000   0.00006   0.00006   2.06607
   A36        2.11996   0.00000   0.00000  -0.00002  -0.00002   2.11995
   A37        2.09189   0.00000   0.00000   0.00000   0.00000   2.09189
    D1       -0.95103   0.00000   0.00000  -0.00005  -0.00005  -0.95109
    D2       -3.01194   0.00000   0.00000   0.00003   0.00003  -3.01190
    D3        1.07449   0.00000   0.00000  -0.00006  -0.00006   1.07443
    D4        1.15239   0.00000   0.00000  -0.00010  -0.00010   1.15229
    D5       -0.90852   0.00000   0.00000  -0.00001  -0.00001  -0.90853
    D6       -3.10528   0.00000   0.00000  -0.00010  -0.00010  -3.10538
    D7       -3.04001   0.00000   0.00000  -0.00008  -0.00008  -3.04009
    D8        1.18227   0.00000   0.00000   0.00000   0.00000   1.18228
    D9       -1.01449   0.00000   0.00000  -0.00009  -0.00009  -1.01458
   D10       -1.68832   0.00001   0.00000  -0.00002  -0.00002  -1.68834
   D11        0.45191   0.00000   0.00000  -0.00012  -0.00012   0.45179
   D12        2.52453   0.00001   0.00000  -0.00002  -0.00002   2.52451
   D13        1.85532   0.00000   0.00000   0.00012   0.00012   1.85544
   D14        2.97310   0.00000   0.00000   0.00015   0.00015   2.97325
   D15       -0.60828   0.00000   0.00000   0.00003   0.00003  -0.60825
   D16       -0.27188   0.00001   0.00000   0.00019   0.00019  -0.27169
   D17        0.84591   0.00000   0.00000   0.00022   0.00022   0.84612
   D18       -2.73548   0.00000   0.00000   0.00010   0.00010  -2.73538
   D19       -2.25859   0.00000   0.00000   0.00016   0.00016  -2.25843
   D20       -1.14081   0.00000   0.00000   0.00019   0.00019  -1.14062
   D21        1.56100   0.00000   0.00000   0.00007   0.00007   1.56107
   D22        1.70265   0.00000   0.00000   0.00004   0.00004   1.70269
   D23       -0.44974   0.00000   0.00000   0.00000   0.00000  -0.44974
   D24       -2.56593   0.00000   0.00000   0.00007   0.00007  -2.56585
   D25       -2.67192   0.00000   0.00000  -0.00043  -0.00043  -2.67235
   D26        0.48573   0.00000   0.00000   0.00051   0.00051   0.48624
   D27       -0.58275   0.00000   0.00000  -0.00040  -0.00040  -0.58314
   D28        2.57491   0.00000   0.00000   0.00055   0.00055   2.57545
   D29        1.59422   0.00000   0.00000  -0.00042  -0.00042   1.59380
   D30       -1.53131   0.00000   0.00000   0.00052   0.00052  -1.53079
   D31       -0.85420   0.00000   0.00000   0.00012   0.00012  -0.85408
   D32        0.25592   0.00000   0.00000   0.00010   0.00010   0.25603
   D33        2.72106   0.00000   0.00000   0.00010   0.00010   2.72116
   D34       -2.98767   0.00000   0.00000   0.00007   0.00007  -2.98760
   D35       -1.87755   0.00000   0.00000   0.00005   0.00005  -1.87749
   D36        0.58759   0.00000   0.00000   0.00005   0.00005   0.58764
   D37        1.18595   0.00000   0.00000   0.00005   0.00005   1.18599
   D38        2.29607   0.00000   0.00000   0.00003   0.00003   2.29610
   D39       -1.52198   0.00000   0.00000   0.00003   0.00003  -1.52195
   D40       -2.77168  -0.00001   0.00000  -0.00017  -0.00017  -2.77185
   D41       -0.25198   0.00001   0.00000   0.00003   0.00003  -0.25196
   D42       -0.08136   0.00000   0.00000  -0.00010  -0.00010  -0.08147
   D43        2.43833   0.00001   0.00000   0.00009   0.00009   2.43842
   D44        0.01303   0.00000   0.00000  -0.00017  -0.00017   0.01286
   D45        2.45096   0.00000   0.00000  -0.00004  -0.00004   2.45091
   D46       -2.40964  -0.00001   0.00000  -0.00024  -0.00024  -2.40988
   D47        0.02829   0.00000   0.00000  -0.00011  -0.00011   0.02818
   D48        2.76323   0.00000   0.00000  -0.00023  -0.00023   2.76301
   D49        0.06827   0.00000   0.00000  -0.00012  -0.00012   0.06815
   D50        0.24337  -0.00001   0.00000  -0.00022  -0.00022   0.24315
   D51       -2.45159  -0.00001   0.00000  -0.00011  -0.00011  -2.45171
         Item               Value     Threshold  Converged?
 Maximum Force            0.000031     0.000450     YES
 RMS     Force            0.000007     0.000300     YES
 Maximum Displacement     0.000526     0.001800     YES
 RMS     Displacement     0.000148     0.001200     YES
 Predicted change in Energy=-2.083295D-08
 Optimization completed.
    -- Stationary point found.
                           ----------------------------
                           !   Optimized Parameters   !
                           ! (Angstroms and Degrees)  !
 --------------------------                            --------------------------
 ! Name  Definition              Value          Derivative Info.                !
 --------------------------------------------------------------------------------
 ! R1    R(1,2)                  1.5276         -DE/DX =    0.0                 !
 ! R2    R(1,10)                 1.0932         -DE/DX =    0.0                 !
 ! R3    R(1,11)                 1.0953         -DE/DX =    0.0                 !
 ! R4    R(1,12)                 1.0953         -DE/DX =    0.0                 !
 ! R5    R(2,3)                  1.4433         -DE/DX =    0.0                 !
 ! R6    R(2,9)                  1.5202         -DE/DX =    0.0                 !
 ! R7    R(2,13)                 1.0968         -DE/DX =    0.0                 !
 ! R8    R(3,4)                  1.4248         -DE/DX =    0.0                 !
 ! R9    R(4,5)                  1.5286         -DE/DX =    0.0                 !
 ! R10   R(4,7)                  1.5138         -DE/DX =    0.0                 !
 ! R11   R(4,14)                 1.1016         -DE/DX =    0.0                 !
 ! R12   R(5,6)                  1.2037         -DE/DX =    0.0                 !
 ! R13   R(5,15)                 1.1135         -DE/DX =    0.0                 !
 ! R14   R(7,8)                  1.5052         -DE/DX =    0.0                 !
 ! R15   R(7,9)                  1.5115         -DE/DX =    0.0                 !
 ! R16   R(7,16)                 1.0818         -DE/DX =    0.0                 !
 ! R17   R(8,9)                  1.5065         -DE/DX =    0.0                 !
 ! R18   R(8,17)                 1.0842         -DE/DX =    0.0                 !
 ! R19   R(8,18)                 1.0861         -DE/DX =    0.0                 !
 ! R20   R(9,19)                 1.0835         -DE/DX =    0.0                 !
 ! A1    A(2,1,10)             110.2675         -DE/DX =    0.0                 !
 ! A2    A(2,1,11)             111.2931         -DE/DX =    0.0                 !
 ! A3    A(2,1,12)             110.4158         -DE/DX =    0.0                 !
 ! A4    A(10,1,11)            108.5447         -DE/DX =    0.0                 !
 ! A5    A(10,1,12)            108.3374         -DE/DX =    0.0                 !
 ! A6    A(11,1,12)            107.8906         -DE/DX =    0.0                 !
 ! A7    A(1,2,3)              111.6663         -DE/DX =    0.0                 !
 ! A8    A(1,2,9)              112.8186         -DE/DX =    0.0                 !
 ! A9    A(1,2,13)             109.4448         -DE/DX =    0.0                 !
 ! A10   A(3,2,9)              105.0728         -DE/DX =    0.0                 !
 ! A11   A(3,2,13)             105.1885         -DE/DX =    0.0                 !
 ! A12   A(9,2,13)             112.3413         -DE/DX =    0.0                 !
 ! A13   A(2,3,4)              109.7233         -DE/DX =    0.0                 !
 ! A14   A(3,4,5)              111.0975         -DE/DX =    0.0                 !
 ! A15   A(3,4,7)              106.6425         -DE/DX =    0.0                 !
 ! A16   A(3,4,14)             106.5659         -DE/DX =    0.0                 !
 ! A17   A(5,4,7)              112.8284         -DE/DX =    0.0                 !
 ! A18   A(5,4,14)             106.3405         -DE/DX =    0.0                 !
 ! A19   A(7,4,14)             113.2494         -DE/DX =    0.0                 !
 ! A20   A(4,5,6)              124.5319         -DE/DX =    0.0                 !
 ! A21   A(4,5,15)             113.2154         -DE/DX =    0.0                 !
 ! A22   A(6,5,15)             122.2461         -DE/DX =    0.0                 !
 ! A23   A(4,7,8)              115.5512         -DE/DX =    0.0                 !
 ! A24   A(4,7,9)              105.3968         -DE/DX =    0.0                 !
 ! A25   A(4,7,16)             117.7988         -DE/DX =    0.0                 !
 ! A26   A(8,7,16)             121.5369         -DE/DX =    0.0                 !
 ! A27   A(9,7,16)             122.7669         -DE/DX =    0.0                 !
 ! A28   A(7,8,17)             117.2688         -DE/DX =    0.0                 !
 ! A29   A(7,8,18)             118.3229         -DE/DX =    0.0                 !
 ! A30   A(9,8,17)             117.4091         -DE/DX =    0.0                 !
 ! A31   A(9,8,18)             118.188          -DE/DX =    0.0                 !
 ! A32   A(17,8,18)            114.7455         -DE/DX =    0.0                 !
 ! A33   A(2,9,7)              106.5086         -DE/DX =    0.0                 !
 ! A34   A(2,9,8)              116.6921         -DE/DX =    0.0                 !
 ! A35   A(2,9,19)             118.3742         -DE/DX =    0.0                 !
 ! A36   A(7,9,19)             121.4649         -DE/DX =    0.0                 !
 ! A37   A(8,9,19)             119.8562         -DE/DX =    0.0                 !
 ! D1    D(10,1,2,3)           -54.4902         -DE/DX =    0.0                 !
 ! D2    D(10,1,2,9)          -172.5712         -DE/DX =    0.0                 !
 ! D3    D(10,1,2,13)           61.5636         -DE/DX =    0.0                 !
 ! D4    D(11,1,2,3)            66.0269         -DE/DX =    0.0                 !
 ! D5    D(11,1,2,9)           -52.0541         -DE/DX =    0.0                 !
 ! D6    D(11,1,2,13)         -177.9193         -DE/DX =    0.0                 !
 ! D7    D(12,1,2,3)          -174.1797         -DE/DX =    0.0                 !
 ! D8    D(12,1,2,9)            67.7393         -DE/DX =    0.0                 !
 ! D9    D(12,1,2,13)          -58.1259         -DE/DX =    0.0                 !
 ! D10   D(1,2,3,4)            -96.7336         -DE/DX =    0.0                 !
 ! D11   D(9,2,3,4)             25.8923         -DE/DX =    0.0                 !
 ! D12   D(13,2,3,4)           144.6449         -DE/DX =    0.0                 !
 ! D13   D(1,2,9,7)            106.3018         -DE/DX =    0.0                 !
 ! D14   D(1,2,9,8)            170.346          -DE/DX =    0.0                 !
 ! D15   D(1,2,9,19)           -34.852          -DE/DX =    0.0                 !
 ! D16   D(3,2,9,7)            -15.5774         -DE/DX =    0.0                 !
 ! D17   D(3,2,9,8)             48.4668         -DE/DX =    0.0                 !
 ! D18   D(3,2,9,19)          -156.7312         -DE/DX =    0.0                 !
 ! D19   D(13,2,9,7)          -129.4078         -DE/DX =    0.0                 !
 ! D20   D(13,2,9,8)           -65.3636         -DE/DX =    0.0                 !
 ! D21   D(13,2,9,19)           89.4384         -DE/DX =    0.0                 !
 ! D22   D(2,3,4,5)             97.5548         -DE/DX =    0.0                 !
 ! D23   D(2,3,4,7)            -25.7681         -DE/DX =    0.0                 !
 ! D24   D(2,3,4,14)          -147.0167         -DE/DX =    0.0                 !
 ! D25   D(3,4,5,6)           -153.0899         -DE/DX =    0.0                 !
 ! D26   D(3,4,5,15)            27.8303         -DE/DX =    0.0                 !
 ! D27   D(7,4,5,6)            -33.3891         -DE/DX =    0.0                 !
 ! D28   D(7,4,5,15)           147.5312         -DE/DX =    0.0                 !
 ! D29   D(14,4,5,6)            91.342          -DE/DX =    0.0                 !
 ! D30   D(14,4,5,15)          -87.7377         -DE/DX =    0.0                 !
 ! D31   D(3,4,7,8)            -48.942          -DE/DX =    0.0                 !
 ! D32   D(3,4,7,9)             14.6633         -DE/DX =    0.0                 !
 ! D33   D(3,4,7,16)           155.9053         -DE/DX =    0.0                 !
 ! D34   D(5,4,7,8)           -171.1809         -DE/DX =    0.0                 !
 ! D35   D(5,4,7,9)           -107.5755         -DE/DX =    0.0                 !
 ! D36   D(5,4,7,16)            33.6664         -DE/DX =    0.0                 !
 ! D37   D(14,4,7,8)            67.9497         -DE/DX =    0.0                 !
 ! D38   D(14,4,7,9)           131.5551         -DE/DX =    0.0                 !
 ! D39   D(14,4,7,16)          -87.203          -DE/DX =    0.0                 !
 ! D40   D(4,7,8,17)          -158.8053         -DE/DX =    0.0                 !
 ! D41   D(4,7,8,18)           -14.4376         -DE/DX =    0.0                 !
 ! D42   D(16,7,8,17)           -4.6619         -DE/DX =    0.0                 !
 ! D43   D(16,7,8,18)          139.7059         -DE/DX =    0.0                 !
 ! D44   D(4,7,9,2)              0.7465         -DE/DX =    0.0                 !
 ! D45   D(4,7,9,19)           140.4295         -DE/DX =    0.0                 !
 ! D46   D(16,7,9,2)          -138.0621         -DE/DX =    0.0                 !
 ! D47   D(16,7,9,19)            1.6209         -DE/DX =    0.0                 !
 ! D48   D(17,8,9,2)           158.3216         -DE/DX =    0.0                 !
 ! D49   D(17,8,9,19)            3.9114         -DE/DX =    0.0                 !
 ! D50   D(18,8,9,2)            13.9441         -DE/DX =    0.0                 !
 ! D51   D(18,8,9,19)         -140.466          -DE/DX =    0.0                 !
 --------------------------------------------------------------------------------
 GradGradGradGradGradGradGradGradGradGradGradGradGradGradGradGradGradGrad

                          Input orientation:                          
 ---------------------------------------------------------------------
 Center     Atomic      Atomic             Coordinates (Angstroms)
 Number     Number       Type             X           Y           Z
 ---------------------------------------------------------------------
      1          6           0        1.506252    0.942306    0.202782
      2          6           0        1.070142   -0.517828    0.096388
      3          8           0        1.578546   -1.307033    1.192637
      4          6           0        2.772740   -1.973176    0.792310
      5          6           0        4.011790   -1.203177    1.248856
      6          8           0        5.081768   -1.244450    0.699082
      7          6           0        2.699048   -2.128774   -0.711636
      8          6           0        1.408660   -2.692222   -1.243558
      9          6           0        1.593453   -1.199535   -1.157532
     10          1           0        1.221358    1.352718    1.175105
     11          1           0        2.590727    1.043017    0.086363
     12          1           0        1.026845    1.542137   -0.578299
     13          1           0       -0.021697   -0.579779    0.179830
     14          1           0        2.790626   -2.935217    1.328640
     15          1           0        3.838587   -0.597525    2.167001
     16          1           0        3.629015   -2.234957   -1.254033
     17          1           0        1.432181   -3.142034   -2.229777
     18          1           0        0.726065   -3.165814   -0.544048
     19          1           0        1.678787   -0.613438   -2.064768
 ---------------------------------------------------------------------
                    Distance matrix (angstroms):
                    1          2          3          4          5
     1  C    0.000000
     2  C    1.527581   0.000000
     3  O    2.458570   1.443289   0.000000
     4  C    3.232890   2.345461   1.424819   0.000000
     5  C    3.460504   3.232828   2.436108   1.528586   0.000000
     6  O    4.220489   4.121209   3.538372   2.423085   1.203665
     7  C    3.419131   2.429277   2.357338   1.513769   2.534472
     8  C    3.912956   2.576439   2.807607   2.553919   3.899445
     9  C    2.538807   1.520162   2.352673   2.406475   3.411608
    10  H    1.093167   2.164587   2.683685   3.689836   3.784778
    11  H    1.095346   2.179109   2.787667   3.103049   2.901068
    12  H    1.095315   2.168071   3.399759   4.157421   4.448049
    13  H    2.156826   1.096773   2.028658   3.182070   4.219058
    14  H    4.237023   3.212831   2.034360   1.101587   2.120747
    15  H    3.415995   3.458045   2.561361   2.217706   1.113464
    16  H    4.089429   3.364521   3.324404   2.233664   2.734144
    17  H    4.754437   3.525418   3.886074   3.506613   4.744938
    18  H    4.247717   2.745975   2.682884   2.719764   4.226398
    19  H    2.755338   2.247261   3.331938   3.347912   4.095217
                    6          7          8          9         10
     6  O    0.000000
     7  C    2.906803   0.000000
     8  C    4.400184   1.505163   0.000000
     9  C    3.951882   1.511506   1.506541   0.000000
    10  H    4.677033   4.226600   4.716625   3.477591   0.000000
    11  H    3.437035   3.272430   4.137388   2.751521   1.776639
    12  H    5.083224   4.036042   4.303272   2.858901   1.774300
    13  H    5.172694   3.255235   2.921365   2.186628   2.504057
    14  H    2.916225   2.195783   2.930031   3.259888   4.568650
    15  H    2.029482   3.453957   4.682330   4.056545   3.411333
    16  H    2.627975   1.081807   2.266975   2.285810   4.956706
    17  H    5.049606   2.221801   1.084210   2.224640   5.642736
    18  H    4.920280   2.235218   1.086067   2.234945   4.859828
    19  H    4.429144   2.273355   2.251377   1.083452   3.817301
                   11         12         13         14         15
    11  H    0.000000
    12  H    1.771052   0.000000
    13  H    3.076843   2.485302   0.000000
    14  H    4.172477   5.176296   3.844089   0.000000
    15  H    2.928751   4.474451   4.341768   2.695529   0.000000
    16  H    3.690503   4.636199   4.257144   2.804186   3.798496
    17  H    4.921523   4.983286   3.805933   3.814509   5.621118
    18  H    4.646358   4.717673   2.787602   2.796882   4.861449
    19  H    2.864060   2.698355   2.816203   4.259351   4.751090
                   16         17         18         19
    16  H    0.000000
    17  H    2.569230   0.000000
    18  H    3.130127   1.827799   0.000000
    19  H    2.662706   2.545947   3.120079   0.000000
 Stoichiometry    C7H10O2
 Framework group  C1[X(C7H10O2)]
 Deg. of freedom    51
 Full point group                 C1      NOp   1
 Largest Abelian subgroup         C1      NOp   1
 Largest concise Abelian subgroup C1      NOp   1
                         Standard orientation:                         
 ---------------------------------------------------------------------
 Center     Atomic      Atomic             Coordinates (Angstroms)
 Number     Number       Type             X           Y           Z
 ---------------------------------------------------------------------
      1          6           0       -1.003857    2.027556   -0.554588
      2          6           0       -1.280895    0.735272    0.211412
      3          8           0       -0.277542    0.487454    1.218861
      4          6           0        0.705543   -0.408595    0.708224
      5          6           0        1.928968    0.350948    0.195484
      6          8           0        2.668813   -0.048904   -0.665653
      7          6           0        0.027921   -1.226953   -0.370021
      8          6           0       -1.296030   -1.833300    0.010786
      9          6           0       -1.257739   -0.495374   -0.680701
     10          1           0       -0.899770    2.864861    0.140467
     11          1           0       -0.085529    1.949980   -1.146565
     12          1           0       -1.828548    2.249479   -1.240408
     13          1           0       -2.223907    0.832735    0.762902
     14          1           0        1.051628   -1.014205    1.560841
     15          1           0        2.089661    1.324156    0.712058
     16          1           0        0.651720   -1.666121   -1.137036
     17          1           0       -1.637308   -2.684475   -0.567610
     18          1           0       -1.567281   -1.859857    1.062099
     19          1           0       -1.624301   -0.402282   -1.696002
 ---------------------------------------------------------------------
 Rotational constants (GHZ):      2.3013160      1.5784716      1.2077492
 1\1\GINC-ALCHEMY-MG\FOpt\RB3LYP\6-31G(2df,p)\C7H10O2\PUCK\28-Jan-2020\
 0\\# b3lyp 6-31G(2df,p) opt Freq\\titel\\0,1\C,1.5062522712,0.94230639
 04,0.2027817087\C,1.0701417341,-0.5178279328,0.0963878563\O,1.57854609
 2,-1.3070331651,1.1926372691\C,2.7727402753,-1.9731763774,0.7923100461
 \C,4.0117895112,-1.2031771971,1.2488563163\O,5.0817676087,-1.244449990
 9,0.6990818816\C,2.6990482343,-2.1287744876,-0.711636026\C,1.408659953
 4,-2.6922221001,-1.2435583339\C,1.5934526482,-1.1995346439,-1.15753159
 3\H,1.2213578588,1.3527178417,1.1751049671\H,2.5907273024,1.0430168956
 ,0.0863625403\H,1.026844622,1.5421367173,-0.5782988578\H,-0.0216967624
 ,-0.5797787777,0.1798303831\H,2.7906264916,-2.9352174929,1.3286402777\
 H,3.8385867707,-0.5975248385,2.1670005008\H,3.6290148712,-2.2349570268
 ,-1.2540330447\H,1.4321814058,-3.1420342749,-2.2297771696\H,0.72606458
 92,-3.1658140641,-0.5440477927\H,1.6787868922,-0.6134375453,-2.0647678
 194\\Version=ES64L-G09RevD.01\State=1-A\HF=-423.1901037\RMSD=6.164e-09
 \RMSF=2.076e-05\Dipole=-0.7124948,0.0405073,-0.3271233\Quadrupole=-5.0
 022501,2.6327136,2.3695366,-0.9017869,1.0928658,-0.1279507\PG=C01 [X(C
 7H10O2)]\\@


 K N O W I N G  IS A BARRIER WHICH PREVENTS LEARNING

                     -- TEACHING OF THE BENE GESSERIT
 Job cpu time:       0 days  0 hours  6 minutes 51.1 seconds.
 File lengths (MBytes):  RWF=     52 Int=      0 D2E=      0 Chk=      7 Scr=      1
 Normal termination of Gaussian 09 at Tue Jan 28 00:45:47 2020.
 Link1:  Proceeding to internal job step number  2.
 ----------------------------------------------------------------------
 #N Geom=AllCheck Guess=TCheck SCRF=Check GenChk RB3LYP/6-31G(2df,p) Fr
 eq
 ----------------------------------------------------------------------
 1/10=4,29=7,30=1,38=1,40=1/1,3;
 2/12=2,40=1/2;
 3/5=1,6=6,7=104,11=2,14=-4,16=1,25=1,30=1,70=2,71=2,74=-5,116=1,140=1/1,2,3;
 4/5=101/1;
 5/5=2,98=1/2;
 8/6=4,10=90,11=11/1;
 11/6=1,8=1,9=11,15=111,16=1/1,2,10;
 10/6=1/2;
 6/7=2,8=2,9=2,10=2,18=1,28=1/1;
 7/8=1,10=1,25=1/1,2,3,16;
 1/10=4,30=1/3;
 99//99;
 Structure from the checkpoint file:  "/scratch/puck/g09_91782695-606f-4af9-8b82-14085a2649a6/Gau-71763.chk"
 -----
 titel
 -----
 Charge =  0 Multiplicity = 1
 Redundant internal coordinates found in file.
 C,0,1.5062522712,0.9423063904,0.2027817087
 C,0,1.0701417341,-0.5178279328,0.0963878563
 O,0,1.578546092,-1.3070331651,1.1926372691
 C,0,2.7727402753,-1.9731763774,0.7923100461
 C,0,4.0117895112,-1.2031771971,1.2488563163
 O,0,5.0817676087,-1.2444499909,0.6990818816
 C,0,2.6990482343,-2.1287744876,-0.711636026
 C,0,1.4086599534,-2.6922221001,-1.2435583339
 C,0,1.5934526482,-1.1995346439,-1.157531593
 H,0,1.2213578588,1.3527178417,1.1751049671
 H,0,2.5907273024,1.0430168956,0.0863625403
 H,0,1.026844622,1.5421367173,-0.5782988578
 H,0,-0.0216967624,-0.5797787777,0.1798303831
 H,0,2.7906264916,-2.9352174929,1.3286402777
 H,0,3.8385867707,-0.5975248385,2.1670005008
 H,0,3.6290148712,-2.2349570268,-1.2540330447
 H,0,1.4321814058,-3.1420342749,-2.2297771696
 H,0,0.7260645892,-3.1658140641,-0.5440477927
 H,0,1.6787868922,-0.6134375453,-2.0647678194
 Recover connectivity data from disk.

 GradGradGradGradGradGradGradGradGradGradGradGradGradGradGradGradGradGrad
 Berny optimization.
 Initialization pass.
                           ----------------------------
                           !    Initial Parameters    !
                           ! (Angstroms and Degrees)  !
 --------------------------                            --------------------------
 ! Name  Definition              Value          Derivative Info.                !
 --------------------------------------------------------------------------------
 ! R1    R(1,2)                  1.5276         calculate D2E/DX2 analytically  !
 ! R2    R(1,10)                 1.0932         calculate D2E/DX2 analytically  !
 ! R3    R(1,11)                 1.0953         calculate D2E/DX2 analytically  !
 ! R4    R(1,12)                 1.0953         calculate D2E/DX2 analytically  !
 ! R5    R(2,3)                  1.4433         calculate D2E/DX2 analytically  !
 ! R6    R(2,9)                  1.5202         calculate D2E/DX2 analytically  !
 ! R7    R(2,13)                 1.0968         calculate D2E/DX2 analytically  !
 ! R8    R(3,4)                  1.4248         calculate D2E/DX2 analytically  !
 ! R9    R(4,5)                  1.5286         calculate D2E/DX2 analytically  !
 ! R10   R(4,7)                  1.5138         calculate D2E/DX2 analytically  !
 ! R11   R(4,14)                 1.1016         calculate D2E/DX2 analytically  !
 ! R12   R(5,6)                  1.2037         calculate D2E/DX2 analytically  !
 ! R13   R(5,15)                 1.1135         calculate D2E/DX2 analytically  !
 ! R14   R(7,8)                  1.5052         calculate D2E/DX2 analytically  !
 ! R15   R(7,9)                  1.5115         calculate D2E/DX2 analytically  !
 ! R16   R(7,16)                 1.0818         calculate D2E/DX2 analytically  !
 ! R17   R(8,9)                  1.5065         calculate D2E/DX2 analytically  !
 ! R18   R(8,17)                 1.0842         calculate D2E/DX2 analytically  !
 ! R19   R(8,18)                 1.0861         calculate D2E/DX2 analytically  !
 ! R20   R(9,19)                 1.0835         calculate D2E/DX2 analytically  !
 ! A1    A(2,1,10)             110.2675         calculate D2E/DX2 analytically  !
 ! A2    A(2,1,11)             111.2931         calculate D2E/DX2 analytically  !
 ! A3    A(2,1,12)             110.4158         calculate D2E/DX2 analytically  !
 ! A4    A(10,1,11)            108.5447         calculate D2E/DX2 analytically  !
 ! A5    A(10,1,12)            108.3374         calculate D2E/DX2 analytically  !
 ! A6    A(11,1,12)            107.8906         calculate D2E/DX2 analytically  !
 ! A7    A(1,2,3)              111.6663         calculate D2E/DX2 analytically  !
 ! A8    A(1,2,9)              112.8186         calculate D2E/DX2 analytically  !
 ! A9    A(1,2,13)             109.4448         calculate D2E/DX2 analytically  !
 ! A10   A(3,2,9)              105.0728         calculate D2E/DX2 analytically  !
 ! A11   A(3,2,13)             105.1885         calculate D2E/DX2 analytically  !
 ! A12   A(9,2,13)             112.3413         calculate D2E/DX2 analytically  !
 ! A13   A(2,3,4)              109.7233         calculate D2E/DX2 analytically  !
 ! A14   A(3,4,5)              111.0975         calculate D2E/DX2 analytically  !
 ! A15   A(3,4,7)              106.6425         calculate D2E/DX2 analytically  !
 ! A16   A(3,4,14)             106.5659         calculate D2E/DX2 analytically  !
 ! A17   A(5,4,7)              112.8284         calculate D2E/DX2 analytically  !
 ! A18   A(5,4,14)             106.3405         calculate D2E/DX2 analytically  !
 ! A19   A(7,4,14)             113.2494         calculate D2E/DX2 analytically  !
 ! A20   A(4,5,6)              124.5319         calculate D2E/DX2 analytically  !
 ! A21   A(4,5,15)             113.2154         calculate D2E/DX2 analytically  !
 ! A22   A(6,5,15)             122.2461         calculate D2E/DX2 analytically  !
 ! A23   A(4,7,8)              115.5512         calculate D2E/DX2 analytically  !
 ! A24   A(4,7,9)              105.3968         calculate D2E/DX2 analytically  !
 ! A25   A(4,7,16)             117.7988         calculate D2E/DX2 analytically  !
 ! A26   A(8,7,16)             121.5369         calculate D2E/DX2 analytically  !
 ! A27   A(9,7,16)             122.7669         calculate D2E/DX2 analytically  !
 ! A28   A(7,8,17)             117.2688         calculate D2E/DX2 analytically  !
 ! A29   A(7,8,18)             118.3229         calculate D2E/DX2 analytically  !
 ! A30   A(9,8,17)             117.4091         calculate D2E/DX2 analytically  !
 ! A31   A(9,8,18)             118.188          calculate D2E/DX2 analytically  !
 ! A32   A(17,8,18)            114.7455         calculate D2E/DX2 analytically  !
 ! A33   A(2,9,7)              106.5086         calculate D2E/DX2 analytically  !
 ! A34   A(2,9,8)              116.6921         calculate D2E/DX2 analytically  !
 ! A35   A(2,9,19)             118.3742         calculate D2E/DX2 analytically  !
 ! A36   A(7,9,19)             121.4649         calculate D2E/DX2 analytically  !
 ! A37   A(8,9,19)             119.8562         calculate D2E/DX2 analytically  !
 ! D1    D(10,1,2,3)           -54.4902         calculate D2E/DX2 analytically  !
 ! D2    D(10,1,2,9)          -172.5712         calculate D2E/DX2 analytically  !
 ! D3    D(10,1,2,13)           61.5636         calculate D2E/DX2 analytically  !
 ! D4    D(11,1,2,3)            66.0269         calculate D2E/DX2 analytically  !
 ! D5    D(11,1,2,9)           -52.0541         calculate D2E/DX2 analytically  !
 ! D6    D(11,1,2,13)         -177.9193         calculate D2E/DX2 analytically  !
 ! D7    D(12,1,2,3)          -174.1797         calculate D2E/DX2 analytically  !
 ! D8    D(12,1,2,9)            67.7393         calculate D2E/DX2 analytically  !
 ! D9    D(12,1,2,13)          -58.1259         calculate D2E/DX2 analytically  !
 ! D10   D(1,2,3,4)            -96.7336         calculate D2E/DX2 analytically  !
 ! D11   D(9,2,3,4)             25.8923         calculate D2E/DX2 analytically  !
 ! D12   D(13,2,3,4)           144.6449         calculate D2E/DX2 analytically  !
 ! D13   D(1,2,9,7)            106.3018         calculate D2E/DX2 analytically  !
 ! D14   D(1,2,9,8)            170.346          calculate D2E/DX2 analytically  !
 ! D15   D(1,2,9,19)           -34.852          calculate D2E/DX2 analytically  !
 ! D16   D(3,2,9,7)            -15.5774         calculate D2E/DX2 analytically  !
 ! D17   D(3,2,9,8)             48.4668         calculate D2E/DX2 analytically  !
 ! D18   D(3,2,9,19)          -156.7312         calculate D2E/DX2 analytically  !
 ! D19   D(13,2,9,7)          -129.4078         calculate D2E/DX2 analytically  !
 ! D20   D(13,2,9,8)           -65.3636         calculate D2E/DX2 analytically  !
 ! D21   D(13,2,9,19)           89.4384         calculate D2E/DX2 analytically  !
 ! D22   D(2,3,4,5)             97.5548         calculate D2E/DX2 analytically  !
 ! D23   D(2,3,4,7)            -25.7681         calculate D2E/DX2 analytically  !
 ! D24   D(2,3,4,14)          -147.0167         calculate D2E/DX2 analytically  !
 ! D25   D(3,4,5,6)           -153.0899         calculate D2E/DX2 analytically  !
 ! D26   D(3,4,5,15)            27.8303         calculate D2E/DX2 analytically  !
 ! D27   D(7,4,5,6)            -33.3891         calculate D2E/DX2 analytically  !
 ! D28   D(7,4,5,15)           147.5312         calculate D2E/DX2 analytically  !
 ! D29   D(14,4,5,6)            91.342          calculate D2E/DX2 analytically  !
 ! D30   D(14,4,5,15)          -87.7377         calculate D2E/DX2 analytically  !
 ! D31   D(3,4,7,8)            -48.942          calculate D2E/DX2 analytically  !
 ! D32   D(3,4,7,9)             14.6633         calculate D2E/DX2 analytically  !
 ! D33   D(3,4,7,16)           155.9053         calculate D2E/DX2 analytically  !
 ! D34   D(5,4,7,8)           -171.1809         calculate D2E/DX2 analytically  !
 ! D35   D(5,4,7,9)           -107.5755         calculate D2E/DX2 analytically  !
 ! D36   D(5,4,7,16)            33.6664         calculate D2E/DX2 analytically  !
 ! D37   D(14,4,7,8)            67.9497         calculate D2E/DX2 analytically  !
 ! D38   D(14,4,7,9)           131.5551         calculate D2E/DX2 analytically  !
 ! D39   D(14,4,7,16)          -87.203          calculate D2E/DX2 analytically  !
 ! D40   D(4,7,8,17)          -158.8053         calculate D2E/DX2 analytically  !
 ! D41   D(4,7,8,18)           -14.4376         calculate D2E/DX2 analytically  !
 ! D42   D(16,7,8,17)           -4.6619         calculate D2E/DX2 analytically  !
 ! D43   D(16,7,8,18)          139.7059         calculate D2E/DX2 analytically  !
 ! D44   D(4,7,9,2)              0.7465         calculate D2E/DX2 analytically  !
 ! D45   D(4,7,9,19)           140.4295         calculate D2E/DX2 analytically  !
 ! D46   D(16,7,9,2)          -138.0621         calculate D2E/DX2 analytically  !
 ! D47   D(16,7,9,19)            1.6209         calculate D2E/DX2 analytically  !
 ! D48   D(17,8,9,2)           158.3216         calculate D2E/DX2 analytically  !
 ! D49   D(17,8,9,19)            3.9114         calculate D2E/DX2 analytically  !
 ! D50   D(18,8,9,2)            13.9441         calculate D2E/DX2 analytically  !
 ! D51   D(18,8,9,19)         -140.466          calculate D2E/DX2 analytically  !
 --------------------------------------------------------------------------------
 Trust Radius=3.00D-01 FncErr=1.00D-07 GrdErr=1.00D-07
 Number of steps in this run=      2 maximum allowed number of steps=      2.
 GradGradGradGradGradGradGradGradGradGradGradGradGradGradGradGradGradGrad

                          Input orientation:                          
 ---------------------------------------------------------------------
 Center     Atomic      Atomic             Coordinates (Angstroms)
 Number     Number       Type             X           Y           Z
 ---------------------------------------------------------------------
      1          6           0        1.506252    0.942306    0.202782
      2          6           0        1.070142   -0.517828    0.096388
      3          8           0        1.578546   -1.307033    1.192637
      4          6           0        2.772740   -1.973176    0.792310
      5          6           0        4.011790   -1.203177    1.248856
      6          8           0        5.081768   -1.244450    0.699082
      7          6           0        2.699048   -2.128774   -0.711636
      8          6           0        1.408660   -2.692222   -1.243558
      9          6           0        1.593453   -1.199535   -1.157532
     10          1           0        1.221358    1.352718    1.175105
     11          1           0        2.590727    1.043017    0.086363
     12          1           0        1.026845    1.542137   -0.578299
     13          1           0       -0.021697   -0.579779    0.179830
     14          1           0        2.790626   -2.935217    1.328640
     15          1           0        3.838587   -0.597525    2.167001
     16          1           0        3.629015   -2.234957   -1.254033
     17          1           0        1.432181   -3.142034   -2.229777
[...]
 437,-0.08030948,0.00125436,-0.00616548,0.49454324,-0.00046208,0.000910
 99,-0.00193921,-0.01996087,0.00753156,0.00838090,0.04317597,-0.0200187
 8,-0.09921960,0.03192549,-0.05860881,0.51034880,0.00081299,0.00021759,
 -0.00009632,-0.00343373,-0.00051626,-0.00113603,-0.03914088,-0.0057009
 7,-0.00208941,-0.10553613,-0.02571472,-0.02266983,0.84423852,0.0008189
 9,0.00033865,-0.00043786,0.00260099,0.00526248,-0.00335621,0.02520601,
 0.00752421,0.00626208,-0.04602605,-0.11624435,-0.02507403,0.02496758,0
 .33583484,-0.00036823,-0.00005722,0.00038369,-0.00043039,0.00197647,-0
 .00128725,0.01917452,-0.00227580,0.00371419,-0.04055983,-0.02191813,-0
 .10963912,-0.25779512,0.15976957,0.55141746,-0.00047283,0.00035906,-0.
 00038539,0.00075854,-0.00325324,0.00377189,-0.00958879,0.00183321,-0.0
 0248040,-0.03882872,-0.01140927,0.01742328,-0.64414357,0.01456950,0.28
 637014,0.70897808,-0.00045094,-0.00030154,0.00012675,-0.00094316,-0.00
 224901,0.00169454,-0.00836458,-0.00119778,-0.00188144,-0.01514243,0.02
 199712,0.00798650,0.01527211,-0.08060789,-0.03316535,-0.01257480,0.043
 97199,0.00019554,-0.00005154,0.00009828,-0.00013505,0.00067649,-0.0015
 1302,-0.00288204,0.00105125,0.00251711,0.00609610,0.00122859,0.0185599
 2,0.28814645,-0.03195633,-0.23931583,-0.33188793,0.03911736,0.23029945
 ,0.00056423,-0.00097073,-0.00123516,-0.02324594,0.00538484,0.01041488,
 -0.01433340,0.01744233,0.03086393,-0.08152398,-0.00153704,-0.01248357,
 0.00194843,-0.00354195,-0.03046446,0.00011371,0.00026953,0.00214647,0.
 68298096,-0.00051960,0.00061075,0.00050025,0.02395696,-0.00993817,-0.0
 1056884,0.00746729,-0.00775249,-0.01087763,-0.00356084,-0.06215227,-0.
 00913200,-0.00389691,-0.00377290,-0.02117271,0.00153044,0.00037911,0.0
 0057260,-0.05010719,0.26015040,-0.00001236,0.00070190,0.00023552,0.018
 84199,-0.00297892,0.00682862,0.01885605,-0.01273754,-0.02533131,-0.000
 03358,-0.00932991,-0.18228385,-0.01549538,-0.00585457,-0.01198498,0.00
 514822,-0.00117503,-0.00269739,-0.06881780,0.04281693,0.52491812,-0.00
 029506,0.00042587,0.00221777,0.00490734,0.01318670,0.00219813,-0.00071
 291,0.00029080,0.00036115,-0.00294804,-0.00256764,-0.00615561,-0.00067
 732,-0.00030451,0.00143228,0.00084420,0.00000241,-0.00069001,-0.177331
 04,-0.04323196,-0.03755418,0.40994803,0.00088983,0.00065638,-0.0018058
 8,-0.00705333,-0.01695558,-0.00657345,0.00010274,-0.00022944,0.0005036
 3,0.00017257,-0.00270231,0.00037579,0.00028736,0.00099680,0.00005086,-
 0.00022540,0.00002844,0.00011515,-0.08698793,-0.04474670,-0.03697839,0
 .17702260,0.46546972,0.00234980,-0.00118094,-0.00495627,-0.01723159,-0
 .02168978,-0.00181934,0.00004614,0.00056193,-0.00035154,-0.02458879,-0
 .02573204,-0.01067139,0.00433945,-0.00025341,-0.00672282,-0.00094207,0
 .00022147,0.00222329,-0.03319338,-0.01782596,-0.08572576,-0.10037679,0
 .07592488,0.62533273,0.00399278,-0.00263351,-0.00926346,-0.08343251,0.
 01735198,0.03921940,-0.00222688,-0.00101735,-0.00231650,-0.00199621,0.
 00604584,-0.02042011,-0.00009748,-0.00098790,-0.00030107,0.00013235,-0
 .00017425,0.00003290,-0.11848126,0.05629523,-0.01955741,-0.02591614,-0
 .00453029,0.01819788,0.28365356,0.01083775,-0.01908813,-0.03028231,0.0
 1646241,-0.10080950,-0.04033720,0.00197475,0.00395081,0.01771355,-0.00
 131914,-0.00210360,0.01195803,-0.00060650,-0.00057354,-0.00095065,0.00
 069754,0.00013006,-0.00017225,0.10203297,-0.08311965,0.04005561,-0.049
 94114,-0.21077264,-0.01178269,-0.06878636,0.56620858,0.00122098,-0.008
 30612,-0.00132252,0.03143501,-0.03561983,-0.14323078,-0.00312590,0.004
 93340,-0.05125832,-0.00936661,0.02583740,-0.02117288,0.00108318,0.0002
 2161,0.00104260,-0.00042664,0.00029269,0.00028795,-0.02389501,0.026156
 92,-0.07200807,0.01750495,0.00225446,-0.06905147,-0.04598802,-0.118552
 92,0.60932074,-0.06659356,0.02560474,0.06429199,0.00213365,-0.00364703
 ,-0.01066161,-0.00032861,0.00060893,0.00004602,-0.00018818,0.00018016,
 -0.00006451,-0.00021400,0.00015428,0.00085641,0.00021308,0.00003683,-0
 .00037813,0.00011285,-0.00059919,-0.00024078,0.00062581,-0.00029540,-0
 .00021089,0.00013711,-0.00129383,0.00075581,0.06794653,0.02558570,-0.0
 8080928,-0.08615624,0.00985894,-0.01390398,-0.03059793,-0.00036546,0.0
 0377871,0.00033167,0.00083536,-0.00012156,-0.00023321,0.00001112,-0.00
 019462,-0.00029933,-0.00013072,0.00004357,0.00021726,-0.00041779,0.000
 40227,0.00011724,0.00050332,-0.00030452,-0.00184398,-0.00320491,-0.005
 95438,0.00153962,-0.02670208,0.08884830,0.06365610,-0.08862905,-0.2596
 3416,0.00060923,0.00097470,-0.00266898,0.00015961,-0.00007454,0.001752
 59,-0.00017693,0.00017293,0.00004283,0.00006922,-0.00017949,-0.0003197
 3,-0.00001928,0.00005843,0.00015607,-0.00010327,0.00002988,-0.00007721
 ,0.00006521,0.00017181,-0.00001548,-0.00070889,-0.00041873,0.00050196,
 -0.06942358,0.09689148,0.28014589,-0.30301088,-0.02018863,0.02811994,-
 0.01143545,0.00006217,-0.00021123,0.00205503,-0.00044250,0.00052575,-0
 .00034399,-0.00027759,0.00021886,0.00003299,-0.00057398,-0.00032470,-0
 .00021097,0.00044727,0.00008681,0.00066039,-0.00045116,-0.00017234,0.0
 0024634,0.00018100,-0.00007616,0.00042004,0.00076458,0.00057805,-0.007
 48933,-0.00037714,-0.00020393,0.33075462,-0.01899253,-0.04917943,0.002
 25494,-0.03585583,-0.00292204,0.00258280,0.00213641,0.00315209,-0.0005
 5645,-0.00010656,-0.00043436,0.00031359,0.00017475,-0.00109762,0.00089
 205,0.00024686,0.00030680,-0.00039893,0.00063647,-0.00061963,-0.000057
 50,0.00023414,0.00025909,0.00023643,-0.00051201,0.00216718,0.00095167,
 0.01187722,0.00019623,-0.00015024,0.02398296,0.05312272,0.02881023,0.0
 0161958,-0.05046000,-0.00332830,0.00035340,-0.00106991,0.00034972,-0.0
 0043114,-0.00019000,0.00027136,0.00037405,0.00024026,-0.00025700,0.000
 81873,0.00060953,0.00009396,-0.00018588,-0.00035468,-0.00010986,-0.000
 24670,0.00029349,0.00014156,0.00000337,-0.00015467,-0.00078213,0.00025
 603,0.00043465,0.02881415,0.00291704,-0.00189683,-0.03050471,-0.001983
 43,0.04942100,-0.09776969,0.06267976,-0.08363195,0.00311901,-0.0037133
 0,0.00759220,0.00175660,-0.00267925,0.00039713,-0.00045992,-0.00096375
 ,0.00044549,-0.00007654,-0.00070118,-0.00005247,0.00001472,0.00026710,
 0.00000742,0.00020229,0.00006695,0.00002014,-0.00008195,0.00012593,0.0
 0018018,0.00012270,0.00034640,-0.00046928,0.00333842,-0.00578516,0.006
 56157,-0.01302822,0.01765777,-0.02331084,0.10230070,0.06168006,-0.1241
 9563,0.10030284,0.01669929,-0.01171307,0.02278724,-0.00050005,-0.00875
 571,0.00098106,-0.00218202,0.00060049,0.00108252,-0.00034945,-0.000259
 60,-0.00045282,0.00038036,0.00011599,0.00002777,-0.00010358,0.00032986
 ,-0.00015892,-0.00015008,-0.00000260,-0.00022868,0.00018872,0.00067018
 ,0.00033692,-0.00636898,0.00696579,-0.00861856,-0.00126004,0.00124115,
 -0.00272713,-0.06822303,0.13417050,-0.08289059,0.10159964,-0.18036243,
 0.00136187,-0.00244175,0.00036952,-0.00029550,-0.00019145,0.00130928,0
 .00058237,-0.00006968,0.00000042,0.00010614,-0.00003633,-0.00036959,-0
 .00014236,-0.00000843,0.00015516,-0.00023438,-0.00008585,0.00002010,0.
 00005353,0.00011703,0.00015435,0.00047147,0.00007543,0.00002199,-0.013
 26024,0.01613857,-0.01891281,0.00231908,-0.00312658,0.00271694,0.09171
 678,-0.11229972,0.19434480,-0.00997789,-0.00234896,0.00212232,-0.29542
 726,-0.01985081,0.02260776,-0.01275619,0.00937197,-0.00609429,0.000510
 54,-0.00207073,-0.00211793,-0.00001370,0.00077274,0.00045336,-0.000539
 65,-0.00027444,0.00000027,0.00011818,-0.00094952,0.00065441,0.00135187
 ,0.00041400,-0.00021832,-0.00748998,-0.00015698,0.00276838,0.00045341,
 0.00000609,-0.00044361,0.00114724,-0.00179406,-0.00005003,0.00024927,-
 0.00062226,0.00034172,0.32335030,-0.03348472,-0.00499755,0.00267997,-0
 .02418655,-0.04863688,0.00013934,0.02319254,-0.00431086,0.00386731,0.0
 0292400,-0.00005274,0.00258181,0.00004769,-0.00170666,-0.00046576,0.00
 083438,0.00073378,-0.00011990,0.00237725,-0.00092703,-0.00060565,0.000
 23509,0.00212358,0.00035307,0.01267370,0.00047222,-0.00310666,0.000637
 36,0.00128484,-0.00036810,-0.00199505,-0.00631830,-0.00071715,0.000789
 26,0.00126582,0.00039695,0.01565516,0.06212911,-0.00303942,-0.00179793
 ,0.00258262,0.02963553,-0.00188020,-0.04852744,-0.03240807,0.01174064,
 -0.00424460,-0.00088343,-0.00122019,-0.00553960,-0.00031310,0.00113572
 ,0.00045423,-0.00070056,-0.00046441,0.00032266,0.00342206,0.00033224,-
 0.00450286,-0.00214607,0.00217387,0.00149232,0.02782084,-0.00298950,-0
 .00155663,-0.00033924,0.00058753,0.00028113,-0.00013905,-0.00065792,0.
 00098197,0.00012266,-0.00017394,0.00022087,-0.02068570,-0.00478940,0.0
 5746525,-0.00103679,0.00058657,-0.00125353,-0.00110887,0.00364331,0.00
 342614,-0.01295731,0.03341137,-0.01537213,-0.04229207,-0.02019827,0.00
 667153,0.00088434,-0.02316810,0.01418193,-0.00314757,0.00231337,-0.002
 11866,0.00279349,0.00006682,-0.00062449,0.00089403,0.00115586,-0.00015
 842,-0.00141744,0.00099714,0.00012000,0.00003099,-0.00010977,-0.000000
 10,0.00018556,0.00005020,0.00000909,0.00029042,0.00060350,-0.00001233,
 -0.00023524,0.00024031,-0.00049088,0.05804134,0.00022981,-0.00024229,0
 .00067648,-0.00106453,-0.00064196,-0.00382076,0.01521995,-0.01470706,0
 .00597496,-0.00466132,-0.23124883,0.10461495,-0.00455979,-0.01747694,0
 .01186419,-0.00186891,0.00082912,-0.00207295,-0.00162787,0.00635282,-0
 .00236406,0.00104592,0.00103680,0.00073795,-0.00053463,0.00091242,-0.0
 0216472,0.00002559,0.00007155,0.00001352,-0.00004156,-0.00004861,0.000
 01115,-0.00014217,-0.00032351,0.00007560,0.00007750,-0.00013753,0.0001
 3196,-0.00139973,0.25512105,-0.00022256,0.00007124,0.00020336,0.001001
 38,-0.00068485,-0.00220460,0.00478101,-0.00921711,0.00726000,-0.001146
 74,0.10052470,-0.10051021,-0.00054025,-0.00680590,0.00724774,-0.001242
 75,0.00060791,-0.00056860,-0.00289893,0.02581143,-0.01738915,0.0014749
 1,-0.00095025,0.00333566,0.00197231,0.00166876,-0.00493984,0.00003877,
 0.00006863,0.00006577,0.00002220,-0.00003155,-0.00003075,-0.00001931,-
 0.00006567,0.00008220,-0.00000713,-0.00004767,0.00019842,-0.00089133,-
 0.11253394,0.11009539,-0.00019059,0.00004267,-0.00002751,-0.00019655,0
 .00070769,-0.00072239,0.00489990,0.00082427,0.00125731,0.00267372,-0.0
 1499624,-0.01642570,-0.05561969,0.00516980,0.00808002,-0.01293797,0.01
 995754,0.04270347,-0.00347092,-0.00209579,0.00052188,0.00014610,-0.000
 15469,-0.00142088,0.00002262,-0.00008253,0.00018569,0.00002932,0.00006
 458,-0.00004636,-0.00000272,0.00002735,0.00001868,-0.00000772,-0.00001
 867,-0.00000096,0.00006291,-0.00008299,0.00005522,-0.00067944,-0.00079
 711,0.00016167,0.06555437,-0.00015036,-0.00034959,0.00044142,-0.000017
 47,-0.00038308,-0.00010045,-0.00214907,0.00134063,0.00251517,0.0033133
 0,0.00511741,-0.02584653,-0.00063669,-0.12879308,-0.09366347,0.0094568
 7,0.01662855,-0.00903777,-0.00365416,-0.00265405,0.00144596,0.00049472
 ,-0.00016755,-0.00130240,0.00031439,-0.00017554,0.00032944,-0.00013587
 ,0.00015118,0.00007824,0.00036086,0.00003027,-0.00023450,0.00024833,0.
 00005752,0.00004580,-0.00008466,0.00017294,0.00011254,0.00177286,0.000
 62552,0.00185934,-0.00859593,0.10802130,-0.00030513,-0.00004541,-0.000
 09951,-0.00016617,-0.00034454,0.00007085,0.00025803,0.00379951,0.00124
 370,0.00785015,-0.01518367,-0.00025861,0.00190177,-0.09498618,-0.19469
 906,0.02777913,-0.01387921,-0.01233639,-0.00079712,-0.00112120,0.00031
 079,0.00028183,-0.00015708,-0.00047096,0.00024990,0.00002467,0.0001253
 1,-0.00014905,0.00010742,0.00010967,0.00011921,0.00001639,-0.00028527,
 0.00011476,0.00013394,0.00008880,-0.00005561,0.00013082,0.00001929,-0.
 00314678,-0.00220654,-0.00167835,-0.03395350,0.12344816,0.20766886,0.0
 0007141,-0.00007674,0.00003204,-0.00119825,-0.00052370,-0.00069350,0.0
 0097061,-0.00136391,-0.00229359,0.00529686,-0.00022405,-0.00102760,-0.
 00029596,-0.00000699,0.00073153,-0.00074691,-0.00058136,-0.00136445,-0
 .26257169,0.02755232,0.13092565,-0.01284624,0.00361508,0.00694917,-0.0
 0832628,-0.00263790,0.00278581,0.00000967,0.00003484,0.00001413,0.0000
 4379,0.00005104,-0.00000852,-0.00000628,-0.00003255,0.00001118,0.00010
 514,0.00027431,0.00037501,-0.00014871,0.00019609,0.00021558,0.00002987
 ,0.00007605,0.00024802,0.27804961,0.00023824,0.00024036,0.00000955,0.0
 0451811,-0.00003116,0.00049340,0.00242833,-0.00067497,-0.00078286,-0.0
 0027116,-0.00151861,0.00110923,0.00108281,0.00058310,-0.00038329,-0.00
 049590,-0.00085260,0.00075170,0.02261111,-0.03838381,-0.01541821,-0.01
 527853,0.00051730,0.01563585,0.01697605,-0.00020348,-0.01684798,-0.000
 11784,-0.00008568,0.00002330,-0.00014050,-0.00012270,-0.00000539,-0.00
 002570,-0.00006074,0.00003069,0.00039410,-0.00074109,-0.00152046,0.000
 11765,-0.00033153,0.00009416,-0.00010043,0.00027099,0.00012007,-0.0273
 8160,0.03936657,0.00019683,-0.00010291,0.00021340,-0.00260229,0.001233
 41,-0.00311455,0.00291567,-0.00330862,-0.00555996,0.02339348,-0.003473
 49,-0.00641740,0.00379956,0.00033527,-0.00020768,-0.00170925,0.0007767
 7,0.00194412,0.13121487,-0.01655859,-0.12749846,-0.01014381,0.00166697
 ,0.00348122,-0.01035217,0.00024574,0.00416797,-0.00000808,0.00010662,0
 .00003134,-0.00003864,0.00003510,-0.00002135,-0.00003402,-0.00014615,0
 .00003607,0.00015457,0.00009733,0.00067724,-0.00050009,0.00052078,-0.0
 0083963,-0.00019355,0.00001782,0.00026372,-0.13653893,0.01819980,0.131
 22552,-0.00010805,-0.00001753,0.00083120,0.00045610,0.00251537,0.00007
 613,0.00104824,0.00061481,-0.00026361,-0.00476186,-0.00439221,0.000859
 42,0.00132106,0.00019395,-0.00167509,-0.00040207,0.00005149,0.00043351
 ,0.00235611,-0.01211189,-0.02789964,-0.04192626,-0.00174281,0.01452023
 ,-0.00415028,0.00051198,0.00849601,0.00008273,0.00029909,0.00001581,0.
 00008830,0.00008635,-0.00001649,-0.00000531,-0.00002845,-0.00004773,0.
 00020475,-0.00014669,-0.00013436,0.00001719,0.00025117,0.00016887,-0.0
 0041667,-0.00050182,-0.00024031,0.00162149,0.00266933,0.00038529,0.043
 40588,0.00071073,-0.00021062,-0.00165904,-0.00476367,-0.00388116,0.002
 00314,0.00059544,0.00090774,-0.00042398,0.00151676,0.00035435,0.001513
 52,-0.00032176,0.00017393,0.00046328,0.00005037,-0.00008116,-0.0001470
 9,-0.00179972,-0.00275415,0.00352397,-0.00290640,-0.08958967,-0.107041
 09,0.00058914,-0.01058999,-0.02843143,-0.00005917,-0.00061662,-0.00005
 367,-0.00000652,0.00008575,0.00002019,0.00004010,-0.00003191,0.0000411
 9,0.00018226,0.00005991,0.00013425,-0.00004244,0.00011917,-0.00023026,
 0.00015966,0.00012176,0.00006935,-0.00075587,0.00021570,-0.00065044,0.
 00371491,0.09700183,-0.00015355,0.00016659,0.00034620,0.00071909,0.001
 56460,-0.00007091,-0.00028691,-0.00035741,0.00035259,-0.00152089,-0.00
 145720,0.00035623,0.00095387,0.00002150,-0.00069941,-0.00038184,0.0000
 4783,0.00027475,0.00237230,-0.00299562,-0.00844760,0.01243861,-0.10955
 844,-0.29117585,-0.00132729,0.00325179,0.00589146,0.00000912,0.0001396
 7,0.00003143,-0.00000169,-0.00001223,-0.00000843,0.00000242,-0.0000343
 0,0.00000704,-0.00006720,-0.00000621,-0.00003281,0.00004161,-0.0000163
 7,0.00014649,-0.00023512,-0.00016043,-0.00011598,0.00049283,0.00067162
 ,0.00119388,-0.01058595,0.11732061,0.30437331,-0.00002921,0.00003175,-
 0.00035063,0.00083786,-0.00174483,0.00084584,0.00085882,0.00063423,-0.
 00025630,0.00103977,0.00257555,0.00228475,-0.00084809,0.00041622,0.000
 72454,0.00029604,-0.00009023,-0.00058086,-0.01699182,-0.01144961,0.018
 55616,-0.15129238,-0.07949842,0.11836396,0.00338595,0.00222917,-0.0102
 6768,-0.00004740,-0.00010851,0.00000415,-0.00005251,0.00003018,0.00004
 409,0.00004709,0.00002172,-0.00001200,-0.00029604,-0.00034377,-0.00029
 408,-0.00004890,0.00017181,-0.00111517,0.00020784,-0.00000363,0.000070
 30,-0.00130996,-0.00437430,-0.00099257,0.00082662,0.00105655,-0.001788
 17,0.16241649,0.00018481,0.00013245,0.00037889,0.00097835,0.00158849,0
 .00254372,0.00081328,0.00110490,-0.00042833,-0.00243275,0.00077374,0.0
 0018020,0.00028587,-0.00007003,-0.00008859,0.00007825,0.00011388,0.000
 05417,0.00164790,-0.00400524,-0.00404665,-0.07861922,-0.09302834,0.075
 11685,-0.01925781,-0.01270253,0.01888194,0.00010394,0.00007455,-0.0000
 5842,0.00016157,0.00017211,0.00007026,-0.00005471,0.00007519,-0.000003
 77,0.00085669,-0.00024187,-0.00089348,-0.00000732,-0.00021910,-0.00036
 518,-0.00008927,-0.00005088,-0.00001562,0.00133354,0.00066553,0.000634
 13,0.00950769,0.00660346,-0.00809186,0.08796524,0.10184003,-0.00019580
 ,0.00003370,-0.00009045,-0.00033667,-0.00152270,0.00018740,-0.00006693
 ,-0.00013402,0.00019240,-0.00019931,0.00024945,0.00111036,-0.00048063,
 -0.00003213,0.00038596,0.00019904,-0.00001297,-0.00028129,-0.00915334,
 -0.00608218,0.00908672,0.12080516,0.07781598,-0.17237597,-0.00043680,-
 0.00057513,-0.00218355,-0.00001774,-0.00002181,0.00002226,0.00004241,-
 0.00005066,-0.00004729,0.00004650,0.00003698,0.00000415,0.00006929,0.0
 0044177,0.00028031,0.00033512,0.00052819,-0.00008990,0.00001912,0.0000
 8025,0.00003490,-0.00112397,-0.00178091,-0.00043426,0.01563496,0.01272
 525,-0.01303382,-0.12566280,-0.08219006,0.17678192,0.00065401,-0.00052
 840,-0.00024898,-0.00081895,-0.00827659,0.00779381,-0.00008910,0.00162
 049,0.00148787,-0.00196691,0.00464718,-0.00121700,0.00085875,0.0004406
 1,-0.00003337,-0.00033167,-0.00002148,0.00018820,0.00609941,0.01203764
 ,-0.02311651,-0.00493638,-0.00347870,0.01347050,-0.03833265,-0.0120302
 9,0.02660528,-0.00025249,0.00000249,-0.00002904,-0.00006024,0.00006927
 ,-0.00018498,-0.00000559,0.00026550,-0.00006804,-0.00081766,0.00035871
 ,0.00014265,-0.00006500,-0.00052022,-0.00175250,-0.00010439,-0.0001077
 4,-0.00005943,0.00125184,-0.00284978,0.00105311,0.00034204,0.00203963,
 -0.00068124,0.00099984,-0.00345605,0.00052238,0.03757514,0.00011095,0.
 00070022,0.00012591,-0.00079900,0.00898770,-0.01003793,-0.00059453,0.0
 0090141,-0.00532592,0.00075246,-0.00163937,-0.00124535,-0.00004384,0.0
 0008325,-0.00012329,-0.00007863,0.00001158,0.00014443,-0.00165448,-0.0
 0739910,0.00304377,-0.00044210,-0.01258876,0.02009253,-0.00879601,-0.1
 2841847,0.13129357,-0.00000968,0.00017367,0.00013652,-0.00020572,0.000
 00930,0.00008751,0.00006664,-0.00014971,-0.00025732,0.00042191,-0.0001
 7169,0.00003868,-0.00003334,0.00030891,0.00022620,0.00006011,0.0000356
 9,0.00008910,0.00045139,0.00114681,0.00037049,-0.00147473,0.00211169,-
 0.00049415,0.00248088,-0.00282632,0.00049099,0.00978772,0.13872321,-0.
 00023709,0.00109049,0.00087888,-0.00197175,0.01393308,-0.01075500,-0.0
 0076436,0.00053393,-0.00528959,0.00190316,-0.00049253,-0.00138787,0.00
 047345,0.00040797,-0.00000995,-0.00046720,-0.00015753,0.00022845,0.002
 95179,0.00044702,-0.00374672,-0.00190864,-0.00515029,0.00747196,0.0234
 8916,0.13081175,-0.25507057,-0.00005841,-0.00001024,0.00038424,-0.0003
 5986,-0.00025750,-0.00017869,0.00031063,-0.00078336,0.00011316,0.00056
 774,-0.00046186,-0.00057236,-0.00021666,0.00002962,-0.00038402,0.00002
 291,-0.00002859,0.00000823,0.00026961,-0.00040027,0.00085880,-0.000558
 25,0.00082227,0.00061141,0.00042649,-0.00167821,0.00045016,-0.02387270
 ,-0.13865574,0.26638947\\-0.00000100,0.00000940,0.00001393,0.00001945,
 0.00000811,0.00000780,-0.00001552,0.00000734,0.00000610,0.00003286,-0.
 00000485,0.00000378,-0.00003091,-0.00001862,0.00000316,0.00001232,0.00
 000228,-0.00001284,-0.00005641,0.00000763,-0.00005460,0.00004679,0.000
 07465,0.00003047,-0.00000017,-0.00006189,0.00000387,-0.00000528,-0.000
 00526,0.00000582,-0.00000394,-0.00000079,0.00000486,-0.00000686,-0.000
 00706,0.00001003,0.00000164,-0.00000638,-0.00000557,0.00000951,0.00000
 246,-0.00000366,-0.00000382,0.00000176,0.00000365,0.00001214,0.0000092
 9,0.00000893,0.00000166,-0.00000973,-0.00000530,-0.00000699,-0.0000189
 6,-0.00002028,-0.00000548,0.00001061,-0.00000015\\\@


 MAN IS A SINGULAR CREATURE.  HE HAS A SET OF GIFTS
 WHICH MAKE HIM UNIQUE AMONG THE ANIMALS: SO THAT, 
 UNLIKE THEM, HE IS NOT A FIGURE IN THE LANDSCAPE --
 HE IS A SHAPER OF THE LANDSCAPE.

                       -- JACOB BRONOWSKI
 Job cpu time:       0 days  0 hours 42 minutes 36.0 seconds.
 File lengths (MBytes):  RWF=    152 Int=      0 D2E=      0 Chk=      8 Scr=      1
 Normal termination of Gaussian 09 at Tue Jan 28 01:28:21 2020.
