 Entering Gaussian System, Link 0=/home/puck/opt/gaussian_09/g09
 Input=dsC7O2H10nsd_4260.com
 Output=dsC7O2H10nsd_4260.log
 Initial command:
 /home/puck/opt/gaussian_09/l1.exe "/scratch/puck/g09_39cdb7bc-4196-4a4c-a23a-8bd2e566345a/Gau-8684.inp" -scrdir="/scratch/puck/g09_39cdb7bc-4196-4a4c-a23a-8bd2e566345a/"
 Entering Link 1 = /home/puck/opt/gaussian_09/l1.exe PID=      8686.
  
 Copyright (c) 1988,1990,1992,1993,1995,1998,2003,2009,2013,
            Gaussian, Inc.  All Rights Reserved.
  
 This is part of the Gaussian(R) 09 program.  It is based on
 the Gaussian(R) 03 system (copyright 2003, Gaussian, Inc.),
 the Gaussian(R) 98 system (copyright 1998, Gaussian, Inc.),
 the Gaussian(R) 94 system (copyright 1995, Gaussian, Inc.),
 the Gaussian 92(TM) system (copyright 1992, Gaussian, Inc.),
 the Gaussian 90(TM) system (copyright 1990, Gaussian, Inc.),
 the Gaussian 88(TM) system (copyright 1988, Gaussian, Inc.),
 the Gaussian 86(TM) system (copyright 1986, Carnegie Mellon
 University), and the Gaussian 82(TM) system (copyright 1983,
 Carnegie Mellon University). Gaussian is a federally registered
 trademark of Gaussian, Inc.
  
 This software contains proprietary and confidential information,
 including trade secrets, belonging to Gaussian, Inc.
  
 This software is provided under written license and may be
 used, copied, transmitted, or stored only in accord with that
 written license.
  
 The following legend is applicable only to US Government
 contracts under FAR:
  
                    RESTRICTED RIGHTS LEGEND
  
 Use, reproduction and disclosure by the US Government is
 subject to restrictions as set forth in subparagraphs (a)
 and (c) of the Commercial Computer Software - Restricted
 Rights clause in FAR 52.227-19.
  
 Gaussian, Inc.
 340 Quinnipiac St., Bldg. 40, Wallingford CT 06492
  
  
 ---------------------------------------------------------------
 Warning -- This program may not be used in any manner that
 competes with the business of Gaussian, Inc. or will provide
 assistance to any competitor of Gaussian, Inc.  The licensee
 of this program is prohibited from giving any competitor of
 Gaussian, Inc. access to this program.  By using this program,
 the user acknowledges that Gaussian, Inc. is engaged in the
 business of creating and licensing software in the field of
 computational chemistry and represents and warrants to the
 licensee that it is not a competitor of Gaussian, Inc. and that
 it will not use this program in any manner prohibited above.
 ---------------------------------------------------------------
  

 Cite this work as:
 Gaussian 09, Revision D.01,
 M. J. Frisch, G. W. Trucks, H. B. Schlegel, G. E. Scuseria, 
 M. A. Robb, J. R. Cheeseman, G. Scalmani, V. Barone, B. Mennucci, 
 G. A. Petersson, H. Nakatsuji, M. Caricato, X. Li, H. P. Hratchian, 
 A. F. Izmaylov, J. Bloino, G. Zheng, J. L. Sonnenberg, M. Hada, 
 M. Ehara, K. Toyota, R. Fukuda, J. Hasegawa, M. Ishida, T. Nakajima, 
 Y. Honda, O. Kitao, H. Nakai, T. Vreven, J. A. Montgomery, Jr., 
 J. E. Peralta, F. Ogliaro, M. Bearpark, J. J. Heyd, E. Brothers, 
 K. N. Kudin, V. N. Staroverov, T. Keith, R. Kobayashi, J. Normand, 
 K. Raghavachari, A. Rendell, J. C. Burant, S. S. Iyengar, J. Tomasi, 
 M. Cossi, N. Rega, J. M. Millam, M. Klene, J. E. Knox, J. B. Cross, 
 V. Bakken, C. Adamo, J. Jaramillo, R. Gomperts, R. E. Stratmann, 
 O. Yazyev, A. J. Austin, R. Cammi, C. Pomelli, J. W. Ochterski, 
 R. L. Martin, K. Morokuma, V. G. Zakrzewski, G. A. Voth, 
 P. Salvador, J. J. Dannenberg, S. Dapprich, A. D. Daniels, 
 O. Farkas, J. B. Foresman, J. V. Ortiz, J. Cioslowski, 
 and D. J. Fox, Gaussian, Inc., Wallingford CT, 2013.
 
 ******************************************
 Gaussian 09:  ES64L-G09RevD.01 24-Apr-2013
                28-Jan-2020 
 ******************************************
 -----------------------------
 # b3lyp 6-31G(2df,p) opt Freq
 -----------------------------
 1/14=-1,18=20,19=15,26=3,38=1/1,3;
 2/9=110,12=2,17=6,18=5,40=1/2;
 3/5=1,6=6,7=104,11=2,16=1,25=1,30=1,71=1,74=-5/1,2,3;
 4//1;
 5/5=2,38=5/2;
 6/7=2,8=2,9=2,10=2,28=1/1;
 7//1,2,3,16;
 1/14=-1,18=20,19=15,26=3/3(2);
 2/9=110/2;
 99//99;
 2/9=110/2;
 3/5=1,6=6,7=104,11=2,16=1,25=1,30=1,71=1,74=-5/1,2,3;
 4/5=5,16=3,69=1/1;
 5/5=2,38=5/2;
 7//1,2,3,16;
 1/14=-1,18=20,19=15,26=3/3(-5);
 2/9=110/2;
 6/7=2,8=2,9=2,10=2,19=2,28=1/1;
 99/9=1/99;
 -----
 titel
 -----
 Symbolic Z-matrix:
 Charge =  0 Multiplicity = 1
 C                    -1.25989  -3.44136  -1.23701 
 C                    -1.2102   -1.91996  -1.31295 
 C                    -2.59674  -1.20384  -1.27911 
 C                    -2.29018  -0.68157   0.15548 
 O                    -2.24724   0.73203   0.33561 
 C                    -0.99448   1.23159  -0.08821 
 C                    -0.0192    0.0469   -0.12832 
 O                     1.17011   0.12378  -0.29212 
 C                    -0.84729  -1.21843   0.04322 
 H                    -1.89027  -3.77911  -0.40639 
 H                    -1.67293  -3.86142  -2.16051 
 H                    -0.25987  -3.86315  -1.09215 
 H                    -0.56461  -1.61747  -2.14276 
 H                    -2.70684  -0.39265  -2.00294 
 H                    -3.46387  -1.86383  -1.36388 
 H                    -2.92967  -1.08656   0.94132 
 H                    -1.04295   1.68642  -1.09108 
 H                    -0.64758   2.00094   0.60938 
 H                    -0.4319   -1.85488   0.82697 
 

 GradGradGradGradGradGradGradGradGradGradGradGradGradGradGradGradGradGrad
 Berny optimization.
 Initialization pass.
                           ----------------------------
                           !    Initial Parameters    !
                           ! (Angstroms and Degrees)  !
 --------------------------                            --------------------------
 ! Name  Definition              Value          Derivative Info.                !
 --------------------------------------------------------------------------------
 ! R1    R(1,2)                  1.5241         estimate D2E/DX2                !
 ! R2    R(1,10)                 1.0961         estimate D2E/DX2                !
 ! R3    R(1,11)                 1.0954         estimate D2E/DX2                !
 ! R4    R(1,12)                 1.095          estimate D2E/DX2                !
 ! R5    R(2,3)                  1.5609         estimate D2E/DX2                !
 ! R6    R(2,9)                  1.5694         estimate D2E/DX2                !
 ! R7    R(2,13)                 1.094          estimate D2E/DX2                !
 ! R8    R(3,4)                  1.5572         estimate D2E/DX2                !
 ! R9    R(3,14)                 1.0927         estimate D2E/DX2                !
 ! R10   R(3,15)                 1.093          estimate D2E/DX2                !
 ! R11   R(4,5)                  1.4257         estimate D2E/DX2                !
 ! R12   R(4,9)                  1.5436         estimate D2E/DX2                !
 ! R13   R(4,16)                 1.0911         estimate D2E/DX2                !
 ! R14   R(5,6)                  1.4137         estimate D2E/DX2                !
 ! R15   R(6,7)                  1.535          estimate D2E/DX2                !
 ! R16   R(6,17)                 1.1023         estimate D2E/DX2                !
 ! R17   R(6,18)                 1.0949         estimate D2E/DX2                !
 ! R18   R(7,8)                  1.203          estimate D2E/DX2                !
 ! R19   R(7,9)                  1.5219         estimate D2E/DX2                !
 ! R20   R(9,19)                 1.0917         estimate D2E/DX2                !
 ! A1    A(2,1,10)             111.3525         estimate D2E/DX2                !
 ! A2    A(2,1,11)             110.6763         estimate D2E/DX2                !
 ! A3    A(2,1,12)             111.1827         estimate D2E/DX2                !
 ! A4    A(10,1,11)            107.6897         estimate D2E/DX2                !
 ! A5    A(10,1,12)            107.836          estimate D2E/DX2                !
 ! A6    A(11,1,12)            107.9504         estimate D2E/DX2                !
 ! A7    A(1,2,3)              115.3357         estimate D2E/DX2                !
 ! A8    A(1,2,9)              114.2487         estimate D2E/DX2                !
 ! A9    A(1,2,13)             109.4528         estimate D2E/DX2                !
 ! A10   A(3,2,9)               88.9458         estimate D2E/DX2                !
 ! A11   A(3,2,13)             114.4426         estimate D2E/DX2                !
 ! A12   A(9,2,13)             113.2902         estimate D2E/DX2                !
 ! A13   A(2,3,4)               89.9409         estimate D2E/DX2                !
 ! A14   A(2,3,14)             114.5641         estimate D2E/DX2                !
 ! A15   A(2,3,15)             115.2147         estimate D2E/DX2                !
 ! A16   A(4,3,14)             112.402          estimate D2E/DX2                !
 ! A17   A(4,3,15)             115.4771         estimate D2E/DX2                !
 ! A18   A(14,3,15)            108.4782         estimate D2E/DX2                !
 ! A19   A(3,4,5)              117.0574         estimate D2E/DX2                !
 ! A20   A(3,4,9)               90.021          estimate D2E/DX2                !
 ! A21   A(3,4,16)             115.0651         estimate D2E/DX2                !
 ! A22   A(5,4,9)              109.019          estimate D2E/DX2                !
 ! A23   A(5,4,16)             107.1391         estimate D2E/DX2                !
 ! A24   A(9,4,16)             118.1083         estimate D2E/DX2                !
 ! A25   A(4,5,6)              109.8274         estimate D2E/DX2                !
 ! A26   A(5,6,7)              107.3456         estimate D2E/DX2                !
 ! A27   A(5,6,17)             112.3089         estimate D2E/DX2                !
 ! A28   A(5,6,18)             109.7578         estimate D2E/DX2                !
 ! A29   A(7,6,17)             108.8216         estimate D2E/DX2                !
 ! A30   A(7,6,18)             110.9553         estimate D2E/DX2                !
 ! A31   A(17,6,18)            107.6781         estimate D2E/DX2                !
 ! A32   A(6,7,8)              125.6172         estimate D2E/DX2                !
 ! A33   A(6,7,9)              107.0382         estimate D2E/DX2                !
 ! A34   A(8,7,9)              127.3297         estimate D2E/DX2                !
 ! A35   A(2,9,4)               90.1239         estimate D2E/DX2                !
 ! A36   A(2,9,7)              113.5823         estimate D2E/DX2                !
 ! A37   A(2,9,19)             116.5991         estimate D2E/DX2                !
 ! A38   A(4,9,7)              103.1586         estimate D2E/DX2                !
 ! A39   A(4,9,19)             120.4111         estimate D2E/DX2                !
 ! A40   A(7,9,19)             111.0126         estimate D2E/DX2                !
 ! D1    D(10,1,2,3)           -49.942          estimate D2E/DX2                !
 ! D2    D(10,1,2,9)            51.0657         estimate D2E/DX2                !
 ! D3    D(10,1,2,13)          179.3084         estimate D2E/DX2                !
 ! D4    D(11,1,2,3)            69.8108         estimate D2E/DX2                !
 ! D5    D(11,1,2,9)           170.8185         estimate D2E/DX2                !
 ! D6    D(11,1,2,13)          -60.9388         estimate D2E/DX2                !
 ! D7    D(12,1,2,3)          -170.2201         estimate D2E/DX2                !
 ! D8    D(12,1,2,9)           -69.2124         estimate D2E/DX2                !
 ! D9    D(12,1,2,13)           59.0303         estimate D2E/DX2                !
 ! D10   D(1,2,3,4)            109.1013         estimate D2E/DX2                !
 ! D11   D(1,2,3,14)          -136.1553         estimate D2E/DX2                !
 ! D12   D(1,2,3,15)            -9.2558         estimate D2E/DX2                !
 ! D13   D(9,2,3,4)             -7.3713         estimate D2E/DX2                !
 ! D14   D(9,2,3,14)           107.3721         estimate D2E/DX2                !
 ! D15   D(9,2,3,15)          -125.7285         estimate D2E/DX2                !
 ! D16   D(13,2,3,4)          -122.5868         estimate D2E/DX2                !
 ! D17   D(13,2,3,14)           -7.8434         estimate D2E/DX2                !
 ! D18   D(13,2,3,15)          119.056          estimate D2E/DX2                !
 ! D19   D(1,2,9,4)           -110.0231         estimate D2E/DX2                !
 ! D20   D(1,2,9,7)            145.5387         estimate D2E/DX2                !
 ! D21   D(1,2,9,19)            14.5323         estimate D2E/DX2                !
 ! D22   D(3,2,9,4)              7.4364         estimate D2E/DX2                !
 ! D23   D(3,2,9,7)            -97.0018         estimate D2E/DX2                !
 ! D24   D(3,2,9,19)           131.9918         estimate D2E/DX2                !
 ! D25   D(13,2,9,4)           123.7093         estimate D2E/DX2                !
 ! D26   D(13,2,9,7)            19.271          estimate D2E/DX2                !
 ! D27   D(13,2,9,19)         -111.7354         estimate D2E/DX2                !
 ! D28   D(2,3,4,5)            118.9704         estimate D2E/DX2                !
 ! D29   D(2,3,4,9)              7.4938         estimate D2E/DX2                !
 ! D30   D(2,3,4,16)          -113.858          estimate D2E/DX2                !
 ! D31   D(14,3,4,5)             2.2767         estimate D2E/DX2                !
 ! D32   D(14,3,4,9)          -109.1998         estimate D2E/DX2                !
 ! D33   D(14,3,4,16)          129.4483         estimate D2E/DX2                !
 ! D34   D(15,3,4,5)          -122.9038         estimate D2E/DX2                !
 ! D35   D(15,3,4,9)           125.6196         estimate D2E/DX2                !
 ! D36   D(15,3,4,16)            4.2678         estimate D2E/DX2                !
 ! D37   D(3,4,5,6)            -80.553          estimate D2E/DX2                !
 ! D38   D(9,4,5,6)             19.6131         estimate D2E/DX2                !
 ! D39   D(16,4,5,6)           148.5014         estimate D2E/DX2                !
 ! D40   D(3,4,9,2)             -7.4531         estimate D2E/DX2                !
 ! D41   D(3,4,9,7)            106.8372         estimate D2E/DX2                !
 ! D42   D(3,4,9,19)          -128.8152         estimate D2E/DX2                !
 ! D43   D(5,4,9,2)           -126.2218         estimate D2E/DX2                !
 ! D44   D(5,4,9,7)            -11.9315         estimate D2E/DX2                !
 ! D45   D(5,4,9,19)           112.4161         estimate D2E/DX2                !
 ! D46   D(16,4,9,2)           111.2643         estimate D2E/DX2                !
 ! D47   D(16,4,9,7)          -134.4454         estimate D2E/DX2                !
 ! D48   D(16,4,9,19)          -10.0978         estimate D2E/DX2                !
 ! D49   D(4,5,6,7)            -18.7016         estimate D2E/DX2                !
 ! D50   D(4,5,6,17)           100.8688         estimate D2E/DX2                !
 ! D51   D(4,5,6,18)          -139.3857         estimate D2E/DX2                !
 ! D52   D(5,6,7,8)           -170.7396         estimate D2E/DX2                !
 ! D53   D(5,6,7,9)             10.5841         estimate D2E/DX2                !
 ! D54   D(17,6,7,8)            67.4836         estimate D2E/DX2                !
 ! D55   D(17,6,7,9)          -111.1926         estimate D2E/DX2                !
 ! D56   D(18,6,7,8)           -50.8158         estimate D2E/DX2                !
 ! D57   D(18,6,7,9)           130.508          estimate D2E/DX2                !
 ! D58   D(6,7,9,2)             96.7785         estimate D2E/DX2                !
 ! D59   D(6,7,9,4)              0.7816         estimate D2E/DX2                !
 ! D60   D(6,7,9,19)          -129.5105         estimate D2E/DX2                !
 ! D61   D(8,7,9,2)            -81.8682         estimate D2E/DX2                !
 ! D62   D(8,7,9,4)           -177.8651         estimate D2E/DX2                !
 ! D63   D(8,7,9,19)            51.8429         estimate D2E/DX2                !
 --------------------------------------------------------------------------------
 Trust Radius=3.00D-01 FncErr=1.00D-07 GrdErr=1.00D-06
 Number of steps in this run=    114 maximum allowed number of steps=    114.
 GradGradGradGradGradGradGradGradGradGradGradGradGradGradGradGradGradGrad

                          Input orientation:                          
 ---------------------------------------------------------------------
 Center     Atomic      Atomic             Coordinates (Angstroms)
 Number     Number       Type             X           Y           Z
 ---------------------------------------------------------------------
      1          6           0       -1.259892   -3.441358   -1.237014
      2          6           0       -1.210200   -1.919956   -1.312947
      3          6           0       -2.596741   -1.203843   -1.279113
      4          6           0       -2.290183   -0.681566    0.155485
      5          8           0       -2.247244    0.732032    0.335607
      6          6           0       -0.994479    1.231593   -0.088207
      7          6           0       -0.019196    0.046903   -0.128322
      8          8           0        1.170110    0.123780   -0.292119
      9          6           0       -0.847290   -1.218426    0.043216
     10          1           0       -1.890271   -3.779111   -0.406387
     11          1           0       -1.672935   -3.861420   -2.160513
     12          1           0       -0.259871   -3.863149   -1.092150
     13          1           0       -0.564605   -1.617469   -2.142761
     14          1           0       -2.706837   -0.392648   -2.002942
     15          1           0       -3.463869   -1.863827   -1.363879
     16          1           0       -2.929673   -1.086559    0.941317
     17          1           0       -1.042949    1.686417   -1.091076
     18          1           0       -0.647582    2.000935    0.609385
     19          1           0       -0.431898   -1.854878    0.826966
 ---------------------------------------------------------------------
                    Distance matrix (angstroms):
                    1          2          3          4          5
     1  C    0.000000
     2  C    1.524106   0.000000
     3  C    2.606800   1.560915   0.000000
     4  C    3.258374   2.203693   1.557184   0.000000
     5  O    4.567842   3.290323   2.545011   1.425674   0.000000
     6  C    4.819406   3.388035   3.149103   2.323449   1.413719
     7  C    3.864776   2.586573   3.087462   2.401790   2.376726
     8  O    4.416780   3.299215   4.114110   3.580861   3.527367
     9  C    2.598202   1.569403   2.193022   1.543620   2.418605
    10  H    1.096082   2.177339   2.809404   3.173391   4.585672
    11  H    1.095403   2.168358   2.948389   3.981999   5.259301
    12  H    1.094959   2.174368   3.545113   3.975076   5.206134
    13  H    2.151830   1.094021   2.246453   3.022494   3.807064
    14  H    3.460481   2.246928   1.092743   2.217178   2.635325
    15  H    2.713340   2.254943   1.093012   2.254716   3.332703
    16  H    3.616403   2.955138   2.248313   1.091100   2.034666
    17  H    5.134436   3.617060   3.286827   2.952431   2.096807
    18  H    5.779504   4.402872   4.199553   3.178046   2.060094
    19  H    2.731759   2.277985   3.089653   2.297993   3.198283
                    6          7          8          9         10
     6  C    0.000000
     7  C    1.535016   0.000000
     8  O    2.440138   1.202992   0.000000
     9  C    2.457953   1.521915   2.446196   0.000000
    10  H    5.100082   4.268094   4.961003   2.801260   0.000000
    11  H    5.540175   4.705278   5.239811   3.538860   1.769454
    12  H    5.244420   4.034278   4.310510   2.937461   1.770745
    13  H    3.538805   2.669377   3.076696   2.240009   3.073285
    14  H    3.039167   3.306179   4.268996   2.885583   3.831957
    15  H    4.160150   4.128348   5.154902   3.040221   2.657313
    16  H    3.190412   3.301475   4.449102   2.271627   3.185357
    17  H    1.102252   2.159391   2.824499   3.124583   5.573037
    18  H    1.094924   2.181128   2.764132   3.274862   5.998749
    19  H    3.268079   2.167872   2.780984   1.091735   2.711214
                   11         12         13         14         15
    11  H    0.000000
    12  H    1.771483   0.000000
    13  H    2.502804   2.497944   0.000000
    14  H    3.623005   4.342990   2.471618   0.000000
    15  H    2.798651   3.786387   3.012155   1.773659   0.000000
    16  H    4.347482   4.355718   3.922620   3.033122   2.490671
    17  H    5.684987   5.604542   3.500074   2.814699   4.305752
    18  H    6.564365   6.118253   4.546871   4.098050   5.173164
    19  H    3.806759   2.783119   2.982156   3.914312   3.740686
                   16         17         18         19
    16  H    0.000000
    17  H    3.921702   0.000000
    18  H    3.853665   1.773923   0.000000
    19  H    2.615773   4.073455   3.867965   0.000000
 Stoichiometry    C7H10O2
 Framework group  C1[X(C7H10O2)]
 Deg. of freedom    51
 Full point group                 C1      NOp   1
 Largest Abelian subgroup         C1      NOp   1
 Largest concise Abelian subgroup C1      NOp   1
                         Standard orientation:                         
 ---------------------------------------------------------------------
 Center     Atomic      Atomic             Coordinates (Angstroms)
 Number     Number       Type             X           Y           Z
 ---------------------------------------------------------------------
      1          6           0       -2.731782    0.629200   -0.139901
      2          6           0       -1.352748    0.320162    0.430766
      3          6           0       -1.042798   -1.194537    0.645418
      4          6           0       -0.034751   -1.154707   -0.540785
      5          8           0        1.324768   -1.467952   -0.247305
      6          6           0        1.968484   -0.337689    0.306532
      7          6           0        1.123047    0.892176   -0.052554
      8          8           0        1.446240    2.038399    0.117477
      9          6           0       -0.191198    0.378764   -0.622985
     10          1           0       -2.939988    0.024531   -1.030081
     11          1           0       -3.512563    0.415124    0.597974
     12          1           0       -2.815433    1.683477   -0.423517
     13          1           0       -1.172614    0.947903    1.308477
     14          1           0       -0.557930   -1.428695    1.596291
     15          1           0       -1.894683   -1.867027    0.516096
     16          1           0       -0.320857   -1.747987   -1.410647
     17          1           0        2.055512   -0.401426    1.403494
     18          1           0        2.980273   -0.250413   -0.102765
     19          1           0       -0.419308    0.860720   -1.575649
 ---------------------------------------------------------------------
 Rotational constants (GHZ):      2.5692413      1.5487779      1.0943777
 Standard basis: 6-31G(2df,p) (6D, 7F)
 There are   329 symmetry adapted cartesian basis functions of A   symmetry.
 There are   302 symmetry adapted basis functions of A   symmetry.
   302 basis functions,   466 primitive gaussians,   329 cartesian basis functions
    34 alpha electrons       34 beta electrons
       nuclear repulsion energy       466.0276413571 Hartrees.
 NAtoms=   19 NActive=   19 NUniq=   19 SFac= 1.00D+00 NAtFMM=   60 NAOKFM=F Big=F
 Integral buffers will be    131072 words long.
 Raffenetti 2 integral format.
 Two-electron integral symmetry is turned on.
 One-electron integrals computed using PRISM.
 NBasis=   302 RedAO= T EigKep=  3.07D-04  NBF=   302
 NBsUse=   302 1.00D-06 EigRej= -1.00D+00 NBFU=   302
 ExpMin= 1.61D-01 ExpMax= 5.48D+03 ExpMxC= 8.25D+02 IAcc=1 IRadAn=         1 AccDes= 0.00D+00
 Harris functional with IExCor=  402 and IRadAn=       1 diagonalized for initial guess.
 HarFok:  IExCor=  402 AccDes= 0.00D+00 IRadAn=         1 IDoV= 1 UseB2=F ITyADJ=14
 ICtDFT=  3500011 ScaDFX=  1.000000  1.000000  1.000000  1.000000
 FoFCou: FMM=F IPFlag=           0 FMFlag=      100000 FMFlg1=           0
         NFxFlg=           0 DoJE=T BraDBF=F KetDBF=T FulRan=T
         wScrn=  0.000000 ICntrl=     500 IOpCl=  0 I1Cent=   200000004 NGrid=           0
         NMat0=    1 NMatS0=      1 NMatT0=    0 NMatD0=    1 NMtDS0=    0 NMtDT0=    0
 Petite list used in FoFCou.
 Requested convergence on RMS density matrix=1.00D-08 within 128 cycles.
 Requested convergence on MAX density matrix=1.00D-06.
 Requested convergence on             energy=1.00D-06.
 No special actions if energy rises.
 Integral accuracy reduced to 1.0D-05 until final iterations.
 Initial convergence to 1.0D-05 achieved.  Increase integral accuracy.
 SCF Done:  E(RB3LYP) =  -423.198110804     A.U. after   14 cycles
            NFock= 14  Conv=0.35D-08     -V/T= 2.0074

 **********************************************************************

            Population analysis using the SCF density.

 **********************************************************************

 Orbital symmetries:
       Occupied  (A) (A) (A) (A) (A) (A) (A) (A) (A) (A) (A) (A)
                 (A) (A) (A) (A) (A) (A) (A) (A) (A) (A) (A) (A)
                 (A) (A) (A) (A) (A) (A) (A) (A) (A) (A)
       Virtual   (A) (A) (A) (A) (A) (A) (A) (A) (A) (A) (A) (A)
                 (A) (A) (A) (A) (A) (A) (A) (A) (A) (A) (A) (A)
                 (A) (A) (A) (A) (A) (A) (A) (A) (A) (A) (A) (A)
                 (A) (A) (A) (A) (A) (A) (A) (A) (A) (A) (A) (A)
                 (A) (A) (A) (A) (A) (A) (A) (A) (A) (A) (A) (A)
                 (A) (A) (A) (A) (A) (A) (A) (A) (A) (A) (A) (A)
                 (A) (A) (A) (A) (A) (A) (A) (A) (A) (A) (A) (A)
                 (A) (A) (A) (A) (A) (A) (A) (A) (A) (A) (A) (A)
                 (A) (A) (A) (A) (A) (A) (A) (A) (A) (A) (A) (A)
                 (A) (A) (A) (A) (A) (A) (A) (A) (A) (A) (A) (A)
                 (A) (A) (A) (A) (A) (A) (A) (A) (A) (A) (A) (A)
                 (A) (A) (A) (A) (A) (A) (A) (A) (A) (A) (A) (A)
                 (A) (A) (A) (A) (A) (A) (A) (A) (A) (A) (A) (A)
                 (A) (A) (A) (A) (A) (A) (A) (A) (A) (A) (A) (A)
                 (A) (A) (A) (A) (A) (A) (A) (A) (A) (A) (A) (A)
                 (A) (A) (A) (A) (A) (A) (A) (A) (A) (A) (A) (A)
                 (A) (A) (A) (A) (A) (A) (A) (A) (A) (A) (A) (A)
                 (A) (A) (A) (A) (A) (A) (A) (A) (A) (A) (A) (A)
                 (A) (A) (A) (A) (A) (A) (A) (A) (A) (A) (A) (A)
                 (A) (A) (A) (A) (A) (A) (A) (A) (A) (A) (A) (A)
                 (A) (A) (A) (A) (A) (A) (A) (A) (A) (A) (A) (A)
                 (A) (A) (A) (A) (A) (A) (A) (A) (A) (A) (A) (A)
                 (A) (A) (A) (A)
 The electronic state is 1-A.
 Alpha  occ. eigenvalues --  -19.14861 -19.13785 -10.27404 -10.23958 -10.23722
 Alpha  occ. eigenvalues --  -10.20489 -10.19498 -10.18675 -10.18528  -1.05578
 Alpha  occ. eigenvalues --   -1.03889  -0.85362  -0.74210  -0.73357  -0.68273
 Alpha  occ. eigenvalues --   -0.61937  -0.56518  -0.54954  -0.50841  -0.48426
 Alpha  occ. eigenvalues --   -0.46091  -0.44571  -0.44000  -0.42129  -0.41248
 Alpha  occ. eigenvalues --   -0.39405  -0.38457  -0.37150  -0.35582  -0.34394
 Alpha  occ. eigenvalues --   -0.31654  -0.30887  -0.26162  -0.23828
 Alpha virt. eigenvalues --   -0.02713   0.07678   0.08359   0.10410   0.12000
 Alpha virt. eigenvalues --    0.13707   0.14408   0.15241   0.15821   0.16877
 Alpha virt. eigenvalues --    0.17226   0.17614   0.18389   0.19936   0.22337
 Alpha virt. eigenvalues --    0.24151   0.25031   0.26073   0.29540   0.35235
 Alpha virt. eigenvalues --    0.37725   0.40268   0.42768   0.44009   0.46069
 Alpha virt. eigenvalues --    0.48023   0.49204   0.51117   0.51822   0.52182
 Alpha virt. eigenvalues --    0.54128   0.54998   0.55756   0.57479   0.60538
 Alpha virt. eigenvalues --    0.61850   0.62806   0.63251   0.65840   0.66937
 Alpha virt. eigenvalues --    0.69349   0.70492   0.71857   0.72569   0.73887
 Alpha virt. eigenvalues --    0.74791   0.75573   0.77805   0.78246   0.79094
 Alpha virt. eigenvalues --    0.80955   0.81811   0.83560   0.85365   0.87833
 Alpha virt. eigenvalues --    0.88908   0.93210   0.94684   0.96853   0.97314
 Alpha virt. eigenvalues --    0.99237   1.00170   1.00583   1.05973   1.08437
 Alpha virt. eigenvalues --    1.10924   1.11930   1.16430   1.18888   1.19453
 Alpha virt. eigenvalues --    1.22461   1.25320   1.27006   1.29754   1.33880
 Alpha virt. eigenvalues --    1.34781   1.36103   1.37219   1.39818   1.42165
 Alpha virt. eigenvalues --    1.43272   1.44212   1.46589   1.47774   1.48069
 Alpha virt. eigenvalues --    1.50302   1.51964   1.54751   1.56466   1.58484
 Alpha virt. eigenvalues --    1.60943   1.62050   1.64448   1.65328   1.66387
 Alpha virt. eigenvalues --    1.67363   1.73454   1.77288   1.77962   1.80551
 Alpha virt. eigenvalues --    1.83683   1.84955   1.87584   1.89027   1.94369
 Alpha virt. eigenvalues --    1.95420   1.96574   1.98544   2.04802   2.05453
 Alpha virt. eigenvalues --    2.11876   2.13691   2.19051   2.20684   2.24098
 Alpha virt. eigenvalues --    2.25581   2.29495   2.32700   2.33631   2.36220
 Alpha virt. eigenvalues --    2.42767   2.44403   2.47484   2.51570   2.53114
 Alpha virt. eigenvalues --    2.59622   2.62576   2.64171   2.68305   2.70441
 Alpha virt. eigenvalues --    2.70754   2.77609   2.79022   2.81770   2.83460
 Alpha virt. eigenvalues --    2.86123   2.87655   2.87835   2.90126   2.92119
 Alpha virt. eigenvalues --    2.94849   2.97952   2.99772   3.02395   3.05253
 Alpha virt. eigenvalues --    3.07293   3.09221   3.10221   3.11797   3.14816
 Alpha virt. eigenvalues --    3.15542   3.17605   3.20482   3.24214   3.26814
 Alpha virt. eigenvalues --    3.28306   3.30456   3.34801   3.37866   3.38316
 Alpha virt. eigenvalues --    3.40134   3.42517   3.45205   3.47180   3.49959
 Alpha virt. eigenvalues --    3.51903   3.54437   3.55205   3.59510   3.62028
 Alpha virt. eigenvalues --    3.62822   3.65427   3.71582   3.75864   3.78339
 Alpha virt. eigenvalues --    3.81185   3.84387   3.91228   3.92952   3.94170
 Alpha virt. eigenvalues --    3.97958   3.99959   4.02893   4.07844   4.13672
 Alpha virt. eigenvalues --    4.14114   4.18302   4.21011   4.25722   4.28127
 Alpha virt. eigenvalues --    4.30679   4.35534   4.36849   4.39434   4.41217
 Alpha virt. eigenvalues --    4.42296   4.44620   4.45560   4.48560   4.50277
 Alpha virt. eigenvalues --    4.53243   4.55310   4.56525   4.58080   4.59538
 Alpha virt. eigenvalues --    4.61556   4.62219   4.64198   4.67324   4.68906
 Alpha virt. eigenvalues --    4.69165   4.70238   4.72235   4.74586   4.76317
 Alpha virt. eigenvalues --    4.77573   4.78122   4.79465   4.80374   4.81046
 Alpha virt. eigenvalues --    4.84082   4.87117   4.88208   4.94319   4.97715
 Alpha virt. eigenvalues --    5.00630   5.02529   5.03517   5.08209   5.09520
 Alpha virt. eigenvalues --    5.11437   5.14213   5.14609   5.24009   5.28141
 Alpha virt. eigenvalues --    5.34413   5.40873   5.42223   5.46182   5.50283
 Alpha virt. eigenvalues --    5.53358   5.56708   5.58559   5.59417   5.66095
 Alpha virt. eigenvalues --    5.69049   5.75184   5.87675   5.89492   5.99510
 Alpha virt. eigenvalues --    6.02660   6.08349   6.09798   6.33506   6.40681
 Alpha virt. eigenvalues --    6.56171   6.80835   7.03454   7.65373  10.80699
 Alpha virt. eigenvalues --   11.36306  11.58546  11.91404  12.18555  12.40708
 Alpha virt. eigenvalues --   13.06855  13.16630  13.62805
          Condensed to atoms (all electrons):
               1          2          3          4          5          6
     1  C    4.996807   0.406997  -0.024880  -0.001623   0.000001  -0.000125
     2  C    0.406997   4.685073   0.357515  -0.055606  -0.000354   0.000756
     3  C   -0.024880   0.357515   5.141310   0.329078  -0.032448   0.008098
     4  C   -0.001623  -0.055606   0.329078   4.698644   0.376116  -0.118589
     5  O    0.000001  -0.000354  -0.032448   0.376116   7.694584   0.362279
     6  C   -0.000125   0.000756   0.008098  -0.118589   0.362279   5.145933
     7  C    0.000390   0.000546  -0.012828  -0.009291  -0.039095   0.300626
     8  O   -0.000108  -0.002459   0.000233   0.001174   0.001505  -0.064742
     9  C   -0.024788   0.357869  -0.100365   0.330494  -0.021179  -0.147749
    10  H    0.371554  -0.025081  -0.005474   0.001106   0.000005   0.000004
    11  H    0.370265  -0.020449  -0.003681   0.000054   0.000000   0.000007
    12  H    0.373304  -0.022574   0.004063  -0.000068   0.000001  -0.000001
    13  H   -0.048865   0.364565  -0.032391   0.003727  -0.000170   0.001214
    14  H    0.003546  -0.012938   0.337435  -0.009164  -0.003362   0.001707
    15  H   -0.010894  -0.024950   0.351351  -0.014397   0.001901  -0.000361
    16  H    0.000370   0.008083  -0.060112   0.368114  -0.025802   0.004705
    17  H    0.000017  -0.000074   0.003472   0.005992  -0.030155   0.339641
    18  H    0.000000   0.000025  -0.000497   0.004556  -0.019704   0.353866
    19  H   -0.006707  -0.036701   0.013260  -0.037728   0.001986   0.007994
               7          8          9         10         11         12
     1  C    0.000390  -0.000108  -0.024788   0.371554   0.370265   0.373304
     2  C    0.000546  -0.002459   0.357869  -0.025081  -0.020449  -0.022574
     3  C   -0.012828   0.000233  -0.100365  -0.005474  -0.003681   0.004063
     4  C   -0.009291   0.001174   0.330494   0.001106   0.000054  -0.000068
     5  O   -0.039095   0.001505  -0.021179   0.000005   0.000000   0.000001
     6  C    0.300626  -0.064742  -0.147749   0.000004   0.000007  -0.000001
     7  C    4.316654   0.784535   0.345967   0.000164  -0.000057   0.000086
     8  O    0.784535   7.645042  -0.060681   0.000000   0.000000   0.000028
     9  C    0.345967  -0.060681   5.213350  -0.004446   0.003413  -0.003453
    10  H    0.000164   0.000000  -0.004446   0.600249  -0.032052  -0.032255
    11  H   -0.000057   0.000000   0.003413  -0.032052   0.593242  -0.030696
    12  H    0.000086   0.000028  -0.003453  -0.032255  -0.030696   0.586613
    13  H   -0.002702   0.001945  -0.040790   0.005885  -0.002485  -0.002594
    14  H    0.002224  -0.000027  -0.000278  -0.000035   0.000069  -0.000145
    15  H    0.000069  -0.000002   0.006647   0.003098   0.002155   0.000024
    16  H    0.002470  -0.000043  -0.031310  -0.000432   0.000040   0.000032
    17  H   -0.021987   0.001121   0.000706   0.000000  -0.000001  -0.000001
    18  H   -0.007480  -0.000403   0.003642   0.000000   0.000000   0.000000
    19  H   -0.028343  -0.000915   0.357215   0.001779   0.000008   0.002305
              13         14         15         16         17         18
     1  C   -0.048865   0.003546  -0.010894   0.000370   0.000017   0.000000
     2  C    0.364565  -0.012938  -0.024950   0.008083  -0.000074   0.000025
     3  C   -0.032391   0.337435   0.351351  -0.060112   0.003472  -0.000497
     4  C    0.003727  -0.009164  -0.014397   0.368114   0.005992   0.004556
     5  O   -0.000170  -0.003362   0.001901  -0.025802  -0.030155  -0.019704
     6  C    0.001214   0.001707  -0.000361   0.004705   0.339641   0.353866
     7  C   -0.002702   0.002224   0.000069   0.002470  -0.021987  -0.007480
     8  O    0.001945  -0.000027  -0.000002  -0.000043   0.001121  -0.000403
     9  C   -0.040790  -0.000278   0.006647  -0.031310   0.000706   0.003642
    10  H    0.005885  -0.000035   0.003098  -0.000432   0.000000   0.000000
    11  H   -0.002485   0.000069   0.002155   0.000040  -0.000001   0.000000
    12  H   -0.002594  -0.000145   0.000024   0.000032  -0.000001   0.000000
    13  H    0.664798  -0.007967   0.004079  -0.000607   0.000090  -0.000028
    14  H   -0.007967   0.610095  -0.035093   0.004453  -0.000478   0.000008
    15  H    0.004079  -0.035093   0.616904  -0.005160  -0.000052   0.000002
    16  H   -0.000607   0.004453  -0.005160   0.651698  -0.000349  -0.000005
    17  H    0.000090  -0.000478  -0.000052  -0.000349   0.624255  -0.045332
    18  H   -0.000028   0.000008   0.000002  -0.000005  -0.045332   0.573108
    19  H    0.004212  -0.000476  -0.000585  -0.005685  -0.000019  -0.000320
              19
     1  C   -0.006707
     2  C   -0.036701
     3  C    0.013260
     4  C   -0.037728
     5  O    0.001986
     6  C    0.007994
     7  C   -0.028343
     8  O   -0.000915
     9  C    0.357215
    10  H    0.001779
    11  H    0.000008
    12  H    0.002305
    13  H    0.004212
    14  H   -0.000476
    15  H   -0.000585
    16  H   -0.005685
    17  H   -0.000019
    18  H   -0.000320
    19  H    0.630159
 Mulliken charges:
               1
     1  C   -0.405261
     2  C    0.019759
     3  C   -0.273138
     4  C    0.127409
     5  O   -0.266110
     6  C   -0.195265
     7  C    0.368052
     8  O   -0.306203
     9  C   -0.184264
    10  H    0.115931
    11  H    0.120168
    12  H    0.125330
    13  H    0.088087
    14  H    0.110426
    15  H    0.105264
    16  H    0.089540
    17  H    0.123153
    18  H    0.138562
    19  H    0.098562
 Sum of Mulliken charges =   0.00000
 Mulliken charges with hydrogens summed into heavy atoms:
               1
     1  C   -0.043832
     2  C    0.107845
     3  C   -0.057448
     4  C    0.216949
     5  O   -0.266110
     6  C    0.066450
     7  C    0.368052
     8  O   -0.306203
     9  C   -0.085703
 Electronic spatial extent (au):  <R**2>=           1133.3093
 Charge=              0.0000 electrons
 Dipole moment (field-independent basis, Debye):
    X=             -1.7687    Y=             -1.2099    Z=             -0.0525  Tot=              2.1436
 Quadrupole moment (field-independent basis, Debye-Ang):
   XX=            -52.2439   YY=            -61.7774   ZZ=            -50.8050
   XY=             -1.4483   XZ=              0.6691   YZ=             -0.8601
 Traceless Quadrupole moment (field-independent basis, Debye-Ang):
   XX=              2.6982   YY=             -6.8354   ZZ=              4.1371
   XY=             -1.4483   XZ=              0.6691   YZ=             -0.8601
 Octapole moment (field-independent basis, Debye-Ang**2):
  XXX=             14.4508  YYY=             -8.2253  ZZZ=             -0.6025  XYY=            -13.6956
  XXY=             -2.8320  XXZ=              0.9014  XZZ=              4.2623  YZZ=              0.4442
  YYZ=             -2.0124  XYZ=             -2.7698
 Hexadecapole moment (field-independent basis, Debye-Ang**3):
 XXXX=           -834.3720 YYYY=           -480.5370 ZZZZ=           -144.8928 XXXY=             -2.5041
 XXXZ=             -6.5753 YYYX=             -9.2795 YYYZ=              1.3009 ZZZX=              2.5113
 ZZZY=              2.2316 XXYY=           -237.7338 XXZZ=           -165.8301 YYZZ=            -94.8757
 XXYZ=             -2.6339 YYXZ=              0.7016 ZZXY=              1.5329
 N-N= 4.660276413571D+02 E-N=-1.918645405785D+03  KE= 4.200733941236D+02
 Calling FoFJK, ICntrl=      2127 FMM=F ISym2X=0 I1Cent= 0 IOpClX= 0 NMat=1 NMatS=1 NMatT=0.
 ***** Axes restored to original set *****
 -------------------------------------------------------------------
 Center     Atomic                   Forces (Hartrees/Bohr)
 Number     Number              X              Y              Z
 -------------------------------------------------------------------
      1        6          -0.000000846   -0.000001725    0.000000420
      2        6          -0.000004226    0.000001787   -0.000000365
      3        6           0.000005737    0.000003345    0.000000765
      4        6           0.000001521    0.000005091   -0.000001171
      5        8          -0.000001363   -0.000006333    0.000002146
      6        6           0.000003313    0.000004300   -0.000005545
      7        6          -0.000001520   -0.000008286    0.000001284
      8        8          -0.000000414    0.000000234   -0.000000957
      9        6           0.000001855    0.000005012    0.000001491
     10        1          -0.000000204   -0.000000049   -0.000000239
     11        1          -0.000001812   -0.000000060   -0.000000282
     12        1          -0.000000721    0.000000305   -0.000000668
     13        1           0.000000340   -0.000001651   -0.000000223
     14        1          -0.000002677   -0.000001160   -0.000000710
     15        1          -0.000000940   -0.000000543    0.000001440
     16        1          -0.000000410   -0.000000182   -0.000000171
     17        1          -0.000001173    0.000000177    0.000001952
     18        1           0.000002339    0.000000545    0.000001066
     19        1           0.000001203   -0.000000807   -0.000000230
 -------------------------------------------------------------------
 Cartesian Forces:  Max     0.000008286 RMS     0.000002460

 GradGradGradGradGradGradGradGradGradGradGradGradGradGradGradGradGradGrad
 Berny optimization.
 FormGI is forming the generalized inverse of G from B-inverse, IUseBI=4.
 Internal  Forces:  Max     0.000004806 RMS     0.000000985
 Search for a local minimum.
 Step number   1 out of a maximum of  114
 All quantities printed in internal units (Hartrees-Bohrs-Radians)
 Mixed Optimization -- En-DIIS/RFO-DIIS
 Second derivative matrix not updated -- first step.
 ITU=  0
     Eigenvalues ---    0.00293   0.00392   0.00447   0.00954   0.02227
     Eigenvalues ---    0.02682   0.02998   0.03684   0.04373   0.04561
     Eigenvalues ---    0.04715   0.04879   0.05512   0.05530   0.05599
     Eigenvalues ---    0.05664   0.05841   0.06283   0.07054   0.07608
     Eigenvalues ---    0.08719   0.09421   0.10141   0.11191   0.11325
     Eigenvalues ---    0.16000   0.16000   0.16000   0.16487   0.18426
     Eigenvalues ---    0.23133   0.23912   0.24984   0.26127   0.26544
     Eigenvalues ---    0.28306   0.29446   0.29974   0.33434   0.34119
     Eigenvalues ---    0.34196   0.34246   0.34250   0.34352   0.34467
     Eigenvalues ---    0.34498   0.34613   0.34686   0.39848   0.40907
     Eigenvalues ---    1.03334
 RFO step:  Lambda= 0.00000000D+00 EMin= 2.92593486D-03
 Linear search not attempted -- first point.
 Iteration  1 RMS(Cart)=  0.00002502 RMS(Int)=  0.00000000
 Iteration  2 RMS(Cart)=  0.00000000 RMS(Int)=  0.00000000
 Variable       Old X    -DE/DX   Delta X   Delta X   Delta X     New X
                                 (Linear)    (Quad)   (Total)
    R1        2.88014   0.00000   0.00000   0.00000   0.00000   2.88015
    R2        2.07129   0.00000   0.00000   0.00000   0.00000   2.07129
    R3        2.07001   0.00000   0.00000   0.00000   0.00000   2.07001
    R4        2.06917   0.00000   0.00000   0.00000   0.00000   2.06917
    R5        2.94970   0.00000   0.00000  -0.00001  -0.00001   2.94969
    R6        2.96574   0.00000   0.00000   0.00001   0.00001   2.96575
    R7        2.06740   0.00000   0.00000   0.00000   0.00000   2.06740
    R8        2.94265   0.00000   0.00000   0.00000   0.00000   2.94265
    R9        2.06498   0.00000   0.00000   0.00000   0.00000   2.06498
   R10        2.06549   0.00000   0.00000   0.00000   0.00000   2.06550
   R11        2.69413   0.00000   0.00000  -0.00001  -0.00001   2.69412
   R12        2.91702   0.00000   0.00000   0.00000   0.00000   2.91702
   R13        2.06188   0.00000   0.00000   0.00000   0.00000   2.06188
   R14        2.67154   0.00000   0.00000   0.00001   0.00001   2.67155
   R15        2.90076   0.00000   0.00000   0.00001   0.00001   2.90077
   R16        2.08295   0.00000   0.00000  -0.00001  -0.00001   2.08295
   R17        2.06911   0.00000   0.00000   0.00000   0.00000   2.06911
   R18        2.27333   0.00000   0.00000   0.00000   0.00000   2.27332
   R19        2.87600   0.00000   0.00000  -0.00002  -0.00002   2.87599
   R20        2.06308   0.00000   0.00000   0.00000   0.00000   2.06308
    A1        1.94347   0.00000   0.00000   0.00000   0.00000   1.94347
    A2        1.93167   0.00000   0.00000   0.00000   0.00000   1.93167
    A3        1.94050   0.00000   0.00000  -0.00001  -0.00001   1.94050
    A4        1.87954   0.00000   0.00000   0.00000   0.00000   1.87954
    A5        1.88209   0.00000   0.00000   0.00000   0.00000   1.88210
    A6        1.88409   0.00000   0.00000   0.00000   0.00000   1.88409
    A7        2.01299   0.00000   0.00000   0.00000   0.00000   2.01299
    A8        1.99402   0.00000   0.00000   0.00000   0.00000   1.99402
    A9        1.91031   0.00000   0.00000  -0.00001  -0.00001   1.91030
   A10        1.55240   0.00000   0.00000   0.00000   0.00000   1.55240
   A11        1.99740   0.00000   0.00000   0.00001   0.00001   1.99741
   A12        1.97729   0.00000   0.00000   0.00000   0.00000   1.97729
   A13        1.56976   0.00000   0.00000   0.00000   0.00000   1.56976
   A14        1.99952   0.00000   0.00000   0.00002   0.00002   1.99954
   A15        2.01088   0.00000   0.00000  -0.00002  -0.00002   2.01086
   A16        1.96179   0.00000   0.00000   0.00003   0.00003   1.96181
   A17        2.01546   0.00000   0.00000  -0.00002  -0.00002   2.01544
   A18        1.89330   0.00000   0.00000  -0.00001  -0.00001   1.89329
   A19        2.04304   0.00000   0.00000   0.00002   0.00002   2.04305
   A20        1.57116   0.00000   0.00000   0.00000   0.00000   1.57116
   A21        2.00826   0.00000   0.00000  -0.00001  -0.00001   2.00825
   A22        1.90274   0.00000   0.00000   0.00000   0.00000   1.90274
   A23        1.86993   0.00000   0.00000   0.00000   0.00000   1.86993
   A24        2.06138   0.00000   0.00000   0.00000   0.00000   2.06138
   A25        1.91685   0.00000   0.00000   0.00000   0.00000   1.91685
   A26        1.87353   0.00000   0.00000  -0.00001  -0.00001   1.87352
   A27        1.96016   0.00000   0.00000  -0.00001  -0.00001   1.96015
   A28        1.91563   0.00000   0.00000   0.00000   0.00000   1.91564
   A29        1.89929   0.00000   0.00000   0.00002   0.00002   1.89932
   A30        1.93653   0.00000   0.00000  -0.00001  -0.00001   1.93653
   A31        1.87934   0.00000   0.00000   0.00000   0.00000   1.87934
   A32        2.19243   0.00000   0.00000  -0.00001  -0.00001   2.19243
   A33        1.86817   0.00000   0.00000   0.00001   0.00001   1.86817
   A34        2.22232   0.00000   0.00000   0.00000   0.00000   2.22232
   A35        1.57296   0.00000   0.00000   0.00000   0.00000   1.57295
   A36        1.98239   0.00000   0.00000   0.00000   0.00000   1.98238
   A37        2.03504   0.00000   0.00000   0.00000   0.00000   2.03503
   A38        1.80046   0.00000   0.00000   0.00000   0.00000   1.80046
   A39        2.10157   0.00000   0.00000   0.00001   0.00001   2.10158
   A40        1.93754   0.00000   0.00000   0.00000   0.00000   1.93754
    D1       -0.87165   0.00000   0.00000  -0.00003  -0.00003  -0.87168
    D2        0.89127   0.00000   0.00000  -0.00003  -0.00003   0.89124
    D3        3.12952   0.00000   0.00000  -0.00004  -0.00004   3.12949
    D4        1.21843   0.00000   0.00000  -0.00003  -0.00003   1.21840
    D5        2.98134   0.00000   0.00000  -0.00003  -0.00003   2.98132
    D6       -1.06358   0.00000   0.00000  -0.00003  -0.00003  -1.06362
    D7       -2.97090   0.00000   0.00000  -0.00003  -0.00003  -2.97093
    D8       -1.20798   0.00000   0.00000  -0.00003  -0.00003  -1.20802
    D9        1.03027   0.00000   0.00000  -0.00004  -0.00004   1.03024
   D10        1.90418   0.00000   0.00000  -0.00002  -0.00002   1.90416
   D11       -2.37636   0.00000   0.00000   0.00002   0.00002  -2.37634
   D12       -0.16154   0.00000   0.00000   0.00001   0.00001  -0.16154
   D13       -0.12865   0.00000   0.00000  -0.00002  -0.00002  -0.12867
   D14        1.87400   0.00000   0.00000   0.00001   0.00001   1.87401
   D15       -2.19438   0.00000   0.00000   0.00000   0.00000  -2.19437
   D16       -2.13954   0.00000   0.00000  -0.00002  -0.00002  -2.13957
   D17       -0.13689   0.00000   0.00000   0.00001   0.00001  -0.13688
   D18        2.07792   0.00000   0.00000   0.00000   0.00000   2.07792
   D19       -1.92026   0.00000   0.00000   0.00002   0.00002  -1.92025
   D20        2.54013   0.00000   0.00000   0.00002   0.00002   2.54015
   D21        0.25364   0.00000   0.00000   0.00002   0.00002   0.25366
   D22        0.12979   0.00000   0.00000   0.00002   0.00002   0.12981
   D23       -1.69300   0.00000   0.00000   0.00002   0.00002  -1.69298
   D24        2.30369   0.00000   0.00000   0.00003   0.00003   2.30372
   D25        2.15913   0.00000   0.00000   0.00003   0.00003   2.15916
   D26        0.33634   0.00000   0.00000   0.00003   0.00003   0.33638
   D27       -1.95015   0.00000   0.00000   0.00004   0.00004  -1.95011
   D28        2.07642   0.00000   0.00000   0.00002   0.00002   2.07645
   D29        0.13079   0.00000   0.00000   0.00002   0.00002   0.13081
   D30       -1.98720   0.00000   0.00000   0.00002   0.00002  -1.98717
   D31        0.03974   0.00000   0.00000   0.00000   0.00000   0.03973
   D32       -1.90590   0.00000   0.00000  -0.00001  -0.00001  -1.90590
   D33        2.25930   0.00000   0.00000   0.00000   0.00000   2.25930
   D34       -2.14508   0.00000   0.00000   0.00000   0.00000  -2.14508
   D35        2.19248   0.00000   0.00000   0.00000   0.00000   2.19247
   D36        0.07449   0.00000   0.00000   0.00000   0.00000   0.07449
   D37       -1.40591   0.00000   0.00000   0.00002   0.00002  -1.40590
   D38        0.34231   0.00000   0.00000   0.00003   0.00003   0.34234
   D39        2.59184   0.00000   0.00000   0.00003   0.00003   2.59187
   D40       -0.13008   0.00000   0.00000  -0.00002  -0.00002  -0.13010
   D41        1.86466   0.00000   0.00000  -0.00002  -0.00002   1.86464
   D42       -2.24825   0.00000   0.00000  -0.00002  -0.00002  -2.24827
   D43       -2.20299   0.00000   0.00000  -0.00004  -0.00004  -2.20302
   D44       -0.20824   0.00000   0.00000  -0.00004  -0.00004  -0.20828
   D45        1.96203   0.00000   0.00000  -0.00003  -0.00003   1.96200
   D46        1.94193   0.00000   0.00000  -0.00004  -0.00004   1.94189
   D47       -2.34652   0.00000   0.00000  -0.00004  -0.00004  -2.34655
   D48       -0.17624   0.00000   0.00000  -0.00003  -0.00003  -0.17627
   D49       -0.32641   0.00000   0.00000   0.00000   0.00000  -0.32640
   D50        1.76049   0.00000   0.00000   0.00002   0.00002   1.76051
   D51       -2.43274   0.00000   0.00000   0.00001   0.00001  -2.43273
   D52       -2.97997   0.00000   0.00000   0.00000   0.00000  -2.97997
   D53        0.18473   0.00000   0.00000  -0.00003  -0.00003   0.18470
   D54        1.17781   0.00000   0.00000   0.00000   0.00000   1.17781
   D55       -1.94068   0.00000   0.00000  -0.00002  -0.00002  -1.94070
   D56       -0.88690   0.00000   0.00000  -0.00001  -0.00001  -0.88691
   D57        2.27779   0.00000   0.00000  -0.00003  -0.00003   2.27776
   D58        1.68910   0.00000   0.00000   0.00003   0.00003   1.68914
   D59        0.01364   0.00000   0.00000   0.00004   0.00004   0.01368
   D60       -2.26038   0.00000   0.00000   0.00003   0.00003  -2.26036
   D61       -1.42887   0.00000   0.00000   0.00001   0.00001  -1.42886
   D62       -3.10433   0.00000   0.00000   0.00002   0.00002  -3.10432
   D63        0.90483   0.00000   0.00000   0.00001   0.00001   0.90483
         Item               Value     Threshold  Converged?
 Maximum Force            0.000005     0.000450     YES
 RMS     Force            0.000001     0.000300     YES
 Maximum Displacement     0.000091     0.001800     YES
 RMS     Displacement     0.000025     0.001200     YES
 Predicted change in Energy=-4.806951D-10
 Optimization completed.
    -- Stationary point found.
                           ----------------------------
                           !   Optimized Parameters   !
                           ! (Angstroms and Degrees)  !
 --------------------------                            --------------------------
 ! Name  Definition              Value          Derivative Info.                !
 --------------------------------------------------------------------------------
 ! R1    R(1,2)                  1.5241         -DE/DX =    0.0                 !
 ! R2    R(1,10)                 1.0961         -DE/DX =    0.0                 !
 ! R3    R(1,11)                 1.0954         -DE/DX =    0.0                 !
 ! R4    R(1,12)                 1.095          -DE/DX =    0.0                 !
 ! R5    R(2,3)                  1.5609         -DE/DX =    0.0                 !
 ! R6    R(2,9)                  1.5694         -DE/DX =    0.0                 !
 ! R7    R(2,13)                 1.094          -DE/DX =    0.0                 !
 ! R8    R(3,4)                  1.5572         -DE/DX =    0.0                 !
 ! R9    R(3,14)                 1.0927         -DE/DX =    0.0                 !
 ! R10   R(3,15)                 1.093          -DE/DX =    0.0                 !
 ! R11   R(4,5)                  1.4257         -DE/DX =    0.0                 !
 ! R12   R(4,9)                  1.5436         -DE/DX =    0.0                 !
 ! R13   R(4,16)                 1.0911         -DE/DX =    0.0                 !
 ! R14   R(5,6)                  1.4137         -DE/DX =    0.0                 !
 ! R15   R(6,7)                  1.535          -DE/DX =    0.0                 !
 ! R16   R(6,17)                 1.1023         -DE/DX =    0.0                 !
 ! R17   R(6,18)                 1.0949         -DE/DX =    0.0                 !
 ! R18   R(7,8)                  1.203          -DE/DX =    0.0                 !
 ! R19   R(7,9)                  1.5219         -DE/DX =    0.0                 !
 ! R20   R(9,19)                 1.0917         -DE/DX =    0.0                 !
 ! A1    A(2,1,10)             111.3525         -DE/DX =    0.0                 !
 ! A2    A(2,1,11)             110.6763         -DE/DX =    0.0                 !
 ! A3    A(2,1,12)             111.1827         -DE/DX =    0.0                 !
 ! A4    A(10,1,11)            107.6897         -DE/DX =    0.0                 !
 ! A5    A(10,1,12)            107.836          -DE/DX =    0.0                 !
 ! A6    A(11,1,12)            107.9504         -DE/DX =    0.0                 !
 ! A7    A(1,2,3)              115.3357         -DE/DX =    0.0                 !
 ! A8    A(1,2,9)              114.2487         -DE/DX =    0.0                 !
 ! A9    A(1,2,13)             109.4528         -DE/DX =    0.0                 !
 ! A10   A(3,2,9)               88.9458         -DE/DX =    0.0                 !
 ! A11   A(3,2,13)             114.4426         -DE/DX =    0.0                 !
 ! A12   A(9,2,13)             113.2902         -DE/DX =    0.0                 !
 ! A13   A(2,3,4)               89.9409         -DE/DX =    0.0                 !
 ! A14   A(2,3,14)             114.5641         -DE/DX =    0.0                 !
 ! A15   A(2,3,15)             115.2147         -DE/DX =    0.0                 !
 ! A16   A(4,3,14)             112.402          -DE/DX =    0.0                 !
 ! A17   A(4,3,15)             115.4771         -DE/DX =    0.0                 !
 ! A18   A(14,3,15)            108.4782         -DE/DX =    0.0                 !
 ! A19   A(3,4,5)              117.0574         -DE/DX =    0.0                 !
 ! A20   A(3,4,9)               90.021          -DE/DX =    0.0                 !
 ! A21   A(3,4,16)             115.0651         -DE/DX =    0.0                 !
 ! A22   A(5,4,9)              109.019          -DE/DX =    0.0                 !
 ! A23   A(5,4,16)             107.1391         -DE/DX =    0.0                 !
 ! A24   A(9,4,16)             118.1083         -DE/DX =    0.0                 !
 ! A25   A(4,5,6)              109.8274         -DE/DX =    0.0                 !
 ! A26   A(5,6,7)              107.3456         -DE/DX =    0.0                 !
 ! A27   A(5,6,17)             112.3089         -DE/DX =    0.0                 !
 ! A28   A(5,6,18)             109.7578         -DE/DX =    0.0                 !
 ! A29   A(7,6,17)             108.8216         -DE/DX =    0.0                 !
 ! A30   A(7,6,18)             110.9553         -DE/DX =    0.0                 !
 ! A31   A(17,6,18)            107.6781         -DE/DX =    0.0                 !
 ! A32   A(6,7,8)              125.6172         -DE/DX =    0.0                 !
 ! A33   A(6,7,9)              107.0382         -DE/DX =    0.0                 !
 ! A34   A(8,7,9)              127.3297         -DE/DX =    0.0                 !
 ! A35   A(2,9,4)               90.1239         -DE/DX =    0.0                 !
 ! A36   A(2,9,7)              113.5823         -DE/DX =    0.0                 !
 ! A37   A(2,9,19)             116.5991         -DE/DX =    0.0                 !
 ! A38   A(4,9,7)              103.1586         -DE/DX =    0.0                 !
 ! A39   A(4,9,19)             120.4111         -DE/DX =    0.0                 !
 ! A40   A(7,9,19)             111.0126         -DE/DX =    0.0                 !
 ! D1    D(10,1,2,3)           -49.942          -DE/DX =    0.0                 !
 ! D2    D(10,1,2,9)            51.0657         -DE/DX =    0.0                 !
 ! D3    D(10,1,2,13)          179.3084         -DE/DX =    0.0                 !
 ! D4    D(11,1,2,3)            69.8108         -DE/DX =    0.0                 !
 ! D5    D(11,1,2,9)           170.8185         -DE/DX =    0.0                 !
 ! D6    D(11,1,2,13)          -60.9388         -DE/DX =    0.0                 !
 ! D7    D(12,1,2,3)          -170.2201         -DE/DX =    0.0                 !
 ! D8    D(12,1,2,9)           -69.2124         -DE/DX =    0.0                 !
 ! D9    D(12,1,2,13)           59.0303         -DE/DX =    0.0                 !
 ! D10   D(1,2,3,4)            109.1013         -DE/DX =    0.0                 !
 ! D11   D(1,2,3,14)          -136.1553         -DE/DX =    0.0                 !
 ! D12   D(1,2,3,15)            -9.2558         -DE/DX =    0.0                 !
 ! D13   D(9,2,3,4)             -7.3713         -DE/DX =    0.0                 !
 ! D14   D(9,2,3,14)           107.3721         -DE/DX =    0.0                 !
 ! D15   D(9,2,3,15)          -125.7285         -DE/DX =    0.0                 !
 ! D16   D(13,2,3,4)          -122.5868         -DE/DX =    0.0                 !
 ! D17   D(13,2,3,14)           -7.8434         -DE/DX =    0.0                 !
 ! D18   D(13,2,3,15)          119.056          -DE/DX =    0.0                 !
 ! D19   D(1,2,9,4)           -110.0231         -DE/DX =    0.0                 !
 ! D20   D(1,2,9,7)            145.5387         -DE/DX =    0.0                 !
 ! D21   D(1,2,9,19)            14.5323         -DE/DX =    0.0                 !
 ! D22   D(3,2,9,4)              7.4364         -DE/DX =    0.0                 !
 ! D23   D(3,2,9,7)            -97.0018         -DE/DX =    0.0                 !
 ! D24   D(3,2,9,19)           131.9918         -DE/DX =    0.0                 !
 ! D25   D(13,2,9,4)           123.7093         -DE/DX =    0.0                 !
 ! D26   D(13,2,9,7)            19.271          -DE/DX =    0.0                 !
 ! D27   D(13,2,9,19)         -111.7354         -DE/DX =    0.0                 !
 ! D28   D(2,3,4,5)            118.9704         -DE/DX =    0.0                 !
 ! D29   D(2,3,4,9)              7.4938         -DE/DX =    0.0                 !
 ! D30   D(2,3,4,16)          -113.858          -DE/DX =    0.0                 !
 ! D31   D(14,3,4,5)             2.2767         -DE/DX =    0.0                 !
 ! D32   D(14,3,4,9)          -109.1998         -DE/DX =    0.0                 !
 ! D33   D(14,3,4,16)          129.4483         -DE/DX =    0.0                 !
 ! D34   D(15,3,4,5)          -122.9038         -DE/DX =    0.0                 !
 ! D35   D(15,3,4,9)           125.6196         -DE/DX =    0.0                 !
 ! D36   D(15,3,4,16)            4.2678         -DE/DX =    0.0                 !
 ! D37   D(3,4,5,6)            -80.553          -DE/DX =    0.0                 !
 ! D38   D(9,4,5,6)             19.6131         -DE/DX =    0.0                 !
 ! D39   D(16,4,5,6)           148.5014         -DE/DX =    0.0                 !
 ! D40   D(3,4,9,2)             -7.4531         -DE/DX =    0.0                 !
 ! D41   D(3,4,9,7)            106.8372         -DE/DX =    0.0                 !
 ! D42   D(3,4,9,19)          -128.8152         -DE/DX =    0.0                 !
 ! D43   D(5,4,9,2)           -126.2218         -DE/DX =    0.0                 !
 ! D44   D(5,4,9,7)            -11.9315         -DE/DX =    0.0                 !
 ! D45   D(5,4,9,19)           112.4161         -DE/DX =    0.0                 !
 ! D46   D(16,4,9,2)           111.2643         -DE/DX =    0.0                 !
 ! D47   D(16,4,9,7)          -134.4454         -DE/DX =    0.0                 !
 ! D48   D(16,4,9,19)          -10.0978         -DE/DX =    0.0                 !
 ! D49   D(4,5,6,7)            -18.7016         -DE/DX =    0.0                 !
 ! D50   D(4,5,6,17)           100.8688         -DE/DX =    0.0                 !
 ! D51   D(4,5,6,18)          -139.3857         -DE/DX =    0.0                 !
 ! D52   D(5,6,7,8)           -170.7396         -DE/DX =    0.0                 !
 ! D53   D(5,6,7,9)             10.5841         -DE/DX =    0.0                 !
 ! D54   D(17,6,7,8)            67.4836         -DE/DX =    0.0                 !
 ! D55   D(17,6,7,9)          -111.1926         -DE/DX =    0.0                 !
 ! D56   D(18,6,7,8)           -50.8158         -DE/DX =    0.0                 !
 ! D57   D(18,6,7,9)           130.508          -DE/DX =    0.0                 !
 ! D58   D(6,7,9,2)             96.7785         -DE/DX =    0.0                 !
 ! D59   D(6,7,9,4)              0.7816         -DE/DX =    0.0                 !
 ! D60   D(6,7,9,19)          -129.5105         -DE/DX =    0.0                 !
 ! D61   D(8,7,9,2)            -81.8682         -DE/DX =    0.0                 !
 ! D62   D(8,7,9,4)           -177.8651         -DE/DX =    0.0                 !
 ! D63   D(8,7,9,19)            51.8429         -DE/DX =    0.0                 !
 --------------------------------------------------------------------------------
 GradGradGradGradGradGradGradGradGradGradGradGradGradGradGradGradGradGrad

                          Input orientation:                          
 ---------------------------------------------------------------------
 Center     Atomic      Atomic             Coordinates (Angstroms)
 Number     Number       Type             X           Y           Z
 ---------------------------------------------------------------------
      1          6           0       -1.259892   -3.441358   -1.237014
      2          6           0       -1.210200   -1.919956   -1.312947
      3          6           0       -2.596741   -1.203843   -1.279113
      4          6           0       -2.290183   -0.681566    0.155485
      5          8           0       -2.247244    0.732032    0.335607
      6          6           0       -0.994479    1.231593   -0.088207
      7          6           0       -0.019196    0.046903   -0.128322
      8          8           0        1.170110    0.123780   -0.292119
      9          6           0       -0.847290   -1.218426    0.043216
     10          1           0       -1.890271   -3.779111   -0.406387
     11          1           0       -1.672935   -3.861420   -2.160513
     12          1           0       -0.259871   -3.863149   -1.092150
     13          1           0       -0.564605   -1.617469   -2.142761
     14          1           0       -2.706837   -0.392648   -2.002942
     15          1           0       -3.463869   -1.863827   -1.363879
     16          1           0       -2.929673   -1.086559    0.941317
     17          1           0       -1.042949    1.686417   -1.091076
     18          1           0       -0.647582    2.000935    0.609385
     19          1           0       -0.431898   -1.854878    0.826966
 ---------------------------------------------------------------------
                    Distance matrix (angstroms):
                    1          2          3          4          5
     1  C    0.000000
     2  C    1.524106   0.000000
     3  C    2.606800   1.560915   0.000000
     4  C    3.258374   2.203693   1.557184   0.000000
     5  O    4.567842   3.290323   2.545011   1.425674   0.000000
     6  C    4.819406   3.388035   3.149103   2.323449   1.413719
     7  C    3.864776   2.586573   3.087462   2.401790   2.376726
     8  O    4.416780   3.299215   4.114110   3.580861   3.527367
     9  C    2.598202   1.569403   2.193022   1.543620   2.418605
    10  H    1.096082   2.177339   2.809404   3.173391   4.585672
    11  H    1.095403   2.168358   2.948389   3.981999   5.259301
    12  H    1.094959   2.174368   3.545113   3.975076   5.206134
    13  H    2.151830   1.094021   2.246453   3.022494   3.807064
    14  H    3.460481   2.246928   1.092743   2.217178   2.635325
    15  H    2.713340   2.254943   1.093012   2.254716   3.332703
    16  H    3.616403   2.955138   2.248313   1.091100   2.034666
    17  H    5.134436   3.617060   3.286827   2.952431   2.096807
    18  H    5.779504   4.402872   4.199553   3.178046   2.060094
    19  H    2.731759   2.277985   3.089653   2.297993   3.198283
                    6          7          8          9         10
     6  C    0.000000
     7  C    1.535016   0.000000
     8  O    2.440138   1.202992   0.000000
     9  C    2.457953   1.521915   2.446196   0.000000
    10  H    5.100082   4.268094   4.961003   2.801260   0.000000
    11  H    5.540175   4.705278   5.239811   3.538860   1.769454
    12  H    5.244420   4.034278   4.310510   2.937461   1.770745
    13  H    3.538805   2.669377   3.076696   2.240009   3.073285
    14  H    3.039167   3.306179   4.268996   2.885583   3.831957
    15  H    4.160150   4.128348   5.154902   3.040221   2.657313
    16  H    3.190412   3.301475   4.449102   2.271627   3.185357
    17  H    1.102252   2.159391   2.824499   3.124583   5.573037
    18  H    1.094924   2.181128   2.764132   3.274862   5.998749
    19  H    3.268079   2.167872   2.780984   1.091735   2.711214
                   11         12         13         14         15
    11  H    0.000000
    12  H    1.771483   0.000000
    13  H    2.502804   2.497944   0.000000
    14  H    3.623005   4.342990   2.471618   0.000000
    15  H    2.798651   3.786387   3.012155   1.773659   0.000000
    16  H    4.347482   4.355718   3.922620   3.033122   2.490671
    17  H    5.684987   5.604542   3.500074   2.814699   4.305752
    18  H    6.564365   6.118253   4.546871   4.098050   5.173164
    19  H    3.806759   2.783119   2.982156   3.914312   3.740686
                   16         17         18         19
    16  H    0.000000
    17  H    3.921702   0.000000
    18  H    3.853665   1.773923   0.000000
    19  H    2.615773   4.073455   3.867965   0.000000
 Stoichiometry    C7H10O2
 Framework group  C1[X(C7H10O2)]
 Deg. of freedom    51
 Full point group                 C1      NOp   1
 Largest Abelian subgroup         C1      NOp   1
 Largest concise Abelian subgroup C1      NOp   1
                         Standard orientation:                         
 ---------------------------------------------------------------------
 Center     Atomic      Atomic             Coordinates (Angstroms)
 Number     Number       Type             X           Y           Z
 ---------------------------------------------------------------------
      1          6           0       -2.731782    0.629200   -0.139901
      2          6           0       -1.352748    0.320162    0.430766
      3          6           0       -1.042798   -1.194537    0.645418
      4          6           0       -0.034751   -1.154707   -0.540785
      5          8           0        1.324768   -1.467952   -0.247305
      6          6           0        1.968484   -0.337689    0.306532
      7          6           0        1.123047    0.892176   -0.052554
      8          8           0        1.446240    2.038399    0.117477
      9          6           0       -0.191198    0.378764   -0.622985
     10          1           0       -2.939988    0.024531   -1.030081
     11          1           0       -3.512563    0.415124    0.597974
     12          1           0       -2.815433    1.683477   -0.423517
     13          1           0       -1.172614    0.947903    1.308477
     14          1           0       -0.557930   -1.428695    1.596291
     15          1           0       -1.894683   -1.867027    0.516096
     16          1           0       -0.320857   -1.747987   -1.410647
     17          1           0        2.055512   -0.401426    1.403494
     18          1           0        2.980273   -0.250413   -0.102765
     19          1           0       -0.419308    0.860720   -1.575649
 ---------------------------------------------------------------------
 Rotational constants (GHZ):      2.5692413      1.5487779      1.0943777
 1\1\GINC-ALCHEMY-P\FOpt\RB3LYP\6-31G(2df,p)\C7H10O2\PUCK\28-Jan-2020\0
 \\# b3lyp 6-31G(2df,p) opt Freq\\titel\\0,1\C,-1.2598921019,-3.4413578
 729,-1.237013984\C,-1.2102001092,-1.9199557629,-1.3129465282\C,-2.5967
 406569,-1.2038431011,-1.2791130259\C,-2.2901834892,-0.6815660437,0.155
 4846964\O,-2.2472438449,0.7320317314,0.3356070836\C,-0.9944786337,1.23
 15931342,-0.0882070996\C,-0.0191964279,0.0469032879,-0.1283215001\O,1.
 1701100575,0.1237802374,-0.2921194495\C,-0.8472903337,-1.218426421,0.0
 432163186\H,-1.8902709806,-3.7791106186,-0.4063870062\H,-1.6729348112,
 -3.8614198977,-2.1605133447\H,-0.2598706853,-3.8631487503,-1.092150202
 8\H,-0.5646050871,-1.6174690146,-2.1427608615\H,-2.7068370618,-0.39264
 76814,-2.0029416756\H,-3.4638688787,-1.8638266765,-1.3638792165\H,-2.9
 296727465,-1.0865591615,0.9413172994\H,-1.0429492398,1.6864169417,-1.0
 910759172\H,-0.6475821285,2.0009350393,0.6093845519\H,-0.4318982208,-1
 .8548780096,0.8269660219\\Version=ES64L-G09RevD.01\State=1-A\HF=-423.1
 981108\RMSD=3.484e-09\RMSF=2.460e-06\Dipole=-0.6381439,-0.5287662,-0.1
 562357\Quadrupole=-5.1413939,2.5852053,2.5561885,0.5851859,0.7953995,-
 0.8188675\PG=C01 [X(C7H10O2)]\\@


 IT IS A SIMPLE TASK TO MAKE THINGS COMPLEX,
 BUT A COMPLEX TASK TO MAKE THEM SIMPLE.
 Job cpu time:       0 days  0 hours  6 minutes 43.0 seconds.
 File lengths (MBytes):  RWF=     52 Int=      0 D2E=      0 Chk=      7 Scr=      1
 Normal termination of Gaussian 09 at Tue Jan 28 03:51:43 2020.
 Link1:  Proceeding to internal job step number  2.
 ----------------------------------------------------------------------
 #N Geom=AllCheck Guess=TCheck SCRF=Check GenChk RB3LYP/6-31G(2df,p) Fr
 eq
 ----------------------------------------------------------------------
 1/10=4,29=7,30=1,38=1,40=1/1,3;
 2/12=2,40=1/2;
 3/5=1,6=6,7=104,11=2,14=-4,16=1,25=1,30=1,70=2,71=2,74=-5,116=1,140=1/1,2,3;
 4/5=101/1;
 5/5=2,98=1/2;
 8/6=4,10=90,11=11/1;
 11/6=1,8=1,9=11,15=111,16=1/1,2,10;
 10/6=1/2;
 6/7=2,8=2,9=2,10=2,18=1,28=1/1;
 7/8=1,10=1,25=1/1,2,3,16;
 1/10=4,30=1/3;
 99//99;
 Structure from the checkpoint file:  "/scratch/puck/g09_39cdb7bc-4196-4a4c-a23a-8bd2e566345a/Gau-8686.chk"
 -----
 titel
 -----
 Charge =  0 Multiplicity = 1
 Redundant internal coordinates found in file.
 C,0,-1.2598921019,-3.4413578729,-1.237013984
 C,0,-1.2102001092,-1.9199557629,-1.3129465282
 C,0,-2.5967406569,-1.2038431011,-1.2791130259
 C,0,-2.2901834892,-0.6815660437,0.1554846964
 O,0,-2.2472438449,0.7320317314,0.3356070836
 C,0,-0.9944786337,1.2315931342,-0.0882070996
 C,0,-0.0191964279,0.0469032879,-0.1283215001
 O,0,1.1701100575,0.1237802374,-0.2921194495
 C,0,-0.8472903337,-1.218426421,0.0432163186
 H,0,-1.8902709806,-3.7791106186,-0.4063870062
 H,0,-1.6729348112,-3.8614198977,-2.1605133447
 H,0,-0.2598706853,-3.8631487503,-1.0921502028
 H,0,-0.5646050871,-1.6174690146,-2.1427608615
 H,0,-2.7068370618,-0.3926476814,-2.0029416756
 H,0,-3.4638688787,-1.8638266765,-1.3638792165
 H,0,-2.9296727465,-1.0865591615,0.9413172994
 H,0,-1.0429492398,1.6864169417,-1.0910759172
 H,0,-0.6475821285,2.0009350393,0.6093845519
 H,0,-0.4318982208,-1.8548780096,0.8269660219
 Recover connectivity data from disk.

 GradGradGradGradGradGradGradGradGradGradGradGradGradGradGradGradGradGrad
 Berny optimization.
 Initialization pass.
                           ----------------------------
                           !    Initial Parameters    !
                           ! (Angstroms and Degrees)  !
 --------------------------                            --------------------------
 ! Name  Definition              Value          Derivative Info.                !
 --------------------------------------------------------------------------------
 ! R1    R(1,2)                  1.5241         calculate D2E/DX2 analytically  !
 ! R2    R(1,10)                 1.0961         calculate D2E/DX2 analytically  !
 ! R3    R(1,11)                 1.0954         calculate D2E/DX2 analytically  !
 ! R4    R(1,12)                 1.095          calculate D2E/DX2 analytically  !
 ! R5    R(2,3)                  1.5609         calculate D2E/DX2 analytically  !
 ! R6    R(2,9)                  1.5694         calculate D2E/DX2 analytically  !
 ! R7    R(2,13)                 1.094          calculate D2E/DX2 analytically  !
 ! R8    R(3,4)                  1.5572         calculate D2E/DX2 analytically  !
 ! R9    R(3,14)                 1.0927         calculate D2E/DX2 analytically  !
 ! R10   R(3,15)                 1.093          calculate D2E/DX2 analytically  !
 ! R11   R(4,5)                  1.4257         calculate D2E/DX2 analytically  !
 ! R12   R(4,9)                  1.5436         calculate D2E/DX2 analytically  !
 ! R13   R(4,16)                 1.0911         calculate D2E/DX2 analytically  !
 ! R14   R(5,6)                  1.4137         calculate D2E/DX2 analytically  !
 ! R15   R(6,7)                  1.535          calculate D2E/DX2 analytically  !
 ! R16   R(6,17)                 1.1023         calculate D2E/DX2 analytically  !
 ! R17   R(6,18)                 1.0949         calculate D2E/DX2 analytically  !
 ! R18   R(7,8)                  1.203          calculate D2E/DX2 analytically  !
 ! R19   R(7,9)                  1.5219         calculate D2E/DX2 analytically  !
 ! R20   R(9,19)                 1.0917         calculate D2E/DX2 analytically  !
 ! A1    A(2,1,10)             111.3525         calculate D2E/DX2 analytically  !
 ! A2    A(2,1,11)             110.6763         calculate D2E/DX2 analytically  !
 ! A3    A(2,1,12)             111.1827         calculate D2E/DX2 analytically  !
 ! A4    A(10,1,11)            107.6897         calculate D2E/DX2 analytically  !
 ! A5    A(10,1,12)            107.836          calculate D2E/DX2 analytically  !
 ! A6    A(11,1,12)            107.9504         calculate D2E/DX2 analytically  !
 ! A7    A(1,2,3)              115.3357         calculate D2E/DX2 analytically  !
 ! A8    A(1,2,9)              114.2487         calculate D2E/DX2 analytically  !
 ! A9    A(1,2,13)             109.4528         calculate D2E/DX2 analytically  !
 ! A10   A(3,2,9)               88.9458         calculate D2E/DX2 analytically  !
 ! A11   A(3,2,13)             114.4426         calculate D2E/DX2 analytically  !
 ! A12   A(9,2,13)             113.2902         calculate D2E/DX2 analytically  !
 ! A13   A(2,3,4)               89.9409         calculate D2E/DX2 analytically  !
 ! A14   A(2,3,14)             114.5641         calculate D2E/DX2 analytically  !
 ! A15   A(2,3,15)             115.2147         calculate D2E/DX2 analytically  !
 ! A16   A(4,3,14)             112.402          calculate D2E/DX2 analytically  !
 ! A17   A(4,3,15)             115.4771         calculate D2E/DX2 analytically  !
 ! A18   A(14,3,15)            108.4782         calculate D2E/DX2 analytically  !
 ! A19   A(3,4,5)              117.0574         calculate D2E/DX2 analytically  !
 ! A20   A(3,4,9)               90.021          calculate D2E/DX2 analytically  !
 ! A21   A(3,4,16)             115.0651         calculate D2E/DX2 analytically  !
 ! A22   A(5,4,9)              109.019          calculate D2E/DX2 analytically  !
 ! A23   A(5,4,16)             107.1391         calculate D2E/DX2 analytically  !
 ! A24   A(9,4,16)             118.1083         calculate D2E/DX2 analytically  !
 ! A25   A(4,5,6)              109.8274         calculate D2E/DX2 analytically  !
 ! A26   A(5,6,7)              107.3456         calculate D2E/DX2 analytically  !
 ! A27   A(5,6,17)             112.3089         calculate D2E/DX2 analytically  !
 ! A28   A(5,6,18)             109.7578         calculate D2E/DX2 analytically  !
 ! A29   A(7,6,17)             108.8216         calculate D2E/DX2 analytically  !
 ! A30   A(7,6,18)             110.9553         calculate D2E/DX2 analytically  !
 ! A31   A(17,6,18)            107.6781         calculate D2E/DX2 analytically  !
 ! A32   A(6,7,8)              125.6172         calculate D2E/DX2 analytically  !
 ! A33   A(6,7,9)              107.0382         calculate D2E/DX2 analytically  !
 ! A34   A(8,7,9)              127.3297         calculate D2E/DX2 analytically  !
 ! A35   A(2,9,4)               90.1239         calculate D2E/DX2 analytically  !
 ! A36   A(2,9,7)              113.5823         calculate D2E/DX2 analytically  !
 ! A37   A(2,9,19)             116.5991         calculate D2E/DX2 analytically  !
 ! A38   A(4,9,7)              103.1586         calculate D2E/DX2 analytically  !
 ! A39   A(4,9,19)             120.4111         calculate D2E/DX2 analytically  !
 ! A40   A(7,9,19)             111.0126         calculate D2E/DX2 analytically  !
 ! D1    D(10,1,2,3)           -49.942          calculate D2E/DX2 analytically  !
 ! D2    D(10,1,2,9)            51.0657         calculate D2E/DX2 analytically  !
 ! D3    D(10,1,2,13)          179.3084         calculate D2E/DX2 analytically  !
 ! D4    D(11,1,2,3)            69.8108         calculate D2E/DX2 analytically  !
 ! D5    D(11,1,2,9)           170.8185         calculate D2E/DX2 analytically  !
 ! D6    D(11,1,2,13)          -60.9388         calculate D2E/DX2 analytically  !
 ! D7    D(12,1,2,3)          -170.2201         calculate D2E/DX2 analytically  !
 ! D8    D(12,1,2,9)           -69.2124         calculate D2E/DX2 analytically  !
 ! D9    D(12,1,2,13)           59.0303         calculate D2E/DX2 analytically  !
 ! D10   D(1,2,3,4)            109.1013         calculate D2E/DX2 analytically  !
 ! D11   D(1,2,3,14)          -136.1553         calculate D2E/DX2 analytically  !
 ! D12   D(1,2,3,15)            -9.2558         calculate D2E/DX2 analytically  !
 ! D13   D(9,2,3,4)             -7.3713         calculate D2E/DX2 analytically  !
 ! D14   D(9,2,3,14)           107.3721         calculate D2E/DX2 analytically  !
 ! D15   D(9,2,3,15)          -125.7285         calculate D2E/DX2 analytically  !
 ! D16   D(13,2,3,4)          -122.5868         calculate D2E/DX2 analytically  !
 ! D17   D(13,2,3,14)           -7.8434         calculate D2E/DX2 analytically  !
 ! D18   D(13,2,3,15)          119.056          calculate D2E/DX2 analytically  !
 ! D19   D(1,2,9,4)           -110.0231         calculate D2E/DX2 analytically  !
 ! D20   D(1,2,9,7)            145.5387         calculate D2E/DX2 analytically  !
 ! D21   D(1,2,9,19)            14.5323         calculate D2E/DX2 analytically  !
 ! D22   D(3,2,9,4)              7.4364         calculate D2E/DX2 analytically  !
 ! D23   D(3,2,9,7)            -97.0018         calculate D2E/DX2 analytically  !
 ! D24   D(3,2,9,19)           131.9918         calculate D2E/DX2 analytically  !
 ! D25   D(13,2,9,4)           123.7093         calculate D2E/DX2 analytically  !
 ! D26   D(13,2,9,7)            19.271          calculate D2E/DX2 analytically  !
 ! D27   D(13,2,9,19)         -111.7354         calculate D2E/DX2 analytically  !
[...]
 ,0.51964328,0.00010712,-0.00008594,-0.00037438,0.02637968,-0.01586071,
 -0.03505568,-0.01374291,-0.07419289,-0.00973295,0.06392614,0.44968450,
 -0.00145022,-0.00054753,-0.00174608,0.02225692,-0.02794581,-0.03366070
 ,-0.00661022,-0.01332176,-0.15354122,-0.13139191,-0.03419070,0.5232016
 4,0.00114296,-0.00037311,0.00062107,-0.00270564,-0.00144554,0.00016127
 ,0.00117617,-0.01058172,0.00325373,-0.08392527,-0.01375688,0.00922823,
 0.34219986,0.00086703,0.00008991,0.00021724,0.00092178,-0.00023090,-0.
 00411826,-0.00318019,-0.02260348,-0.01035823,0.02087466,-0.18337791,-0
 .02217121,0.06262120,0.38227356,0.00085867,0.00006662,0.00046699,-0.00
 044400,-0.00065050,-0.00280082,-0.00325976,-0.02922302,0.00380532,0.01
 408945,-0.01463724,-0.06457719,-0.09170992,0.01750784,0.11513544,-0.00
 064175,-0.00006205,-0.00027339,0.00014561,0.00067178,0.00220835,0.0002
 0349,0.00299972,0.00055271,-0.00991318,-0.03406356,0.00031184,-0.18291
 917,-0.05313411,0.04406891,0.42249697,-0.00059500,-0.00035453,-0.00091
 895,0.00024364,-0.00224502,0.00213389,-0.00065710,0.00122910,-0.000043
 29,-0.03753650,-0.03746238,0.01316121,-0.01752884,-0.09543279,0.000571
 24,0.05863032,0.54954152,0.00105714,0.00004341,0.00156973,0.00208924,0
 .00442636,-0.00361561,-0.00085643,-0.00434911,0.00137158,-0.00564443,0
 .00879680,-0.00300790,0.04580795,0.00807878,-0.07513213,0.02596431,0.0
 2384341,0.52696300,0.00107227,0.00041371,0.00426967,-0.00445756,-0.003
 18468,-0.01367111,-0.00111243,0.00072798,-0.00059495,-0.04384292,-0.00
 815278,0.00764231,-0.04824123,0.00172921,0.01161012,-0.07733207,0.0086
 2535,-0.00596385,1.00671602,0.00071313,-0.00103016,0.00111982,-0.01343
 444,-0.01575876,-0.01126902,-0.00115414,-0.00231115,-0.00051709,-0.010
 16735,0.03382305,-0.00152467,-0.01612059,-0.00895886,0.00238460,0.0451
 8453,-0.13778348,-0.00836803,0.03845795,0.41897285,-0.00244476,-0.0005
 5781,-0.00558737,-0.01568398,-0.02071162,0.00959443,-0.00030900,0.0011
 1006,-0.00249937,0.01064958,0.00244741,-0.00151850,0.01371780,-0.00165
 147,0.00013999,-0.00745258,0.00176600,-0.08590729,-0.10371376,-0.01766
 924,0.24878823,-0.00085308,0.00048934,-0.00210167,0.00136147,0.0027662
 3,0.00826540,0.00049380,0.00023039,-0.00031059,0.00458022,-0.00733765,
 0.00264713,-0.00396935,0.00579068,-0.00008493,-0.04171764,0.01500379,0
 .00708148,-0.77085901,-0.03910091,0.09477219,0.85594706,-0.00030808,0.
 00031267,-0.00034509,0.00113587,0.00221625,0.00243874,0.00018560,0.001
 09567,0.00020458,-0.00165498,-0.01693093,0.00140404,0.01253786,0.00229
 665,-0.00175370,0.02426558,0.01561457,-0.00200027,-0.04102335,-0.09982
 770,0.00709913,0.04905484,0.07956874,0.00020664,-0.00001525,0.00106746
 ,0.00249264,0.00108812,-0.00259751,0.00023377,-0.00056294,0.00098747,-
 0.00121442,0.00126694,0.00120863,-0.00012490,-0.00030846,0.00111755,0.
 00567654,-0.00248938,0.01803323,0.09763384,0.00787149,-0.07864815,-0.1
 1309131,-0.00955125,0.04018488,-0.00296916,-0.00201415,-0.00491966,-0.
 04755629,-0.01499150,-0.00144261,-0.04713191,0.00444981,-0.03373436,-0
 .15185956,0.02060811,0.00330058,0.00220149,0.01729551,0.00234231,0.005
 40749,0.00903127,0.00661885,-0.07751694,-0.01595875,-0.00130920,-0.043
 19421,-0.04291661,0.00901171,0.45273104,-0.01399468,-0.01504120,-0.032
 60348,-0.01417336,-0.07619067,-0.01174452,0.01221118,0.01010188,-0.005
 08619,0.02157363,-0.08130550,0.01925308,0.02733418,-0.02865671,-0.0007
 3547,-0.00498278,-0.03131341,0.00271883,-0.00920529,-0.14190263,0.0054
 0114,-0.02646108,0.00837747,0.00508148,-0.05204028,0.49223604,-0.00109
 260,-0.00497705,-0.00271646,-0.01899814,-0.02624784,-0.12284122,-0.039
 37745,-0.00757173,-0.02886139,0.01985933,0.00955555,-0.05947938,0.0023
 9655,-0.00136093,0.00266232,0.00375445,0.00366415,0.02835635,0.0058269
 7,0.02144958,-0.08438500,0.00426985,0.00396747,0.01563583,0.08266210,-
 0.10235042,0.45104053,-0.13374024,-0.04361013,0.11377382,-0.00142941,-
 0.00044129,0.00053709,0.00076591,0.00022328,-0.00076945,0.00021684,-0.
 00019276,0.00020812,-0.00002306,-0.00006667,-0.00012011,0.00011237,0.0
 0007972,0.00010679,-0.00038124,0.00010053,-0.00008935,0.00016842,-0.00
 003525,-0.00007787,0.00035787,0.00007950,0.00029813,0.14185655,-0.0425
 3440,-0.06802479,0.05613549,-0.02052664,-0.01249953,0.02684604,-0.0011
 5830,0.00153282,0.00005804,-0.00009559,-0.00052081,0.00011545,0.000201
 65,0.00012505,-0.00010706,-0.00006885,0.00008009,0.00011450,-0.0006079
 6,0.00029372,0.00030889,0.00031929,-0.00004053,-0.00021204,0.00030482,
 0.00179621,0.00079630,0.04881467,0.07697785,0.11366496,0.05740099,-0.1
 9702623,0.00047541,0.00034677,-0.00191457,0.00043311,-0.00004920,0.000
 31096,0.00028727,0.00034527,0.00019587,-0.00021497,-0.00003523,-0.0000
 2389,0.00003136,-0.00000378,-0.00010422,-0.00000782,-0.00037749,0.0001
 6055,0.00001352,0.00007643,-0.00003480,-0.00045862,0.00017597,0.001034
 48,-0.12616973,-0.06419116,0.21227315,-0.08449301,-0.03652888,-0.08348
 406,-0.00144807,-0.00011762,-0.00097831,0.00086782,-0.00044077,0.00036
 440,0.00004328,-0.00021272,0.00016810,0.00004821,-0.00033983,-0.000072
 54,0.00015220,0.00004912,-0.00008726,-0.00003276,0.00024793,0.00012286
 ,-0.00000669,-0.00009948,-0.00000815,0.00109183,0.00038692,0.00071297,
 0.00723737,0.00787270,0.01650713,0.08701086,-0.03600853,-0.08157873,-0
 .08156069,-0.01245007,-0.01398550,-0.02930764,-0.00046564,0.00164692,0
 .00034834,-0.00085140,0.00039950,-0.00063708,0.00033101,0.00002996,0.0
 0032501,-0.00016127,-0.00032112,0.00058275,0.00174635,0.00101406,-0.00
 200725,-0.00092056,-0.00028150,0.00034197,-0.00156113,-0.00702875,0.00
 104109,0.00441500,0.00316113,0.00814607,0.04098415,0.09080351,-0.08363
 706,-0.08192334,-0.23512925,0.00131481,0.00106506,0.00182439,0.0000982
 2,-0.00026173,0.00039308,0.00012713,0.00029651,0.00002026,0.00001579,0
 .00001324,0.00003218,-0.00017242,-0.00016413,-0.00006845,0.00041011,0.
 00001598,0.00000937,-0.00014850,-0.00006284,0.00001617,-0.00063742,0.0
 0076861,0.00170743,-0.00997236,-0.00881315,-0.02013255,0.09228984,0.09
 067834,0.25357616,-0.26875474,0.08977915,-0.03154410,0.00207709,-0.001
 32166,0.00030829,0.00121898,-0.00086580,-0.00070119,0.00007377,-0.0002
 2869,0.00001885,0.00010022,0.00019034,0.00014192,-0.00011766,-0.000077
 68,-0.00006891,-0.00016628,-0.00010697,0.00020292,0.00020235,0.0000182
 1,-0.00002043,0.00049810,0.00046272,0.00030787,-0.01626998,0.00634476,
 -0.00327936,-0.01046021,0.00384815,-0.00055099,0.29028025,0.08854012,-
 0.08222727,0.01247950,0.03240671,-0.01385394,0.00379486,-0.00222511,-0
 .00574253,0.00140181,0.00104977,0.00053711,0.00081623,-0.00055427,-0.0
 0031105,-0.00030965,0.00025815,0.00021340,-0.00009866,0.00035682,-0.00
 009617,0.00000918,-0.00034758,0.00016480,0.00009218,0.00007771,0.00158
 717,0.00071501,-0.00901965,0.00319859,-0.00203983,-0.01157270,0.004380
 40,-0.00073628,-0.09909791,0.09147726,-0.03144022,0.01302275,-0.052022
 24,-0.00201485,0.00029133,-0.00146338,0.00076828,-0.00020033,0.0012232
 2,0.00016744,0.00034730,-0.00003301,-0.00003867,0.00018091,0.00012810,
 -0.00001810,-0.00000547,0.00003078,-0.00023759,-0.00017860,0.00016100,
 0.00015324,0.00005342,-0.00011137,0.00070317,0.00048724,0.00083078,0.0
 2319237,-0.01000872,0.00349926,-0.02550964,0.01099483,-0.00317800,0.03
 475566,-0.01477029,0.05116540,0.00007132,-0.00012350,0.00078284,-0.140
 27657,-0.04388693,0.11521178,-0.01377367,-0.00951840,0.01811686,-0.001
 69426,0.00073399,-0.00041602,0.00048888,0.00042501,0.00085603,-0.00049
 476,-0.00014455,-0.00023835,0.00101553,-0.00025393,0.00023108,0.000740
 74,0.00082268,0.00019023,0.00658042,0.00540030,-0.00764773,0.00125083,
 0.00008436,-0.00025607,-0.00008398,-0.00007551,0.00002362,0.00066559,-
 0.00043748,-0.00027869,0.14598775,-0.02064657,-0.01267871,0.02711783,-
 0.04342202,-0.06567757,0.05563029,0.00817606,0.00257530,-0.00912397,0.
 00098247,-0.00158894,-0.00184485,0.00002146,-0.00101109,-0.00035942,0.
 00061813,0.00033466,-0.00035748,0.00024376,0.00141802,-0.00134542,-0.0
 0027487,-0.00021283,0.00042216,0.00662211,0.00142213,-0.01002023,-0.00
 010576,-0.00692708,0.00015834,-0.00007843,0.00151355,-0.00061955,0.000
 57132,0.00143388,-0.00006116,0.04605286,0.07939401,0.00111962,0.000474
 86,-0.00061940,0.11481387,0.05672797,-0.19722817,-0.00274846,-0.002889
 51,0.00417129,-0.00088941,-0.00130180,-0.00212442,0.00070041,-0.000634
 93,0.00025547,0.00000011,0.00012400,-0.00087572,0.00431633,0.00285097,
 -0.00010347,-0.00262969,-0.00018164,0.00117496,0.01159459,0.00432342,-
 0.01747042,-0.00029303,0.00008145,0.00145570,-0.00003222,0.00047480,0.
 00071955,-0.00018842,0.00017891,-0.00000210,-0.12605541,-0.05802083,0.
 21154653,-0.00404749,-0.00021438,-0.00111859,0.00013733,0.02018068,-0.
 01679140,-0.04687931,0.01704952,-0.01598527,-0.00260937,0.00069008,-0.
 00094445,0.00075979,-0.00041286,-0.00037142,0.00022934,0.00024695,-0.0
 0004637,-0.00016249,0.00124435,-0.00109210,-0.00031266,-0.00038590,0.0
 0032227,-0.00227915,-0.00179247,-0.00079232,-0.00000068,0.00011653,-0.
 00023547,0.00012016,-0.00003079,0.00018716,0.00010568,0.00141780,0.000
 01151,0.00239155,-0.00042265,0.00062653,0.04970078,0.00330689,-0.00026
 472,0.00047615,-0.00272132,-0.01031854,0.00834936,0.01681515,-0.194854
 29,0.13296827,-0.00033104,0.00967544,-0.00999569,0.00099414,0.00197485
 ,0.00177741,-0.00049016,-0.00033187,0.00034060,-0.00047088,0.00004852,
 0.00031354,0.00019141,-0.00006050,-0.00004235,0.00018855,-0.00043708,0
 .00018780,-0.00001963,0.00042352,-0.00019063,-0.00008180,0.00003075,-0
 .00002068,0.00016995,-0.00101216,-0.00017935,-0.00061894,0.00148210,-0
 .00041426,-0.01874818,0.20738415,0.00166485,-0.00092727,0.00017600,-0.
 00049522,-0.00707334,0.00461546,-0.01546866,0.13330154,-0.16315456,0.0
 0052970,0.02406816,-0.01959155,0.00189393,0.00081662,0.00572035,-0.000
 89989,-0.00056601,-0.00002106,-0.00039364,0.00165470,-0.00029824,-0.00
 028708,-0.00069709,0.00012594,-0.00101651,-0.00155284,-0.00097336,0.00
 004553,0.00005607,-0.00000806,-0.00002086,0.00006475,-0.00004280,0.000
 17306,-0.00066308,-0.00009955,-0.00073044,0.00030236,0.00094802,0.0180
 0164,-0.14458783,0.17332726,0.00235384,-0.00246937,0.00061445,-0.01694
 500,-0.01609313,0.00066398,-0.21205438,-0.12926661,-0.01250563,-0.0007
 1019,0.00193002,-0.00088451,0.00017514,0.00069880,0.00099801,-0.000181
 29,0.00006824,-0.00011382,0.00020135,0.00065188,-0.00013235,-0.0001631
 3,-0.00022784,0.00006051,-0.00182531,0.00117266,-0.00231881,0.00017031
 ,0.00081185,-0.00062430,-0.00006564,0.00086861,0.00044173,0.00047649,-
 0.00026015,-0.00009796,-0.00286860,0.00105407,-0.00126286,0.00318985,0
 .00232607,0.00015245,0.22782348,0.00000111,0.00148013,-0.00020923,0.01
 260176,0.01079131,-0.00040576,-0.12919966,-0.14807402,-0.01218388,-0.0
 0655651,-0.00622485,0.00587724,-0.00082486,-0.00202594,-0.00331985,0.0
 0105375,0.00065347,-0.00031208,0.00049127,-0.00054725,0.00026059,-0.00
 025345,0.00020471,0.00001988,0.00066022,0.00024073,0.00008779,-0.00021
 397,0.00033125,0.00018117,-0.00016839,0.00018071,-0.00028088,-0.000073
 00,0.00021802,-0.00006261,0.00203314,-0.00066768,0.00004684,-0.0190085
 1,-0.01328808,-0.00240187,0.13943907,0.15538045,-0.00098521,0.00042236
 ,0.00139698,0.00273922,0.00433878,-0.00250692,-0.01307907,-0.01231760,
 -0.04766480,-0.02082208,-0.01577310,0.00447856,-0.00203049,-0.00313802
 ,-0.00345999,0.00101135,0.00049786,-0.00122566,0.00017936,-0.00016129,
 -0.00005305,-0.00026258,0.00006782,0.00016715,-0.00144854,0.00165691,-
 0.00345281,-0.00015586,-0.00015149,-0.00015317,0.00002509,0.00006168,-
 0.00011611,0.00006462,0.00019150,-0.00007958,0.00127904,-0.00081011,0.
 00008040,0.01780890,0.01338597,0.00251039,0.01619873,0.01175489,0.0474
 7585,0.00019783,-0.00028901,0.00068676,-0.00127040,0.00036536,-0.00001
 099,0.00692792,0.00516068,-0.00838795,-0.14543008,-0.05540194,0.113769
 30,0.00182448,-0.00344405,-0.00119800,0.00118783,0.00004499,0.00060254
 ,-0.00268122,0.00364953,0.00162395,-0.00161058,-0.00185027,-0.00018565
 ,-0.00956848,-0.01284745,0.01746699,0.00010236,0.00021744,-0.00012859,
 0.00005561,0.00023498,-0.00007817,0.00001251,-0.00012929,-0.00008432,0
 .00032208,0.00035573,0.00056278,-0.00009072,-0.00034539,-0.00231317,0.
 00080389,0.00036149,0.00110842,0.14733786,0.00003877,-0.00024074,-0.00
 005014,-0.00042054,-0.00019427,0.00008617,0.00180660,0.00452597,-0.006
 15723,-0.04791078,-0.07443863,0.06520040,-0.02754577,-0.02843266,0.019
 40949,0.00385176,-0.00419330,0.00159515,0.00130508,-0.00456740,-0.0011
 6294,0.00064297,0.00183859,0.00010862,0.00620581,0.00826476,-0.0071054
 9,0.00012524,-0.00019464,-0.00016256,0.00000065,-0.00005792,0.00000227
 ,0.00001538,-0.00005357,-0.00001634,0.00004165,-0.00013423,-0.00008677
 ,0.00070782,-0.00058187,-0.00132465,-0.00013256,0.00094883,0.00012075,
 0.06444025,0.09788761,0.00088147,0.00032591,-0.00029582,-0.00019117,-0
 .00116273,-0.00166433,0.01395055,0.01050719,-0.01689364,0.11651071,0.0
 7230273,-0.19420558,-0.00363199,-0.00124900,0.00773938,-0.00142676,-0.
 00173616,0.00068682,-0.00142821,-0.00023905,0.00016930,-0.00037117,-0.
 00035290,-0.00000553,-0.00237700,-0.00332044,0.00395063,-0.00012811,-0
 .00025730,0.00016957,-0.00009151,0.00004674,0.00004652,-0.00006165,-0.
 00028409,0.00010758,0.00055796,-0.00040885,0.00011399,0.00050079,-0.00
 197700,-0.00338432,-0.00050901,0.00026869,0.00208914,-0.12266254,-0.07
 199304,0.20063739,0.00016772,-0.00001132,0.00038152,0.00011913,0.00074
 154,-0.00104411,-0.00012832,-0.00007341,-0.00069388,-0.00062693,0.0033
 2560,0.00417530,-0.00871971,-0.02184830,0.03240791,-0.04823193,0.01306
 545,-0.02926336,-0.00002804,0.00522571,-0.02009091,-0.00035755,0.00009
 297,0.00306622,-0.00031296,0.00117914,0.00320326,0.00000782,0.00001464
 ,-0.00002067,-0.00000223,0.00014701,0.00000303,0.00000295,-0.00003678,
 -0.00000686,-0.00003762,-0.00000326,-0.00006468,-0.00004209,-0.0003284
 3,-0.00029769,0.00006763,-0.00000985,-0.00005164,-0.00010988,-0.001595
 22,-0.00029194,0.05640866,-0.00016681,-0.00000973,-0.00050694,-0.00011
 985,-0.00104260,0.00114002,0.00032454,0.00005830,0.00003532,0.00003540
 ,0.00104059,0.00218861,-0.00687351,-0.00470255,0.01102600,0.00935548,-
 0.08517570,0.09109933,0.00454062,-0.00982568,0.02412428,0.00008116,0.0
 0049104,-0.00310774,-0.00057131,-0.00226505,-0.00382227,0.00000510,0.0
 0007615,0.00000665,0.00000333,-0.00017609,-0.00001556,0.00000724,0.000
 03000,0.00001299,0.00015088,-0.00009421,-0.00016730,-0.00043892,-0.000
 02290,-0.00037051,-0.00001344,0.00018952,-0.00013680,-0.00029837,-0.00
 063278,-0.00023278,-0.00335443,0.09234959,-0.00014408,0.00000696,-0.00
 003441,-0.00024084,-0.00020708,0.00008715,-0.00017177,0.00070623,-0.00
 045387,0.00002598,-0.00339511,-0.00147140,0.01388495,0.00900638,-0.002
 73623,-0.02279367,0.08461721,-0.24521190,-0.00073934,-0.00012563,0.001
 40320,-0.00023119,0.00018229,0.00058752,-0.00025564,0.00009464,-0.0014
 0896,-0.00002228,-0.00004616,0.00001987,0.00000897,-0.00002543,0.00001
 655,-0.00000563,0.00004193,-0.00000291,-0.00005514,0.00010445,0.000150
 10,-0.00000166,-0.00046355,0.00007322,0.00007925,0.00011184,0.00027660
 ,0.00003003,0.00063599,0.00010582,0.01570111,-0.10061387,0.26919210,0.
 00008019,0.00003503,-0.00001400,-0.00023233,-0.00040894,0.00006918,-0.
 00000826,-0.00097422,0.00021668,-0.00540342,0.00421868,-0.00166787,-0.
 01875664,-0.03262551,-0.01050244,-0.06489617,-0.04609730,-0.04491088,0
 .00870708,0.01250176,0.01528818,-0.00001672,-0.00126357,-0.00201068,-0
 .00134071,0.00236356,-0.00284192,-0.00002880,0.00001088,-0.00000022,-0
 .00001024,0.00001802,0.00003084,0.00002619,-0.00006215,0.00000061,0.00
 012179,-0.00008836,0.00003503,0.00004755,0.00012061,0.00001290,0.00001
 596,-0.00008431,-0.00029205,0.00000824,-0.00069896,-0.00009287,0.00184
 585,-0.00300908,-0.00505628,0.07889542,0.00006642,0.00000863,0.0000471
 5,-0.00009569,0.00038219,-0.00039383,-0.00000133,-0.00064375,0.0001593
 9,-0.00111674,0.00003595,-0.00093519,-0.00843501,-0.00909863,-0.001797
 11,-0.05312747,-0.16962671,-0.12295037,-0.00642239,-0.01668627,-0.0167
 4483,-0.00006294,0.00245209,0.00269294,0.00064487,-0.00218720,0.003302
 10,0.00002359,0.00004345,-0.00000882,0.00000714,0.00000766,-0.00004463
 ,-0.00000024,-0.00002817,0.00001225,0.00003471,-0.00004857,-0.00015826
 ,-0.00003886,0.00006148,-0.00005764,-0.00001462,-0.00007455,-0.0002235
 4,-0.00013101,-0.00030259,-0.00007173,0.00370252,0.00939128,0.00916564
 ,0.06530022,0.18723697,-0.00001872,0.00000743,0.00000113,-0.00006143,-
 0.00003085,-0.00001517,0.00011358,0.00059434,-0.00024509,0.00236107,0.
 00162696,-0.00018196,0.00458212,0.01158916,0.01233951,-0.05155022,-0.1
 2469901,-0.16136283,-0.00137896,0.00260274,0.00079276,0.00092776,-0.00
 001993,0.00030840,0.00013993,0.00045339,-0.00085012,-0.00000643,-0.000
 02935,0.00000888,-0.00000496,-0.00001512,0.00000419,0.00000782,-0.0000
 0888,0.00000090,-0.00004812,0.00008662,0.00005794,0.00012762,-0.000096
 78,0.00008956,-0.00000461,-0.00000139,0.00022423,0.00002081,0.00039805
 ,0.00004623,-0.00705586,-0.02065310,-0.02062895,0.05182672,0.12802549,
 0.16936842,0.00133441,0.00037605,-0.00040684,-0.00213033,0.00040708,-0
 .00178392,-0.00474008,-0.00079950,-0.00125628,-0.00098548,0.01117049,-
 0.02036149,-0.00085713,0.00363731,0.00038978,-0.00348964,-0.00245186,-
 0.00213463,0.00910195,-0.01168022,0.01570942,-0.00043345,0.00165173,-0
 .00216095,-0.08331356,0.06333362,-0.06768950,-0.00037321,-0.00012185,-
 0.00001695,-0.00002454,-0.00006838,0.00025464,0.00002871,-0.00036400,-
 0.00002535,-0.00040702,0.00034395,0.00039492,-0.00025807,0.00004301,-0
 .00055089,-0.00046438,-0.00024930,-0.00128720,0.00198078,-0.00087817,0
 .00086246,-0.00002248,0.00034198,-0.00001278,0.00094501,-0.00033319,0.
 00002187,0.08410851,0.00020132,0.00138623,0.00025714,-0.00421504,0.009
 81033,-0.01136329,-0.00084443,0.00010708,-0.00085231,-0.00385010,-0.00
 320664,0.00509822,-0.00000141,-0.00194743,-0.00017520,-0.00079893,-0.0
 0342650,-0.00320393,0.01042923,-0.01627471,0.01901033,0.00018894,0.002
 72076,-0.00269635,0.06396493,-0.13769820,0.11868911,-0.00016150,0.0001
 6756,0.00022105,0.00008868,0.00026147,0.00010276,0.00036473,0.00008424
 ,0.00007986,-0.00072033,-0.00053273,-0.00142792,-0.00016023,0.00009121
 ,-0.00004205,-0.00054352,0.00028323,0.00021341,-0.00009366,0.00055883,
 -0.00016617,-0.00023358,0.00032083,0.00020328,0.00074366,-0.00092325,0
 .00017024,-0.06435875,0.14821767,0.00093043,0.00237450,0.00272726,-0.0
 0572808,0.01513265,-0.01538600,-0.00166550,-0.00089383,-0.00045945,-0.
 00165637,-0.00659267,0.00603394,0.00148716,-0.00238445,-0.00081235,0.0
 0100712,0.00024721,-0.00047872,-0.00375948,0.00048023,-0.00221838,0.00
 138816,-0.00052920,0.00078217,-0.06877368,0.11697864,-0.18277922,-0.00
 035728,-0.00069578,0.00026918,0.00009015,0.00044683,0.00030133,0.00043
 966,-0.00081036,-0.00015486,-0.00152345,-0.00085017,-0.00225027,-0.000
 20739,0.00016902,-0.00001269,-0.00075526,0.00056862,0.00001280,-0.0008
 2220,0.00050227,0.00058682,-0.00005675,-0.00000633,0.00003652,-0.00009
 091,-0.00001900,0.00004197,0.08005369,-0.12411817,0.19375994\\0.000000
 85,0.00000176,-0.00000042,0.00000425,-0.00000184,0.00000038,-0.0000057
 2,-0.00000335,-0.00000075,-0.00000150,-0.00000509,0.00000119,0.0000013
 4,0.00000631,-0.00000213,-0.00000334,-0.00000424,0.00000553,0.00000142
 ,0.00000827,-0.00000126,0.00000057,-0.00000021,0.00000093,-0.00000191,
 -0.00000507,-0.00000149,0.00000020,0.00000005,0.00000024,0.00000181,0.
 00000006,0.00000028,0.00000071,-0.00000030,0.00000067,-0.00000034,0.00
 000166,0.00000022,0.00000267,0.00000119,0.00000069,0.00000092,0.000000
 53,-0.00000144,0.00000042,0.00000019,0.00000016,0.00000118,-0.00000018
 ,-0.00000196,-0.00000233,-0.00000054,-0.00000106,-0.00000120,0.0000008
 2,0.00000022\\\@


 A politician is a person who can make waves and then
 make you think he's the only one who can save the ship.
 -- Ivern Ball
 Job cpu time:       0 days  0 hours 42 minutes 11.7 seconds.
 File lengths (MBytes):  RWF=    152 Int=      0 D2E=      0 Chk=      8 Scr=      1
 Normal termination of Gaussian 09 at Tue Jan 28 04:33:53 2020.
